<LesHouchesEvents version="3.0">
<header>
<!--
#*********************************************************************
#                                                                    *
#                        MadGraph5_aMC@NLO                           *
#                                                                    *
#                           Going Beyond                             *
#                                                                    *
#                   http://madgraph.hep.uiuc.edu                     *
#                   http://madgraph.phys.ucl.ac.be                   *
#                   http://amcatnlo.cern.ch                          *
#                                                                    *
#                     The MadGraph5_aMC@NLO team                     *
#                                                                    *
#....................................................................*
#                                                                    *
# This file contains all the information necessary to reproduce      *
# the events generated:                                              *
#                                                                    *
# 1. software version                                                *
# 2. proc_card          : code generation info including model       *
# 3. param_card         : model primary parameters in the LH format  *
# 4. run_card           : running parameters (collider and cuts)     *
# 5. pythia_card        : present only if pythia has been run        *
# 6. pgs_card           : present only if pgs has been run           *
# 7. delphes_cards      : present only if delphes has been run       *
#                                                                    *
#                                                                    *
#*********************************************************************
-->
<MGVersion>
#5.2.2.3
</MGVersion>
<MG5ProcCard>
#************************************************************
#*                     MadGraph5_aMC@NLO                    *
#*                                                          *
#*                *                       *                 *
#*                  *        * *        *                   *
#*                    * * * * 5 * * * *                     *
#*                  *        * *        *                   *
#*                *                       *                 *
#*                                                          *
#*                                                          *
#*         VERSION 2.2.3                 2015-02-10         *
#*                                                          *
#*    The MadGraph5_aMC@NLO Development Team - Find us at   *
#*    https://server06.fynu.ucl.ac.be/projects/madgraph     *
#*                                                          *
#************************************************************
#*                                                          *
#*               Command File for MadGraph5_aMC@NLO         *
#*                                                          *
#*     run as ./bin/mg5_aMC  filename                       *
#*                                                          *
#************************************************************
set group_subprocesses Auto
set ignore_six_quark_processes False
set loop_optimized_output True
set gauge unitary
set complex_mass_scheme False
import model sm
define p = g u c d s u~ c~ d~ s~
define j = g u c d s u~ c~ d~ s~
define l+ = e+ mu+
define l- = e- mu-
define vl = ve vm vt
define vl~ = ve~ vm~ vt~
import model Zprime_UFO
generate p p > zph, zph > j j
add process p p > zph, zph > b b~
output Dijet_signal
</MG5ProcCard>
<MGProcCard>
#*********************************************************************
#                        MadGraph/MadEvent                           *
#                   http://madgraph.hep.uiuc.edu                     *
#                                                                    *
#                          proc_card.dat                             *
#*********************************************************************
#                                                                    *
#            This Files is generated by MADGRAPH 5                   *
#                                                                    *
# WARNING: This Files is generated for MADEVENT (compatibility issue)*
#          This files is NOT a valid MG4 proc_card.dat               *
#          Running this in MG4 will NEVER reproduce the result of MG5*
#                                                                    *
#*********************************************************************
#*********************************************************************
# Process(es) requested : mg2 input                                  *
#*********************************************************************
# Begin PROCESS # This is TAG. Do not modify this line
p p > zph , zph > j j           #Process
# Be carefull the coupling are here in MG5 convention
          
end_coup           # End the couplings input

done               # this tells MG there are no more procs
# End PROCESS  # This is TAG. Do not modify this line
#*********************************************************************
# Model information                                                  *
#*********************************************************************
# Begin MODEL  # This is TAG. Do not modify this line
Zprime_UFO
# End   MODEL  # This is TAG. Do not modify this line
#*********************************************************************
# Start multiparticle definitions                                    *
#*********************************************************************
# Begin MULTIPARTICLES # This is TAG. Do not modify this line

# End  MULTIPARTICLES # This is TAG. Do not modify this line
</MGProcCard>
<MGRunCard>
#*********************************************************************
#                       MadGraph5_aMC@NLO                            *
#                                                                    *
#                     run_card.dat MadEvent                          *
#                                                                    *
#  This file is used to set the parameters of the run.               *
#                                                                    *
#  Some notation/conventions:                                        *
#                                                                    *
#   Lines starting with a '# ' are info or comments                  *
#                                                                    *
#   mind the format:   value    = variable     ! comment             *
#*********************************************************************
#
#*******************                                                 
# Running parameters
#*******************                                                 
#                                                                    
#*********************************************************************
# Tag name for the run (one word)                                    *
#*********************************************************************
  tag_1     = run_tag ! name of the run 
#*********************************************************************
# Run to generate the grid pack                                      *
#*********************************************************************
  .false.     = gridpack  !True = setting up the grid pack
#*********************************************************************
# Number of events and rnd seed                                      *
# Warning: Do not generate more than 1M events in a single run       *
# If you want to run Pythia, avoid more than 50k events in a run.    *
#*********************************************************************
  2000 = nevents ! Number of unweighted events requested 
 2307 = iseed   ! rnd seed (0=assigned automatically=default))
#*********************************************************************
# Collider type and energy                                           *
# lpp: 0=No PDF, 1=proton, -1=antiproton, 2=photon from proton,      *
#                                         3=photon from electron     *
#*********************************************************************
        1     = lpp1    ! beam 1 type 
        1     = lpp2    ! beam 2 type
     4000     = ebeam1  ! beam 1 total energy in GeV
     4000     = ebeam2  ! beam 2 total energy in GeV
#*********************************************************************
# Beam polarization from -100 (left-handed) to 100 (right-handed)    *
#*********************************************************************
        0     = polbeam1 ! beam polarization for beam 1
        0     = polbeam2 ! beam polarization for beam 2
#*********************************************************************
# PDF CHOICE: this automatically fixes also alpha_s and its evol.    *
#*********************************************************************
 'nn23lo1'    = pdlabel     ! PDF set                                     
 230000    = lhaid     ! if pdlabel=lhapdf, this is the lhapdf number
#*********************************************************************
# Renormalization and factorization scales                           *
#*********************************************************************
 F        = fixed_ren_scale  ! if .true. use fixed ren scale
 F        = fixed_fac_scale  ! if .true. use fixed fac scale
 91.1880  = scale            ! fixed ren scale
 91.1880  = dsqrt_q2fact1    ! fixed fact scale for pdf1
 91.1880  = dsqrt_q2fact2    ! fixed fact scale for pdf2
 1        = scalefact        ! scale factor for event-by-event scales
#*********************************************************************
# Matching - Warning! ickkw > 1 is still beta
#*********************************************************************
 0        = ickkw            ! 0 no matching, 1 MLM, 2 CKKW matching
 1        = highestmult      ! for ickkw=2, highest mult group
 1        = ktscheme         ! for ickkw=1, 1 Durham kT, 2 Pythia pTE
 1        = alpsfact         ! scale factor for QCD emission vx
 F        = chcluster        ! cluster only according to channel diag
 T        = pdfwgt           ! for ickkw=1, perform pdf reweighting
 5        = asrwgtflavor     ! highest quark flavor for a_s reweight
 T        = clusinfo         ! include clustering tag in output
 3.0      = lhe_version       ! Change the way clustering information pass to shower.        
#*********************************************************************
#**********************************************************
#
#**********************************************************
# Automatic ptj and mjj cuts if xqcut > 0
# (turn off for VBF and single top processes)
#**********************************************************
   T  = auto_ptj_mjj  ! Automatic setting of ptj and mjj
#**********************************************************
#                                                                    
#**********************************
# BW cutoff (M+/-bwcutoff*Gamma)
#**********************************
  15  = bwcutoff      ! (M+/-bwcutoff*Gamma)
#**********************************************************
# Apply pt/E/eta/dr/mij cuts on decay products or not
# (note that etmiss/ptll/ptheavy/ht/sorted cuts always apply)
#**********************************************************
   T  = cut_decays    ! Cut decay products 
#*************************************************************
# Number of helicities to sum per event (0 = all helicities)
# 0 gives more stable result, but longer run time (needed for
# long decay chains e.g.).
# Use >=2 if most helicities contribute, e.g. pure QCD.
#*************************************************************
   0  = nhel          ! Number of helicities used per event
#*******************                                                 
# Standard Cuts
#*******************                                                 
#                                                                    
#*********************************************************************
# Minimum and maximum pt's (for max, -1 means no cut)                *
#*********************************************************************
 20  = ptj       ! minimum pt for the jets 
  0  = ptb       ! minimum pt for the b 
 10  = pta       ! minimum pt for the photons 
 10  = ptl       ! minimum pt for the charged leptons 
  0  = misset    ! minimum missing Et (sum of neutrino's momenta)
  0  = ptheavy   ! minimum pt for one heavy final state
 1.0 = ptonium   ! minimum pt for the quarkonium states
 -1  = ptjmax    ! maximum pt for the jets
 -1  = ptbmax    ! maximum pt for the b
 -1  = ptamax    ! maximum pt for the photons
 -1  = ptlmax    ! maximum pt for the charged leptons
 -1  = missetmax ! maximum missing Et (sum of neutrino's momenta)
#*********************************************************************
# Minimum and maximum E's (in the center of mass frame)              *
#*********************************************************************
  0  = ej     ! minimum E for the jets 
  0  = eb     ! minimum E for the b 
  0  = ea     ! minimum E for the photons 
  0  = el     ! minimum E for the charged leptons 
 -1   = ejmax ! maximum E for the jets
 -1   = ebmax ! maximum E for the b
 -1   = eamax ! maximum E for the photons
 -1   = elmax ! maximum E for the charged leptons
#*********************************************************************
# Maximum and minimum absolute rapidity (for max, -1 means no cut)   *
#*********************************************************************
   5  = etaj    ! max rap for the jets 
  -1  = etab    ! max rap for the b
 2.5  = etaa    ! max rap for the photons 
 2.5  = etal    ! max rap for the charged leptons 
 0.6  = etaonium ! max rap for the quarkonium states
   0  = etajmin ! min rap for the jets
   0  = etabmin ! min rap for the b
   0  = etaamin ! min rap for the photons
   0  = etalmin ! main rap for the charged leptons
#*********************************************************************
# Minimum and maximum DeltaR distance                                *
#*********************************************************************
 0.4 = drjj    ! min distance between jets 
 0   = drbb    ! min distance between b's 
 0.4 = drll    ! min distance between leptons 
 0.4 = draa    ! min distance between gammas 
 0   = drbj    ! min distance between b and jet 
 0.4 = draj    ! min distance between gamma and jet 
 0.4 = drjl    ! min distance between jet and lepton 
 0   = drab    ! min distance between gamma and b 
 0   = drbl    ! min distance between b and lepton 
 0.4 = dral    ! min distance between gamma and lepton 
 -1  = drjjmax ! max distance between jets
 -1  = drbbmax ! max distance between b's
 -1  = drllmax ! max distance between leptons
 -1  = draamax ! max distance between gammas
 -1  = drbjmax ! max distance between b and jet
 -1  = drajmax ! max distance between gamma and jet
 -1  = drjlmax ! max distance between jet and lepton
 -1  = drabmax ! max distance between gamma and b
 -1  = drblmax ! max distance between b and lepton
 -1  = dralmax ! maxdistance between gamma and lepton
#*********************************************************************
# Minimum and maximum invariant mass for pairs                       *
# WARNING: for four lepton final state mmll cut require to have      *
#          different lepton masses for each flavor!                  *           
#*********************************************************************
 0   = mmjj    ! min invariant mass of a jet pair 
 0   = mmbb    ! min invariant mass of a b pair 
 0   = mmaa    ! min invariant mass of gamma gamma pair
 0   = mmll    ! min invariant mass of l+l- (same flavour) lepton pair
 -1  = mmjjmax ! max invariant mass of a jet pair
 -1  = mmbbmax ! max invariant mass of a b pair
 -1  = mmaamax ! max invariant mass of gamma gamma pair
 -1  = mmllmax ! max invariant mass of l+l- (same flavour) lepton pair
#*********************************************************************
# Minimum and maximum invariant mass for all letpons                 *
#*********************************************************************
 0   = mmnl    ! min invariant mass for all letpons (l+- and vl) 
 -1  = mmnlmax ! max invariant mass for all letpons (l+- and vl) 
#*********************************************************************
# Minimum and maximum pt for 4-momenta sum of leptons                *
#*********************************************************************
 0   = ptllmin  ! Minimum pt for 4-momenta sum of leptons(l and vl)
 -1  = ptllmax  ! Maximum pt for 4-momenta sum of leptons(l and vl)
#*********************************************************************
# Inclusive cuts                                                     *
#*********************************************************************
 0  = xptj ! minimum pt for at least one jet  
 0  = xptb ! minimum pt for at least one b 
 0  = xpta ! minimum pt for at least one photon 
 0  = xptl ! minimum pt for at least one charged lepton 
#*********************************************************************
# Control the pt's of the jets sorted by pt                          *
#*********************************************************************
 0   = ptj1min ! minimum pt for the leading jet in pt
 0   = ptj2min ! minimum pt for the second jet in pt
 0   = ptj3min ! minimum pt for the third jet in pt
 0   = ptj4min ! minimum pt for the fourth jet in pt
 -1  = ptj1max ! maximum pt for the leading jet in pt 
 -1  = ptj2max ! maximum pt for the second jet in pt
 -1  = ptj3max ! maximum pt for the third jet in pt
 -1  = ptj4max ! maximum pt for the fourth jet in pt
 0   = cutuse  ! reject event if fails any (0) / all (1) jet pt cuts
#*********************************************************************
# Control the pt's of leptons sorted by pt                           *
#*********************************************************************
 0   = ptl1min ! minimum pt for the leading lepton in pt
 0   = ptl2min ! minimum pt for the second lepton in pt
 0   = ptl3min ! minimum pt for the third lepton in pt
 0   = ptl4min ! minimum pt for the fourth lepton in pt
 -1  = ptl1max ! maximum pt for the leading lepton in pt 
 -1  = ptl2max ! maximum pt for the second lepton in pt
 -1  = ptl3max ! maximum pt for the third lepton in pt
 -1  = ptl4max ! maximum pt for the fourth lepton in pt
#*********************************************************************
# Control the Ht(k)=Sum of k leading jets                            *
#*********************************************************************
 0   = htjmin ! minimum jet HT=Sum(jet pt)
 -1  = htjmax ! maximum jet HT=Sum(jet pt)
 0   = ihtmin  !inclusive Ht for all partons (including b)
 -1  = ihtmax  !inclusive Ht for all partons (including b)
 0   = ht2min ! minimum Ht for the two leading jets
 0   = ht3min ! minimum Ht for the three leading jets
 0   = ht4min ! minimum Ht for the four leading jets
 -1  = ht2max ! maximum Ht for the two leading jets
 -1  = ht3max ! maximum Ht for the three leading jets
 -1  = ht4max ! maximum Ht for the four leading jets
#***********************************************************************
# Photon-isolation cuts, according to hep-ph/9801442                   *
# When ptgmin=0, all the other parameters are ignored                  *
# When ptgmin>0, pta and draj are not going to be used                 *
#***********************************************************************
   0 = ptgmin ! Min photon transverse momentum
 0.4 = R0gamma ! Radius of isolation code
 1.0 = xn ! n parameter of eq.(3.4) in hep-ph/9801442
 1.0 = epsgamma ! epsilon_gamma parameter of eq.(3.4) in hep-ph/9801442
 .true. = isoEM ! isolate photons from EM energy (photons and leptons)
#*********************************************************************
# WBF cuts                                                           *
#*********************************************************************
 0   = xetamin ! minimum rapidity for two jets in the WBF case  
 0   = deltaeta ! minimum rapidity for two jets in the WBF case 
#*********************************************************************
# KT DURHAM CUT                                                      *
#*********************************************************************
 -1    =  ktdurham        
 0.4  =  dparameter 
#*********************************************************************
# maximal pdg code for quark to be considered as a light jet         *
# (otherwise b cuts are applied)                                     *
#*********************************************************************
 4 = maxjetflavor    ! Maximum jet pdg code
#*********************************************************************
# Jet measure cuts                                                   *
#*********************************************************************
 0   = xqcut   ! minimum kt jet measure between partons
#*********************************************************************
#
#*********************************************************************
# Store info for systematics studies                                 *
# WARNING: If use_syst is T, matched Pythia output is                *
#          meaningful ONLY if plotted taking matchscale              *
#          reweighting into account!                                 *
#*********************************************************************
   F  = use_syst      ! Enable systematics studies
#
#**************************************
# Parameter of the systematics study
#  will be used by SysCalc (if installed)
#**************************************                                  
#
0.5 1 2 = sys_scalefact  # factorization/renormalization scale factor
0.5 1 2 = sys_alpsfact  # \alpha_s emission scale factors
30 50 = sys_matchscale # variation of merging scale
# PDF sets and number of members (0 or none for all members).
CT10nlo.LHgrid = sys_pdf # matching scales
# MSTW2008nlo68cl.LHgrid 1  = sys_pdf
</MGRunCard>
<slha>
######################################################################
## PARAM_CARD AUTOMATICALY GENERATED BY MG5 FOLLOWING UFO MODEL   ####
######################################################################
##                                                                  ##
##  Width set on Auto will be computed following the information    ##
##        present in the decay.py files of the model.               ##
##        See  arXiv:1402.1178 for more details.                    ##
##                                                                  ##
######################################################################

###################################
## INFORMATION FOR CKMBLOCK
###################################
Block ckmblock 
    1 2.277360e-01 # cabi 

###################################
## INFORMATION FOR FRBLOCK
###################################
Block frblock 
    1 1.200000e+00 # gz 

###################################
## INFORMATION FOR MASS
###################################
Block mass 
    1 5.040000e-03 # MD 
    2 2.550000e-03 # MU 
    3 1.010000e-01 # MS 
    4 1.270000e+00 # MC 
    5 4.700000e+00 # MB 
    6 1.720000e+02 # MT 
   11 5.110000e-04 # Me 
   13 1.056600e-01 # MM 
   15 1.777000e+00 # MTA 
   23 9.118760e+01 # MZ 
   25 1.200000e+02 # MH 
  10030 2.600000e+03 # MZph 
  10031 3.000000e+02 # MZpl 
## Dependent parameters, given by model restrictions.
## Those values should be edited following the 
## analytical expression. MG5 ignores those values 
## but they are important for interfacing the output of MG5
## to external program such as Pythia.
  12 0.000000 # ve : 0.0 
  14 0.000000 # vm : 0.0 
  16 0.000000 # vt : 0.0 
  21 0.000000 # g : 0.0 
  22 0.000000 # a : 0.0 
  24 79.824360 # w+ : cmath.sqrt(MZ__exp__2/2. + cmath.sqrt(MZ__exp__4/4. - (aEW*cmath.pi*MZ__exp__2)/(Gf*sqrt__2))) 

###################################
## INFORMATION FOR SMINPUTS
###################################
Block sminputs 
    1 1.279000e+02 # aEWM1 
    2 1.166370e-05 # Gf 
    3 1.184000e-01 # aS 

###################################
## INFORMATION FOR YUKAWA
###################################
Block yukawa 
    1 5.040000e-03 # ymdo 
    2 2.550000e-03 # ymup 
    3 1.010000e-01 # yms 
    4 1.270000e+00 # ymc 
    5 4.700000e+00 # ymb 
    6 1.720000e+02 # ymt 
   11 5.110000e-04 # yme 
   13 1.056600e-01 # ymm 
   15 1.777000e+00 # ymtau 

###################################
## INFORMATION FOR DECAY
###################################
DECAY   6 1.508336e+00 # WT 
DECAY  23 2.495200e+00 # WZ 
DECAY  24 2.085000e+00 # WW 
DECAY  25 5.753088e-03 # WH 
## Dependent parameters, given by model restrictions.
## Those values should be edited following the 
## analytical expression. MG5 ignores those values 
## but they are important for interfacing the output of MG5
## to external program such as Pythia.
DECAY  1 0.000000 # d : 0.0 
DECAY  2 0.000000 # u : 0.0 
DECAY  3 0.000000 # s : 0.0 
DECAY  4 0.000000 # c : 0.0 
DECAY  5 0.000000 # b : 0.0 
DECAY  11 0.000000 # e- : 0.0 
DECAY  12 0.000000 # ve : 0.0 
DECAY  13 0.000000 # mu- : 0.0 
DECAY  14 0.000000 # vm : 0.0 
DECAY  15 0.000000 # ta- : 0.0 
DECAY  16 0.000000 # vt : 0.0 
DECAY  21 0.000000 # g : 0.0 
DECAY  22 0.000000 # a : 0.0 
DECAY  10030 0.308725 # zph : (gz__exp__2*MZph*(5 + cmath.sqrt(1 - (4*MT__exp__2)/MZph__exp__2)))/(144.*cmath.pi) 
DECAY  10031 0.132629 # zpl : (5*gz__exp__2*MZpl)/(144.*cmath.pi) 
#===========================================================
# QUANTUM NUMBERS OF NEW STATE(S) (NON SM PDG CODE)
#===========================================================

Block QNUMBERS 10030  # zph 
        1 0  # 3 times electric charge
        2 3  # number of spin states (2S+1)
        3 1  # colour rep (1: singlet, 3: triplet, 8: octet)
        4 0  # Particle/Antiparticle distinction (0=own anti)
Block QNUMBERS 10031  # zpl 
        1 0  # 3 times electric charge
        2 3  # number of spin states (2S+1)
        3 1  # colour rep (1: singlet, 3: triplet, 8: octet)
        4 0  # Particle/Antiparticle distinction (0=own anti)
</slha>
## END BANNER##
<MGGenerationInfo>
#  Number of Events        :         3947
#  Integrated weight (pb)  :  0.68840E-02
#  Max wgt                 :  0.26620E-05
#  Average wgt             :  0.17441E-05
</MGGenerationInfo>
</header>
<init>
     2212     2212  0.40000000000E+04  0.40000000000E+04 0 0  247000  247000 2   1
  0.68898462990E-02  0.15465122750E-04  0.26620240000E-05   0
</init>
<event>
 5   0  0.2555801E-05  0.2839759E+04  0.7818609E-02  0.8291030E-01
        2   -1    0    0  501    0  0.00000000000E+00  0.00000000000E+00  0.12694000736E+04  0.12694000736E+04  0.25500000920E-02 0.  1.
       -2   -1    0    0    0  501  0.00000000000E+00  0.00000000000E+00 -0.15881969773E+04  0.15881969773E+04  0.25500000920E-02 0. -1.
    10030    2    1    2    0    0  0.00000000000E+00  0.00000000000E+00 -0.31879690376E+03  0.28575970509E+04  0.28397586939E+04 0.  0.
        1    1    3    3  502    0  0.42161242108E+03  0.24133645168E+03  0.11831702267E+04  0.12790199772E+04  0.50400001928E-02 0.  1.
       -1    1    3    3    0  502 -0.42161242108E+03 -0.24133645168E+03 -0.15019671305E+04  0.15785770737E+04  0.50400001928E-02 0. -1.
</event>
<event>
 5   0  0.2555801E-05  0.2523754E+04  0.7818609E-02  0.8394572E-01
        2   -1    0    0  501    0  0.00000000000E+00  0.00000000000E+00  0.21815573566E+04  0.21815573566E+04  0.25500000920E-02 0.  1.
       -2   -1    0    0    0  501  0.00000000000E+00  0.00000000000E+00 -0.72990688549E+03  0.72990688550E+03  0.25500000920E-02 0. -1.
    10030    2    1    2    0    0  0.00000000000E+00  0.00000000000E+00  0.14516504711E+04  0.29114642421E+04  0.25237541367E+04 0.  0.
        1    1    3    3  502    0  0.93773232414E+03  0.83667957478E+03  0.59449883048E+03  0.13902530281E+04  0.50400001928E-02 0. -1.
       -1    1    3    3    0  502 -0.93773232414E+03 -0.83667957478E+03  0.85715164060E+03  0.15212112140E+04  0.50400001928E-02 0.  1.
</event>
<event>
 5   0  0.2484618E-05  0.2750130E+04  0.7818609E-02  0.8318921E-01
        2   -1    0    0  501    0  0.00000000000E+00  0.00000000000E+00  0.18206052484E+04  0.18206052484E+04  0.25500000920E-02 0.  1.
       -2   -1    0    0    0  501  0.00000000000E+00  0.00000000000E+00 -0.10385574338E+04  0.10385574338E+04  0.25500000920E-02 0. -1.
    10030    2    1    2    0    0  0.00000000000E+00  0.00000000000E+00  0.78204781466E+03  0.28591626822E+04  0.27501295349E+04 0.  0.
        3    1    3    3  502    0  0.12606028629E+04 -0.12262605238E+03 -0.16559627058E+03  0.12773327137E+04  0.10100000352E+00 0. -1.
       -3    1    3    3    0  502 -0.12606028629E+04  0.12262605238E+03  0.94764408524E+03  0.15818299684E+04  0.10100000352E+00 0.  1.
</event>
<event>
 5   0  0.2555801E-05  0.2480980E+04  0.7818609E-02  0.8409793E-01
       -2   -1    0    0    0  501  0.00000000000E+00  0.00000000000E+00  0.13396011666E+04  0.13396011666E+04  0.25500000920E-02 0.  1.
        2   -1    0    0  501    0  0.00000000000E+00  0.00000000000E+00 -0.11487118351E+04  0.11487118351E+04  0.25500000920E-02 0. -1.
    10030    2    1    2    0    0  0.00000000000E+00  0.00000000000E+00  0.19088933152E+03  0.24883130017E+04  0.24809802211E+04 0.  0.
        1    1    3    3  502    0  0.84674912014E+03 -0.39641597619E+03  0.91313709673E+03  0.13068852498E+04  0.50400001928E-02 0.  1.
       -1    1    3    3    0  502 -0.84674912014E+03  0.39641597619E+03 -0.72224776520E+03  0.11814277519E+04  0.50400001928E-02 0. -1.
</event>
<event>
 5   0  0.2484618E-05  0.2583426E+04  0.7818609E-02  0.8373853E-01
       -2   -1    0    0    0  501  0.00000000000E+00  0.00000000000E+00  0.94413891985E+03  0.94413891985E+03  0.25500000920E-02 0.  1.
        2   -1    0    0  501    0  0.00000000000E+00  0.00000000000E+00 -0.17672421093E+04  0.17672421093E+04  0.25500000920E-02 0. -1.
    10030    2    1    2    0    0  0.00000000000E+00  0.00000000000E+00 -0.82310318945E+03  0.27113810292E+04  0.25834256763E+04 0.  0.
        3    1    3    3  502    0  0.68555359676E+01 -0.11613758343E+04  0.18185605801E+03  0.11755477289E+04  0.10100000352E+00 0.  1.
       -3    1    3    3    0  502 -0.68555359676E+01  0.11613758343E+04 -0.10049592475E+04  0.15358333002E+04  0.10100000352E+00 0. -1.
</event>
<event>
 5   0  0.1025153E-05  0.2769355E+04  0.7818609E-02  0.8312846E-01
        1   -1    0    0  501    0  0.00000000000E+00  0.00000000000E+00  0.16507522437E+04  0.16507522437E+04  0.50400001928E-02 0.  1.
       -1   -1    0    0    0  501  0.00000000000E+00  0.00000000000E+00 -0.11614900326E+04  0.11614900326E+04  0.50400001928E-02 0. -1.
    10030    2    1    2    0    0  0.00000000000E+00  0.00000000000E+00  0.48926221112E+03  0.28122422763E+04  0.27693553599E+04 0.  0.
        1    1    3    3  502    0  0.12483040096E+04  0.45720441119E+03  0.63797115709E+03  0.14745528039E+04  0.50400001928E-02 0.  1.
       -1    1    3    3    0  502 -0.12483040096E+04 -0.45720441119E+03 -0.14870894598E+03  0.13376894725E+04  0.50400001928E-02 0. -1.
</event>
<event>
 5   0  0.1000421E-05  0.2671355E+04  0.7818609E-02  0.8344359E-01
        1   -1    0    0  501    0  0.00000000000E+00  0.00000000000E+00  0.20048783535E+04  0.20048783535E+04  0.50400001928E-02 0. -1.
       -1   -1    0    0    0  501  0.00000000000E+00  0.00000000000E+00 -0.88984679002E+03  0.88984679004E+03  0.50400001928E-02 0.  1.
    10030    2    1    2    0    0  0.00000000000E+00  0.00000000000E+00  0.11150315635E+04  0.28947251435E+04  0.26713551372E+04 0.  0.
        3    1    3    3  502    0 -0.61811175926E+03  0.11834541617E+04  0.59818617607E+03  0.14630285750E+04  0.10100000352E+00 0. -1.
       -3    1    3    3    0  502  0.61811175926E+03 -0.11834541617E+04  0.51684538738E+03  0.14316965685E+04  0.10100000352E+00 0.  1.
</event>
<event>
 5   0  0.2555801E-05  0.2541450E+04  0.7818609E-02  0.8388366E-01
       -2   -1    0    0    0  501  0.00000000000E+00  0.00000000000E+00  0.13855631470E+04  0.13855631470E+04  0.25500000920E-02 0.  1.
        2   -1    0    0  501    0  0.00000000000E+00  0.00000000000E+00 -0.11654044512E+04  0.11654044512E+04  0.25500000920E-02 0. -1.
    10030    2    1    2    0    0  0.00000000000E+00  0.00000000000E+00  0.22015869580E+03  0.25509675982E+04  0.25414495540E+04 0.  0.
        1    1    3    3  502    0  0.11462404155E+03  0.58458167588E+03  0.12367210124E+04  0.13727174761E+04  0.50400001928E-02 0.  1.
       -1    1    3    3    0  502 -0.11462404155E+03 -0.58458167588E+03 -0.10165623166E+04  0.11782501221E+04  0.50400001928E-02 0. -1.
</event>
<event>
 5   0  0.9855352E-06  0.2709770E+04  0.7818609E-02  0.8331842E-01
        1   -1    0    0  501    0  0.00000000000E+00  0.00000000000E+00  0.21428098463E+04  0.21428098463E+04  0.50400001928E-02 0. -1.
       -1   -1    0    0    0  501  0.00000000000E+00  0.00000000000E+00 -0.85668537456E+03  0.85668537458E+03  0.50400001928E-02 0.  1.
    10030    2    1    2    0    0  0.00000000000E+00  0.00000000000E+00  0.12861244717E+04  0.29994952208E+04  0.27097703635E+04 0.  0.
        2    1    3    3  502    0 -0.13357220319E+04  0.77067479414E+02  0.40663439115E+03  0.13983720074E+04  0.25500000920E-02 0.  1.
       -2    1    3    3    0  502  0.13357220319E+04 -0.77067479414E+02  0.87949008054E+03  0.16011232135E+04  0.25500000920E-02 0. -1.
</event>
<event>
 5   0  0.2555801E-05  0.2513693E+04  0.7818609E-02  0.8398123E-01
        2   -1    0    0  501    0  0.00000000000E+00  0.00000000000E+00  0.21370822238E+04  0.21370822238E+04  0.25500000920E-02 0.  1.
       -2   -1    0    0    0  501  0.00000000000E+00  0.00000000000E+00 -0.73916829966E+03  0.73916829966E+03  0.25500000920E-02 0. -1.
    10030    2    1    2    0    0  0.00000000000E+00  0.00000000000E+00  0.13979139241E+04  0.28762505234E+04  0.25136932459E+04 0.  0.
        1    1    3    3  502    0  0.29587970995E+03 -0.11532654385E+04  0.23827359086E+03  0.12142241467E+04  0.50400001928E-02 0. -1.
       -1    1    3    3    0  502 -0.29587970995E+03  0.11532654385E+04  0.11596403333E+04  0.16620263767E+04  0.50400001928E-02 0.  1.
</event>
<event>
 5   0  0.9855352E-06  0.2582495E+04  0.7818609E-02  0.8374172E-01
       -1   -1    0    0    0  501  0.00000000000E+00  0.00000000000E+00  0.83136128750E+03  0.83136128752E+03  0.50400001928E-02 0.  1.
        1   -1    0    0  501    0  0.00000000000E+00  0.00000000000E+00 -0.20055306398E+04  0.20055306398E+04  0.50400001928E-02 0. -1.
    10030    2    1    2    0    0  0.00000000000E+00  0.00000000000E+00 -0.11741693523E+04  0.28368919273E+04  0.25824953319E+04 0.  0.
        2    1    3    3  502    0 -0.77171383845E+03 -0.77817608433E+03 -0.13371495390E+04  0.17288924652E+04  0.25500000920E-02 0. -1.
       -2    1    3    3    0  502  0.77171383845E+03  0.77817608433E+03  0.16298018674E+03  0.11079994621E+04  0.25500000920E-02 0.  1.
</event>
<event>
 5   0  0.2528460E-05  0.2612239E+04  0.7818609E-02  0.8364056E-01
        2   -1    0    0  501    0  0.00000000000E+00  0.00000000000E+00  0.88463713019E+03  0.88463713020E+03  0.25500000920E-02 0.  1.
       -2   -1    0    0    0  501  0.00000000000E+00  0.00000000000E+00 -0.19284159391E+04  0.19284159391E+04  0.25500000920E-02 0. -1.
    10030    2    1    2    0    0  0.00000000000E+00  0.00000000000E+00 -0.10437788089E+04  0.28130530693E+04  0.26122391485E+04 0.  0.
        5    1    3    3  502    0 -0.94703094794E+03  0.65170196851E+03 -0.11895020915E+04  0.16542431465E+04  0.46999998093E+01 0. -1.
       -5    1    3    3    0  502  0.94703094794E+03 -0.65170196851E+03  0.14572328257E+03  0.11588099228E+04  0.46999998093E+01 0.  1.
</event>
<event>
 5   0  0.1034714E-05  0.2228104E+04  0.7818609E-02  0.8506821E-01
        1   -1    0    0  501    0  0.00000000000E+00  0.00000000000E+00  0.13942968580E+04  0.13942968580E+04  0.50400001928E-02 0.  1.
       -1   -1    0    0    0  501  0.00000000000E+00  0.00000000000E+00 -0.89013493628E+03  0.89013493629E+03  0.50400001928E-02 0. -1.
    10030    2    1    2    0    0  0.00000000000E+00  0.00000000000E+00  0.50416192175E+03  0.22844317943E+04  0.22281044364E+04 0.  0.
        5    1    3    3  502    0  0.99969104406E+03 -0.13245382215E+03 -0.23334795308E+03  0.10350843230E+04  0.46999998093E+01 0. -1.
       -5    1    3    3    0  502 -0.99969104406E+03  0.13245382215E+03  0.73750987483E+03  0.12493474713E+04  0.46999998093E+01 0.  1.
</event>
<event>
 5   0  0.1025153E-05  0.2582824E+04  0.7818609E-02  0.8374059E-01
        1   -1    0    0  501    0  0.00000000000E+00  0.00000000000E+00  0.10137981596E+04  0.10137981596E+04  0.50400001928E-02 0. -1.
       -1   -1    0    0    0  501  0.00000000000E+00  0.00000000000E+00 -0.16450464640E+04  0.16450464640E+04  0.50400001928E-02 0.  1.
    10030    2    1    2    0    0  0.00000000000E+00  0.00000000000E+00 -0.63124830445E+03  0.26588446236E+04  0.25828240960E+04 0.  0.
        1    1    3    3  502    0 -0.56176005243E+03 -0.65344853788E+03  0.67454694477E+03  0.10943413219E+04  0.50400001928E-02 0. -1.
       -1    1    3    3    0  502  0.56176005243E+03  0.65344853788E+03 -0.13057952492E+04  0.15645033017E+04  0.50400001928E-02 0.  1.
</event>
<event>
 5   0  0.1000421E-05  0.2600080E+04  0.7818609E-02  0.8368174E-01
       -1   -1    0    0    0  501  0.00000000000E+00  0.00000000000E+00  0.11267216512E+04  0.11267216512E+04  0.50400001928E-02 0.  1.
        1   -1    0    0  501    0  0.00000000000E+00  0.00000000000E+00 -0.15000188300E+04  0.15000188300E+04  0.50400001928E-02 0. -1.
    10030    2    1    2    0    0  0.00000000000E+00  0.00000000000E+00 -0.37329717878E+03  0.26267404813E+04  0.26000797627E+04 0.  0.
        3    1    3    3  502    0 -0.10219254806E+04 -0.73850433633E+03 -0.50673063736E+03  0.13588584517E+04  0.10100000352E+00 0. -1.
       -3    1    3    3    0  502  0.10219254806E+04  0.73850433633E+03  0.13343345858E+03  0.12678820295E+04  0.10100000352E+00 0.  1.
</event>
<event>
 5   0  0.1000421E-05  0.2584102E+04  0.7818609E-02  0.8373622E-01
       -1   -1    0    0    0  501  0.00000000000E+00  0.00000000000E+00  0.95457752516E+03  0.95457752517E+03  0.50400001928E-02 0.  1.
        1   -1    0    0  501    0  0.00000000000E+00  0.00000000000E+00 -0.17488316154E+04  0.17488316154E+04  0.50400001928E-02 0. -1.
    10030    2    1    2    0    0  0.00000000000E+00  0.00000000000E+00 -0.79425409026E+03  0.27034091406E+04  0.25841016663E+04 0.  0.
        3    1    3    3  502    0 -0.77661139333E+03 -0.99955499336E+03 -0.12600975457E+03  0.12720510640E+04  0.10100000352E+00 0.  1.
       -3    1    3    3    0  502  0.77661139333E+03  0.99955499336E+03 -0.66824433569E+03  0.14313580766E+04  0.10100000352E+00 0. -1.
</event>
<event>
 5   0  0.2555801E-05  0.2621810E+04  0.7818609E-02  0.8360830E-01
        2   -1    0    0  501    0  0.00000000000E+00  0.00000000000E+00  0.12133587185E+04  0.12133587185E+04  0.25500000920E-02 0. -1.
       -2   -1    0    0    0  501  0.00000000000E+00  0.00000000000E+00 -0.14162936842E+04  0.14162936842E+04  0.25500000920E-02 0.  1.
    10030    2    1    2    0    0  0.00000000000E+00  0.00000000000E+00 -0.20293496566E+03  0.26296524027E+04  0.26218102828E+04 0.  0.
        1    1    3    3  502    0 -0.86745949671E+03 -0.50744741709E+03  0.74276475470E+03  0.12496752940E+04  0.50400001928E-02 0. -1.
       -1    1    3    3    0  502  0.86745949671E+03  0.50744741709E+03 -0.94569972036E+03  0.13799771087E+04  0.50400001928E-02 0.  1.
</event>
<event>
 5   0  0.1005492E-05  0.2560942E+04  0.7818609E-02  0.8381591E-01
       -1   -1    0    0    0  501  0.00000000000E+00  0.00000000000E+00  0.87834430388E+03  0.87834430389E+03  0.50400001928E-02 0. -1.
        1   -1    0    0  501    0  0.00000000000E+00  0.00000000000E+00 -0.18667008292E+04  0.18667008292E+04  0.50400001928E-02 0.  1.
    10030    2    1    2    0    0  0.00000000000E+00  0.00000000000E+00 -0.98835652528E+03  0.27450451331E+04  0.25609420457E+04 0.  0.
        4    1    3    3  502    0 -0.93322895879E+03  0.55551315273E+03 -0.12212423300E+04  0.16343027852E+04  0.12699999809E+01 0.  1.
       -4    1    3    3    0  502  0.93322895879E+03 -0.55551315273E+03  0.23288580468E+03  0.11107423478E+04  0.12699999809E+01 0. -1.
</event>
<event>
 5   0  0.1025153E-05  0.1941187E+04  0.7818609E-02  0.8634622E-01
       -1   -1    0    0    0  501  0.00000000000E+00  0.00000000000E+00  0.18264797776E+04  0.18264797776E+04  0.50400001928E-02 0.  1.
        1   -1    0    0  501    0  0.00000000000E+00  0.00000000000E+00 -0.51577457378E+03  0.51577457381E+03  0.50400001928E-02 0. -1.
    10030    2    1    2    0    0  0.00000000000E+00  0.00000000000E+00  0.13107052038E+04  0.23422543514E+04  0.19411870892E+04 0.  0.
        1    1    3    3  502    0 -0.72433469872E+02 -0.92188620967E+03  0.29959507930E+03  0.97204835410E+03  0.50400001928E-02 0.  1.
       -1    1    3    3    0  502  0.72433469872E+02  0.92188620967E+03  0.10111101245E+04  0.13702059973E+04  0.50400001928E-02 0. -1.
</event>
<event>
 5   0  0.2662024E-05  0.2566265E+04  0.7818609E-02  0.8379751E-01
       -2   -1    0    0    0  501  0.00000000000E+00  0.00000000000E+00  0.10438037146E+04  0.10438037146E+04  0.25500000920E-02 0.  1.
        2   -1    0    0  501    0  0.00000000000E+00  0.00000000000E+00 -0.15773354074E+04  0.15773354074E+04  0.25500000920E-02 0. -1.
    10030    2    1    2    0    0  0.00000000000E+00  0.00000000000E+00 -0.53353169281E+03  0.26211391220E+04  0.25662646453E+04 0.  0.
        2    1    3    3  502    0  0.77782969033E+03  0.76105687398E+03  0.42762586047E+03  0.11692264405E+04  0.25500000920E-02 0.  1.
       -2    1    3    3    0  502 -0.77782969033E+03 -0.76105687398E+03 -0.96115755329E+03  0.14519126815E+04  0.25500000920E-02 0. -1.
</event>
<event>
 5   0  0.1000421E-05  0.2503509E+04  0.7818609E-02  0.8401737E-01
       -1   -1    0    0    0  501  0.00000000000E+00  0.00000000000E+00  0.14077482672E+04  0.14077482672E+04  0.50400001928E-02 0. -1.
        1   -1    0    0  501    0  0.00000000000E+00  0.00000000000E+00 -0.11130461350E+04  0.11130461350E+04  0.50400001928E-02 0.  1.
    10030    2    1    2    0    0  0.00000000000E+00  0.00000000000E+00  0.29470213222E+03  0.25207944022E+04  0.25035085523E+04 0.  0.
        3    1    3    3  502    0 -0.63380227405E+03 -0.64681130093E+03  0.10175046281E+04  0.13621254935E+04  0.10100000352E+00 0. -1.
       -3    1    3    3    0  502  0.63380227405E+03  0.64681130093E+03 -0.72280249592E+03  0.11586689087E+04  0.10100000352E+00 0.  1.
</event>
<event>
 5   0  0.2484618E-05  0.2597366E+04  0.7818609E-02  0.8369096E-01
       -2   -1    0    0    0  501  0.00000000000E+00  0.00000000000E+00  0.96070478141E+03  0.96070478141E+03  0.25500000920E-02 0. -1.
        2   -1    0    0  501    0  0.00000000000E+00  0.00000000000E+00 -0.17555633263E+04  0.17555633263E+04  0.25500000920E-02 0.  1.
    10030    2    1    2    0    0  0.00000000000E+00  0.00000000000E+00 -0.79485854490E+03  0.27162681077E+04  0.25973664213E+04 0.  0.
        3    1    3    3  502    0  0.11145633197E+04 -0.34931699079E+02 -0.10935642423E+04  0.15618432634E+04  0.10100000352E+00 0.  1.
       -3    1    3    3    0  502 -0.11145633197E+04  0.34931699079E+02  0.29870569735E+03  0.11544248443E+04  0.10100000352E+00 0. -1.
</event>
<event>
 5   0  0.1025153E-05  0.2596798E+04  0.7818609E-02  0.8369290E-01
       -1   -1    0    0    0  501  0.00000000000E+00  0.00000000000E+00  0.15671750112E+04  0.15671750112E+04  0.50400001928E-02 0.  1.
        1   -1    0    0  501    0  0.00000000000E+00  0.00000000000E+00 -0.10757190424E+04  0.10757190424E+04  0.50400001928E-02 0. -1.
    10030    2    1    2    0    0  0.00000000000E+00  0.00000000000E+00  0.49145596882E+03  0.26428940536E+04  0.25967980301E+04 0.  0.
        1    1    3    3  502    0 -0.61920407941E+03 -0.76140054910E+03 -0.61947749317E+03  0.11605588536E+04  0.50400001928E-02 0. -1.
       -1    1    3    3    0  502  0.61920407941E+03  0.76140054910E+03  0.11109334620E+04  0.14823352000E+04  0.50400001928E-02 0.  1.
</event>
<event>
 5   0  0.2662024E-05  0.2327010E+04  0.7818609E-02  0.8467347E-01
        2   -1    0    0  501    0  0.00000000000E+00  0.00000000000E+00  0.16570861043E+04  0.16570861043E+04  0.25500000920E-02 0. -1.
       -2   -1    0    0    0  501  0.00000000000E+00  0.00000000000E+00 -0.81694211557E+03  0.81694211557E+03  0.25500000920E-02 0.  1.
    10030    2    1    2    0    0  0.00000000000E+00  0.00000000000E+00  0.84014398875E+03  0.24740282199E+04  0.23270096070E+04 0.  0.
        2    1    3    3  502    0 -0.57018640090E+03  0.30742123604E+03 -0.60749116185E+03  0.88806861215E+03  0.25500000920E-02 0.  1.
       -2    1    3    3    0  502  0.57018640090E+03 -0.30742123604E+03  0.14476351506E+04  0.15859596077E+04  0.25500000920E-02 0. -1.
</event>
<event>
 5   0  0.9855352E-06  0.2461748E+04  0.7818609E-02  0.8416741E-01
        1   -1    0    0  501    0  0.00000000000E+00  0.00000000000E+00  0.14120138252E+04  0.14120138252E+04  0.50400001928E-02 0. -1.
       -1   -1    0    0    0  501  0.00000000000E+00  0.00000000000E+00 -0.10729716658E+04  0.10729716658E+04  0.50400001928E-02 0.  1.
    10030    2    1    2    0    0  0.00000000000E+00  0.00000000000E+00  0.33904215940E+03  0.24849854911E+04  0.24617480182E+04 0.  0.
        2    1    3    3  502    0 -0.46672587781E+03  0.90799208521E+03  0.86359282921E+03  0.13371893084E+04  0.25500000920E-02 0. -1.
       -2    1    3    3    0  502  0.46672587781E+03 -0.90799208521E+03 -0.52455066981E+03  0.11477961827E+04  0.25500000920E-02 0.  1.
</event>
<event>
 5   0  0.2484618E-05  0.2640189E+04  0.7818609E-02  0.8354677E-01
        2   -1    0    0  501    0  0.00000000000E+00  0.00000000000E+00  0.12315413058E+04  0.12315413058E+04  0.25500000920E-02 0.  1.
       -2   -1    0    0    0  501  0.00000000000E+00  0.00000000000E+00 -0.14150147603E+04  0.14150147603E+04  0.25500000920E-02 0. -1.
    10030    2    1    2    0    0  0.00000000000E+00  0.00000000000E+00 -0.18347345447E+03  0.26465560661E+04  0.26401887248E+04 0.  0.
        3    1    3    3  502    0  0.55098190906E+03 -0.97792700416E+03 -0.78819779394E+03  0.13715604479E+04  0.10100000352E+00 0. -1.
       -3    1    3    3    0  502 -0.55098190906E+03  0.97792700416E+03  0.60472433946E+03  0.12749956182E+04  0.10100000352E+00 0.  1.
</event>
<event>
 5   0  0.2528460E-05  0.2600626E+04  0.7818609E-02  0.8367989E-01
       -2   -1    0    0    0  501  0.00000000000E+00  0.00000000000E+00  0.10601956239E+04  0.10601956239E+04  0.25500000920E-02 0.  1.
        2   -1    0    0  501    0  0.00000000000E+00  0.00000000000E+00 -0.15948131419E+04  0.15948131419E+04  0.25500000920E-02 0. -1.
    10030    2    1    2    0    0  0.00000000000E+00  0.00000000000E+00 -0.53461751794E+03  0.26550087658E+04  0.26006260123E+04 0.  0.
        5    1    3    3  502    0  0.36479252301E+03  0.19163558473E+03 -0.15263843758E+04  0.15810341979E+04  0.46999998093E+01 0. -1.
       -5    1    3    3    0  502 -0.36479252301E+03 -0.19163558473E+03  0.99176685785E+03  0.10739745679E+04  0.46999998093E+01 0.  1.
</event>
<event>
 5   0  0.9855352E-06  0.2621744E+04  0.7818609E-02  0.8360853E-01
        1   -1    0    0  501    0  0.00000000000E+00  0.00000000000E+00  0.10548084763E+04  0.10548084763E+04  0.50400001928E-02 0.  1.
       -1   -1    0    0    0  501  0.00000000000E+00  0.00000000000E+00 -0.16290971806E+04  0.16290971806E+04  0.50400001928E-02 0. -1.
    10030    2    1    2    0    0  0.00000000000E+00  0.00000000000E+00 -0.57428870438E+03  0.26839056569E+04  0.26217440873E+04 0.  0.
        2    1    3    3  502    0  0.57747228028E+03 -0.40412442468E+03 -0.14186077873E+04  0.15840577134E+04  0.25500000920E-02 0. -1.
       -2    1    3    3    0  502 -0.57747228028E+03  0.40412442468E+03  0.84431908293E+03  0.10998479435E+04  0.25500000920E-02 0.  1.
</event>
<event>
 5   0  0.2484618E-05  0.2606960E+04  0.7818609E-02  0.8365841E-01
       -2   -1    0    0    0  501  0.00000000000E+00  0.00000000000E+00  0.92709022454E+03  0.92709022454E+03  0.25500000920E-02 0.  1.
        2   -1    0    0  501    0  0.00000000000E+00  0.00000000000E+00 -0.18326807673E+04  0.18326807673E+04  0.25500000920E-02 0. -1.
    10030    2    1    2    0    0  0.00000000000E+00  0.00000000000E+00 -0.90559054278E+03  0.27597709919E+04  0.26069602406E+04 0.  0.
        3    1    3    3  502    0 -0.62520574512E+03 -0.40682488652E+03  0.67882149603E+03  0.10085570612E+04  0.10100000352E+00 0.  1.
       -3    1    3    3    0  502  0.62520574512E+03  0.40682488652E+03 -0.15844120388E+04  0.17512139307E+04  0.10100000352E+00 0. -1.
</event>
<event>
 5   0  0.2555801E-05  0.2595096E+04  0.7818609E-02  0.8369869E-01
       -2   -1    0    0    0  501  0.00000000000E+00  0.00000000000E+00  0.10581395545E+04  0.10581395545E+04  0.25500000920E-02 0. -1.
        2   -1    0    0  501    0  0.00000000000E+00  0.00000000000E+00 -0.15911239647E+04  0.15911239647E+04  0.25500000920E-02 0.  1.
    10030    2    1    2    0    0  0.00000000000E+00  0.00000000000E+00 -0.53298441015E+03  0.26492635192E+04  0.25950963013E+04 0.  0.
        1    1    3    3  502    0 -0.11193450734E+04  0.64172746244E+03 -0.12620601329E+03  0.12964086883E+04  0.50400001928E-02 0. -1.
       -1    1    3    3    0  502  0.11193450734E+04 -0.64172746244E+03 -0.40677839686E+03  0.13528548309E+04  0.50400001928E-02 0.  1.
</event>
<event>
 5   0  0.1034714E-05  0.2582679E+04  0.7818609E-02  0.8374109E-01
       -1   -1    0    0    0  501  0.00000000000E+00  0.00000000000E+00  0.86608975698E+03  0.86608975700E+03  0.50400001928E-02 0.  1.
        1   -1    0    0  501    0  0.00000000000E+00  0.00000000000E+00 -0.19253863623E+04  0.19253863623E+04  0.50400001928E-02 0. -1.
    10030    2    1    2    0    0  0.00000000000E+00  0.00000000000E+00 -0.10592966053E+04  0.27914761193E+04  0.25826787695E+04 0.  0.
        5    1    3    3  502    0 -0.52956534561E+03  0.18570559934E+03  0.72739346327E+03  0.91872159292E+03  0.46999998093E+01 0.  1.
       -5    1    3    3    0  502  0.52956534561E+03 -0.18570559934E+03 -0.17866900686E+04  0.18727545264E+04  0.46999998093E+01 0. -1.
</event>
<event>
 5   0  0.2484618E-05  0.2575779E+04  0.7818609E-02  0.8376475E-01
        2   -1    0    0  501    0  0.00000000000E+00  0.00000000000E+00  0.20738007837E+04  0.20738007837E+04  0.25500000920E-02 0. -1.
       -2   -1    0    0    0  501  0.00000000000E+00  0.00000000000E+00 -0.79981636327E+03  0.79981636327E+03  0.25500000920E-02 0.  1.
    10030    2    1    2    0    0  0.00000000000E+00  0.00000000000E+00  0.12739844205E+04  0.28736171470E+04  0.25757793391E+04 0.  0.
        3    1    3    3  502    0 -0.57809045921E+03 -0.53812011871E+03  0.17719220492E+04  0.19399663914E+04  0.10100000352E+00 0. -1.
       -3    1    3    3    0  502  0.57809045921E+03  0.53812011871E+03 -0.49793762870E+03  0.93365075562E+03  0.10100000352E+00 0.  1.
</event>
<event>
 5   0  0.1005492E-05  0.2620438E+04  0.7818609E-02  0.8361292E-01
       -1   -1    0    0    0  501  0.00000000000E+00  0.00000000000E+00  0.13754078912E+04  0.13754078912E+04  0.50400001928E-02 0.  1.
        1   -1    0    0  501    0  0.00000000000E+00  0.00000000000E+00 -0.12481196314E+04  0.12481196315E+04  0.50400001928E-02 0. -1.
    10030    2    1    2    0    0  0.00000000000E+00  0.00000000000E+00  0.12728825977E+03  0.26235275227E+04  0.26204378186E+04 0.  0.
        4    1    3    3  502    0  0.61068427615E+02 -0.12691748827E+04  0.38361091062E+03  0.13272879037E+04  0.12699999809E+01 0.  1.
       -4    1    3    3    0  502 -0.61068427615E+02  0.12691748827E+04 -0.25632265085E+03  0.12962396190E+04  0.12699999809E+01 0. -1.
</event>
<event>
 5   0  0.1025153E-05  0.2601001E+04  0.7818609E-02  0.8367861E-01
        1   -1    0    0  501    0  0.00000000000E+00  0.00000000000E+00  0.26186189645E+04  0.26186189645E+04  0.50400001928E-02 0.  1.
       -1   -1    0    0    0  501  0.00000000000E+00  0.00000000000E+00 -0.64587532385E+03  0.64587532387E+03  0.50400001928E-02 0. -1.
    10030    2    1    2    0    0  0.00000000000E+00  0.00000000000E+00  0.19727436407E+04  0.32644942884E+04  0.26010008626E+04 0.  0.
        1    1    3    3  502    0  0.50288198436E+03 -0.39517758773E+03 -0.43484733386E+03  0.77340016798E+03  0.50400001928E-02 0. -1.
       -1    1    3    3    0  502 -0.50288198436E+03  0.39517758773E+03  0.24075909745E+04  0.24910941204E+04  0.50400001928E-02 0.  1.
</event>
<event>
 5   0  0.1000421E-05  0.2611805E+04  0.7818609E-02  0.8364202E-01
        1   -1    0    0  501    0  0.00000000000E+00  0.00000000000E+00  0.12615608772E+04  0.12615608772E+04  0.50400001928E-02 0. -1.
       -1   -1    0    0    0  501  0.00000000000E+00  0.00000000000E+00 -0.13518028994E+04  0.13518028994E+04  0.50400001928E-02 0.  1.
    10030    2    1    2    0    0  0.00000000000E+00  0.00000000000E+00 -0.90242022204E+02  0.26133637765E+04  0.26118052389E+04 0.  0.
        3    1    3    3  502    0 -0.15311166198E+03 -0.12545652462E+04  0.28371548384E+03  0.12953268406E+04  0.10100000352E+00 0.  1.
       -3    1    3    3    0  502  0.15311166198E+03  0.12545652462E+04 -0.37395750604E+03  0.13180369359E+04  0.10100000352E+00 0. -1.
</event>
<event>
 5   0  0.2517854E-05  0.2607043E+04  0.7818609E-02  0.8365813E-01
        2   -1    0    0  501    0  0.00000000000E+00  0.00000000000E+00  0.21129828528E+04  0.21129828528E+04  0.25500000920E-02 0.  1.
       -2   -1    0    0    0  501  0.00000000000E+00  0.00000000000E+00 -0.80415620426E+03  0.80415620426E+03  0.25500000920E-02 0. -1.
    10030    2    1    2    0    0  0.00000000000E+00  0.00000000000E+00  0.13088266485E+04  0.29171390571E+04  0.26070429767E+04 0.  0.
        4    1    3    3  502    0  0.91077052731E+03 -0.74774916444E+03  0.12779530728E+04  0.17383317968E+04  0.12699999809E+01 0.  1.
       -4    1    3    3    0  502 -0.91077052731E+03  0.74774916444E+03  0.30873575685E+02  0.11788072603E+04  0.12699999809E+01 0. -1.
</event>
<event>
 5   0  0.2517854E-05  0.2600904E+04  0.7818609E-02  0.8367894E-01
        2   -1    0    0  501    0  0.00000000000E+00  0.00000000000E+00  0.15983849936E+04  0.15983849936E+04  0.25500000920E-02 0. -1.
       -2   -1    0    0    0  501  0.00000000000E+00  0.00000000000E+00 -0.10580527968E+04  0.10580527968E+04  0.25500000920E-02 0.  1.
    10030    2    1    2    0    0  0.00000000000E+00  0.00000000000E+00  0.54033219675E+03  0.26564377904E+04  0.26009042373E+04 0.  0.
        4    1    3    3  502    0  0.11259348885E+04 -0.64422246420E+03  0.17643437431E+03  0.13091534127E+04  0.12699999809E+01 0. -1.
       -4    1    3    3    0  502 -0.11259348885E+04  0.64422246420E+03  0.36389782244E+03  0.13472843778E+04  0.12699999809E+01 0.  1.
</event>
<event>
 5   0  0.9855352E-06  0.2597900E+04  0.7818609E-02  0.8368915E-01
       -1   -1    0    0    0  501  0.00000000000E+00  0.00000000000E+00  0.10514783800E+04  0.10514783800E+04  0.50400001928E-02 0.  1.
        1   -1    0    0  501    0  0.00000000000E+00  0.00000000000E+00 -0.16046652488E+04  0.16046652488E+04  0.50400001928E-02 0. -1.
    10030    2    1    2    0    0  0.00000000000E+00  0.00000000000E+00 -0.55318686876E+03  0.26561436288E+04  0.25978997797E+04 0.  0.
        2    1    3    3  502    0  0.49002982534E+03  0.45126592203E+03  0.86353078506E+03  0.10906216479E+04  0.25500000920E-02 0.  1.
       -2    1    3    3    0  502 -0.49002982534E+03 -0.45126592203E+03 -0.14167176538E+04  0.15655219809E+04  0.25500000920E-02 0. -1.
</event>
<event>
 5   0  0.1000421E-05  0.2247398E+04  0.7818609E-02  0.8498955E-01
       -1   -1    0    0    0  501  0.00000000000E+00  0.00000000000E+00  0.12341437977E+04  0.12341437977E+04  0.50400001928E-02 0. -1.
        1   -1    0    0  501    0  0.00000000000E+00  0.00000000000E+00 -0.10231378749E+04  0.10231378749E+04  0.50400001928E-02 0.  1.
    10030    2    1    2    0    0  0.00000000000E+00  0.00000000000E+00  0.21100592281E+03  0.22572816726E+04  0.22473978397E+04 0.  0.
        3    1    3    3  502    0  0.62361662636E+03  0.39962242461E+03  0.95426582448E+03  0.12079813959E+04  0.10100000352E+00 0. -1.
       -3    1    3    3    0  502 -0.62361662636E+03 -0.39962242461E+03 -0.74325990167E+03  0.10493002766E+04  0.10100000352E+00 0.  1.
</event>
<event>
 5   0  0.1034714E-05  0.2573514E+04  0.7818609E-02  0.8377254E-01
        1   -1    0    0  501    0  0.00000000000E+00  0.00000000000E+00  0.10779946693E+04  0.10779946694E+04  0.50400001928E-02 0. -1.
       -1   -1    0    0    0  501  0.00000000000E+00  0.00000000000E+00 -0.15359475272E+04  0.15359475272E+04  0.50400001928E-02 0.  1.
    10030    2    1    2    0    0  0.00000000000E+00  0.00000000000E+00 -0.45795285782E+03  0.26139421965E+04  0.25735137433E+04 0.  0.
        5    1    3    3  502    0  0.68309218233E+03  0.39960894990E+03  0.80156524665E+03  0.11264240663E+04  0.46999998093E+01 0. -1.
       -5    1    3    3    0  502 -0.68309218233E+03 -0.39960894990E+03 -0.12595181045E+04  0.14875181303E+04  0.46999998093E+01 0.  1.
</event>
<event>
 5   0  0.2662024E-05  0.2574252E+04  0.7818609E-02  0.8377000E-01
       -2   -1    0    0    0  501  0.00000000000E+00  0.00000000000E+00  0.11883238340E+04  0.11883238340E+04  0.25500000920E-02 0.  1.
        2   -1    0    0  501    0  0.00000000000E+00  0.00000000000E+00 -0.13941424544E+04  0.13941424544E+04  0.25500000920E-02 0. -1.
    10030    2    1    2    0    0  0.00000000000E+00  0.00000000000E+00 -0.20581862036E+03  0.25824662884E+04  0.25742515080E+04 0.  0.
        2    1    3    3  502    0  0.10354696579E+04  0.25560144872E+03  0.61991979728E+03  0.12336247679E+04  0.25500000920E-02 0.  1.
       -2    1    3    3    0  502 -0.10354696579E+04 -0.25560144872E+03 -0.82573841763E+03  0.13488415205E+04  0.25500000920E-02 0. -1.
</event>
<event>
 5   0  0.2484618E-05  0.2628917E+04  0.7818609E-02  0.8358445E-01
        2   -1    0    0  501    0  0.00000000000E+00  0.00000000000E+00  0.17986821343E+04  0.17986821343E+04  0.25500000920E-02 0.  1.
       -2   -1    0    0    0  501  0.00000000000E+00  0.00000000000E+00 -0.96059288400E+03  0.96059288401E+03  0.25500000920E-02 0. -1.
    10030    2    1    2    0    0  0.00000000000E+00  0.00000000000E+00  0.83808925028E+03  0.27592750183E+04  0.26289170841E+04 0.  0.
        3    1    3    3  502    0  0.35948656876E+03 -0.26133795964E+03  0.17174268941E+04  0.17740020488E+04  0.10100000352E+00 0.  1.
       -3    1    3    3    0  502 -0.35948656876E+03  0.26133795964E+03 -0.87933764386E+03  0.98527296948E+03  0.10100000352E+00 0. -1.
</event>
<event>
 5   0  0.2555801E-05  0.2520789E+04  0.7818609E-02  0.8395617E-01
        2   -1    0    0  501    0  0.00000000000E+00  0.00000000000E+00  0.13156638833E+04  0.13156638833E+04  0.25500000920E-02 0. -1.
       -2   -1    0    0    0  501  0.00000000000E+00  0.00000000000E+00 -0.12074464356E+04  0.12074464356E+04  0.25500000920E-02 0.  1.
    10030    2    1    2    0    0  0.00000000000E+00  0.00000000000E+00  0.10821744770E+03  0.25231103190E+04  0.25207885008E+04 0.  0.
        1    1    3    3  502    0 -0.12031194854E+04  0.18478994968E+03  0.38144181353E+03  0.12755946374E+04  0.50400001928E-02 0. -1.
       -1    1    3    3    0  502  0.12031194854E+04 -0.18478994968E+03 -0.27322436583E+03  0.12475156816E+04  0.50400001928E-02 0.  1.
</event>
<event>
 5   0  0.2662024E-05  0.2732284E+04  0.7818609E-02  0.8324605E-01
       -2   -1    0    0    0  501  0.00000000000E+00  0.00000000000E+00  0.98910422997E+03  0.98910422997E+03  0.25500000920E-02 0. -1.
        2   -1    0    0  501    0  0.00000000000E+00  0.00000000000E+00 -0.18869036680E+04  0.18869036680E+04  0.25500000920E-02 0.  1.
    10030    2    1    2    0    0  0.00000000000E+00  0.00000000000E+00 -0.89779943800E+03  0.28760078979E+04  0.27322843187E+04 0.  0.
        2    1    3    3  502    0  0.76506091404E+03 -0.39581709637E+03  0.66723319937E+03  0.10895822678E+04  0.25500000920E-02 0. -1.
       -2    1    3    3    0  502 -0.76506091404E+03  0.39581709637E+03 -0.15650326374E+04  0.17864256301E+04  0.25500000920E-02 0.  1.
</event>
<event>
 5   0  0.2484618E-05  0.2494056E+04  0.7818609E-02  0.8405106E-01
       -2   -1    0    0    0  501  0.00000000000E+00  0.00000000000E+00  0.76138196541E+03  0.76138196542E+03  0.25500000920E-02 0. -1.
        2   -1    0    0  501    0  0.00000000000E+00  0.00000000000E+00 -0.20424418708E+04  0.20424418709E+04  0.25500000920E-02 0.  1.
    10030    2    1    2    0    0  0.00000000000E+00  0.00000000000E+00 -0.12810599054E+04  0.28038238363E+04  0.24940556577E+04 0.  0.
        3    1    3    3  502    0 -0.43756376479E+03 -0.60431545928E+03  0.48278370351E+03  0.88867279533E+03  0.10100000352E+00 0. -1.
       -3    1    3    3    0  502  0.43756376479E+03  0.60431545928E+03 -0.17638436089E+04  0.19151510409E+04  0.10100000352E+00 0.  1.
</event>
<event>
 5   0  0.1000421E-05  0.2575708E+04  0.7818609E-02  0.8376500E-01
        1   -1    0    0  501    0  0.00000000000E+00  0.00000000000E+00  0.13733304054E+04  0.13733304054E+04  0.50400001928E-02 0. -1.
       -1   -1    0    0    0  501  0.00000000000E+00  0.00000000000E+00 -0.12076974553E+04  0.12076974553E+04  0.50400001928E-02 0.  1.
    10030    2    1    2    0    0  0.00000000000E+00  0.00000000000E+00  0.16563295014E+03  0.25810278607E+04  0.25757077752E+04 0.  0.
        3    1    3    3  502    0  0.73608310418E+02  0.12270647712E+04  0.46761678400E+03  0.13152078174E+04  0.10100000352E+00 0. -1.
       -3    1    3    3    0  502 -0.73608310418E+02 -0.12270647712E+04 -0.30198383386E+03  0.12658200433E+04  0.10100000352E+00 0.  1.
</event>
<event>
 5   0  0.2528460E-05  0.2591552E+04  0.7818609E-02  0.8371076E-01
       -2   -1    0    0    0  501  0.00000000000E+00  0.00000000000E+00  0.19012678708E+04  0.19012678708E+04  0.25500000920E-02 0. -1.
        2   -1    0    0  501    0  0.00000000000E+00  0.00000000000E+00 -0.88311374264E+03  0.88311374264E+03  0.25500000920E-02 0.  1.
    10030    2    1    2    0    0  0.00000000000E+00  0.00000000000E+00  0.10181541281E+04  0.27843816134E+04  0.25915522647E+04 0.  0.
        5    1    3    3  502    0 -0.24335573111E+03 -0.56620344795E+03  0.17337149299E+04  0.18399994305E+04  0.46999998093E+01 0. -1.
       -5    1    3    3    0  502  0.24335573111E+03  0.56620344795E+03 -0.71556080174E+03  0.94438218287E+03  0.46999998093E+01 0.  1.
</event>
<event>
 5   0  0.1034714E-05  0.2608970E+04  0.7818609E-02  0.8365161E-01
        1   -1    0    0  501    0  0.00000000000E+00  0.00000000000E+00  0.19054737766E+04  0.19054737766E+04  0.50400001928E-02 0. -1.
       -1   -1    0    0    0  501  0.00000000000E+00  0.00000000000E+00 -0.89304852745E+03  0.89304852746E+03  0.50400001928E-02 0.  1.
    10030    2    1    2    0    0  0.00000000000E+00  0.00000000000E+00  0.10124252491E+04  0.27985223041E+04  0.26089695669E+04 0.  0.
        5    1    3    3  502    0 -0.10297662050E+04 -0.37802353112E+03  0.12634322537E+04  0.16732015350E+04  0.46999998093E+01 0. -1.
       -5    1    3    3    0  502  0.10297662050E+04  0.37802353112E+03 -0.25100700454E+03  0.11253207691E+04  0.46999998093E+01 0.  1.
</event>
<event>
 5   0  0.1000421E-05  0.2607794E+04  0.7818609E-02  0.8365559E-01
        1   -1    0    0  501    0  0.00000000000E+00  0.00000000000E+00  0.14471111503E+04  0.14471111503E+04  0.50400001928E-02 0.  1.
       -1   -1    0    0    0  501  0.00000000000E+00  0.00000000000E+00 -0.11748557282E+04  0.11748557283E+04  0.50400001928E-02 0. -1.
    10030    2    1    2    0    0  0.00000000000E+00  0.00000000000E+00  0.27225542204E+03  0.26219668786E+04  0.26077935688E+04 0.  0.
        3    1    3    3  502    0 -0.11229163493E+03  0.11744977295E+04  0.69420525123E+03  0.13689321638E+04  0.10100000352E+00 0.  1.
       -3    1    3    3    0  502  0.11229163493E+03 -0.11744977295E+04 -0.42194982919E+03  0.12530347148E+04  0.10100000352E+00 0. -1.
</event>
<event>
 5   0  0.2484618E-05  0.2565834E+04  0.7818609E-02  0.8379900E-01
       -2   -1    0    0    0  501  0.00000000000E+00  0.00000000000E+00  0.65742228427E+03  0.65742228428E+03  0.25500000920E-02 0.  1.
        2   -1    0    0  501    0  0.00000000000E+00  0.00000000000E+00 -0.25035284517E+04  0.25035284517E+04  0.25500000920E-02 0. -1.
    10030    2    1    2    0    0  0.00000000000E+00  0.00000000000E+00 -0.18461061674E+04  0.31609507360E+04  0.25658335047E+04 0.  0.
        3    1    3    3  502    0 -0.60469875395E+03  0.35889265680E+03  0.39886461231E+03  0.80842903912E+03  0.10100000352E+00 0.  1.
       -3    1    3    3    0  502  0.60469875395E+03 -0.35889265680E+03 -0.22449707797E+04  0.23525216969E+04  0.10100000352E+00 0. -1.
</event>
<event>
 5   0  0.1025153E-05  0.2642056E+04  0.7818609E-02  0.8354054E-01
       -1   -1    0    0    0  501  0.00000000000E+00  0.00000000000E+00  0.76670179182E+03  0.76670179184E+03  0.50400001928E-02 0. -1.
        1   -1    0    0  501    0  0.00000000000E+00  0.00000000000E+00 -0.22761328392E+04  0.22761328392E+04  0.50400001928E-02 0.  1.
    10030    2    1    2    0    0  0.00000000000E+00  0.00000000000E+00 -0.15094310473E+04  0.30428346310E+04  0.26420561131E+04 0.  0.
        1    1    3    3  502    0 -0.12075939570E+03  0.90569368466E+01 -0.22697268314E+04  0.22729550697E+04  0.50400001928E-02 0.  1.
       -1    1    3    3    0  502  0.12075939570E+03 -0.90569368466E+01  0.76029578401E+03  0.76987956134E+03  0.50400001928E-02 0. -1.
</event>
<event>
 5   0  0.1000421E-05  0.2571867E+04  0.7818609E-02  0.8377820E-01
       -1   -1    0    0    0  501  0.00000000000E+00  0.00000000000E+00  0.81005558666E+03  0.81005558668E+03  0.50400001928E-02 0.  1.
        1   -1    0    0  501    0  0.00000000000E+00  0.00000000000E+00 -0.20413727213E+04  0.20413727213E+04  0.50400001928E-02 0. -1.
    10030    2    1    2    0    0  0.00000000000E+00  0.00000000000E+00 -0.12313171346E+04  0.28514283080E+04  0.25718673196E+04 0.  0.
        3    1    3    3  502    0 -0.29970994031E+03  0.34250935479E+03 -0.19490913047E+04  0.20015233275E+04  0.10100000352E+00 0. -1.
       -3    1    3    3    0  502  0.29970994031E+03 -0.34250935479E+03  0.71777417004E+03  0.84990498047E+03  0.10100000352E+00 0.  1.
</event>
<event>
 5   0  0.9855352E-06  0.2584682E+04  0.7818609E-02  0.8373423E-01
        1   -1    0    0  501    0  0.00000000000E+00  0.00000000000E+00  0.17532383281E+04  0.17532383281E+04  0.50400001928E-02 0. -1.
       -1   -1    0    0    0  501  0.00000000000E+00  0.00000000000E+00 -0.95260562240E+03  0.95260562241E+03  0.50400001928E-02 0.  1.
    10030    2    1    2    0    0  0.00000000000E+00  0.00000000000E+00  0.80063270573E+03  0.27058439506E+04  0.25846815578E+04 0.  0.
        2    1    3    3  502    0  0.14186791076E+02  0.56734012904E+03  0.16158072182E+04  0.17125738096E+04  0.25500000920E-02 0. -1.
       -2    1    3    3    0  502 -0.14186791076E+02 -0.56734012904E+03 -0.81517451247E+03  0.99327014092E+03  0.25500000920E-02 0.  1.
</event>
<event>
 5   0  0.1034714E-05  0.2609509E+04  0.7818609E-02  0.8364978E-01
        1   -1    0    0  501    0  0.00000000000E+00  0.00000000000E+00  0.12675678329E+04  0.12675678329E+04  0.50400001928E-02 0.  1.
       -1   -1    0    0    0  501  0.00000000000E+00  0.00000000000E+00 -0.13430322663E+04  0.13430322663E+04  0.50400001928E-02 0. -1.
    10030    2    1    2    0    0  0.00000000000E+00  0.00000000000E+00 -0.75464433428E+02  0.26106000993E+04  0.26095091488E+04 0.  0.
        5    1    3    3  502    0 -0.89666148222E+03  0.37835273986E+03  0.83165917329E+03  0.12801686139E+04  0.46999998093E+01 0.  1.
       -5    1    3    3    0  502  0.89666148222E+03 -0.37835273986E+03 -0.90712360672E+03  0.13304314854E+04  0.46999998093E+01 0. -1.
</event>
<event>
 5   0  0.2517854E-05  0.2624006E+04  0.7818609E-02  0.8360092E-01
        2   -1    0    0  501    0  0.00000000000E+00  0.00000000000E+00  0.16327334327E+04  0.16327334327E+04  0.25500000920E-02 0. -1.
       -2   -1    0    0    0  501  0.00000000000E+00  0.00000000000E+00 -0.10542762459E+04  0.10542762459E+04  0.25500000920E-02 0.  1.
    10030    2    1    2    0    0  0.00000000000E+00  0.00000000000E+00  0.57845718675E+03  0.26870096786E+04  0.26240061540E+04 0.  0.
        4    1    3    3  502    0 -0.34900088118E+03 -0.27032674869E+03 -0.97594128850E+03  0.10711401298E+04  0.12699999809E+01 0.  1.
       -4    1    3    3    0  502  0.34900088118E+03  0.27032674869E+03  0.15543984752E+04  0.16158695488E+04  0.12699999809E+01 0. -1.
</event>
<event>
 5   0  0.2555801E-05  0.2613422E+04  0.7818609E-02  0.8363656E-01
        2   -1    0    0  501    0  0.00000000000E+00  0.00000000000E+00  0.11328348395E+04  0.11328348395E+04  0.25500000920E-02 0. -1.
       -2   -1    0    0    0  501  0.00000000000E+00  0.00000000000E+00 -0.15072753135E+04  0.15072753135E+04  0.25500000920E-02 0.  1.
    10030    2    1    2    0    0  0.00000000000E+00  0.00000000000E+00 -0.37444047401E+03  0.26401101530E+04  0.26134222681E+04 0.  0.
        1    1    3    3  502    0 -0.12619760720E+03 -0.12812456795E+04 -0.41306000629E+03  0.13520853879E+04  0.50400001928E-02 0. -1.
       -1    1    3    3    0  502  0.12619760720E+03  0.12812456795E+04  0.38619532280E+02  0.12880247651E+04  0.50400001928E-02 0.  1.
</event>
<event>
 5   0  0.1005492E-05  0.2554884E+04  0.7818609E-02  0.8383690E-01
       -1   -1    0    0    0  501  0.00000000000E+00  0.00000000000E+00  0.13908775452E+04  0.13908775452E+04  0.50400001928E-02 0.  1.
        1   -1    0    0  501    0  0.00000000000E+00  0.00000000000E+00 -0.11732578187E+04  0.11732578187E+04  0.50400001928E-02 0. -1.
    10030    2    1    2    0    0  0.00000000000E+00  0.00000000000E+00  0.21761972650E+03  0.25641353638E+04  0.25548839149E+04 0.  0.
        4    1    3    3  502    0  0.93352034725E+03  0.84163345068E+03  0.33777900870E+03  0.13015004324E+04  0.12699999809E+01 0.  1.
       -4    1    3    3    0  502 -0.93352034725E+03 -0.84163345068E+03 -0.12015928220E+03  0.12626349314E+04  0.12699999809E+01 0. -1.
</event>
<event>
 5   0  0.2662024E-05  0.2602722E+04  0.7818609E-02  0.8367277E-01
        2   -1    0    0  501    0  0.00000000000E+00  0.00000000000E+00  0.17980446850E+04  0.17980446850E+04  0.25500000920E-02 0.  1.
       -2   -1    0    0    0  501  0.00000000000E+00  0.00000000000E+00 -0.94187917856E+03  0.94187917857E+03  0.25500000920E-02 0. -1.
    10030    2    1    2    0    0  0.00000000000E+00  0.00000000000E+00  0.85616550648E+03  0.27399238636E+04  0.26027223063E+04 0.  0.
        2    1    3    3  502    0 -0.10523862719E+04 -0.14328913500E+03  0.12197159063E+04  0.16173297541E+04  0.25500000920E-02 0.  1.
       -2    1    3    3    0  502  0.10523862719E+04  0.14328913500E+03 -0.36355039982E+03  0.11225941095E+04  0.25500000920E-02 0. -1.
</event>
<event>
 5   0  0.1034714E-05  0.2518064E+04  0.7818609E-02  0.8396578E-01
        1   -1    0    0  501    0  0.00000000000E+00  0.00000000000E+00  0.12837934097E+04  0.12837934097E+04  0.50400001928E-02 0.  1.
       -1   -1    0    0    0  501  0.00000000000E+00  0.00000000000E+00 -0.12347484127E+04  0.12347484127E+04  0.50400001928E-02 0. -1.
    10030    2    1    2    0    0  0.00000000000E+00  0.00000000000E+00  0.49044997021E+02  0.25185418224E+04  0.25180642366E+04 0.  0.
        5    1    3    3  502    0 -0.13385146158E+03 -0.74986487535E+03  0.10271727229E+04  0.12787960892E+04  0.46999998093E+01 0.  1.
       -5    1    3    3    0  502  0.13385146158E+03  0.74986487535E+03 -0.97812772585E+03  0.12397457333E+04  0.46999998093E+01 0. -1.
</event>
<event>
 5   0  0.2662024E-05  0.2776779E+04  0.7818609E-02  0.8310514E-01
       -2   -1    0    0    0  501  0.00000000000E+00  0.00000000000E+00  0.13606441935E+04  0.13606441935E+04  0.25500000920E-02 0. -1.
        2   -1    0    0  501    0  0.00000000000E+00  0.00000000000E+00 -0.14167007477E+04  0.14167007477E+04  0.25500000920E-02 0.  1.
    10030    2    1    2    0    0  0.00000000000E+00  0.00000000000E+00 -0.56056554132E+02  0.27773449412E+04  0.27767791747E+04 0.  0.
        2    1    3    3  502    0  0.43000594573E+03 -0.20140533907E+03 -0.13329612711E+04  0.14150105916E+04  0.25500000920E-02 0.  1.
       -2    1    3    3    0  502 -0.43000594573E+03  0.20140533907E+03  0.12769047170E+04  0.13623343497E+04  0.25500000920E-02 0. -1.
</event>
<event>
 5   0  0.1005492E-05  0.2593878E+04  0.7818609E-02  0.8370284E-01
       -1   -1    0    0    0  501  0.00000000000E+00  0.00000000000E+00  0.77486591893E+03  0.77486591895E+03  0.50400001928E-02 0. -1.
        1   -1    0    0  501    0  0.00000000000E+00  0.00000000000E+00 -0.21707644034E+04  0.21707644034E+04  0.50400001928E-02 0.  1.
    10030    2    1    2    0    0  0.00000000000E+00  0.00000000000E+00 -0.13958984845E+04  0.29456303224E+04  0.25938784507E+04 0.  0.
        4    1    3    3  502    0 -0.59283230000E+03 -0.18740094392E+03  0.59459095826E+03  0.86029603640E+03  0.12699999809E+01 0. -1.
       -4    1    3    3    0  502  0.59283230000E+03  0.18740094392E+03 -0.19904894427E+04  0.20853342860E+04  0.12699999809E+01 0.  1.
</event>
<event>
 5   0  0.1005492E-05  0.2585453E+04  0.7818609E-02  0.8373159E-01
       -1   -1    0    0    0  501  0.00000000000E+00  0.00000000000E+00  0.17202542607E+04  0.17202542607E+04  0.50400001928E-02 0. -1.
        1   -1    0    0  501    0  0.00000000000E+00  0.00000000000E+00 -0.97145026702E+03  0.97145026703E+03  0.50400001928E-02 0.  1.
    10030    2    1    2    0    0  0.00000000000E+00  0.00000000000E+00  0.74880399367E+03  0.26917045277E+04  0.25854527348E+04 0.  0.
        4    1    3    3  502    0  0.72547109803E+03 -0.10454034136E+04  0.61172447787E+03  0.14118728912E+04  0.12699999809E+01 0.  1.
       -4    1    3    3    0  502 -0.72547109803E+03  0.10454034136E+04  0.13707951581E+03  0.12798316365E+04  0.12699999809E+01 0. -1.
</event>
<event>
 5   0  0.9855352E-06  0.2513419E+04  0.7818609E-02  0.8398221E-01
        1   -1    0    0  501    0  0.00000000000E+00  0.00000000000E+00  0.14728295143E+04  0.14728295143E+04  0.50400001928E-02 0.  1.
       -1   -1    0    0    0  501  0.00000000000E+00  0.00000000000E+00 -0.10723021469E+04  0.10723021469E+04  0.50400001928E-02 0. -1.
    10030    2    1    2    0    0  0.00000000000E+00  0.00000000000E+00  0.40052736744E+03  0.25451316612E+04  0.25134185885E+04 0.  0.
        2    1    3    3  502    0 -0.31669448619E+02  0.36807998245E+03 -0.10160718028E+04  0.10811511161E+04  0.25500000920E-02 0. -1.
       -2    1    3    3    0  502  0.31669448619E+02 -0.36807998245E+03  0.14165991702E+04  0.14639805451E+04  0.25500000920E-02 0.  1.
</event>
<event>
 5   0  0.2517854E-05  0.2526790E+04  0.7818609E-02  0.8393503E-01
        2   -1    0    0  501    0  0.00000000000E+00  0.00000000000E+00  0.16139674590E+04  0.16139674590E+04  0.25500000920E-02 0. -1.
       -2   -1    0    0    0  501  0.00000000000E+00  0.00000000000E+00 -0.98897115277E+03  0.98897115277E+03  0.25500000920E-02 0.  1.
    10030    2    1    2    0    0  0.00000000000E+00  0.00000000000E+00  0.62499630626E+03  0.26029386118E+04  0.25267902632E+04 0.  0.
        4    1    3    3  502    0 -0.90256299379E+03 -0.35251842817E+03  0.11476563839E+04  0.15020006619E+04  0.12699999809E+01 0. -1.
       -4    1    3    3    0  502  0.90256299379E+03  0.35251842817E+03 -0.52266007760E+03  0.11009379499E+04  0.12699999809E+01 0.  1.
</event>
<event>
 5   0  0.1034714E-05  0.2179514E+04  0.7818609E-02  0.8527003E-01
       -1   -1    0    0    0  501  0.00000000000E+00  0.00000000000E+00  0.84080627002E+03  0.84080627004E+03  0.50400001928E-02 0. -1.
        1   -1    0    0  501    0  0.00000000000E+00  0.00000000000E+00 -0.14124189094E+04  0.14124189094E+04  0.50400001928E-02 0.  1.
    10030    2    1    2    0    0  0.00000000000E+00  0.00000000000E+00 -0.57161263935E+03  0.22532251794E+04  0.21795143266E+04 0.  0.
        5    1    3    3  502    0 -0.12805646538E+03 -0.73640294240E+02 -0.14020097142E+04  0.14097782379E+04  0.46999998093E+01 0.  1.
       -5    1    3    3    0  502  0.12805646538E+03  0.73640294240E+02  0.83039707486E+03  0.84344694154E+03  0.46999998093E+01 0. -1.
</event>
<event>
 5   0  0.2528460E-05  0.2733586E+04  0.7818609E-02  0.8324189E-01
       -2   -1    0    0    0  501  0.00000000000E+00  0.00000000000E+00  0.67743418906E+03  0.67743418907E+03  0.25500000920E-02 0. -1.
        2   -1    0    0  501    0  0.00000000000E+00  0.00000000000E+00 -0.27576447594E+04  0.27576447594E+04  0.25500000920E-02 0.  1.
    10030    2    1    2    0    0  0.00000000000E+00  0.00000000000E+00 -0.20802105703E+04  0.34350789484E+04  0.27335858072E+04 0.  0.
        5    1    3    3  502    0  0.66329329887E+03 -0.59932752455E+03  0.25911430180E+03  0.93075979361E+03  0.46999998093E+01 0. -1.
       -5    1    3    3    0  502 -0.66329329887E+03  0.59932752455E+03 -0.23393248721E+04  0.25043191548E+04  0.46999998093E+01 0.  1.
</event>
<event>
 5   0  0.2528460E-05  0.2610833E+04  0.7818609E-02  0.8364531E-01
        2   -1    0    0  501    0  0.00000000000E+00  0.00000000000E+00  0.18041522626E+04  0.18041522626E+04  0.25500000920E-02 0. -1.
       -2   -1    0    0    0  501  0.00000000000E+00  0.00000000000E+00 -0.94454986114E+03  0.94454986115E+03  0.25500000920E-02 0.  1.
    10030    2    1    2    0    0  0.00000000000E+00  0.00000000000E+00  0.85960240149E+03  0.27487021238E+04  0.26108326405E+04 0.  0.
        5    1    3    3  502    0  0.23943556785E+03  0.22171803606E+03 -0.90090708394E+03  0.95819827935E+03  0.46999998093E+01 0.  1.
       -5    1    3    3    0  502 -0.23943556785E+03 -0.22171803606E+03  0.17605094854E+04  0.17905038444E+04  0.46999998093E+01 0. -1.
</event>
<event>
 5   0  0.2517854E-05  0.2633521E+04  0.7818609E-02  0.8356903E-01
       -2   -1    0    0    0  501  0.00000000000E+00  0.00000000000E+00  0.19775603549E+04  0.19775603549E+04  0.25500000920E-02 0.  1.
        2   -1    0    0  501    0  0.00000000000E+00  0.00000000000E+00 -0.87676638875E+03  0.87676638876E+03  0.25500000920E-02 0. -1.
    10030    2    1    2    0    0  0.00000000000E+00  0.00000000000E+00  0.11007939661E+04  0.28543267436E+04  0.26335211796E+04 0.  0.
        4    1    3    3  502    0  0.62688281943E+03 -0.18063815036E+03 -0.68928803067E+03  0.94906891888E+03  0.12699999809E+01 0. -1.
       -4    1    3    3    0  502 -0.62688281943E+03  0.18063815036E+03  0.17900819968E+04  0.19052578247E+04  0.12699999809E+01 0.  1.
</event>
<event>
 5   0  0.1005492E-05  0.2632594E+04  0.7818609E-02  0.8357213E-01
       -1   -1    0    0    0  501  0.00000000000E+00  0.00000000000E+00  0.81392881724E+03  0.81392881725E+03  0.50400001928E-02 0.  1.
        1   -1    0    0  501    0  0.00000000000E+00  0.00000000000E+00 -0.21287335205E+04  0.21287335205E+04  0.50400001928E-02 0. -1.
    10030    2    1    2    0    0  0.00000000000E+00  0.00000000000E+00 -0.13148047032E+04  0.29426623377E+04  0.26325938210E+04 0.  0.
        4    1    3    3  502    0  0.12415845466E+03  0.66052447079E+03  0.60768041734E+03  0.90608222634E+03  0.12699999809E+01 0.  1.
       -4    1    3    3    0  502 -0.12415845466E+03 -0.66052447079E+03 -0.19224851206E+04  0.20365801114E+04  0.12699999809E+01 0. -1.
</event>
<event>
 5   0  0.9855352E-06  0.2580717E+04  0.7818609E-02  0.8374781E-01
        1   -1    0    0  501    0  0.00000000000E+00  0.00000000000E+00  0.11690707421E+04  0.11690707421E+04  0.50400001928E-02 0.  1.
       -1   -1    0    0    0  501  0.00000000000E+00  0.00000000000E+00 -0.14242292519E+04  0.14242292519E+04  0.50400001928E-02 0. -1.
    10030    2    1    2    0    0  0.00000000000E+00  0.00000000000E+00 -0.25515850977E+03  0.25932999940E+04  0.25807167597E+04 0.  0.
        2    1    3    3  502    0  0.65265511131E+03 -0.18195665341E+03  0.97593634688E+03  0.11880735125E+04  0.25500000920E-02 0.  1.
       -2    1    3    3    0  502 -0.65265511131E+03  0.18195665341E+03 -0.12310948567E+04  0.14052264814E+04  0.25500000920E-02 0. -1.
</event>
<event>
 5   0  0.2662024E-05  0.2475025E+04  0.7818609E-02  0.8411938E-01
       -2   -1    0    0    0  501  0.00000000000E+00  0.00000000000E+00  0.60461054263E+03  0.60461054263E+03  0.25500000920E-02 0.  1.
        2   -1    0    0  501    0  0.00000000000E+00  0.00000000000E+00 -0.25329309762E+04  0.25329309762E+04  0.25500000920E-02 0. -1.
    10030    2    1    2    0    0  0.00000000000E+00  0.00000000000E+00 -0.19283204336E+04  0.31375415188E+04  0.24750246641E+04 0.  0.
        2    1    3    3  502    0  0.93995431468E+03 -0.78735378384E+03 -0.11762712193E+04  0.16991333308E+04  0.25500000920E-02 0. -1.
       -2    1    3    3    0  502 -0.93995431468E+03  0.78735378384E+03 -0.75204921428E+03  0.14384081880E+04  0.25500000920E-02 0.  1.
</event>
<event>
 5   0  0.9855352E-06  0.2588755E+04  0.7818609E-02  0.8372031E-01
        1   -1    0    0  501    0  0.00000000000E+00  0.00000000000E+00  0.18532362553E+04  0.18532362553E+04  0.50400001928E-02 0. -1.
       -1   -1    0    0    0  501  0.00000000000E+00  0.00000000000E+00 -0.90404746532E+03  0.90404746533E+03  0.50400001928E-02 0.  1.
    10030    2    1    2    0    0  0.00000000000E+00  0.00000000000E+00  0.94918878994E+03  0.27572837206E+04  0.25887553297E+04 0.  0.
        2    1    3    3  502    0  0.19684644669E+03  0.83914773998E+02 -0.88507733203E+03  0.91057789154E+03  0.25500000920E-02 0.  1.
       -2    1    3    3    0  502 -0.19684644669E+03 -0.83914773998E+02  0.18342661220E+04  0.18467058291E+04  0.25500000920E-02 0. -1.
</event>
<event>
 5   0  0.2484618E-05  0.2664075E+04  0.7818609E-02  0.8346756E-01
        2   -1    0    0  501    0  0.00000000000E+00  0.00000000000E+00  0.27913879211E+04  0.27913879211E+04  0.25500000920E-02 0. -1.
       -2   -1    0    0    0  501  0.00000000000E+00  0.00000000000E+00 -0.63564222680E+03  0.63564222681E+03  0.25500000920E-02 0.  1.
    10030    2    1    2    0    0  0.00000000000E+00  0.00000000000E+00  0.21557456943E+04  0.34270301479E+04  0.26640750996E+04 0.  0.
        3    1    3    3  502    0 -0.42722434133E+03 -0.35095519291E+03 -0.48106294009E+03  0.73287908128E+03  0.10100000352E+00 0.  1.
       -3    1    3    3    0  502  0.42722434133E+03  0.35095519291E+03  0.26368086344E+04  0.26941510666E+04  0.10100000352E+00 0. -1.
</event>
<event>
 5   0  0.2528460E-05  0.2609871E+04  0.7818609E-02  0.8364856E-01
       -2   -1    0    0    0  501  0.00000000000E+00  0.00000000000E+00  0.13840614820E+04  0.13840614820E+04  0.25500000920E-02 0.  1.
        2   -1    0    0  501    0  0.00000000000E+00  0.00000000000E+00 -0.12303332764E+04  0.12303332764E+04  0.25500000920E-02 0. -1.
    10030    2    1    2    0    0  0.00000000000E+00  0.00000000000E+00  0.15372820559E+03  0.26143947583E+04  0.26098711829E+04 0.  0.
        5    1    3    3  502    0 -0.11486635154E+04  0.22228651960E+03  0.65578935087E+03  0.13412385810E+04  0.46999998093E+01 0.  1.
       -5    1    3    3    0  502  0.11486635154E+04 -0.22228651960E+03 -0.50206114528E+03  0.12731561774E+04  0.46999998093E+01 0. -1.
</event>
<event>
 5   0  0.1034714E-05  0.2583265E+04  0.7818609E-02  0.8373908E-01
       -1   -1    0    0    0  501  0.00000000000E+00  0.00000000000E+00  0.62008139320E+03  0.62008139322E+03  0.50400001928E-02 0. -1.
        1   -1    0    0  501    0  0.00000000000E+00  0.00000000000E+00 -0.26904772401E+04  0.26904772401E+04  0.50400001928E-02 0.  1.
    10030    2    1    2    0    0  0.00000000000E+00  0.00000000000E+00 -0.20703958469E+04  0.33105586334E+04  0.25832652790E+04 0.  0.
        5    1    3    3  502    0 -0.18519495011E+03 -0.77420890003E+03 -0.23387179739E+04  0.24704899194E+04  0.46999998093E+01 0.  1.
       -5    1    3    3    0  502  0.18519495011E+03  0.77420890003E+03  0.26832212692E+03  0.84006871399E+03  0.46999998093E+01 0. -1.
</event>
<event>
 5   0  0.1000421E-05  0.2618133E+04  0.7818609E-02  0.8362068E-01
        1   -1    0    0  501    0  0.00000000000E+00  0.00000000000E+00  0.11380342108E+04  0.11380342108E+04  0.50400001928E-02 0. -1.
       -1   -1    0    0    0  501  0.00000000000E+00  0.00000000000E+00 -0.15058025839E+04  0.15058025839E+04  0.50400001928E-02 0.  1.
    10030    2    1    2    0    0  0.00000000000E+00  0.00000000000E+00 -0.36776837316E+03  0.26438367947E+04  0.26181328119E+04 0.  0.
        3    1    3    3  502    0 -0.30112146877E+03  0.12738624361E+04 -0.16775236704E+03  0.13196743961E+04  0.10100000352E+00 0. -1.
       -3    1    3    3    0  502  0.30112146877E+03 -0.12738624361E+04 -0.20001600612E+03  0.13241623986E+04  0.10100000352E+00 0.  1.
</event>
<event>
 5   0  0.2484618E-05  0.2679493E+04  0.7818609E-02  0.8341690E-01
        2   -1    0    0  501    0  0.00000000000E+00  0.00000000000E+00  0.13644917136E+04  0.13644917136E+04  0.25500000920E-02 0. -1.
       -2   -1    0    0    0  501  0.00000000000E+00  0.00000000000E+00 -0.13154497348E+04  0.13154497348E+04  0.25500000920E-02 0.  1.
    10030    2    1    2    0    0  0.00000000000E+00  0.00000000000E+00  0.49041978836E+02  0.26799414484E+04  0.26794926854E+04 0.  0.
        3    1    3    3  502    0 -0.44246640440E+03  0.50555762782E+03 -0.11347914339E+04  0.13187557176E+04  0.10100000352E+00 0.  1.
       -3    1    3    3    0  502  0.44246640440E+03 -0.50555762782E+03  0.11838334128E+04  0.13611857307E+04  0.10100000352E+00 0. -1.
</event>
<event>
 5   0  0.2555801E-05  0.1954134E+04  0.7818609E-02  0.8628370E-01
       -2   -1    0    0    0  501  0.00000000000E+00  0.00000000000E+00  0.10947516023E+04  0.10947516023E+04  0.25500000920E-02 0.  1.
        2   -1    0    0  501    0  0.00000000000E+00  0.00000000000E+00 -0.87203313536E+03  0.87203313536E+03  0.25500000920E-02 0. -1.
    10030    2    1    2    0    0  0.00000000000E+00  0.00000000000E+00  0.22271846691E+03  0.19667847376E+04  0.19541337438E+04 0.  0.
        1    1    3    3  502    0 -0.14999319365E+03  0.96226884666E+03  0.19061150605E+03  0.99236688662E+03  0.50400001928E-02 0.  1.
       -1    1    3    3    0  502  0.14999319365E+03 -0.96226884666E+03  0.32106960854E+02  0.97441785101E+03  0.50400001928E-02 0. -1.
</event>
<event>
 5   0  0.2555801E-05  0.2626490E+04  0.7818609E-02  0.8359258E-01
        2   -1    0    0  501    0  0.00000000000E+00  0.00000000000E+00  0.16755995213E+04  0.16755995213E+04  0.25500000920E-02 0.  1.
       -2   -1    0    0    0  501  0.00000000000E+00  0.00000000000E+00 -0.10292511784E+04  0.10292511784E+04  0.25500000920E-02 0. -1.
    10030    2    1    2    0    0  0.00000000000E+00  0.00000000000E+00  0.64634834283E+03  0.27048506997E+04  0.26264902679E+04 0.  0.
        1    1    3    3  502    0  0.22727622376E+02 -0.23779701127E+03 -0.10066884542E+04  0.10346427438E+04  0.50400001928E-02 0. -1.
       -1    1    3    3    0  502 -0.22727622376E+02  0.23779701127E+03  0.16530367971E+04  0.16702079559E+04  0.50400001928E-02 0.  1.
</event>
<event>
 5   0  0.2662024E-05  0.2498712E+04  0.7818609E-02  0.8403445E-01
        2   -1    0    0  501    0  0.00000000000E+00  0.00000000000E+00  0.96347396673E+03  0.96347396674E+03  0.25500000920E-02 0.  1.
       -2   -1    0    0    0  501  0.00000000000E+00  0.00000000000E+00 -0.16200645987E+04  0.16200645987E+04  0.25500000920E-02 0. -1.
    10030    2    1    2    0    0  0.00000000000E+00  0.00000000000E+00 -0.65659063194E+03  0.25835385654E+04  0.24987117203E+04 0.  0.
        2    1    3    3  502    0 -0.46693760778E+03  0.38711538753E+03  0.80103035690E+03  0.10047580234E+04  0.25500000920E-02 0.  1.
       -2    1    3    3    0  502  0.46693760778E+03 -0.38711538753E+03 -0.14576209888E+04  0.15787805420E+04  0.25500000920E-02 0. -1.
</event>
<event>
 5   0  0.1025153E-05  0.2591876E+04  0.7818609E-02  0.8370966E-01
       -1   -1    0    0    0  501  0.00000000000E+00  0.00000000000E+00  0.80596574977E+03  0.80596574979E+03  0.50400001928E-02 0.  1.
        1   -1    0    0  501    0  0.00000000000E+00  0.00000000000E+00 -0.20837803000E+04  0.20837803000E+04  0.50400001928E-02 0. -1.
    10030    2    1    2    0    0  0.00000000000E+00  0.00000000000E+00 -0.12778145502E+04  0.28897460498E+04  0.25918761945E+04 0.  0.
        1    1    3    3  502    0  0.11037740335E+04  0.45305170792E+02 -0.13943340817E+04  0.17789146148E+04  0.50400001928E-02 0. -1.
       -1    1    3    3    0  502 -0.11037740335E+04 -0.45305170792E+02  0.11651953150E+03  0.11108314349E+04  0.50400001928E-02 0.  1.
</event>
<event>
 5   0  0.2555801E-05  0.2592905E+04  0.7818609E-02  0.8370615E-01
       -2   -1    0    0    0  501  0.00000000000E+00  0.00000000000E+00  0.14156101374E+04  0.14156101374E+04  0.25500000920E-02 0.  1.
        2   -1    0    0  501    0  0.00000000000E+00  0.00000000000E+00 -0.11873244294E+04  0.11873244294E+04  0.25500000920E-02 0. -1.
    10030    2    1    2    0    0  0.00000000000E+00  0.00000000000E+00  0.22828570799E+03  0.26029345669E+04  0.25929045480E+04 0.  0.
        1    1    3    3  502    0 -0.95191022907E+03 -0.97746882686E+02 -0.76394120968E+03  0.12244564954E+04  0.50400001928E-02 0. -1.
       -1    1    3    3    0  502  0.95191022907E+03  0.97746882686E+02  0.99222691766E+03  0.13784780714E+04  0.50400001928E-02 0.  1.
</event>
<event>
 5   0  0.2517854E-05  0.2579921E+04  0.7818609E-02  0.8375054E-01
        2   -1    0    0  501    0  0.00000000000E+00  0.00000000000E+00  0.19201026567E+04  0.19201026567E+04  0.25500000920E-02 0. -1.
       -2   -1    0    0    0  501  0.00000000000E+00  0.00000000000E+00 -0.86661948515E+03  0.86661948516E+03  0.25500000920E-02 0.  1.
    10030    2    1    2    0    0  0.00000000000E+00  0.00000000000E+00  0.10534831715E+04  0.27867221418E+04  0.25799212203E+04 0.  0.
        4    1    3    3  502    0 -0.69659434706E+03 -0.71829920232E+03  0.14061249699E+04  0.17258002412E+04  0.12699999809E+01 0. -1.
       -4    1    3    3    0  502  0.69659434706E+03  0.71829920232E+03 -0.35264179843E+03  0.10609219007E+04  0.12699999809E+01 0.  1.
</event>
<event>
 5   0  0.2484618E-05  0.2491291E+04  0.7818609E-02  0.8406095E-01
        2   -1    0    0  501    0  0.00000000000E+00  0.00000000000E+00  0.21345492806E+04  0.21345492807E+04  0.25500000920E-02 0.  1.
       -2   -1    0    0    0  501  0.00000000000E+00  0.00000000000E+00 -0.72691361827E+03  0.72691361827E+03  0.25500000920E-02 0. -1.
    10030    2    1    2    0    0  0.00000000000E+00  0.00000000000E+00  0.14076356624E+04  0.28614628989E+04  0.24912911841E+04 0.  0.
        3    1    3    3  502    0 -0.96211572637E+03  0.57796030820E+02  0.16101287495E+04  0.18765717818E+04  0.10100000352E+00 0.  1.
       -3    1    3    3    0  502  0.96211572637E+03 -0.57796030820E+02 -0.20249308708E+03  0.98489111715E+03  0.10100000352E+00 0. -1.
</event>
<event>
 5   0  0.1034714E-05  0.2617072E+04  0.7818609E-02  0.8362425E-01
        1   -1    0    0  501    0  0.00000000000E+00  0.00000000000E+00  0.24390840621E+04  0.24390840622E+04  0.50400001928E-02 0. -1.
       -1   -1    0    0    0  501  0.00000000000E+00  0.00000000000E+00 -0.70201219156E+03  0.70201219158E+03  0.50400001928E-02 0.  1.
    10030    2    1    2    0    0  0.00000000000E+00  0.00000000000E+00  0.17370718706E+04  0.31410962537E+04  0.26170722175E+04 0.  0.
        5    1    3    3  502    0 -0.30044796982E+03 -0.77965399887E+03  0.20772100159E+04  0.22389624563E+04  0.46999998093E+01 0. -1.
       -5    1    3    3    0  502  0.30044796982E+03  0.77965399887E+03 -0.34013814534E+03  0.90213379741E+03  0.46999998093E+01 0.  1.
</event>
<event>
 5   0  0.9855352E-06  0.2724200E+04  0.7818609E-02  0.8327195E-01
        1   -1    0    0  501    0  0.00000000000E+00  0.00000000000E+00  0.92694300562E+03  0.92694300563E+03  0.50400001928E-02 0. -1.
       -1   -1    0    0    0  501  0.00000000000E+00  0.00000000000E+00 -0.20015429118E+04  0.20015429118E+04  0.50400001928E-02 0.  1.
    10030    2    1    2    0    0  0.00000000000E+00  0.00000000000E+00 -0.10745999062E+04  0.29284859175E+04  0.27241998477E+04 0.  0.
        2    1    3    3  502    0 -0.21373992043E+03 -0.28190093976E+03 -0.19512944673E+04  0.19831043824E+04  0.25500000920E-02 0.  1.
       -2    1    3    3    0  502  0.21373992043E+03  0.28190093976E+03  0.87669456107E+03  0.94538153507E+03  0.25500000920E-02 0. -1.
</event>
<event>
 5   0  0.2555801E-05  0.2567691E+04  0.7818609E-02  0.8379259E-01
       -2   -1    0    0    0  501  0.00000000000E+00  0.00000000000E+00  0.61327316080E+03  0.61327316081E+03  0.25500000920E-02 0. -1.
        2   -1    0    0  501    0  0.00000000000E+00  0.00000000000E+00 -0.26876422537E+04  0.26876422537E+04  0.25500000920E-02 0.  1.
    10030    2    1    2    0    0  0.00000000000E+00  0.00000000000E+00 -0.20743690929E+04  0.33009154145E+04  0.25676906823E+04 0.  0.
        1    1    3    3  502    0  0.88947692714E+03  0.92543124026E+03 -0.10039913564E+04  0.16295983641E+04  0.50400001928E-02 0.  1.
       -1    1    3    3    0  502 -0.88947692714E+03 -0.92543124026E+03 -0.10703777365E+04  0.16713170505E+04  0.50400001928E-02 0. -1.
</event>
<event>
 5   0  0.2517854E-05  0.2470726E+04  0.7818609E-02  0.8413489E-01
        2   -1    0    0  501    0  0.00000000000E+00  0.00000000000E+00  0.15847177786E+04  0.15847177786E+04  0.25500000920E-02 0. -1.
       -2   -1    0    0    0  501  0.00000000000E+00  0.00000000000E+00 -0.96302453083E+03  0.96302453083E+03  0.25500000920E-02 0.  1.
    10030    2    1    2    0    0  0.00000000000E+00  0.00000000000E+00  0.62169324780E+03  0.25477423095E+04  0.24707262861E+04 0.  0.
        4    1    3    3  502    0  0.82579720418E+03 -0.35505679484E+03 -0.56298468344E+03  0.10606411819E+04  0.12699999809E+01 0.  1.
       -4    1    3    3    0  502 -0.82579720418E+03  0.35505679484E+03  0.11846779312E+04  0.14871011276E+04  0.12699999809E+01 0. -1.
</event>
<event>
 5   0  0.2484618E-05  0.2573064E+04  0.7818609E-02  0.8377409E-01
       -2   -1    0    0    0  501  0.00000000000E+00  0.00000000000E+00  0.64198384382E+03  0.64198384383E+03  0.25500000920E-02 0. -1.
        2   -1    0    0  501    0  0.00000000000E+00  0.00000000000E+00 -0.25782033118E+04  0.25782033118E+04  0.25500000920E-02 0.  1.
    10030    2    1    2    0    0  0.00000000000E+00  0.00000000000E+00 -0.19362194680E+04  0.32201871556E+04  0.25730642217E+04 0.  0.
        3    1    3    3  502    0 -0.14922679614E+02 -0.13816797263E+03  0.63256269258E+03  0.64764855074E+03  0.10100000352E+00 0. -1.
       -3    1    3    3    0  502  0.14922679614E+02  0.13816797263E+03 -0.25687821606E+04  0.25725386049E+04  0.10100000352E+00 0.  1.
</event>
<event>
 5   0  0.1025153E-05  0.2562941E+04  0.7818609E-02  0.8380899E-01
       -1   -1    0    0    0  501  0.00000000000E+00  0.00000000000E+00  0.65945931681E+03  0.65945931683E+03  0.50400001928E-02 0.  1.
        1   -1    0    0  501    0  0.00000000000E+00  0.00000000000E+00 -0.24901716760E+04  0.24901716760E+04  0.50400001928E-02 0. -1.
    10030    2    1    2    0    0  0.00000000000E+00  0.00000000000E+00 -0.18307123591E+04  0.31496309928E+04  0.25629412106E+04 0.  0.
        1    1    3    3  502    0  0.10357551248E+04 -0.30183254754E+03 -0.65471444883E+02  0.10808228696E+04  0.50400001928E-02 0.  1.
       -1    1    3    3    0  502 -0.10357551248E+04  0.30183254754E+03 -0.17652409143E+04  0.20688081232E+04  0.50400001928E-02 0. -1.
</event>
<event>
 5   0  0.2662024E-05  0.2602597E+04  0.7818609E-02  0.8367320E-01
        2   -1    0    0  501    0  0.00000000000E+00  0.00000000000E+00  0.96874574440E+03  0.96874574440E+03  0.25500000920E-02 0. -1.
       -2   -1    0    0    0  501  0.00000000000E+00  0.00000000000E+00 -0.17480106975E+04  0.17480106975E+04  0.25500000920E-02 0.  1.
    10030    2    1    2    0    0  0.00000000000E+00  0.00000000000E+00 -0.77926495310E+03  0.27167564419E+04  0.26025971063E+04 0.  0.
        2    1    3    3  502    0  0.76416141504E+03  0.46612594486E+03  0.59634181098E+03  0.10755647913E+04  0.25500000920E-02 0. -1.
       -2    1    3    3    0  502 -0.76416141504E+03 -0.46612594486E+03 -0.13756067641E+04  0.16411916506E+04  0.25500000920E-02 0.  1.
</event>
<event>
 5   0  0.1025153E-05  0.2505781E+04  0.7818609E-02  0.8400929E-01
        1   -1    0    0  501    0  0.00000000000E+00  0.00000000000E+00  0.58412999730E+03  0.58412999732E+03  0.50400001928E-02 0. -1.
       -1   -1    0    0    0  501  0.00000000000E+00  0.00000000000E+00 -0.26873038109E+04  0.26873038109E+04  0.50400001928E-02 0.  1.
    10030    2    1    2    0    0  0.00000000000E+00  0.00000000000E+00 -0.21031738136E+04  0.32714338083E+04  0.25057811300E+04 0.  0.
        1    1    3    3  502    0 -0.27051866685E+03  0.49845821455E+03  0.40695402251E+03  0.69803475360E+03  0.50400001928E-02 0. -1.
       -1    1    3    3    0  502  0.27051866685E+03 -0.49845821455E+03 -0.25101278361E+04  0.25733990547E+04  0.50400001928E-02 0.  1.
</event>
<event>
 5   0  0.9855352E-06  0.2584480E+04  0.7818609E-02  0.8373492E-01
       -1   -1    0    0    0  501  0.00000000000E+00  0.00000000000E+00  0.12089578907E+04  0.12089578907E+04  0.50400001928E-02 0.  1.
        1   -1    0    0  501    0  0.00000000000E+00  0.00000000000E+00 -0.13812591540E+04  0.13812591540E+04  0.50400001928E-02 0. -1.
    10030    2    1    2    0    0  0.00000000000E+00  0.00000000000E+00 -0.17230126330E+03  0.25902170448E+04  0.25844799503E+04 0.  0.
        2    1    3    3  502    0  0.14423687566E+03  0.62755662623E+03  0.10367169592E+04  0.12204153592E+04  0.25500000920E-02 0.  1.
       -2    1    3    3    0  502 -0.14423687566E+03 -0.62755662623E+03 -0.12090182225E+04  0.13698016856E+04  0.25500000920E-02 0. -1.
</event>
<event>
 5   0  0.2528460E-05  0.2565177E+04  0.7818609E-02  0.8380127E-01
        2   -1    0    0  501    0  0.00000000000E+00  0.00000000000E+00  0.11003502951E+04  0.11003502951E+04  0.25500000920E-02 0. -1.
       -2   -1    0    0    0  501  0.00000000000E+00  0.00000000000E+00 -0.14950081822E+04  0.14950081822E+04  0.25500000920E-02 0.  1.
    10030    2    1    2    0    0  0.00000000000E+00  0.00000000000E+00 -0.39465788712E+03  0.25953584773E+04  0.25651765588E+04 0.  0.
        5    1    3    3  502    0 -0.28173930297E+03  0.21030500669E+03  0.10506365078E+04  0.11079099206E+04  0.46999998093E+01 0. -1.
       -5    1    3    3    0  502  0.28173930297E+03 -0.21030500669E+03 -0.14452943949E+04  0.14874485566E+04  0.46999998093E+01 0.  1.
</event>
<event>
 5   0  0.1025153E-05  0.2361375E+04  0.7818609E-02  0.8454107E-01
        1   -1    0    0  501    0  0.00000000000E+00  0.00000000000E+00  0.10207302114E+04  0.10207302114E+04  0.50400001928E-02 0.  1.
       -1   -1    0    0    0  501  0.00000000000E+00  0.00000000000E+00 -0.13657119619E+04  0.13657119619E+04  0.50400001928E-02 0. -1.
    10030    2    1    2    0    0  0.00000000000E+00  0.00000000000E+00 -0.34498175057E+03  0.23864421733E+04  0.23613754124E+04 0.  0.
        1    1    3    3  502    0 -0.18071868792E+03  0.11641095580E+04 -0.92830585836E+02  0.11817054730E+04  0.50400001928E-02 0.  1.
       -1    1    3    3    0  502  0.18071868792E+03 -0.11641095580E+04 -0.25215116473E+03  0.12047367003E+04  0.50400001928E-02 0. -1.
</event>
<event>
 5   0  0.2517854E-05  0.2553709E+04  0.7818609E-02  0.8384098E-01
       -2   -1    0    0    0  501  0.00000000000E+00  0.00000000000E+00  0.10077584646E+04  0.10077584646E+04  0.25500000920E-02 0.  1.
        2   -1    0    0  501    0  0.00000000000E+00  0.00000000000E+00 -0.16178051595E+04  0.16178051595E+04  0.25500000920E-02 0. -1.
    10030    2    1    2    0    0  0.00000000000E+00  0.00000000000E+00 -0.61004669493E+03  0.26255636240E+04  0.25537085531E+04 0.  0.
        4    1    3    3  502    0  0.37069031748E+03 -0.11569569381E+04 -0.70901018572E+03  0.14066476903E+04  0.12699999809E+01 0. -1.
       -4    1    3    3    0  502 -0.37069031748E+03  0.11569569381E+04  0.98963490786E+02  0.12189159338E+04  0.12699999809E+01 0.  1.
</event>
<event>
 5   0  0.8605000E-06  0.2631082E+04  0.7818609E-02  0.8357719E-01
        3   -1    0    0  501    0  0.00000000000E+00  0.00000000000E+00  0.11494012054E+04  0.11494012099E+04  0.10100000352E+00 0.  1.
       -3   -1    0    0    0  501  0.00000000000E+00  0.00000000000E+00 -0.15056951910E+04  0.15056951944E+04  0.10100000352E+00 0. -1.
    10030    2    1    2    0    0  0.00000000000E+00  0.00000000000E+00 -0.35629398556E+03  0.26550964042E+04  0.26310818139E+04 0.  0.
        2    1    3    3  502    0  0.13127128981E+01 -0.11102106575E+04  0.53404127990E+03  0.12319778877E+04  0.25500000920E-02 0.  1.
       -2    1    3    3    0  502 -0.13127128981E+01  0.11102106575E+04 -0.89033526546E+03  0.14231185165E+04  0.25500000920E-02 0. -1.
</event>
<event>
 5   0  0.2484618E-05  0.2577265E+04  0.7818609E-02  0.8375965E-01
       -2   -1    0    0    0  501  0.00000000000E+00  0.00000000000E+00  0.10269367999E+04  0.10269367999E+04  0.25500000920E-02 0.  1.
        2   -1    0    0  501    0  0.00000000000E+00  0.00000000000E+00 -0.16170160658E+04  0.16170160658E+04  0.25500000920E-02 0. -1.
    10030    2    1    2    0    0  0.00000000000E+00  0.00000000000E+00 -0.59007926587E+03  0.26439528657E+04  0.25772646771E+04 0.  0.
        3    1    3    3  502    0  0.26715923000E+03 -0.83708197038E+03 -0.12620289939E+04  0.15377898006E+04  0.10100000352E+00 0. -1.
       -3    1    3    3    0  502 -0.26715923000E+03  0.83708197038E+03  0.67194972800E+03  0.11061630650E+04  0.10100000352E+00 0.  1.
</event>
<event>
 5   0  0.2484618E-05  0.2515413E+04  0.7818609E-02  0.8397515E-01
        2   -1    0    0  501    0  0.00000000000E+00  0.00000000000E+00  0.24852584044E+04  0.24852584044E+04  0.25500000920E-02 0. -1.
       -2   -1    0    0    0  501  0.00000000000E+00  0.00000000000E+00 -0.63648337333E+03  0.63648337333E+03  0.25500000920E-02 0.  1.
    10030    2    1    2    0    0  0.00000000000E+00  0.00000000000E+00  0.18487750311E+04  0.31217417777E+04  0.25154130101E+04 0.  0.
        3    1    3    3  502    0  0.76696499347E+03  0.75939107737E+03  0.12305694426E+03  0.10863025045E+04  0.10100000352E+00 0.  1.
       -3    1    3    3    0  502 -0.76696499347E+03 -0.75939107737E+03  0.17257180868E+04  0.20354392732E+04  0.10100000352E+00 0. -1.
</event>
<event>
 5   0  0.1000421E-05  0.2625235E+04  0.7818609E-02  0.8359680E-01
       -1   -1    0    0    0  501  0.00000000000E+00  0.00000000000E+00  0.12851680774E+04  0.12851680775E+04  0.50400001928E-02 0. -1.
        1   -1    0    0  501    0  0.00000000000E+00  0.00000000000E+00 -0.13406534015E+04  0.13406534015E+04  0.50400001928E-02 0.  1.
    10030    2    1    2    0    0  0.00000000000E+00  0.00000000000E+00 -0.55485324092E+02  0.26258214790E+04  0.26252351930E+04 0.  0.
        3    1    3    3  502    0  0.93929050118E+03 -0.68310726725E+02 -0.94229468473E+03  0.13322358215E+04  0.10100000352E+00 0.  1.
       -3    1    3    3    0  502 -0.93929050118E+03  0.68310726725E+02  0.88680936064E+03  0.12935856575E+04  0.10100000352E+00 0. -1.
</event>
<event>
 5   0  0.2662024E-05  0.2606984E+04  0.7818609E-02  0.8365833E-01
        2   -1    0    0  501    0  0.00000000000E+00  0.00000000000E+00  0.12784751129E+04  0.12784751129E+04  0.25500000920E-02 0. -1.
       -2   -1    0    0    0  501  0.00000000000E+00  0.00000000000E+00 -0.13289986405E+04  0.13289986405E+04  0.25500000920E-02 0.  1.
    10030    2    1    2    0    0  0.00000000000E+00  0.00000000000E+00 -0.50523527553E+02  0.26074737534E+04  0.26069842247E+04 0.  0.
        2    1    3    3  502    0  0.12351981832E+04  0.10988834322E+03 -0.42696099206E+03  0.13115203729E+04  0.25500000920E-02 0.  1.
       -2    1    3    3    0  502 -0.12351981832E+04 -0.10988834322E+03  0.37643746451E+03  0.12959533805E+04  0.25500000920E-02 0. -1.
</event>
<event>
 5   0  0.2517854E-05  0.2500642E+04  0.7818609E-02  0.8402757E-01
       -2   -1    0    0    0  501  0.00000000000E+00  0.00000000000E+00  0.71845522034E+03  0.71845522034E+03  0.25500000920E-02 0.  1.
        2   -1    0    0  501    0  0.00000000000E+00  0.00000000000E+00 -0.21759216413E+04  0.21759216413E+04  0.25500000920E-02 0. -1.
    10030    2    1    2    0    0  0.00000000000E+00  0.00000000000E+00 -0.14574664210E+04  0.28943768617E+04  0.25006417274E+04 0.  0.
        4    1    3    3  502    0 -0.78685370667E+03  0.93704645263E+03 -0.43113965958E+03  0.12973348947E+04  0.12699999809E+01 0. -1.
       -4    1    3    3    0  502  0.78685370667E+03 -0.93704645263E+03 -0.10263267614E+04  0.15970419669E+04  0.12699999809E+01 0.  1.
</event>
<event>
 5   0  0.2517854E-05  0.2577932E+04  0.7818609E-02  0.8375736E-01
       -2   -1    0    0    0  501  0.00000000000E+00  0.00000000000E+00  0.23169797628E+04  0.23169797628E+04  0.25500000920E-02 0. -1.
        2   -1    0    0  501    0  0.00000000000E+00  0.00000000000E+00 -0.71706875046E+03  0.71706875046E+03  0.25500000920E-02 0.  1.
    10030    2    1    2    0    0  0.00000000000E+00  0.00000000000E+00  0.15999110124E+04  0.30340485133E+04  0.25779323369E+04 0.  0.
        4    1    3    3  502    0  0.59303676777E+03 -0.29993591973E+02 -0.54650703972E+03  0.80700915785E+03  0.12699999809E+01 0.  1.
       -4    1    3    3    0  502 -0.59303676777E+03  0.29993591973E+02  0.21464180521E+04  0.22270393554E+04  0.12699999809E+01 0. -1.
</event>
<event>
 5   0  0.1005492E-05  0.2613544E+04  0.7818609E-02  0.8363615E-01
        1   -1    0    0  501    0  0.00000000000E+00  0.00000000000E+00  0.10189199552E+04  0.10189199552E+04  0.50400001928E-02 0. -1.
       -1   -1    0    0    0  501  0.00000000000E+00  0.00000000000E+00 -0.16759436988E+04  0.16759436988E+04  0.50400001928E-02 0.  1.
    10030    2    1    2    0    0  0.00000000000E+00  0.00000000000E+00 -0.65702374364E+03  0.26948636540E+04  0.26135435550E+04 0.  0.
        4    1    3    3  502    0  0.70996027134E+02  0.12601098677E+04  0.20750881026E+02  0.12622794962E+04  0.12699999809E+01 0. -1.
       -4    1    3    3    0  502 -0.70996027134E+02 -0.12601098677E+04 -0.67777462467E+03  0.14325841578E+04  0.12699999809E+01 0.  1.
</event>
<event>
 5   0  0.1000421E-05  0.2562311E+04  0.7818609E-02  0.8381117E-01
       -1   -1    0    0    0  501  0.00000000000E+00  0.00000000000E+00  0.14215025649E+04  0.14215025649E+04  0.50400001928E-02 0.  1.
        1   -1    0    0  501    0  0.00000000000E+00  0.00000000000E+00 -0.11546651418E+04  0.11546651419E+04  0.50400001928E-02 0. -1.
    10030    2    1    2    0    0  0.00000000000E+00  0.00000000000E+00  0.26683742306E+03  0.25761677068E+04  0.25623110356E+04 0.  0.
        3    1    3    3  502    0 -0.10886757970E+04 -0.67074342114E+03  0.21288870054E+03  0.12963152923E+04  0.10100000352E+00 0. -1.
       -3    1    3    3    0  502  0.10886757970E+04  0.67074342114E+03  0.53948722519E+02  0.12798524145E+04  0.10100000352E+00 0.  1.
</event>
<event>
 5   0  0.1025153E-05  0.2590026E+04  0.7818609E-02  0.8371597E-01
       -1   -1    0    0    0  501  0.00000000000E+00  0.00000000000E+00  0.95603200398E+03  0.95603200400E+03  0.50400001928E-02 0.  1.
        1   -1    0    0  501    0  0.00000000000E+00  0.00000000000E+00 -0.17541870965E+04  0.17541870965E+04  0.50400001928E-02 0. -1.
    10030    2    1    2    0    0  0.00000000000E+00  0.00000000000E+00 -0.79815509250E+03  0.27102191005E+04  0.25900262587E+04 0.  0.
        1    1    3    3  502    0  0.99868668703E+03 -0.76591828630E+03 -0.71827956011E+03  0.14491140213E+04  0.50400001928E-02 0. -1.
       -1    1    3    3    0  502 -0.99868668703E+03  0.76591828630E+03 -0.79875532394E+02  0.12611050792E+04  0.50400001928E-02 0.  1.
</event>
<event>
 5   0  0.1005492E-05  0.2646753E+04  0.7818609E-02  0.8352491E-01
        1   -1    0    0  501    0  0.00000000000E+00  0.00000000000E+00  0.21629034424E+04  0.21629034425E+04  0.50400001928E-02 0. -1.
       -1   -1    0    0    0  501  0.00000000000E+00  0.00000000000E+00 -0.80971060333E+03  0.80971060334E+03  0.50400001928E-02 0.  1.
    10030    2    1    2    0    0  0.00000000000E+00  0.00000000000E+00  0.13531928391E+04  0.29726140458E+04  0.26467533707E+04 0.  0.
        4    1    3    3  502    0  0.89559014098E+03 -0.74511588364E+03  0.13816106496E+04  0.18072434757E+04  0.12699999809E+01 0. -1.
       -4    1    3    3    0  502 -0.89559014098E+03  0.74511588364E+03 -0.28417810468E+02  0.11653705700E+04  0.12699999809E+01 0.  1.
</event>
<event>
 5   0  0.1025153E-05  0.2634134E+04  0.7818609E-02  0.8356698E-01
       -1   -1    0    0    0  501  0.00000000000E+00  0.00000000000E+00  0.10887840498E+04  0.10887840498E+04  0.50400001928E-02 0. -1.
        1   -1    0    0  501    0  0.00000000000E+00  0.00000000000E+00 -0.15932138626E+04  0.15932138626E+04  0.50400001928E-02 0.  1.
    10030    2    1    2    0    0  0.00000000000E+00  0.00000000000E+00 -0.50442981280E+03  0.26819979125E+04  0.26341342727E+04 0.  0.
        1    1    3    3  502    0  0.40076380103E+03 -0.39116194647E+03 -0.14659521504E+04  0.15692784966E+04  0.50400001928E-02 0.  1.
       -1    1    3    3    0  502 -0.40076380103E+03  0.39116194647E+03  0.96152233765E+03  0.11127194159E+04  0.50400001928E-02 0. -1.
</event>
<event>
 5   0  0.2662024E-05  0.2561240E+04  0.7818609E-02  0.8381488E-01
        2   -1    0    0  501    0  0.00000000000E+00  0.00000000000E+00  0.16097338418E+04  0.16097338418E+04  0.25500000920E-02 0.  1.
       -2   -1    0    0    0  501  0.00000000000E+00  0.00000000000E+00 -0.10187942718E+04  0.10187942718E+04  0.25500000920E-02 0. -1.
    10030    2    1    2    0    0  0.00000000000E+00  0.00000000000E+00  0.59093956997E+03  0.26285281137E+04  0.25612400256E+04 0.  0.
        2    1    3    3  502    0  0.68912820726E+03  0.91782615681E+03 -0.28750770631E+03  0.11832004147E+04  0.25500000920E-02 0. -1.
       -2    1    3    3    0  502 -0.68912820726E+03 -0.91782615681E+03  0.87844727628E+03  0.14453276990E+04  0.25500000920E-02 0.  1.
</event>
<event>
 5   0  0.1005492E-05  0.2610540E+04  0.7818609E-02  0.8364630E-01
       -1   -1    0    0    0  501  0.00000000000E+00  0.00000000000E+00  0.10441483823E+04  0.10441483823E+04  0.50400001928E-02 0.  1.
        1   -1    0    0  501    0  0.00000000000E+00  0.00000000000E+00 -0.16316935070E+04  0.16316935070E+04  0.50400001928E-02 0. -1.
    10030    2    1    2    0    0  0.00000000000E+00  0.00000000000E+00 -0.58754512471E+03  0.26758418893E+04  0.26105402779E+04 0.  0.
        4    1    3    3  502    0 -0.33795408383E+03 -0.86226803885E+03 -0.12365683671E+04  0.15449343264E+04  0.12699999809E+01 0. -1.
       -4    1    3    3    0  502  0.33795408383E+03  0.86226803885E+03  0.64902324238E+03  0.11309075628E+04  0.12699999809E+01 0.  1.
</event>
<event>
 5   0  0.2517854E-05  0.2597609E+04  0.7818609E-02  0.8369014E-01
       -2   -1    0    0    0  501  0.00000000000E+00  0.00000000000E+00  0.99334748762E+03  0.99334748762E+03  0.25500000920E-02 0. -1.
        2   -1    0    0  501    0  0.00000000000E+00  0.00000000000E+00 -0.16981907374E+04  0.16981907374E+04  0.25500000920E-02 0.  1.
    10030    2    1    2    0    0  0.00000000000E+00  0.00000000000E+00 -0.70484324982E+03  0.26915382251E+04  0.25976092874E+04 0.  0.
        4    1    3    3  502    0  0.11497465055E+03 -0.10912030963E+03 -0.16881298178E+04  0.16955560465E+04  0.12699999809E+01 0.  1.
       -4    1    3    3    0  502 -0.11497465055E+03  0.10912030963E+03  0.98328656800E+03  0.99598217853E+03  0.12699999809E+01 0. -1.
</event>
<event>
 5   0  0.1025153E-05  0.2623486E+04  0.7818609E-02  0.8360267E-01
       -1   -1    0    0    0  501  0.00000000000E+00  0.00000000000E+00  0.86474033275E+03  0.86474033277E+03  0.50400001928E-02 0.  1.
        1   -1    0    0  501    0  0.00000000000E+00  0.00000000000E+00 -0.19898102275E+04  0.19898102275E+04  0.50400001928E-02 0. -1.
    10030    2    1    2    0    0  0.00000000000E+00  0.00000000000E+00 -0.11250698947E+04  0.28545505602E+04  0.26234855885E+04 0.  0.
        1    1    3    3  502    0 -0.71764949585E+03 -0.61179425235E+02  0.63033804743E+03  0.95712578851E+03  0.50400001928E-02 0.  1.
       -1    1    3    3    0  502  0.71764949585E+03  0.61179425235E+02 -0.17554079421E+04  0.18974247717E+04  0.50400001928E-02 0. -1.
</event>
<event>
 5   0  0.1000421E-05  0.1861076E+04  0.7818609E-02  0.8674478E-01
       -1   -1    0    0    0  501  0.00000000000E+00  0.00000000000E+00  0.36765036775E+03  0.36765036778E+03  0.50400001928E-02 0. -1.
        1   -1    0    0  501    0  0.00000000000E+00  0.00000000000E+00 -0.23552293762E+04  0.23552293762E+04  0.50400001928E-02 0.  1.
    10030    2    1    2    0    0  0.00000000000E+00  0.00000000000E+00 -0.19875790084E+04  0.27228797440E+04  0.18610759752E+04 0.  0.
        3    1    3    3  502    0 -0.66993652499E+03 -0.95516196686E+01 -0.19385672493E+04  0.20510848767E+04  0.10100000352E+00 0.  1.
       -3    1    3    3    0  502  0.66993652499E+03  0.95516196686E+01 -0.49011759072E+02  0.67179486726E+03  0.10100000352E+00 0. -1.
</event>
<event>
 5   0  0.2662024E-05  0.2651114E+04  0.7818609E-02  0.8351043E-01
        2   -1    0    0  501    0  0.00000000000E+00  0.00000000000E+00  0.19190076232E+04  0.19190076232E+04  0.25500000920E-02 0. -1.
       -2   -1    0    0    0  501  0.00000000000E+00  0.00000000000E+00 -0.91563031934E+03  0.91563031934E+03  0.25500000920E-02 0.  1.
    10030    2    1    2    0    0  0.00000000000E+00  0.00000000000E+00  0.10033773039E+04  0.28346379426E+04  0.26511141529E+04 0.  0.
        2    1    3    3  502    0  0.70299114345E+03  0.93682753513E+02  0.16990912505E+04  0.18411637851E+04  0.25500000920E-02 0. -1.
       -2    1    3    3    0  502 -0.70299114345E+03 -0.93682753513E+02 -0.69571394659E+03  0.99347415747E+03  0.25500000920E-02 0.  1.
</event>
<event>
 5   0  0.2484618E-05  0.2505388E+04  0.7818609E-02  0.8401069E-01
        2   -1    0    0  501    0  0.00000000000E+00  0.00000000000E+00  0.98539861357E+03  0.98539861358E+03  0.25500000920E-02 0.  1.
       -2   -1    0    0    0  501  0.00000000000E+00  0.00000000000E+00 -0.15924948119E+04  0.15924948119E+04  0.25500000920E-02 0. -1.
    10030    2    1    2    0    0  0.00000000000E+00  0.00000000000E+00 -0.60709619829E+03  0.25778934254E+04  0.25053879378E+04 0.  0.
        3    1    3    3  502    0 -0.62076612599E+03  0.46705129838E+03 -0.13147162579E+04  0.15270777149E+04  0.10100000352E+00 0. -1.
       -3    1    3    3    0  502  0.62076612599E+03 -0.46705129838E+03  0.70762005960E+03  0.10508157105E+04  0.10100000352E+00 0.  1.
</event>
<event>
 5   0  0.2528460E-05  0.2605886E+04  0.7818609E-02  0.8366205E-01
        2   -1    0    0  501    0  0.00000000000E+00  0.00000000000E+00  0.13594179135E+04  0.13594179135E+04  0.25500000920E-02 0.  1.
       -2   -1    0    0    0  501  0.00000000000E+00  0.00000000000E+00 -0.12488145656E+04  0.12488145656E+04  0.25500000920E-02 0. -1.
    10030    2    1    2    0    0  0.00000000000E+00  0.00000000000E+00  0.11060334795E+03  0.26082324791E+04  0.26058863299E+04 0.  0.
        5    1    3    3  502    0  0.40247184100E+03 -0.79220125648E+03 -0.89848459523E+03  0.12636704758E+04  0.46999998093E+01 0. -1.
       -5    1    3    3    0  502 -0.40247184100E+03  0.79220125648E+03  0.10090879432E+04  0.13445620033E+04  0.46999998093E+01 0.  1.
</event>
<event>
 5   0  0.1005492E-05  0.2611937E+04  0.7818609E-02  0.8364158E-01
        1   -1    0    0  501    0  0.00000000000E+00  0.00000000000E+00  0.12902620832E+04  0.12902620832E+04  0.50400001928E-02 0. -1.
       -1   -1    0    0    0  501  0.00000000000E+00  0.00000000000E+00 -0.13218663035E+04  0.13218663035E+04  0.50400001928E-02 0.  1.
    10030    2    1    2    0    0  0.00000000000E+00  0.00000000000E+00 -0.31604220367E+02  0.26121283867E+04  0.26119371895E+04 0.  0.
        4    1    3    3  502    0 -0.43252185265E+03 -0.57526854658E+03 -0.11056264858E+04  0.13192500114E+04  0.12699999809E+01 0.  1.
       -4    1    3    3    0  502  0.43252185265E+03  0.57526854658E+03  0.10740222654E+04  0.12928783753E+04  0.12699999809E+01 0. -1.
</event>
<event>
 5   0  0.1025153E-05  0.2593884E+04  0.7818609E-02  0.8370282E-01
       -1   -1    0    0    0  501  0.00000000000E+00  0.00000000000E+00  0.12132033684E+04  0.12132033684E+04  0.50400001928E-02 0. -1.
        1   -1    0    0  501    0  0.00000000000E+00  0.00000000000E+00 -0.13864602759E+04  0.13864602759E+04  0.50400001928E-02 0.  1.
    10030    2    1    2    0    0  0.00000000000E+00  0.00000000000E+00 -0.17325690752E+03  0.25996636443E+04  0.25938837883E+04 0.  0.
        1    1    3    3  502    0 -0.12761403222E+03  0.68582302062E+03  0.10091603375E+04  0.12268019986E+04  0.50400001928E-02 0. -1.
       -1    1    3    3    0  502  0.12761403222E+03 -0.68582302062E+03 -0.11824172450E+04  0.13728616457E+04  0.50400001928E-02 0.  1.
</event>
<event>
 5   0  0.1000421E-05  0.2567143E+04  0.7818609E-02  0.8379448E-01
       -1   -1    0    0    0  501  0.00000000000E+00  0.00000000000E+00  0.83899402280E+03  0.83899402281E+03  0.50400001928E-02 0.  1.
        1   -1    0    0  501    0  0.00000000000E+00  0.00000000000E+00 -0.19637272951E+04  0.19637272951E+04  0.50400001928E-02 0. -1.
    10030    2    1    2    0    0  0.00000000000E+00  0.00000000000E+00 -0.11247332723E+04  0.28027213180E+04  0.25671427409E+04 0.  0.
        3    1    3    3  502    0 -0.15019388622E+03  0.11509649491E+04 -0.11606279037E+04  0.16414431634E+04  0.10100000352E+00 0. -1.
       -3    1    3    3    0  502  0.15019388622E+03 -0.11509649491E+04  0.35894631389E+02  0.11612781546E+04  0.10100000352E+00 0.  1.
</event>
<event>
 5   0  0.2484618E-05  0.2664383E+04  0.7818609E-02  0.8346655E-01
        2   -1    0    0  501    0  0.00000000000E+00  0.00000000000E+00  0.16851994221E+04  0.16851994221E+04  0.25500000920E-02 0.  1.
       -2   -1    0    0    0  501  0.00000000000E+00  0.00000000000E+00 -0.10531301637E+04  0.10531301637E+04  0.25500000920E-02 0. -1.
    10030    2    1    2    0    0  0.00000000000E+00  0.00000000000E+00  0.63206925846E+03  0.27383295858E+04  0.26643831130E+04 0.  0.
        3    1    3    3  502    0  0.82994280149E+03 -0.71480046545E+03  0.10953603883E+04  0.15490510481E+04  0.10100000352E+00 0.  1.
       -3    1    3    3    0  502 -0.82994280149E+03  0.71480046545E+03 -0.46329112980E+03  0.11892785377E+04  0.10100000352E+00 0. -1.
</event>
<event>
 5   0  0.2662024E-05  0.2536541E+04  0.7818609E-02  0.8390082E-01
        2   -1    0    0  501    0  0.00000000000E+00  0.00000000000E+00  0.18720782847E+04  0.18720782847E+04  0.25500000920E-02 0. -1.
       -2   -1    0    0    0  501  0.00000000000E+00  0.00000000000E+00 -0.85921116532E+03  0.85921116532E+03  0.25500000920E-02 0.  1.
    10030    2    1    2    0    0  0.00000000000E+00  0.00000000000E+00  0.10128671194E+04  0.27312894500E+04  0.25365413969E+04 0.  0.
        2    1    3    3  502    0 -0.50033870658E+03  0.18852301709E+03  0.17447883576E+04  0.18248742867E+04  0.25500000920E-02 0. -1.
       -2    1    3    3    0  502  0.50033870658E+03 -0.18852301709E+03 -0.73192123826E+03  0.90641516332E+03  0.25500000920E-02 0.  1.
</event>
<event>
 5   0  0.9855352E-06  0.2640318E+04  0.7818609E-02  0.8354634E-01
       -1   -1    0    0    0  501  0.00000000000E+00  0.00000000000E+00  0.14281628045E+04  0.14281628045E+04  0.50400001928E-02 0. -1.
        1   -1    0    0  501    0  0.00000000000E+00  0.00000000000E+00 -0.12203227567E+04  0.12203227567E+04  0.50400001928E-02 0.  1.
    10030    2    1    2    0    0  0.00000000000E+00  0.00000000000E+00  0.20784004774E+03  0.26484855612E+04  0.26403178374E+04 0.  0.
        2    1    3    3  502    0 -0.49334959491E+03  0.81119659679E+03  0.10240284260E+04  0.13964483372E+04  0.25500000920E-02 0. -1.
       -2    1    3    3    0  502  0.49334959491E+03 -0.81119659679E+03 -0.81618837821E+03  0.12520372240E+04  0.25500000920E-02 0.  1.
</event>
<event>
 5   0  0.9855352E-06  0.2557937E+04  0.7818609E-02  0.8382631E-01
        1   -1    0    0  501    0  0.00000000000E+00  0.00000000000E+00  0.13602076193E+04  0.13602076193E+04  0.50400001928E-02 0.  1.
       -1   -1    0    0    0  501  0.00000000000E+00  0.00000000000E+00 -0.12025813107E+04  0.12025813107E+04  0.50400001928E-02 0. -1.
    10030    2    1    2    0    0  0.00000000000E+00  0.00000000000E+00  0.15762630865E+03  0.25627889300E+04  0.25579368730E+04 0.  0.
        2    1    3    3  502    0 -0.72632099725E+03  0.97903143836E+03 -0.30885169024E+03  0.12575508399E+04  0.25500000920E-02 0.  1.
       -2    1    3    3    0  502  0.72632099725E+03 -0.97903143836E+03  0.46647799889E+03  0.13052380901E+04  0.25500000920E-02 0. -1.
</event>
<event>
 5   0  0.2555801E-05  0.2615072E+04  0.7818609E-02  0.8363100E-01
        2   -1    0    0  501    0  0.00000000000E+00  0.00000000000E+00  0.13157691343E+04  0.13157691343E+04  0.25500000920E-02 0. -1.
       -2   -1    0    0    0  501  0.00000000000E+00  0.00000000000E+00 -0.12993540623E+04  0.12993540623E+04  0.25500000920E-02 0.  1.
    10030    2    1    2    0    0  0.00000000000E+00  0.00000000000E+00  0.16415071989E+02  0.26151231965E+04  0.26150716775E+04 0.  0.
        1    1    3    3  502    0 -0.32161150739E+03  0.35203899120E+02  0.12751092420E+04  0.13155139130E+04  0.50400001928E-02 0. -1.
       -1    1    3    3    0  502  0.32161150739E+03 -0.35203899120E+02 -0.12586941700E+04  0.12996092835E+04  0.50400001928E-02 0.  1.
</event>
<event>
 5   0  0.1000421E-05  0.2582928E+04  0.7818609E-02  0.8374023E-01
        1   -1    0    0  501    0  0.00000000000E+00  0.00000000000E+00  0.10710513730E+04  0.10710513730E+04  0.50400001928E-02 0.  1.
       -1   -1    0    0    0  501  0.00000000000E+00  0.00000000000E+00 -0.15572358596E+04  0.15572358596E+04  0.50400001928E-02 0. -1.
    10030    2    1    2    0    0  0.00000000000E+00  0.00000000000E+00 -0.48618448663E+03  0.26282872326E+04  0.25829282650E+04 0.  0.
        3    1    3    3  502    0 -0.35946533517E+03  0.94394540872E+03 -0.10619800545E+04  0.14656227032E+04  0.10100000352E+00 0. -1.
       -3    1    3    3    0  502  0.35946533517E+03 -0.94394540872E+03  0.57579556784E+03  0.11626645294E+04  0.10100000352E+00 0.  1.
</event>
<event>
 5   0  0.2555801E-05  0.2587054E+04  0.7818609E-02  0.8372612E-01
       -2   -1    0    0    0  501  0.00000000000E+00  0.00000000000E+00  0.85116116514E+03  0.85116116514E+03  0.25500000920E-02 0. -1.
        2   -1    0    0  501    0  0.00000000000E+00  0.00000000000E+00 -0.19657987288E+04  0.19657987288E+04  0.25500000920E-02 0.  1.
    10030    2    1    2    0    0  0.00000000000E+00  0.00000000000E+00 -0.11146375637E+04  0.28169598940E+04  0.25870535645E+04 0.  0.
        1    1    3    3  502    0 -0.12653709017E+02 -0.36091716777E+03  0.79515445939E+03  0.87332235323E+03  0.50400001928E-02 0. -1.
       -1    1    3    3    0  502  0.12653709017E+02  0.36091716777E+03 -0.19097920231E+04  0.19436375407E+04  0.50400001928E-02 0.  1.
</event>
<event>
 5   0  0.9855352E-06  0.3114385E+04  0.7818609E-02  0.8211801E-01
        1   -1    0    0  501    0  0.00000000000E+00  0.00000000000E+00  0.15366573346E+04  0.15366573346E+04  0.50400001928E-02 0. -1.
       -1   -1    0    0    0  501  0.00000000000E+00  0.00000000000E+00 -0.15780023658E+04  0.15780023658E+04  0.50400001928E-02 0.  1.
    10030    2    1    2    0    0  0.00000000000E+00  0.00000000000E+00 -0.41345031193E+02  0.31146597005E+04  0.31143852745E+04 0.  0.
        2    1    3    3  502    0 -0.40757913441E+03  0.67667944485E+03 -0.13627419865E+04  0.15751449278E+04  0.25500000920E-02 0.  1.
       -2    1    3    3    0  502  0.40757913441E+03 -0.67667944485E+03  0.13213969553E+04  0.15395147727E+04  0.25500000920E-02 0. -1.
</event>
<event>
 5   0  0.1005492E-05  0.2626357E+04  0.7818609E-02  0.8359303E-01
        1   -1    0    0  501    0  0.00000000000E+00  0.00000000000E+00  0.22410720146E+04  0.22410720146E+04  0.50400001928E-02 0. -1.
       -1   -1    0    0    0  501  0.00000000000E+00  0.00000000000E+00 -0.76947007754E+03  0.76947007756E+03  0.50400001928E-02 0.  1.
    10030    2    1    2    0    0  0.00000000000E+00  0.00000000000E+00  0.14716019371E+04  0.30105420922E+04  0.26263570640E+04 0.  0.
        4    1    3    3  502    0  0.79719303575E+03  0.53906352649E+03 -0.28839288387E+03  0.10046284339E+04  0.12699999809E+01 0.  1.
       -4    1    3    3    0  502 -0.79719303575E+03 -0.53906352649E+03  0.17599948210E+04  0.20059136583E+04  0.12699999809E+01 0. -1.
</event>
<event>
 5   0  0.2517854E-05  0.2486416E+04  0.7818609E-02  0.8407841E-01
       -2   -1    0    0    0  501  0.00000000000E+00  0.00000000000E+00  0.21490690315E+04  0.21490690315E+04  0.25500000920E-02 0. -1.
        2   -1    0    0  501    0  0.00000000000E+00  0.00000000000E+00 -0.71917933857E+03  0.71917933858E+03  0.25500000920E-02 0.  1.
    10030    2    1    2    0    0  0.00000000000E+00  0.00000000000E+00  0.14298896930E+04  0.28682483701E+04  0.24864159303E+04 0.  0.
        4    1    3    3  502    0  0.38257583843E+03 -0.18572962812E+03 -0.63265922324E+03  0.76231166367E+03  0.12699999809E+01 0.  1.
       -4    1    3    3    0  502 -0.38257583843E+03  0.18572962812E+03  0.20625489162E+04  0.21059367064E+04  0.12699999809E+01 0. -1.
</event>
<event>
 5   0  0.2662024E-05  0.2587593E+04  0.7818609E-02  0.8372428E-01
       -2   -1    0    0    0  501  0.00000000000E+00  0.00000000000E+00  0.67427888879E+03  0.67427888879E+03  0.25500000920E-02 0.  1.
        2   -1    0    0  501    0  0.00000000000E+00  0.00000000000E+00 -0.24825185115E+04  0.24825185115E+04  0.25500000920E-02 0. -1.
    10030    2    1    2    0    0  0.00000000000E+00  0.00000000000E+00 -0.18082396227E+04  0.31567974002E+04  0.25875933400E+04 0.  0.
        2    1    3    3  502    0 -0.97368191672E+02 -0.38040474167E+03 -0.24080673529E+04  0.24398722729E+04  0.25500000920E-02 0. -1.
       -2    1    3    3    0  502  0.97368191672E+02  0.38040474167E+03  0.59982773021E+03  0.71692512731E+03  0.25500000920E-02 0.  1.
</event>
<event>
 5   0  0.1034714E-05  0.2560252E+04  0.7818609E-02  0.8381829E-01
        1   -1    0    0  501    0  0.00000000000E+00  0.00000000000E+00  0.18454182639E+04  0.18454182639E+04  0.50400001928E-02 0.  1.
       -1   -1    0    0    0  501  0.00000000000E+00  0.00000000000E+00 -0.88799539553E+03  0.88799539554E+03  0.50400001928E-02 0. -1.
    10030    2    1    2    0    0  0.00000000000E+00  0.00000000000E+00  0.95742286836E+03  0.27334136594E+04  0.25602522698E+04 0.  0.
        5    1    3    3  502    0 -0.11842019690E+04 -0.46749521175E+03  0.33621220211E+03  0.13167941416E+04  0.46999998093E+01 0.  1.
       -5    1    3    3    0  502  0.11842019690E+04  0.46749521175E+03  0.62121066625E+03  0.14166195179E+04  0.46999998093E+01 0. -1.
</event>
<event>
 5   0  0.2528460E-05  0.2592056E+04  0.7818609E-02  0.8370905E-01
       -2   -1    0    0    0  501  0.00000000000E+00  0.00000000000E+00  0.80260500854E+03  0.80260500854E+03  0.25500000920E-02 0.  1.
        2   -1    0    0  501    0  0.00000000000E+00  0.00000000000E+00 -0.20927961001E+04  0.20927961001E+04  0.25500000920E-02 0. -1.
    10030    2    1    2    0    0  0.00000000000E+00  0.00000000000E+00 -0.12901910916E+04  0.28954011087E+04  0.25920560425E+04 0.  0.
        5    1    3    3  502    0 -0.78562454289E+03 -0.47139147583E+03  0.37883096988E+03  0.99143877250E+03  0.46999998093E+01 0.  1.
       -5    1    3    3    0  502  0.78562454289E+03  0.47139147583E+03 -0.16690220615E+04  0.19039623362E+04  0.46999998093E+01 0. -1.
</event>
<event>
 5   0  0.2662024E-05  0.2671447E+04  0.7818609E-02  0.8344329E-01
        2   -1    0    0  501    0  0.00000000000E+00  0.00000000000E+00  0.11540126247E+04  0.11540126247E+04  0.25500000920E-02 0. -1.
       -2   -1    0    0    0  501  0.00000000000E+00  0.00000000000E+00 -0.15460460413E+04  0.15460460413E+04  0.25500000920E-02 0.  1.
    10030    2    1    2    0    0  0.00000000000E+00  0.00000000000E+00 -0.39203341656E+03  0.27000586660E+04  0.26714465370E+04 0.  0.
        2    1    3    3  502    0 -0.27935855221E+03  0.55537604524E+03 -0.13909109967E+04  0.15235213005E+04  0.25500000920E-02 0.  1.
       -2    1    3    3    0  502  0.27935855221E+03 -0.55537604524E+03  0.99887758013E+03  0.11765373655E+04  0.25500000920E-02 0. -1.
</event>
<event>
 5   0  0.8605000E-06  0.2535029E+04  0.7818609E-02  0.8390612E-01
        4   -1    0    0  501    0  0.00000000000E+00  0.00000000000E+00  0.10647532233E+04  0.10647539807E+04  0.12699999809E+01 0.  1.
       -4   -1    0    0    0  501  0.00000000000E+00  0.00000000000E+00 -0.15088855630E+04  0.15088860975E+04  0.12699999809E+01 0. -1.
    10030    2    1    2    0    0  0.00000000000E+00  0.00000000000E+00 -0.44413233971E+03  0.25736400781E+04  0.25350285436E+04 0.  0.
        1    1    3    3  502    0 -0.40721786228E+03 -0.96348409126E+03 -0.94883589557E+03  0.14122384849E+04  0.50400001928E-02 0. -1.
       -1    1    3    3    0  502  0.40721786228E+03  0.96348409126E+03  0.50470355586E+03  0.11614015932E+04  0.50400001928E-02 0.  1.
</event>
<event>
 5   0  0.1000421E-05  0.2448899E+04  0.7818609E-02  0.8421420E-01
        1   -1    0    0  501    0  0.00000000000E+00  0.00000000000E+00  0.95484119669E+03  0.95484119671E+03  0.50400001928E-02 0.  1.
       -1   -1    0    0    0  501  0.00000000000E+00  0.00000000000E+00 -0.15701837756E+04  0.15701837756E+04  0.50400001928E-02 0. -1.
    10030    2    1    2    0    0  0.00000000000E+00  0.00000000000E+00 -0.61534257889E+03  0.25250249723E+04  0.24488986548E+04 0.  0.
        3    1    3    3  502    0  0.79715122615E+03 -0.89274739238E+03 -0.41123785060E+02  0.11975554934E+04  0.10100000352E+00 0. -1.
       -3    1    3    3    0  502 -0.79715122615E+03  0.89274739238E+03 -0.57421879383E+03  0.13274694789E+04  0.10100000352E+00 0.  1.
</event>
<event>
 5   0  0.2555801E-05  0.2631271E+04  0.7818609E-02  0.8357656E-01
        2   -1    0    0  501    0  0.00000000000E+00  0.00000000000E+00  0.19002866570E+04  0.19002866570E+04  0.25500000920E-02 0.  1.
       -2   -1    0    0    0  501  0.00000000000E+00  0.00000000000E+00 -0.91086097781E+03  0.91086097781E+03  0.25500000920E-02 0. -1.
    10030    2    1    2    0    0  0.00000000000E+00  0.00000000000E+00  0.98942567918E+03  0.28111476348E+04  0.26312711472E+04 0.  0.
        1    1    3    3  502    0 -0.70914159763E+03  0.11022663449E+04  0.61663742219E+03  0.14484870075E+04  0.50400001928E-02 0. -1.
       -1    1    3    3    0  502  0.70914159763E+03 -0.11022663449E+04  0.37278825699E+03  0.13626606273E+04  0.50400001928E-02 0.  1.
</event>
<event>
 5   0  0.1000421E-05  0.2481707E+04  0.7818609E-02  0.8409532E-01
       -1   -1    0    0    0  501  0.00000000000E+00  0.00000000000E+00  0.14294511905E+04  0.14294511905E+04  0.50400001928E-02 0.  1.
        1   -1    0    0  501    0  0.00000000000E+00  0.00000000000E+00 -0.10771386935E+04  0.10771386935E+04  0.50400001928E-02 0. -1.
    10030    2    1    2    0    0  0.00000000000E+00  0.00000000000E+00  0.35231249705E+03  0.25065898840E+04  0.24817068221E+04 0.  0.
        3    1    3    3  502    0  0.98079133092E+03  0.49928185515E+03 -0.40272485207E+03  0.11719305962E+04  0.10100000352E+00 0. -1.
       -3    1    3    3    0  502 -0.98079133092E+03 -0.49928185515E+03  0.75503734912E+03  0.13346592878E+04  0.10100000352E+00 0.  1.
</event>
<event>
 5   0  0.2662024E-05  0.2517052E+04  0.7818609E-02  0.8396936E-01
       -2   -1    0    0    0  501  0.00000000000E+00  0.00000000000E+00  0.65883390703E+03  0.65883390704E+03  0.25500000920E-02 0.  1.
        2   -1    0    0  501    0  0.00000000000E+00  0.00000000000E+00 -0.24040771096E+04  0.24040771096E+04  0.25500000920E-02 0. -1.
    10030    2    1    2    0    0  0.00000000000E+00  0.00000000000E+00 -0.17452432026E+04  0.30629110167E+04  0.25170518588E+04 0.  0.
        2    1    3    3  502    0 -0.10508100043E+04  0.67711041536E+03 -0.69541280851E+03  0.14304821404E+04  0.25500000920E-02 0. -1.
       -2    1    3    3    0  502  0.10508100043E+04 -0.67711041536E+03 -0.10498303941E+04  0.16324288763E+04  0.25500000920E-02 0.  1.
</event>
<event>
 5   0  0.2484618E-05  0.2595725E+04  0.7818609E-02  0.8369655E-01
       -2   -1    0    0    0  501  0.00000000000E+00  0.00000000000E+00  0.20312177775E+04  0.20312177775E+04  0.25500000920E-02 0. -1.
        2   -1    0    0  501    0  0.00000000000E+00  0.00000000000E+00 -0.82927931684E+03  0.82927931684E+03  0.25500000920E-02 0.  1.
    10030    2    1    2    0    0  0.00000000000E+00  0.00000000000E+00  0.12019384607E+04  0.28604970944E+04  0.25957248629E+04 0.  0.
        3    1    3    3  502    0  0.30863166347E+03  0.11307862847E+04  0.12150488363E+04  0.16882756914E+04  0.10100000352E+00 0. -1.
       -3    1    3    3    0  502 -0.30863166347E+03 -0.11307862847E+04 -0.13110375594E+02  0.11722214030E+04  0.10100000352E+00 0.  1.
</event>
<event>
 5   0  0.2555801E-05  0.2559561E+04  0.7818609E-02  0.8382069E-01
       -2   -1    0    0    0  501  0.00000000000E+00  0.00000000000E+00  0.62628057203E+03  0.62628057204E+03  0.25500000920E-02 0.  1.
        2   -1    0    0  501    0  0.00000000000E+00  0.00000000000E+00 -0.26151829763E+04  0.26151829763E+04  0.25500000920E-02 0. -1.
    10030    2    1    2    0    0  0.00000000000E+00  0.00000000000E+00 -0.19889024043E+04  0.32414635484E+04  0.25595611267E+04 0.  0.
        1    1    3    3  502    0  0.65309253487E+03  0.27820945669E+03  0.35409097052E+03  0.79329110441E+03  0.50400001928E-02 0.  1.
       -1    1    3    3    0  502 -0.65309253487E+03 -0.27820945669E+03 -0.23429933748E+04  0.24481724440E+04  0.50400001928E-02 0. -1.
</event>
<event>
 5   0  0.2528460E-05  0.2393400E+04  0.7818609E-02  0.8441979E-01
       -2   -1    0    0    0  501  0.00000000000E+00  0.00000000000E+00  0.10365391213E+04  0.10365391213E+04  0.25500000920E-02 0.  1.
        2   -1    0    0  501    0  0.00000000000E+00  0.00000000000E+00 -0.13816078707E+04  0.13816078707E+04  0.25500000920E-02 0. -1.
    10030    2    1    2    0    0  0.00000000000E+00  0.00000000000E+00 -0.34506874940E+03  0.24181469921E+04  0.23933997647E+04 0.  0.
        5    1    3    3  502    0  0.33374316861E+03  0.72518523649E+03 -0.10732625669E+04  0.13376071013E+04  0.46999998093E+01 0. -1.
       -5    1    3    3    0  502 -0.33374316861E+03 -0.72518523649E+03  0.72819381751E+03  0.10805398908E+04  0.46999998093E+01 0.  1.
</event>
<event>
 5   0  0.1005492E-05  0.2620012E+04  0.7818609E-02  0.8361435E-01
       -1   -1    0    0    0  501  0.00000000000E+00  0.00000000000E+00  0.98028664510E+03  0.98028664511E+03  0.50400001928E-02 0.  1.
        1   -1    0    0  501    0  0.00000000000E+00  0.00000000000E+00 -0.17506269249E+04  0.17506269249E+04  0.50400001928E-02 0. -1.
    10030    2    1    2    0    0  0.00000000000E+00  0.00000000000E+00 -0.77034027980E+03  0.27309135700E+04  0.26200123626E+04 0.  0.
        4    1    3    3  502    0  0.12079126774E+04 -0.46069342558E+03 -0.60584640541E+03  0.14277054838E+04  0.12699999809E+01 0. -1.
       -4    1    3    3    0  502 -0.12079126774E+04  0.46069342558E+03 -0.16449387439E+03  0.13032080863E+04  0.12699999809E+01 0.  1.
</event>
<event>
 5   0  0.1034714E-05  0.2608457E+04  0.7818609E-02  0.8365334E-01
        1   -1    0    0  501    0  0.00000000000E+00  0.00000000000E+00  0.22414807799E+04  0.22414807799E+04  0.50400001928E-02 0. -1.
       -1   -1    0    0    0  501  0.00000000000E+00  0.00000000000E+00 -0.75887865863E+03  0.75887865865E+03  0.50400001928E-02 0.  1.
    10030    2    1    2    0    0  0.00000000000E+00  0.00000000000E+00  0.14826021213E+04  0.30003594385E+04  0.26084569597E+04 0.  0.
        5    1    3    3  502    0 -0.82287246236E+03  0.39542768513E+03  0.18126384901E+04  0.20295720065E+04  0.46999998093E+01 0. -1.
       -5    1    3    3    0  502  0.82287246236E+03 -0.39542768513E+03 -0.33003636889E+03  0.97078743207E+03  0.46999998093E+01 0.  1.
</event>
<event>
 5   0  0.2517854E-05  0.2569978E+04  0.7818609E-02  0.8378471E-01
       -2   -1    0    0    0  501  0.00000000000E+00  0.00000000000E+00  0.74252881985E+03  0.74252881986E+03  0.25500000920E-02 0.  1.
        2   -1    0    0  501    0  0.00000000000E+00  0.00000000000E+00 -0.22237477806E+04  0.22237477806E+04  0.25500000920E-02 0. -1.
    10030    2    1    2    0    0  0.00000000000E+00  0.00000000000E+00 -0.14812189608E+04  0.29662766005E+04  0.25699780662E+04 0.  0.
        4    1    3    3  502    0 -0.17108278376E+03 -0.83784428667E+03 -0.18476477886E+04  0.20359411414E+04  0.12699999809E+01 0. -1.
       -4    1    3    3    0  502  0.17108278376E+03  0.83784428667E+03  0.36642882786E+03  0.93033545906E+03  0.12699999809E+01 0.  1.
</event>
<event>
 5   0  0.1005492E-05  0.2619569E+04  0.7818609E-02  0.8361584E-01
       -1   -1    0    0    0  501  0.00000000000E+00  0.00000000000E+00  0.98758644968E+03  0.98758644970E+03  0.50400001928E-02 0. -1.
        1   -1    0    0  501    0  0.00000000000E+00  0.00000000000E+00 -0.17370990298E+04  0.17370990298E+04  0.50400001928E-02 0.  1.
    10030    2    1    2    0    0  0.00000000000E+00  0.00000000000E+00 -0.74951258013E+03  0.27246854795E+04  0.26195690208E+04 0.  0.
        4    1    3    3  502    0  0.56019625026E+03  0.90470435887E+03  0.41957969622E+03  0.11438350188E+04  0.12699999809E+01 0. -1.
       -4    1    3    3    0  502 -0.56019625026E+03 -0.90470435887E+03 -0.11690922764E+04  0.15808504608E+04  0.12699999809E+01 0.  1.
</event>
<event>
 5   0  0.1025153E-05  0.2591765E+04  0.7818609E-02  0.8371004E-01
        1   -1    0    0  501    0  0.00000000000E+00  0.00000000000E+00  0.10420068874E+04  0.10420068875E+04  0.50400001928E-02 0. -1.
       -1   -1    0    0    0  501  0.00000000000E+00  0.00000000000E+00 -0.16116132072E+04  0.16116132072E+04  0.50400001928E-02 0.  1.
    10030    2    1    2    0    0  0.00000000000E+00  0.00000000000E+00 -0.56960631975E+03  0.26536200947E+04  0.25917654692E+04 0.  0.
        1    1    3    3  502    0 -0.86224852601E+03  0.34965871552E+02 -0.12746314668E+04  0.15392792174E+04  0.50400001928E-02 0.  1.
       -1    1    3    3    0  502  0.86224852601E+03 -0.34965871552E+02  0.70502514707E+03  0.11143408773E+04  0.50400001928E-02 0. -1.
</event>
<event>
 5   0  0.2555801E-05  0.2579017E+04  0.7818609E-02  0.8375364E-01
        2   -1    0    0  501    0  0.00000000000E+00  0.00000000000E+00  0.20639679075E+04  0.20639679075E+04  0.25500000920E-02 0.  1.
       -2   -1    0    0    0  501  0.00000000000E+00  0.00000000000E+00 -0.80564850452E+03  0.80564850452E+03  0.25500000920E-02 0. -1.
    10030    2    1    2    0    0  0.00000000000E+00  0.00000000000E+00  0.12583194030E+04  0.28696164121E+04  0.25790173773E+04 0.  0.
        1    1    3    3  502    0  0.69803858626E+03 -0.93727092997E+03  0.12356438284E+04  0.17007499330E+04  0.50400001928E-02 0. -1.
       -1    1    3    3    0  502 -0.69803858626E+03  0.93727092997E+03  0.22675574643E+02  0.11688664790E+04  0.50400001928E-02 0.  1.
</event>
<event>
 5   0  0.1034714E-05  0.2558942E+04  0.7818609E-02  0.8382283E-01
        1   -1    0    0  501    0  0.00000000000E+00  0.00000000000E+00  0.15943949218E+04  0.15943949218E+04  0.50400001928E-02 0.  1.
       -1   -1    0    0    0  501  0.00000000000E+00  0.00000000000E+00 -0.10267510596E+04  0.10267510596E+04  0.50400001928E-02 0. -1.
    10030    2    1    2    0    0  0.00000000000E+00  0.00000000000E+00  0.56764386220E+03  0.26211459814E+04  0.25589424967E+04 0.  0.
        5    1    3    3  502    0  0.61398088578E+03  0.60259000930E+03 -0.68626741274E+03  0.11004873008E+04  0.46999998093E+01 0. -1.
       -5    1    3    3    0  502 -0.61398088578E+03 -0.60259000930E+03  0.12539112749E+04  0.15206586806E+04  0.46999998093E+01 0.  1.
</event>
<event>
 5   0  0.2517854E-05  0.2461541E+04  0.7818609E-02  0.8416816E-01
        2   -1    0    0  501    0  0.00000000000E+00  0.00000000000E+00  0.15136443687E+04  0.15136443687E+04  0.25500000920E-02 0.  1.
       -2   -1    0    0    0  501  0.00000000000E+00  0.00000000000E+00 -0.10007604655E+04  0.10007604655E+04  0.25500000920E-02 0. -1.
    10030    2    1    2    0    0  0.00000000000E+00  0.00000000000E+00  0.51288390321E+03  0.25144048342E+04  0.24615405283E+04 0.  0.
        4    1    3    3  502    0  0.71598806047E+03  0.97291155918E+03  0.15585714944E+02  0.12080729830E+04  0.12699999809E+01 0. -1.
       -4    1    3    3    0  502 -0.71598806047E+03 -0.97291155918E+03  0.49729818826E+03  0.13063318513E+04  0.12699999809E+01 0.  1.
</event>
<event>
 5   0  0.2555801E-05  0.2440366E+04  0.7818609E-02  0.8424544E-01
        2   -1    0    0  501    0  0.00000000000E+00  0.00000000000E+00  0.17850087042E+04  0.17850087042E+04  0.25500000920E-02 0.  1.
       -2   -1    0    0    0  501  0.00000000000E+00  0.00000000000E+00 -0.83408365856E+03  0.83408365856E+03  0.25500000920E-02 0. -1.
    10030    2    1    2    0    0  0.00000000000E+00  0.00000000000E+00  0.95092504559E+03  0.26190923627E+04  0.24403660304E+04 0.  0.
        1    1    3    3  502    0  0.36558529047E+03 -0.93834882503E+03 -0.26397823665E+03  0.10410742680E+04  0.50400001928E-02 0. -1.
       -1    1    3    3    0  502 -0.36558529047E+03  0.93834882503E+03  0.12149032822E+04  0.15780180947E+04  0.50400001928E-02 0.  1.
</event>
<event>
 5   0  0.2484618E-05  0.2593873E+04  0.7818609E-02  0.8370285E-01
        2   -1    0    0  501    0  0.00000000000E+00  0.00000000000E+00  0.14012572933E+04  0.14012572933E+04  0.25500000920E-02 0. -1.
       -2   -1    0    0    0  501  0.00000000000E+00  0.00000000000E+00 -0.12003821687E+04  0.12003821687E+04  0.25500000920E-02 0.  1.
    10030    2    1    2    0    0  0.00000000000E+00  0.00000000000E+00  0.20087512458E+03  0.26016394621E+04  0.25938729874E+04 0.  0.
        3    1    3    3  502    0  0.12773463567E+03  0.10593049434E+04 -0.63906314153E+03  0.12437221592E+04  0.10100000352E+00 0.  1.
       -3    1    3    3    0  502 -0.12773463567E+03 -0.10593049434E+04  0.83993826611E+03  0.13579173028E+04  0.10100000352E+00 0. -1.
</event>
<event>
 5   0  0.2662024E-05  0.2570577E+04  0.7818609E-02  0.8378265E-01
       -2   -1    0    0    0  501  0.00000000000E+00  0.00000000000E+00  0.13797696939E+04  0.13797696939E+04  0.25500000920E-02 0.  1.
        2   -1    0    0  501    0  0.00000000000E+00  0.00000000000E+00 -0.11972765437E+04  0.11972765437E+04  0.25500000920E-02 0. -1.
    10030    2    1    2    0    0  0.00000000000E+00  0.00000000000E+00  0.18249315017E+03  0.25770462376E+04  0.25705765036E+04 0.  0.
        2    1    3    3  502    0  0.29659944890E+03  0.38029782863E+03 -0.11031243304E+04  0.12039439189E+04  0.25500000920E-02 0. -1.
       -2    1    3    3    0  502 -0.29659944890E+03 -0.38029782863E+03  0.12856174805E+04  0.13731023188E+04  0.25500000920E-02 0.  1.
</event>
<event>
 5   0  0.2555801E-05  0.2601767E+04  0.7818609E-02  0.8367601E-01
       -2   -1    0    0    0  501  0.00000000000E+00  0.00000000000E+00  0.14066971921E+04  0.14066971921E+04  0.25500000920E-02 0. -1.
        2   -1    0    0  501    0  0.00000000000E+00  0.00000000000E+00 -0.12030291322E+04  0.12030291322E+04  0.25500000920E-02 0.  1.
    10030    2    1    2    0    0  0.00000000000E+00  0.00000000000E+00  0.20366805994E+03  0.26097263243E+04  0.26017668630E+04 0.  0.
        1    1    3    3  502    0  0.10548488324E+04 -0.48917905601E+03  0.68696715894E+03  0.13505280766E+04  0.50400001928E-02 0. -1.
       -1    1    3    3    0  502 -0.10548488324E+04  0.48917905601E+03 -0.48329909901E+03  0.12591982478E+04  0.50400001928E-02 0.  1.
</event>
<event>
 5   0  0.2528460E-05  0.2606616E+04  0.7818609E-02  0.8365957E-01
       -2   -1    0    0    0  501  0.00000000000E+00  0.00000000000E+00  0.11959410490E+04  0.11959410490E+04  0.25500000920E-02 0. -1.
        2   -1    0    0  501    0  0.00000000000E+00  0.00000000000E+00 -0.14203142926E+04  0.14203142926E+04  0.25500000920E-02 0.  1.
    10030    2    1    2    0    0  0.00000000000E+00  0.00000000000E+00 -0.22437324370E+03  0.26162553416E+04  0.26066163239E+04 0.  0.
        5    1    3    3  502    0  0.35785945021E+03  0.47689528892E+03 -0.12753930657E+04  0.14078856718E+04  0.46999998093E+01 0.  1.
       -5    1    3    3    0  502 -0.35785945021E+03 -0.47689528892E+03  0.10510198220E+04  0.12083696698E+04  0.46999998093E+01 0. -1.
</event>
<event>
 5   0  0.2662024E-05  0.2484028E+04  0.7818609E-02  0.8408698E-01
        2   -1    0    0  501    0  0.00000000000E+00  0.00000000000E+00  0.23765878631E+04  0.23765878631E+04  0.25500000920E-02 0.  1.
       -2   -1    0    0    0  501  0.00000000000E+00  0.00000000000E+00 -0.64908137540E+03  0.64908137541E+03  0.25500000920E-02 0. -1.
    10030    2    1    2    0    0  0.00000000000E+00  0.00000000000E+00  0.17275064877E+04  0.30256692385E+04  0.24840281149E+04 0.  0.
        2    1    3    3  502    0 -0.65271877342E+02  0.50523607505E+03 -0.51596677608E+03  0.72508318387E+03  0.25500000920E-02 0. -1.
       -2    1    3    3    0  502  0.65271877342E+02 -0.50523607505E+03  0.22434732638E+04  0.23005860546E+04  0.25500000920E-02 0.  1.
</event>
<event>
 5   0  0.1000421E-05  0.2589571E+04  0.7818609E-02  0.8371752E-01
       -1   -1    0    0    0  501  0.00000000000E+00  0.00000000000E+00  0.11543644352E+04  0.11543644352E+04  0.50400001928E-02 0.  1.
        1   -1    0    0  501    0  0.00000000000E+00  0.00000000000E+00 -0.14522883110E+04  0.14522883110E+04  0.50400001928E-02 0. -1.
    10030    2    1    2    0    0  0.00000000000E+00  0.00000000000E+00 -0.29792387579E+03  0.26066527462E+04  0.25895713745E+04 0.  0.
        3    1    3    3  502    0  0.13104791207E+03  0.13523353868E+03  0.11405063986E+04  0.11559483209E+04  0.10100000352E+00 0.  1.
       -3    1    3    3    0  502 -0.13104791207E+03 -0.13523353868E+03 -0.14384302743E+04  0.14507044253E+04  0.10100000352E+00 0. -1.
</event>
<event>
 5   0  0.1025153E-05  0.2591102E+04  0.7818609E-02  0.8371230E-01
        1   -1    0    0  501    0  0.00000000000E+00  0.00000000000E+00  0.24126476729E+04  0.24126476729E+04  0.50400001928E-02 0. -1.
       -1   -1    0    0    0  501  0.00000000000E+00  0.00000000000E+00 -0.69568887676E+03  0.69568887678E+03  0.50400001928E-02 0.  1.
    10030    2    1    2    0    0  0.00000000000E+00  0.00000000000E+00  0.17169587962E+04  0.31083365497E+04  0.25911018117E+04 0.  0.
        1    1    3    3  502    0  0.67036672592E+03  0.26074193814E+03  0.21511073795E+04  0.22681800774E+04  0.50400001928E-02 0. -1.
       -1    1    3    3    0  502 -0.67036672592E+03 -0.26074193814E+03 -0.43414858331E+03  0.84015647229E+03  0.50400001928E-02 0.  1.
</event>
<event>
 5   0  0.2517854E-05  0.2593230E+04  0.7818609E-02  0.8370504E-01
       -2   -1    0    0    0  501  0.00000000000E+00  0.00000000000E+00  0.10304577891E+04  0.10304577891E+04  0.25500000920E-02 0. -1.
        2   -1    0    0  501    0  0.00000000000E+00  0.00000000000E+00 -0.16315185619E+04  0.16315185619E+04  0.25500000920E-02 0.  1.
    10030    2    1    2    0    0  0.00000000000E+00  0.00000000000E+00 -0.60106077278E+03  0.26619763510E+04  0.25932304257E+04 0.  0.
        4    1    3    3  502    0 -0.43064885253E+02 -0.50772366907E+03 -0.15244346192E+04  0.16073395502E+04  0.12699999809E+01 0.  1.
       -4    1    3    3    0  502  0.43064885253E+02  0.50772366907E+03  0.92337384641E+03  0.10546368008E+04  0.12699999809E+01 0. -1.
</event>
<event>
 5   0  0.2528460E-05  0.2539825E+04  0.7818609E-02  0.8388934E-01
        2   -1    0    0  501    0  0.00000000000E+00  0.00000000000E+00  0.24046966529E+04  0.24046966529E+04  0.25500000920E-02 0.  1.
       -2   -1    0    0    0  501  0.00000000000E+00  0.00000000000E+00 -0.67063659518E+03  0.67063659518E+03  0.25500000920E-02 0. -1.
    10030    2    1    2    0    0  0.00000000000E+00  0.00000000000E+00  0.17340600577E+04  0.30753332481E+04  0.25398248567E+04 0.  0.
        5    1    3    3  502    0  0.26106540583E+03  0.11271070018E+04  0.23306279372E+03  0.11801973120E+04  0.46999998093E+01 0. -1.
       -5    1    3    3    0  502 -0.26106540583E+03 -0.11271070018E+04  0.15009972640E+04  0.18951359360E+04  0.46999998093E+01 0.  1.
</event>
<event>
 5   0  0.2528460E-05  0.2493252E+04  0.7818609E-02  0.8405393E-01
       -2   -1    0    0    0  501  0.00000000000E+00  0.00000000000E+00  0.68860017020E+03  0.68860017021E+03  0.25500000920E-02 0. -1.
        2   -1    0    0  501    0  0.00000000000E+00  0.00000000000E+00 -0.22568638729E+04  0.22568638729E+04  0.25500000920E-02 0.  1.
    10030    2    1    2    0    0  0.00000000000E+00  0.00000000000E+00 -0.15682637027E+04  0.29454640432E+04  0.24932523715E+04 0.  0.
        5    1    3    3  502    0  0.91869994893E+03  0.64923689479E+03 -0.14187141466E+04  0.18106048883E+04  0.46999998093E+01 0.  1.
       -5    1    3    3    0  502 -0.91869994893E+03 -0.64923689479E+03 -0.14954955618E+03  0.11348591549E+04  0.46999998093E+01 0. -1.
</event>
<event>
 5   0  0.1005492E-05  0.2620589E+04  0.7818609E-02  0.8361241E-01
       -1   -1    0    0    0  501  0.00000000000E+00  0.00000000000E+00  0.99387907977E+03  0.99387907979E+03  0.50400001928E-02 0. -1.
        1   -1    0    0  501    0  0.00000000000E+00  0.00000000000E+00 -0.17274452770E+04  0.17274452770E+04  0.50400001928E-02 0.  1.
    10030    2    1    2    0    0  0.00000000000E+00  0.00000000000E+00 -0.73356619722E+03  0.27213243568E+04  0.26205890348E+04 0.  0.
        4    1    3    3  502    0  0.10027263154E+04 -0.75860528395E+03  0.16073346748E+02  0.12574585504E+04  0.12699999809E+01 0. -1.
       -4    1    3    3    0  502 -0.10027263154E+04  0.75860528395E+03 -0.74963954397E+03  0.14638658064E+04  0.12699999809E+01 0.  1.
</event>
<event>
 5   0  0.1034714E-05  0.2580683E+04  0.7818609E-02  0.8374793E-01
       -1   -1    0    0    0  501  0.00000000000E+00  0.00000000000E+00  0.98733198813E+03  0.98733198815E+03  0.50400001928E-02 0.  1.
        1   -1    0    0  501    0  0.00000000000E+00  0.00000000000E+00 -0.16863433919E+04  0.16863433919E+04  0.50400001928E-02 0. -1.
    10030    2    1    2    0    0  0.00000000000E+00  0.00000000000E+00 -0.69901140378E+03  0.26736753801E+04  0.25806826801E+04 0.  0.
        5    1    3    3  502    0  0.96585605188E+03  0.31008015691E+03  0.47668269410E+03  0.11208372306E+04  0.46999998093E+01 0.  1.
       -5    1    3    3    0  502 -0.96585605188E+03 -0.31008015691E+03 -0.11756940979E+04  0.15528381495E+04  0.46999998093E+01 0. -1.
</event>
<event>
 5   0  0.2555801E-05  0.2587551E+04  0.7818609E-02  0.8372442E-01
       -2   -1    0    0    0  501  0.00000000000E+00  0.00000000000E+00  0.91509303285E+03  0.91509303286E+03  0.25500000920E-02 0. -1.
        2   -1    0    0  501    0  0.00000000000E+00  0.00000000000E+00 -0.18291642130E+04  0.18291642130E+04  0.25500000920E-02 0.  1.
    10030    2    1    2    0    0  0.00000000000E+00  0.00000000000E+00 -0.91407118018E+03  0.27442572459E+04  0.25875512960E+04 0.  0.
        1    1    3    3  502    0 -0.12162185179E+03  0.21359686561E+03 -0.18041741027E+04  0.18208403798E+04  0.50400001928E-02 0.  1.
       -1    1    3    3    0  502  0.12162185179E+03 -0.21359686561E+03  0.89010292253E+03  0.92341686608E+03  0.50400001928E-02 0. -1.
</event>
<event>
 5   0  0.2517854E-05  0.2617056E+04  0.7818609E-02  0.8362431E-01
       -2   -1    0    0    0  501  0.00000000000E+00  0.00000000000E+00  0.25329968301E+04  0.25329968301E+04  0.25500000920E-02 0.  1.
        2   -1    0    0  501    0  0.00000000000E+00  0.00000000000E+00 -0.67597634081E+03  0.67597634081E+03  0.25500000920E-02 0. -1.
    10030    2    1    2    0    0  0.00000000000E+00  0.00000000000E+00  0.18570204893E+04  0.32089731710E+04  0.26170563070E+04 0.  0.
        4    1    3    3  502    0  0.81319097045E+03 -0.86007461694E+03  0.24444390471E+03  0.12086200133E+04  0.12699999809E+01 0. -1.
       -4    1    3    3    0  502 -0.81319097045E+03  0.86007461694E+03  0.16125765846E+04  0.20003531576E+04  0.12699999809E+01 0.  1.
</event>
<event>
 5   0  0.2662024E-05  0.2581053E+04  0.7818609E-02  0.8374666E-01
       -2   -1    0    0    0  501  0.00000000000E+00  0.00000000000E+00  0.11442652411E+04  0.11442652411E+04  0.25500000920E-02 0. -1.
        2   -1    0    0  501    0  0.00000000000E+00  0.00000000000E+00 -0.14554825271E+04  0.14554825271E+04  0.25500000920E-02 0.  1.
    10030    2    1    2    0    0  0.00000000000E+00  0.00000000000E+00 -0.31121728604E+03  0.25997477682E+04  0.25810525487E+04 0.  0.
        2    1    3    3  502    0  0.44015281865E+03  0.20301014400E+03  0.10490940569E+04  0.11556582377E+04  0.25500000920E-02 0. -1.
       -2    1    3    3    0  502 -0.44015281865E+03 -0.20301014400E+03 -0.13603113429E+04  0.14440895305E+04  0.25500000920E-02 0.  1.
</event>
<event>
 5   0  0.2662024E-05  0.2578790E+04  0.7818609E-02  0.8375442E-01
       -2   -1    0    0    0  501  0.00000000000E+00  0.00000000000E+00  0.11649818051E+04  0.11649818051E+04  0.25500000920E-02 0. -1.
        2   -1    0    0  501    0  0.00000000000E+00  0.00000000000E+00 -0.14270949104E+04  0.14270949104E+04  0.25500000920E-02 0.  1.
    10030    2    1    2    0    0  0.00000000000E+00  0.00000000000E+00 -0.26211310525E+03  0.25920767155E+04  0.25787901076E+04 0.  0.
        2    1    3    3  502    0 -0.10340684883E+04 -0.68312710508E+03  0.22655640152E+03  0.12598762174E+04  0.25500000920E-02 0. -1.
       -2    1    3    3    0  502  0.10340684883E+04  0.68312710508E+03 -0.48866950677E+03  0.13322004981E+04  0.25500000920E-02 0.  1.
</event>
<event>
 5   0  0.9855352E-06  0.2525863E+04  0.7818609E-02  0.8393829E-01
        1   -1    0    0  501    0  0.00000000000E+00  0.00000000000E+00  0.16741023372E+04  0.16741023372E+04  0.50400001928E-02 0.  1.
       -1   -1    0    0    0  501  0.00000000000E+00  0.00000000000E+00 -0.95274663681E+03  0.95274663682E+03  0.50400001928E-02 0. -1.
    10030    2    1    2    0    0  0.00000000000E+00  0.00000000000E+00  0.72135570038E+03  0.26268489740E+04  0.25258625231E+04 0.  0.
        2    1    3    3  502    0 -0.12522317428E+04 -0.91252458517E+02  0.50245141428E+03  0.13523567475E+04  0.25500000920E-02 0.  1.
       -2    1    3    3    0  502  0.12522317428E+04  0.91252458517E+02  0.21890428611E+03  0.12744922265E+04  0.25500000920E-02 0. -1.
</event>
<event>
 5   0  0.1000421E-05  0.2619521E+04  0.7818609E-02  0.8361600E-01
        1   -1    0    0  501    0  0.00000000000E+00  0.00000000000E+00  0.16437449281E+04  0.16437449281E+04  0.50400001928E-02 0. -1.
       -1   -1    0    0    0  501  0.00000000000E+00  0.00000000000E+00 -0.10436369970E+04  0.10436369970E+04  0.50400001928E-02 0.  1.
    10030    2    1    2    0    0  0.00000000000E+00  0.00000000000E+00  0.60010793109E+03  0.26873819251E+04  0.26195213460E+04 0.  0.
        3    1    3    3  502    0  0.12553883064E+04 -0.34435139274E+03  0.15175707167E+03  0.13105754082E+04  0.10100000352E+00 0. -1.
       -3    1    3    3    0  502 -0.12553883064E+04  0.34435139274E+03  0.44835085942E+03  0.13768065169E+04  0.10100000352E+00 0.  1.
</event>
<event>
 5   0  0.2528460E-05  0.2617105E+04  0.7818609E-02  0.8362414E-01
       -2   -1    0    0    0  501  0.00000000000E+00  0.00000000000E+00  0.79702116544E+03  0.79702116545E+03  0.25500000920E-02 0.  1.
        2   -1    0    0  501    0  0.00000000000E+00  0.00000000000E+00 -0.21483873843E+04  0.21483873843E+04  0.25500000920E-02 0. -1.
    10030    2    1    2    0    0  0.00000000000E+00  0.00000000000E+00 -0.13513662188E+04  0.29454085497E+04  0.26171054368E+04 0.  0.
        5    1    3    3  502    0 -0.33623331291E+03 -0.12455482753E+04 -0.92185678159E+03  0.15856498235E+04  0.46999998093E+01 0. -1.
       -5    1    3    3    0  502  0.33623331291E+03  0.12455482753E+04 -0.42950943723E+03  0.13597587262E+04  0.46999998093E+01 0.  1.
</event>
<event>
 5   0  0.2555801E-05  0.2586008E+04  0.7818609E-02  0.8372970E-01
       -2   -1    0    0    0  501  0.00000000000E+00  0.00000000000E+00  0.95798100677E+03  0.95798100677E+03  0.25500000920E-02 0.  1.
        2   -1    0    0  501    0  0.00000000000E+00  0.00000000000E+00 -0.17451900008E+04  0.17451900008E+04  0.25500000920E-02 0. -1.
    10030    2    1    2    0    0  0.00000000000E+00  0.00000000000E+00 -0.78720899403E+03  0.27031710076E+04  0.25860076365E+04 0.  0.
        1    1    3    3  502    0 -0.14714570781E+03 -0.11596088300E+04  0.18417156331E+03  0.11833273692E+04  0.50400001928E-02 0.  1.
       -1    1    3    3    0  502  0.14714570781E+03  0.11596088300E+04 -0.97138055734E+03  0.15198436384E+04  0.50400001928E-02 0. -1.
</event>
<event>
 5   0  0.1005492E-05  0.2590964E+04  0.7818609E-02  0.8371277E-01
       -1   -1    0    0    0  501  0.00000000000E+00  0.00000000000E+00  0.74780873294E+03  0.74780873296E+03  0.50400001928E-02 0. -1.
        1   -1    0    0  501    0  0.00000000000E+00  0.00000000000E+00 -0.22442553296E+04  0.22442553296E+04  0.50400001928E-02 0.  1.
    10030    2    1    2    0    0  0.00000000000E+00  0.00000000000E+00 -0.14964465966E+04  0.29920640626E+04  0.25909640943E+04 0.  0.
        4    1    3    3  502    0 -0.37169858560E+03 -0.12367905967E+04 -0.63010902541E+03  0.14369585295E+04  0.12699999809E+01 0. -1.
       -4    1    3    3    0  502  0.37169858560E+03  0.12367905967E+04 -0.86633757124E+03  0.15551055331E+04  0.12699999809E+01 0.  1.
</event>
<event>
 5   0  0.1000421E-05  0.2699271E+04  0.7818609E-02  0.8335242E-01
        1   -1    0    0  501    0  0.00000000000E+00  0.00000000000E+00  0.24877085467E+04  0.24877085467E+04  0.50400001928E-02 0.  1.
       -1   -1    0    0    0  501  0.00000000000E+00  0.00000000000E+00 -0.73220631096E+03  0.73220631098E+03  0.50400001928E-02 0. -1.
    10030    2    1    2    0    0  0.00000000000E+00  0.00000000000E+00  0.17555022357E+04  0.32199148577E+04  0.26992709369E+04 0.  0.
        3    1    3    3  502    0  0.11395532872E+03  0.40567186745E+02  0.24812294307E+04  0.24841761233E+04  0.10100000352E+00 0.  1.
       -3    1    3    3    0  502 -0.11395532872E+03 -0.40567186745E+02 -0.72572719495E+03  0.73573873439E+03  0.10100000352E+00 0. -1.
</event>
<event>
 5   0  0.2528460E-05  0.2599550E+04  0.7818609E-02  0.8368354E-01
       -2   -1    0    0    0  501  0.00000000000E+00  0.00000000000E+00  0.16626005704E+04  0.16626005704E+04  0.25500000920E-02 0. -1.
        2   -1    0    0  501    0  0.00000000000E+00  0.00000000000E+00 -0.10161282403E+04  0.10161282403E+04  0.25500000920E-02 0.  1.
    10030    2    1    2    0    0  0.00000000000E+00  0.00000000000E+00  0.64647233007E+03  0.26787288107E+04  0.25995502626E+04 0.  0.
        5    1    3    3  502    0 -0.42189259625E+03  0.49509614865E+03  0.14828018623E+04  0.16192087611E+04  0.46999998093E+01 0. -1.
       -5    1    3    3    0  502  0.42189259625E+03 -0.49509614865E+03 -0.83632953221E+03  0.10595200497E+04  0.46999998093E+01 0.  1.
</event>
<event>
 5   0  0.2528460E-05  0.2614169E+04  0.7818609E-02  0.8363404E-01
        2   -1    0    0  501    0  0.00000000000E+00  0.00000000000E+00  0.11566971017E+04  0.11566971017E+04  0.25500000920E-02 0.  1.
       -2   -1    0    0    0  501  0.00000000000E+00  0.00000000000E+00 -0.14770243201E+04  0.14770243201E+04  0.25500000920E-02 0. -1.
    10030    2    1    2    0    0  0.00000000000E+00  0.00000000000E+00 -0.32032721845E+03  0.26337214218E+04  0.26141688930E+04 0.  0.
        5    1    3    3  502    0 -0.80474132497E+03 -0.10075186456E+04 -0.37564468913E+03  0.13430686668E+04  0.46999998093E+01 0. -1.
       -5    1    3    3    0  502  0.80474132497E+03  0.10075186456E+04  0.55317470676E+02  0.12906527550E+04  0.46999998093E+01 0.  1.
</event>
<event>
 5   0  0.2662024E-05  0.2267840E+04  0.7818609E-02  0.8490710E-01
        2   -1    0    0  501    0  0.00000000000E+00  0.00000000000E+00  0.15099911363E+04  0.15099911363E+04  0.25500000920E-02 0.  1.
       -2   -1    0    0    0  501  0.00000000000E+00  0.00000000000E+00 -0.85151125752E+03  0.85151125752E+03  0.25500000920E-02 0. -1.
    10030    2    1    2    0    0  0.00000000000E+00  0.00000000000E+00  0.65847987881E+03  0.23615023938E+04  0.22678398985E+04 0.  0.
        2    1    3    3  502    0  0.54499089310E+03 -0.28389515619E+03  0.13215739606E+04  0.14574530066E+04  0.25500000920E-02 0.  1.
       -2    1    3    3    0  502 -0.54499089310E+03  0.28389515619E+03 -0.66309408176E+03  0.90404938722E+03  0.25500000920E-02 0. -1.
</event>
<event>
 5   0  0.2517854E-05  0.2390371E+04  0.7818609E-02  0.8443117E-01
        2   -1    0    0  501    0  0.00000000000E+00  0.00000000000E+00  0.14493037916E+04  0.14493037916E+04  0.25500000920E-02 0. -1.
       -2   -1    0    0    0  501  0.00000000000E+00  0.00000000000E+00 -0.98562349467E+03  0.98562349467E+03  0.25500000920E-02 0.  1.
    10030    2    1    2    0    0  0.00000000000E+00  0.00000000000E+00  0.46368029697E+03  0.24349272863E+04  0.23903705721E+04 0.  0.
        4    1    3    3  502    0  0.10160154111E+04 -0.56229804345E+02 -0.40675632092E+03  0.10958564797E+04  0.12699999809E+01 0.  1.
       -4    1    3    3    0  502 -0.10160154111E+04  0.56229804345E+02  0.87043661789E+03  0.13390708066E+04  0.12699999809E+01 0. -1.
</event>
<event>
 5   0  0.1025153E-05  0.2582075E+04  0.7818609E-02  0.8374316E-01
        1   -1    0    0  501    0  0.00000000000E+00  0.00000000000E+00  0.15072742570E+04  0.15072742570E+04  0.50400001928E-02 0.  1.
       -1   -1    0    0    0  501  0.00000000000E+00  0.00000000000E+00 -0.11058223805E+04  0.11058223806E+04  0.50400001928E-02 0. -1.
    10030    2    1    2    0    0  0.00000000000E+00  0.00000000000E+00  0.40145187647E+03  0.26130966376E+04  0.25820748301E+04 0.  0.
        1    1    3    3  502    0  0.28840328864E+03 -0.11288518004E+04  0.76355035517E+03  0.13930154303E+04  0.50400001928E-02 0.  1.
       -1    1    3    3    0  502 -0.28840328864E+03  0.11288518004E+04 -0.36209847870E+03  0.12200812073E+04  0.50400001928E-02 0. -1.
</event>
<event>
 5   0  0.1025153E-05  0.2599245E+04  0.7818609E-02  0.8368458E-01
        1   -1    0    0  501    0  0.00000000000E+00  0.00000000000E+00  0.12282184048E+04  0.12282184048E+04  0.50400001928E-02 0.  1.
       -1   -1    0    0    0  501  0.00000000000E+00  0.00000000000E+00 -0.13751777006E+04  0.13751777006E+04  0.50400001928E-02 0. -1.
    10030    2    1    2    0    0  0.00000000000E+00  0.00000000000E+00 -0.14695929579E+03  0.26033961054E+04  0.25992449378E+04 0.  0.
        1    1    3    3  502    0 -0.71151515073E+03  0.53315530924E+03 -0.10228912664E+04  0.13552914581E+04  0.50400001928E-02 0. -1.
       -1    1    3    3    0  502  0.71151515073E+03 -0.53315530924E+03  0.87593197057E+03  0.12481046473E+04  0.50400001928E-02 0.  1.
</event>
<event>
 5   0  0.1000421E-05  0.2606027E+04  0.7818609E-02  0.8366157E-01
        1   -1    0    0  501    0  0.00000000000E+00  0.00000000000E+00  0.26647595642E+04  0.26647595642E+04  0.50400001928E-02 0. -1.
       -1   -1    0    0    0  501  0.00000000000E+00  0.00000000000E+00 -0.63714741162E+03  0.63714741164E+03  0.50400001928E-02 0.  1.
    10030    2    1    2    0    0  0.00000000000E+00  0.00000000000E+00  0.20276121526E+04  0.33019069758E+04  0.26060273667E+04 0.  0.
        3    1    3    3  502    0  0.90879123929E+03 -0.42807838247E+03  0.20652797184E+04  0.22966351350E+04  0.10100000352E+00 0. -1.
       -3    1    3    3    0  502 -0.90879123929E+03  0.42807838247E+03 -0.37667565830E+02  0.10052718408E+04  0.10100000352E+00 0.  1.
</event>
<event>
 5   0  0.2555801E-05  0.2460856E+04  0.7818609E-02  0.8417065E-01
        2   -1    0    0  501    0  0.00000000000E+00  0.00000000000E+00  0.16545242536E+04  0.16545242536E+04  0.25500000920E-02 0.  1.
       -2   -1    0    0    0  501  0.00000000000E+00  0.00000000000E+00 -0.91503829195E+03  0.91503829195E+03  0.25500000920E-02 0. -1.
    10030    2    1    2    0    0  0.00000000000E+00  0.00000000000E+00  0.73948596170E+03  0.25695625456E+04  0.24608559869E+04 0.  0.
        1    1    3    3  502    0  0.36882123791E+03  0.74426699517E+03 -0.57809502370E+03  0.10120060880E+04  0.50400001928E-02 0. -1.
       -1    1    3    3    0  502 -0.36882123791E+03 -0.74426699517E+03  0.13175809854E+04  0.15575564576E+04  0.50400001928E-02 0.  1.
</event>
<event>
 5   0  0.8605000E-06  0.2540049E+04  0.7818609E-02  0.8388855E-01
       -3   -1    0    0    0  501  0.00000000000E+00  0.00000000000E+00  0.12740368958E+04  0.12740368998E+04  0.10100000352E+00 0. -1.
        3   -1    0    0  501    0  0.00000000000E+00  0.00000000000E+00 -0.12660244849E+04  0.12660244890E+04  0.10100000352E+00 0.  1.
    10030    2    1    2    0    0  0.00000000000E+00  0.00000000000E+00  0.80124108143E+01  0.25400613887E+04  0.25400487515E+04 0.  0.
        5    1    3    3  502    0 -0.41245930131E+03 -0.10675399592E+04 -0.54661035983E+03  0.12682938205E+04  0.46999998093E+01 0.  1.
       -5    1    3    3    0  502  0.41245930131E+03  0.10675399592E+04  0.55462277064E+03  0.12717675682E+04  0.46999998093E+01 0. -1.
</event>
<event>
 5   0  0.2517854E-05  0.2589055E+04  0.7818609E-02  0.8371928E-01
       -2   -1    0    0    0  501  0.00000000000E+00  0.00000000000E+00  0.15277600420E+04  0.15277600420E+04  0.25500000920E-02 0.  1.
        2   -1    0    0  501    0  0.00000000000E+00  0.00000000000E+00 -0.10969009390E+04  0.10969009390E+04  0.25500000920E-02 0. -1.
    10030    2    1    2    0    0  0.00000000000E+00  0.00000000000E+00  0.43085910302E+03  0.26246609810E+04  0.25890549817E+04 0.  0.
        4    1    3    3  502    0  0.69782255036E+03 -0.37413867103E+03  0.12536545474E+04  0.14827634316E+04  0.12699999809E+01 0.  1.
       -4    1    3    3    0  502 -0.69782255036E+03  0.37413867103E+03 -0.82279544441E+03  0.11418975493E+04  0.12699999809E+01 0. -1.
</event>
<event>
 5   0  0.1005492E-05  0.2583867E+04  0.7818609E-02  0.8373702E-01
       -1   -1    0    0    0  501  0.00000000000E+00  0.00000000000E+00  0.15046702708E+04  0.15046702708E+04  0.50400001928E-02 0.  1.
        1   -1    0    0  501    0  0.00000000000E+00  0.00000000000E+00 -0.11092747440E+04  0.11092747441E+04  0.50400001928E-02 0. -1.
    10030    2    1    2    0    0  0.00000000000E+00  0.00000000000E+00  0.39539552675E+03  0.26139450149E+04  0.25838674343E+04 0.  0.
        4    1    3    3  502    0 -0.12387157041E+04  0.34776046019E+03  0.31626783123E+03  0.13249078787E+04  0.12699999809E+01 0.  1.
       -4    1    3    3    0  502  0.12387157041E+04 -0.34776046019E+03  0.79127695520E+02  0.12890371361E+04  0.12699999809E+01 0. -1.
</event>
<event>
 5   0  0.1034714E-05  0.2504443E+04  0.7818609E-02  0.8401404E-01
        1   -1    0    0  501    0  0.00000000000E+00  0.00000000000E+00  0.12534714947E+04  0.12534714947E+04  0.50400001928E-02 0. -1.
       -1   -1    0    0    0  501  0.00000000000E+00  0.00000000000E+00 -0.12509729545E+04  0.12509729545E+04  0.50400001928E-02 0.  1.
    10030    2    1    2    0    0  0.00000000000E+00  0.00000000000E+00  0.24985402327E+01  0.25044444492E+04  0.25044432029E+04 0.  0.
        5    1    3    3  502    0 -0.93321571486E+03  0.82575356794E+03  0.12484675773E+03  0.12523455307E+04  0.46999998093E+01 0.  1.
       -5    1    3    3    0  502  0.93321571486E+03 -0.82575356794E+03 -0.12234821749E+03  0.12520989185E+04  0.46999998093E+01 0. -1.
</event>
<event>
 5   0  0.2555801E-05  0.2590981E+04  0.7818609E-02  0.8371271E-01
        2   -1    0    0  501    0  0.00000000000E+00  0.00000000000E+00  0.12826600298E+04  0.12826600299E+04  0.25500000920E-02 0. -1.
       -2   -1    0    0    0  501  0.00000000000E+00  0.00000000000E+00 -0.13084488329E+04  0.13084488329E+04  0.25500000920E-02 0.  1.
    10030    2    1    2    0    0  0.00000000000E+00  0.00000000000E+00 -0.25788803068E+02  0.25911088628E+04  0.25909805241E+04 0.  0.
        1    1    3    3  502    0 -0.90248021712E+03 -0.75893792591E+03  0.52363725358E+03  0.12902144361E+04  0.50400001928E-02 0. -1.
       -1    1    3    3    0  502  0.90248021712E+03  0.75893792591E+03 -0.54942605664E+03  0.13008944267E+04  0.50400001928E-02 0.  1.
</event>
<event>
 5   0  0.1000421E-05  0.2609330E+04  0.7818609E-02  0.8365039E-01
        1   -1    0    0  501    0  0.00000000000E+00  0.00000000000E+00  0.14528763488E+04  0.14528763488E+04  0.50400001928E-02 0. -1.
       -1   -1    0    0    0  501  0.00000000000E+00  0.00000000000E+00 -0.11715733898E+04  0.11715733898E+04  0.50400001928E-02 0.  1.
    10030    2    1    2    0    0  0.00000000000E+00  0.00000000000E+00  0.28130295904E+03  0.26244497386E+04  0.26093303884E+04 0.  0.
        3    1    3    3  502    0 -0.84126756040E+03 -0.19768268667E+03  0.11237307908E+04  0.14175967174E+04  0.10100000352E+00 0. -1.
       -3    1    3    3    0  502  0.84126756040E+03  0.19768268667E+03 -0.84242783177E+03  0.12068530212E+04  0.10100000352E+00 0.  1.
</event>
<event>
 5   0  0.2662024E-05  0.2598035E+04  0.7818609E-02  0.8368869E-01
       -2   -1    0    0    0  501  0.00000000000E+00  0.00000000000E+00  0.86091797380E+03  0.86091797380E+03  0.25500000920E-02 0.  1.
        2   -1    0    0  501    0  0.00000000000E+00  0.00000000000E+00 -0.19600552905E+04  0.19600552905E+04  0.25500000920E-02 0. -1.
    10030    2    1    2    0    0  0.00000000000E+00  0.00000000000E+00 -0.10991373167E+04  0.28209732643E+04  0.25980352802E+04 0.  0.
        2    1    3    3  502    0 -0.40804167853E+03  0.60141881069E+03 -0.17186410317E+04  0.18659929241E+04  0.25500000920E-02 0. -1.
       -2    1    3    3    0  502  0.40804167853E+03 -0.60141881069E+03  0.61950371494E+03  0.95498034016E+03  0.25500000920E-02 0.  1.
</event>
<event>
 5   0  0.2662024E-05  0.2700008E+04  0.7818609E-02  0.8335002E-01
        2   -1    0    0  501    0  0.00000000000E+00  0.00000000000E+00  0.19011456382E+04  0.19011456382E+04  0.25500000920E-02 0.  1.
       -2   -1    0    0    0  501  0.00000000000E+00  0.00000000000E+00 -0.95863839869E+03  0.95863839870E+03  0.25500000920E-02 0. -1.
    10030    2    1    2    0    0  0.00000000000E+00  0.00000000000E+00  0.94250723951E+03  0.28597840369E+04  0.27000083039E+04 0.  0.
        2    1    3    3  502    0  0.54907723321E+03 -0.12001836538E+04  0.17058080481E+03  0.13307984152E+04  0.25500000920E-02 0. -1.
       -2    1    3    3    0  502 -0.54907723321E+03  0.12001836538E+04  0.77192643470E+03  0.15289856217E+04  0.25500000920E-02 0.  1.
</event>
<event>
 5   0  0.2517854E-05  0.2604979E+04  0.7818609E-02  0.8366512E-01
        2   -1    0    0  501    0  0.00000000000E+00  0.00000000000E+00  0.13610941436E+04  0.13610941436E+04  0.25500000920E-02 0. -1.
       -2   -1    0    0    0  501  0.00000000000E+00  0.00000000000E+00 -0.12464081506E+04  0.12464081506E+04  0.25500000920E-02 0.  1.
    10030    2    1    2    0    0  0.00000000000E+00  0.00000000000E+00  0.11468599296E+03  0.26075022942E+04  0.26049789514E+04 0.  0.
        4    1    3    3  502    0  0.72400914103E+03 -0.52217839611E+03  0.10067435452E+04  0.13455087114E+04  0.12699999809E+01 0. -1.
       -4    1    3    3    0  502 -0.72400914103E+03  0.52217839611E+03 -0.89205755223E+03  0.12619935828E+04  0.12699999809E+01 0.  1.
</event>
<event>
 5   0  0.2528460E-05  0.2598313E+04  0.7818609E-02  0.8368775E-01
        2   -1    0    0  501    0  0.00000000000E+00  0.00000000000E+00  0.24160003026E+04  0.24160003026E+04  0.25500000920E-02 0.  1.
       -2   -1    0    0    0  501  0.00000000000E+00  0.00000000000E+00 -0.69859556426E+03  0.69859556427E+03  0.25500000920E-02 0. -1.
    10030    2    1    2    0    0  0.00000000000E+00  0.00000000000E+00  0.17174047383E+04  0.31145958668E+04  0.25983126022E+04 0.  0.
        5    1    3    3  502    0 -0.54416753836E+03  0.96659743191E+03  0.48044615541E+02  0.11102969334E+04  0.46999998093E+01 0. -1.
       -5    1    3    3    0  502  0.54416753836E+03 -0.96659743191E+03  0.16693601228E+04  0.20042989335E+04  0.46999998093E+01 0.  1.
</event>
<event>
 5   0  0.2555801E-05  0.2592195E+04  0.7818609E-02  0.8370857E-01
       -2   -1    0    0    0  501  0.00000000000E+00  0.00000000000E+00  0.63502468949E+03  0.63502468949E+03  0.25500000920E-02 0. -1.
        2   -1    0    0  501    0  0.00000000000E+00  0.00000000000E+00 -0.26453605116E+04  0.26453605117E+04  0.25500000920E-02 0.  1.
    10030    2    1    2    0    0  0.00000000000E+00  0.00000000000E+00 -0.20103358222E+04  0.32803852011E+04  0.25921953919E+04 0.  0.
        1    1    3    3  502    0 -0.94237284344E+03  0.77455214226E+02  0.11662850463E+03  0.95271616674E+03  0.50400001928E-02 0. -1.
       -1    1    3    3    0  502  0.94237284344E+03 -0.77455214226E+02 -0.21269643268E+04  0.23276690344E+04  0.50400001928E-02 0.  1.
</event>
<event>
 5   0  0.2528460E-05  0.2585917E+04  0.7818609E-02  0.8373001E-01
       -2   -1    0    0    0  501  0.00000000000E+00  0.00000000000E+00  0.13411816885E+04  0.13411816885E+04  0.25500000920E-02 0. -1.
        2   -1    0    0  501    0  0.00000000000E+00  0.00000000000E+00 -0.12464687703E+04  0.12464687703E+04  0.25500000920E-02 0.  1.
    10030    2    1    2    0    0  0.00000000000E+00  0.00000000000E+00  0.94712918248E+02  0.25876504588E+04  0.25859165416E+04 0.  0.
        5    1    3    3  502    0  0.46005562268E+03  0.71871849392E+03  0.10193529960E+04  0.13294021475E+04  0.46999998093E+01 0. -1.
       -5    1    3    3    0  502 -0.46005562268E+03 -0.71871849392E+03 -0.92464007770E+03  0.12582483112E+04  0.46999998093E+01 0.  1.
</event>
<event>
 5   0  0.1005492E-05  0.2124256E+04  0.7818609E-02  0.8550633E-01
       -1   -1    0    0    0  501  0.00000000000E+00  0.00000000000E+00  0.11796880574E+04  0.11796880574E+04  0.50400001928E-02 0.  1.
        1   -1    0    0  501    0  0.00000000000E+00  0.00000000000E+00 -0.95628282790E+03  0.95628282791E+03  0.50400001928E-02 0. -1.
    10030    2    1    2    0    0  0.00000000000E+00  0.00000000000E+00  0.22340522946E+03  0.21359708853E+04  0.21242555699E+04 0.  0.
        4    1    3    3  502    0  0.48493059463E+02 -0.18471004942E+03 -0.93887747632E+03  0.95810328651E+03  0.12699999809E+01 0. -1.
       -4    1    3    3    0  502 -0.48493059463E+02  0.18471004942E+03  0.11622827058E+04  0.11778675988E+04  0.12699999809E+01 0.  1.
</event>
<event>
 5   0  0.1034714E-05  0.2565578E+04  0.7818609E-02  0.8379988E-01
        1   -1    0    0  501    0  0.00000000000E+00  0.00000000000E+00  0.20320153628E+04  0.20320153629E+04  0.50400001928E-02 0. -1.
       -1   -1    0    0    0  501  0.00000000000E+00  0.00000000000E+00 -0.80981082441E+03  0.80981082443E+03  0.50400001928E-02 0.  1.
    10030    2    1    2    0    0  0.00000000000E+00  0.00000000000E+00  0.12222045384E+04  0.28418261873E+04  0.25655783256E+04 0.  0.
        5    1    3    3  502    0  0.90220124447E+02  0.12457225352E+04  0.93510732414E+03  0.15602602678E+04  0.46999998093E+01 0. -1.
       -5    1    3    3    0  502 -0.90220124447E+02 -0.12457225352E+04  0.28709721430E+03  0.12815659195E+04  0.46999998093E+01 0.  1.
</event>
<event>
 5   0  0.2517854E-05  0.2598877E+04  0.7818609E-02  0.8368583E-01
        2   -1    0    0  501    0  0.00000000000E+00  0.00000000000E+00  0.15101794504E+04  0.15101794504E+04  0.25500000920E-02 0.  1.
       -2   -1    0    0    0  501  0.00000000000E+00  0.00000000000E+00 -0.11181055291E+04  0.11181055291E+04  0.25500000920E-02 0. -1.
    10030    2    1    2    0    0  0.00000000000E+00  0.00000000000E+00  0.39207392124E+03  0.26282849795E+04  0.25988766754E+04 0.  0.
        4    1    3    3  502    0  0.25120194534E+03  0.12149081047E+03 -0.10874482484E+04  0.11226788233E+04  0.12699999809E+01 0. -1.
       -4    1    3    3    0  502 -0.25120194534E+03 -0.12149081047E+03  0.14795221696E+04  0.15056061562E+04  0.12699999809E+01 0.  1.
</event>
<event>
 5   0  0.2662024E-05  0.2591200E+04  0.7818609E-02  0.8371196E-01
        2   -1    0    0  501    0  0.00000000000E+00  0.00000000000E+00  0.20386521652E+04  0.20386521652E+04  0.25500000920E-02 0. -1.
       -2   -1    0    0    0  501  0.00000000000E+00  0.00000000000E+00 -0.82337723232E+03  0.82337723232E+03  0.25500000920E-02 0.  1.
    10030    2    1    2    0    0  0.00000000000E+00  0.00000000000E+00  0.12152749329E+04  0.28620293975E+04  0.25912003222E+04 0.  0.
        2    1    3    3  502    0 -0.15874431605E+03 -0.78321507967E+03  0.17340051956E+04  0.19092929679E+04  0.25500000920E-02 0. -1.
       -2    1    3    3    0  502  0.15874431605E+03  0.78321507967E+03 -0.51873026271E+03  0.95273642963E+03  0.25500000920E-02 0.  1.
</event>
<event>
 5   0  0.1034714E-05  0.2603448E+04  0.7818609E-02  0.8367031E-01
       -1   -1    0    0    0  501  0.00000000000E+00  0.00000000000E+00  0.11292752795E+04  0.11292752795E+04  0.50400001928E-02 0. -1.
        1   -1    0    0  501    0  0.00000000000E+00  0.00000000000E+00 -0.15005074041E+04  0.15005074041E+04  0.50400001928E-02 0.  1.
    10030    2    1    2    0    0  0.00000000000E+00  0.00000000000E+00 -0.37123212461E+03  0.26297826837E+04  0.26034484195E+04 0.  0.
        5    1    3    3  502    0 -0.30378434729E+03 -0.19485165169E+03  0.10777193012E+04  0.11365531567E+04  0.46999998093E+01 0. -1.
       -5    1    3    3    0  502  0.30378434729E+03  0.19485165169E+03 -0.14489514258E+04  0.14932295270E+04  0.46999998093E+01 0.  1.
</event>
<event>
 5   0  0.9855352E-06  0.1937791E+04  0.7818609E-02  0.8636271E-01
       -1   -1    0    0    0  501  0.00000000000E+00  0.00000000000E+00  0.49176741171E+03  0.49176741173E+03  0.50400001928E-02 0. -1.
        1   -1    0    0  501    0  0.00000000000E+00  0.00000000000E+00 -0.19089477014E+04  0.19089477014E+04  0.50400001928E-02 0.  1.
    10030    2    1    2    0    0  0.00000000000E+00  0.00000000000E+00 -0.14171802897E+04  0.24007151132E+04  0.19377907733E+04 0.  0.
        2    1    3    3  502    0  0.24327079097E+03  0.49720910245E+03 -0.16937714882E+04  0.17819257626E+04  0.25500000920E-02 0.  1.
       -2    1    3    3    0  502 -0.24327079097E+03 -0.49720910245E+03  0.27659119845E+03  0.61878935056E+03  0.25500000920E-02 0. -1.
</event>
<event>
 5   0  0.2528460E-05  0.2614865E+04  0.7818609E-02  0.8363169E-01
        2   -1    0    0  501    0  0.00000000000E+00  0.00000000000E+00  0.17417488154E+04  0.17417488154E+04  0.25500000920E-02 0.  1.
       -2   -1    0    0    0  501  0.00000000000E+00  0.00000000000E+00 -0.98141552853E+03  0.98141552853E+03  0.25500000920E-02 0. -1.
    10030    2    1    2    0    0  0.00000000000E+00  0.00000000000E+00  0.76033328686E+03  0.27231643439E+04  0.26148646881E+04 0.  0.
        5    1    3    3  502    0 -0.11643279077E+04 -0.15676262986E+03  0.97761986892E+03  0.15283967734E+04  0.46999998093E+01 0.  1.
       -5    1    3    3    0  502  0.11643279077E+04  0.15676262986E+03 -0.21728658206E+03  0.11947675705E+04  0.46999998093E+01 0. -1.
</event>
<event>
 5   0  0.9855352E-06  0.2599166E+04  0.7818609E-02  0.8368484E-01
       -1   -1    0    0    0  501  0.00000000000E+00  0.00000000000E+00  0.12458885276E+04  0.12458885276E+04  0.50400001928E-02 0. -1.
        1   -1    0    0  501    0  0.00000000000E+00  0.00000000000E+00 -0.13555920711E+04  0.13555920711E+04  0.50400001928E-02 0.  1.
    10030    2    1    2    0    0  0.00000000000E+00  0.00000000000E+00 -0.10970354346E+03  0.26014805987E+04  0.25991664891E+04 0.  0.
        2    1    3    3  502    0  0.42344077896E+02 -0.12947362054E+04  0.49075867272E+02  0.12963577065E+04  0.25500000920E-02 0. -1.
       -2    1    3    3    0  502 -0.42344077896E+02  0.12947362054E+04 -0.15877941074E+03  0.13051228922E+04  0.25500000920E-02 0.  1.
</event>
<event>
 5   0  0.1000421E-05  0.2572951E+04  0.7818609E-02  0.8377448E-01
        1   -1    0    0  501    0  0.00000000000E+00  0.00000000000E+00  0.11583957461E+04  0.11583957461E+04  0.50400001928E-02 0.  1.
       -1   -1    0    0    0  501  0.00000000000E+00  0.00000000000E+00 -0.14287164144E+04  0.14287164145E+04  0.50400001928E-02 0. -1.
    10030    2    1    2    0    0  0.00000000000E+00  0.00000000000E+00 -0.27032066833E+03  0.25871121606E+04  0.25729508483E+04 0.  0.
        3    1    3    3  502    0  0.93836757199E+03 -0.76555747731E+03 -0.57160817431E+03  0.13391593880E+04  0.10100000352E+00 0.  1.
       -3    1    3    3    0  502 -0.93836757199E+03  0.76555747731E+03  0.30128750597E+03  0.12479527726E+04  0.10100000352E+00 0. -1.
</event>
<event>
 5   0  0.1025153E-05  0.2597027E+04  0.7818609E-02  0.8369212E-01
       -1   -1    0    0    0  501  0.00000000000E+00  0.00000000000E+00  0.11905006013E+04  0.11905006013E+04  0.50400001928E-02 0. -1.
        1   -1    0    0  501    0  0.00000000000E+00  0.00000000000E+00 -0.14163260650E+04  0.14163260650E+04  0.50400001928E-02 0.  1.
    10030    2    1    2    0    0  0.00000000000E+00  0.00000000000E+00 -0.22582546372E+03  0.26068266663E+04  0.25970267862E+04 0.  0.
        1    1    3    3  502    0  0.10886935784E+04 -0.66878364814E+03 -0.34532858280E+03  0.13235471679E+04  0.50400001928E-02 0. -1.
       -1    1    3    3    0  502 -0.10886935784E+04  0.66878364814E+03  0.11950311909E+03  0.12832794984E+04  0.50400001928E-02 0.  1.
</event>
<event>
 5   0  0.2555801E-05  0.1887833E+04  0.7818609E-02  0.8660936E-01
        2   -1    0    0  501    0  0.00000000000E+00  0.00000000000E+00  0.71758784300E+03  0.71758784300E+03  0.25500000920E-02 0. -1.
       -2   -1    0    0    0  501  0.00000000000E+00  0.00000000000E+00 -0.12416301019E+04  0.12416301019E+04  0.25500000920E-02 0.  1.
    10030    2    1    2    0    0  0.00000000000E+00  0.00000000000E+00 -0.52404225886E+03  0.19592179449E+04  0.18878333259E+04 0.  0.
        1    1    3    3  502    0 -0.76162270530E+03 -0.32257141659E+03 -0.73403463493E+03  0.11058608906E+04  0.50400001928E-02 0. -1.
       -1    1    3    3    0  502  0.76162270530E+03  0.32257141659E+03  0.20999237607E+03  0.85335705427E+03  0.50400001928E-02 0.  1.
</event>
<event>
 5   0  0.2484618E-05  0.2546556E+04  0.7818609E-02  0.8386585E-01
       -2   -1    0    0    0  501  0.00000000000E+00  0.00000000000E+00  0.10903328031E+04  0.10903328031E+04  0.25500000920E-02 0. -1.
        2   -1    0    0  501    0  0.00000000000E+00  0.00000000000E+00 -0.14869189643E+04  0.14869189643E+04  0.25500000920E-02 0.  1.
    10030    2    1    2    0    0  0.00000000000E+00  0.00000000000E+00 -0.39658616118E+03  0.25772517674E+04  0.25465557307E+04 0.  0.
        3    1    3    3  502    0 -0.12656273886E+04  0.74446726233E+02 -0.79053065851E+02  0.12702772923E+04  0.10100000352E+00 0. -1.
       -3    1    3    3    0  502  0.12656273886E+04 -0.74446726233E+02 -0.31753309533E+03  0.13069744751E+04  0.10100000352E+00 0.  1.
</event>
<event>
 5   0  0.2528460E-05  0.2578934E+04  0.7818609E-02  0.8375392E-01
       -2   -1    0    0    0  501  0.00000000000E+00  0.00000000000E+00  0.11808946218E+04  0.11808946218E+04  0.25500000920E-02 0. -1.
        2   -1    0    0  501    0  0.00000000000E+00  0.00000000000E+00 -0.14080218001E+04  0.14080218001E+04  0.25500000920E-02 0.  1.
    10030    2    1    2    0    0  0.00000000000E+00  0.00000000000E+00 -0.22712717828E+03  0.25889164219E+04  0.25789341761E+04 0.  0.
        5    1    3    3  502    0 -0.18890573926E+02 -0.12481998947E+04 -0.43783627542E+03  0.13229068467E+04  0.46999998093E+01 0. -1.
       -5    1    3    3    0  502  0.18890573926E+02  0.12481998947E+04  0.21070909714E+03  0.12660095752E+04  0.46999998093E+01 0.  1.
</event>
<event>
 5   0  0.2517854E-05  0.2620054E+04  0.7818609E-02  0.8361421E-01
        2   -1    0    0  501    0  0.00000000000E+00  0.00000000000E+00  0.20068904923E+04  0.20068904923E+04  0.25500000920E-02 0. -1.
       -2   -1    0    0    0  501  0.00000000000E+00  0.00000000000E+00 -0.85513904344E+03  0.85513904345E+03  0.25500000920E-02 0.  1.
    10030    2    1    2    0    0  0.00000000000E+00  0.00000000000E+00  0.11517514489E+04  0.28620295358E+04  0.26200537520E+04 0.  0.
        4    1    3    3  502    0 -0.52726929259E+02 -0.74587803039E+03  0.17508837793E+04  0.19038670612E+04  0.12699999809E+01 0. -1.
       -4    1    3    3    0  502  0.52726929259E+02  0.74587803039E+03 -0.59913233045E+03  0.95816247452E+03  0.12699999809E+01 0.  1.
</event>
<event>
 5   0  0.2555801E-05  0.2608751E+04  0.7818609E-02  0.8365235E-01
        2   -1    0    0  501    0  0.00000000000E+00  0.00000000000E+00  0.12156118503E+04  0.12156118503E+04  0.25500000920E-02 0.  1.
       -2   -1    0    0    0  501  0.00000000000E+00  0.00000000000E+00 -0.13996208801E+04  0.13996208801E+04  0.25500000920E-02 0. -1.
    10030    2    1    2    0    0  0.00000000000E+00  0.00000000000E+00 -0.18400902986E+03  0.26152327304E+04  0.26087512168E+04 0.  0.
        1    1    3    3  502    0 -0.11008965193E+04  0.90540608043E+02 -0.78743185377E+03  0.13565469665E+04  0.50400001928E-02 0. -1.
       -1    1    3    3    0  502  0.11008965193E+04 -0.90540608043E+02  0.60342282390E+03  0.12586857639E+04  0.50400001928E-02 0.  1.
</event>
<event>
 5   0  0.9855352E-06  0.2629788E+04  0.7818609E-02  0.8358153E-01
        1   -1    0    0  501    0  0.00000000000E+00  0.00000000000E+00  0.21580457438E+04  0.21580457438E+04  0.50400001928E-02 0. -1.
       -1   -1    0    0    0  501  0.00000000000E+00  0.00000000000E+00 -0.80116263924E+03  0.80116263926E+03  0.50400001928E-02 0.  1.
    10030    2    1    2    0    0  0.00000000000E+00  0.00000000000E+00  0.13568831045E+04  0.29592083830E+04  0.26297875380E+04 0.  0.
        2    1    3    3  502    0 -0.18957550160E+03 -0.72772716327E+03 -0.53529137761E+03  0.92307234490E+03  0.25500000920E-02 0.  1.
       -2    1    3    3    0  502  0.18957550160E+03  0.72772716327E+03  0.18921744821E+04  0.20361360381E+04  0.25500000920E-02 0. -1.
</event>
<event>
 5   0  0.1000421E-05  0.2600904E+04  0.7818609E-02  0.8367894E-01
        1   -1    0    0  501    0  0.00000000000E+00  0.00000000000E+00  0.23529076697E+04  0.23529076697E+04  0.50400001928E-02 0.  1.
       -1   -1    0    0    0  501  0.00000000000E+00  0.00000000000E+00 -0.71875981540E+03  0.71875981542E+03  0.50400001928E-02 0. -1.
    10030    2    1    2    0    0  0.00000000000E+00  0.00000000000E+00  0.16341478543E+04  0.30716674851E+04  0.26009040600E+04 0.  0.
        3    1    3    3  502    0  0.92458574264E+03  0.34132426760E+03 -0.18490857995E+03  0.10027722794E+04  0.10100000352E+00 0. -1.
       -3    1    3    3    0  502 -0.92458574264E+03 -0.34132426760E+03  0.18190564343E+04  0.20688952057E+04  0.10100000352E+00 0.  1.
</event>
<event>
 5   0  0.2484618E-05  0.2550863E+04  0.7818609E-02  0.8385086E-01
        2   -1    0    0  501    0  0.00000000000E+00  0.00000000000E+00  0.11323221720E+04  0.11323221720E+04  0.25500000920E-02 0. -1.
       -2   -1    0    0    0  501  0.00000000000E+00  0.00000000000E+00 -0.14366272376E+04  0.14366272376E+04  0.25500000920E-02 0.  1.
    10030    2    1    2    0    0  0.00000000000E+00  0.00000000000E+00 -0.30430506556E+03  0.25689494095E+04  0.25508625004E+04 0.  0.
        3    1    3    3  502    0  0.62315436942E+03 -0.65616796782E+03 -0.10573286481E+04  0.13916973990E+04  0.10100000352E+00 0.  1.
       -3    1    3    3    0  502 -0.62315436942E+03  0.65616796782E+03  0.75302358258E+03  0.11772520105E+04  0.10100000352E+00 0. -1.
</event>
<event>
 5   0  0.2484618E-05  0.2500792E+04  0.7818609E-02  0.8402703E-01
        2   -1    0    0  501    0  0.00000000000E+00  0.00000000000E+00  0.14235806359E+04  0.14235806359E+04  0.25500000920E-02 0.  1.
       -2   -1    0    0    0  501  0.00000000000E+00  0.00000000000E+00 -0.10982804296E+04  0.10982804296E+04  0.25500000920E-02 0. -1.
    10030    2    1    2    0    0  0.00000000000E+00  0.00000000000E+00  0.32530020630E+03  0.25218610655E+04  0.25007924762E+04 0.  0.
        3    1    3    3  502    0  0.51238630363E+03 -0.58395148452E+03  0.11506756852E+04  0.13883780476E+04  0.10100000352E+00 0.  1.
       -3    1    3    3    0  502 -0.51238630363E+03  0.58395148452E+03 -0.82537547888E+03  0.11334830178E+04  0.10100000352E+00 0. -1.
</event>
<event>
 5   0  0.9855352E-06  0.2633928E+04  0.7818609E-02  0.8356767E-01
       -1   -1    0    0    0  501  0.00000000000E+00  0.00000000000E+00  0.15617146417E+04  0.15617146417E+04  0.50400001928E-02 0. -1.
        1   -1    0    0  501    0  0.00000000000E+00  0.00000000000E+00 -0.11105705005E+04  0.11105705005E+04  0.50400001928E-02 0.  1.
    10030    2    1    2    0    0  0.00000000000E+00  0.00000000000E+00  0.45114414119E+03  0.26722851423E+04  0.26339280259E+04 0.  0.
        2    1    3    3  502    0 -0.30084620948E+03 -0.11842775971E+04 -0.27287913004E+03  0.12519923675E+04  0.25500000920E-02 0.  1.
       -2    1    3    3    0  502  0.30084620948E+03  0.11842775971E+04  0.72402327123E+03  0.14202927747E+04  0.25500000920E-02 0. -1.
</event>
<event>
 5   0  0.1025153E-05  0.2640891E+04  0.7818609E-02  0.8354443E-01
       -1   -1    0    0    0  501  0.00000000000E+00  0.00000000000E+00  0.12296990397E+04  0.12296990397E+04  0.50400001928E-02 0. -1.
        1   -1    0    0  501    0  0.00000000000E+00  0.00000000000E+00 -0.14178881888E+04  0.14178881888E+04  0.50400001928E-02 0.  1.
    10030    2    1    2    0    0  0.00000000000E+00  0.00000000000E+00 -0.18818914909E+03  0.26475872285E+04  0.26408905651E+04 0.  0.
        1    1    3    3  502    0  0.89556090381E+03 -0.22014170991E+03 -0.10415221837E+04  0.13911362852E+04  0.50400001928E-02 0.  1.
       -1    1    3    3    0  502 -0.89556090381E+03  0.22014170991E+03  0.85333303464E+03  0.12564509433E+04  0.50400001928E-02 0. -1.
</event>
<event>
 5   0  0.2528460E-05  0.2624571E+04  0.7818609E-02  0.8359903E-01
       -2   -1    0    0    0  501  0.00000000000E+00  0.00000000000E+00  0.71313746873E+03  0.71313746873E+03  0.25500000920E-02 0.  1.
        2   -1    0    0  501    0  0.00000000000E+00  0.00000000000E+00 -0.24148122669E+04  0.24148122669E+04  0.25500000920E-02 0. -1.
    10030    2    1    2    0    0  0.00000000000E+00  0.00000000000E+00 -0.17016747981E+04  0.31279497356E+04  0.26245709039E+04 0.  0.
        5    1    3    3  502    0  0.80448066237E+03  0.67051999657E+03 -0.17932485080E+04  0.20766676439E+04  0.46999998093E+01 0. -1.
       -5    1    3    3    0  502 -0.80448066237E+03 -0.67051999657E+03  0.91573709853E+02  0.10512820917E+04  0.46999998093E+01 0.  1.
</event>
<event>
 5   0  0.1005492E-05  0.2594208E+04  0.7818609E-02  0.8370171E-01
        1   -1    0    0  501    0  0.00000000000E+00  0.00000000000E+00  0.11840956755E+04  0.11840956755E+04  0.50400001928E-02 0. -1.
       -1   -1    0    0    0  501  0.00000000000E+00  0.00000000000E+00 -0.14208972776E+04  0.14208972776E+04  0.50400001928E-02 0.  1.
    10030    2    1    2    0    0  0.00000000000E+00  0.00000000000E+00 -0.23680160210E+03  0.26049929531E+04  0.25942076414E+04 0.  0.
        4    1    3    3  502    0  0.22734474441E+03  0.68803703593E+03  0.96189534895E+03  0.12042943456E+04  0.12699999809E+01 0. -1.
       -4    1    3    3    0  502 -0.22734474441E+03 -0.68803703593E+03 -0.11986969511E+04  0.14006986075E+04  0.12699999809E+01 0.  1.
</event>
<event>
 5   0  0.1025153E-05  0.2404085E+04  0.7818609E-02  0.8437976E-01
       -1   -1    0    0    0  501  0.00000000000E+00  0.00000000000E+00  0.92261396592E+03  0.92261396593E+03  0.50400001928E-02 0. -1.
        1   -1    0    0  501    0  0.00000000000E+00  0.00000000000E+00 -0.15661003016E+04  0.15661003016E+04  0.50400001928E-02 0.  1.
    10030    2    1    2    0    0  0.00000000000E+00  0.00000000000E+00 -0.64348633567E+03  0.24887142675E+04  0.24040848656E+04 0.  0.
        1    1    3    3  502    0  0.11497406052E+04  0.35059574718E+03 -0.31218935790E+03  0.12418868839E+04  0.50400001928E-02 0. -1.
       -1    1    3    3    0  502 -0.11497406052E+04 -0.35059574718E+03 -0.33129697777E+03  0.12468273837E+04  0.50400001928E-02 0.  1.
</event>
<event>
 5   0  0.2517854E-05  0.2612682E+04  0.7818609E-02  0.8363906E-01
        2   -1    0    0  501    0  0.00000000000E+00  0.00000000000E+00  0.13724001744E+04  0.13724001744E+04  0.25500000920E-02 0.  1.
       -2   -1    0    0    0  501  0.00000000000E+00  0.00000000000E+00 -0.12434618652E+04  0.12434618652E+04  0.25500000920E-02 0. -1.
    10030    2    1    2    0    0  0.00000000000E+00  0.00000000000E+00  0.12893830925E+03  0.26158620396E+04  0.26126823616E+04 0.  0.
        4    1    3    3  502    0  0.44165880657E+03 -0.11388839465E+04 -0.39913489306E+03  0.12850795387E+04  0.12699999809E+01 0. -1.
       -4    1    3    3    0  502 -0.44165880657E+03  0.11388839465E+04  0.52807320231E+03  0.13307825009E+04  0.12699999809E+01 0.  1.
</event>
<event>
 5   0  0.1000421E-05  0.2536475E+04  0.7818609E-02  0.8390105E-01
       -1   -1    0    0    0  501  0.00000000000E+00  0.00000000000E+00  0.91609180378E+03  0.91609180380E+03  0.50400001928E-02 0.  1.
        1   -1    0    0  501    0  0.00000000000E+00  0.00000000000E+00 -0.17557482032E+04  0.17557482032E+04  0.50400001928E-02 0. -1.
    10030    2    1    2    0    0  0.00000000000E+00  0.00000000000E+00 -0.83965639946E+03  0.26718400070E+04  0.25364751436E+04 0.  0.
        3    1    3    3  502    0 -0.84947914392E+03  0.15759529310E+03  0.55814574092E+03  0.10285804639E+04  0.10100000352E+00 0.  1.
       -3    1    3    3    0  502  0.84947914392E+03 -0.15759529310E+03 -0.13978021404E+04  0.16432595432E+04  0.10100000352E+00 0. -1.
</event>
<event>
 5   0  0.1025153E-05  0.2652498E+04  0.7818609E-02  0.8350584E-01
       -1   -1    0    0    0  501  0.00000000000E+00  0.00000000000E+00  0.99211077614E+03  0.99211077615E+03  0.50400001928E-02 0. -1.
        1   -1    0    0  501    0  0.00000000000E+00  0.00000000000E+00 -0.17729228586E+04  0.17729228586E+04  0.50400001928E-02 0.  1.
    10030    2    1    2    0    0  0.00000000000E+00  0.00000000000E+00 -0.78081208249E+03  0.27650336348E+04  0.26524975953E+04 0.  0.
        1    1    3    3  502    0 -0.97634564547E+03 -0.61585416445E+03 -0.10711102710E+04  0.15747394654E+04  0.50400001928E-02 0.  1.
       -1    1    3    3    0  502  0.97634564547E+03  0.61585416445E+03  0.29029818852E+03  0.11902941693E+04  0.50400001928E-02 0. -1.
</event>
<event>
 5   0  0.1025153E-05  0.2641079E+04  0.7818609E-02  0.8354380E-01
       -1   -1    0    0    0  501  0.00000000000E+00  0.00000000000E+00  0.18601733280E+04  0.18601733280E+04  0.50400001928E-02 0. -1.
        1   -1    0    0  501    0  0.00000000000E+00  0.00000000000E+00 -0.93745298181E+03  0.93745298182E+03  0.50400001928E-02 0.  1.
    10030    2    1    2    0    0  0.00000000000E+00  0.00000000000E+00  0.92272034621E+03  0.27976263099E+04  0.26410793499E+04 0.  0.
        1    1    3    3  502    0  0.90106421281E+03 -0.30361308699E+03  0.14320431625E+04  0.17189663294E+04  0.50400001928E-02 0.  1.
       -1    1    3    3    0  502 -0.90106421281E+03  0.30361308699E+03 -0.50932281632E+03  0.10786599805E+04  0.50400001928E-02 0. -1.
</event>
<event>
 5   0  0.1034714E-05  0.2519822E+04  0.7818609E-02  0.8395958E-01
       -1   -1    0    0    0  501  0.00000000000E+00  0.00000000000E+00  0.97295540464E+03  0.97295540465E+03  0.50400001928E-02 0. -1.
        1   -1    0    0  501    0  0.00000000000E+00  0.00000000000E+00 -0.16314992763E+04  0.16314992763E+04  0.50400001928E-02 0.  1.
    10030    2    1    2    0    0  0.00000000000E+00  0.00000000000E+00 -0.65854387168E+03  0.26044546810E+04  0.25198222466E+04 0.  0.
        5    1    3    3  502    0 -0.93273812717E+03  0.56088772160E+02 -0.12027643303E+04  0.15230924097E+04  0.46999998093E+01 0.  1.
       -5    1    3    3    0  502  0.93273812717E+03 -0.56088772160E+02  0.54422045859E+03  0.10813622713E+04  0.46999998093E+01 0. -1.
</event>
<event>
 5   0  0.1034714E-05  0.2613261E+04  0.7818609E-02  0.8363711E-01
        1   -1    0    0  501    0  0.00000000000E+00  0.00000000000E+00  0.20254467499E+04  0.20254467499E+04  0.50400001928E-02 0. -1.
       -1   -1    0    0    0  501  0.00000000000E+00  0.00000000000E+00 -0.84291701863E+03  0.84291701864E+03  0.50400001928E-02 0.  1.
    10030    2    1    2    0    0  0.00000000000E+00  0.00000000000E+00  0.11825297313E+04  0.28683637686E+04  0.26132612084E+04 0.  0.
        5    1    3    3  502    0 -0.33333301578E+03 -0.94259805238E+03 -0.33207920380E+03  0.10535182368E+04  0.46999998093E+01 0.  1.
       -5    1    3    3    0  502  0.33333301578E+03  0.94259805238E+03  0.15146089351E+04  0.18148455317E+04  0.46999998093E+01 0. -1.
</event>
<event>
 5   0  0.9855352E-06  0.2598073E+04  0.7818609E-02  0.8368856E-01
       -1   -1    0    0    0  501  0.00000000000E+00  0.00000000000E+00  0.81761374773E+03  0.81761374774E+03  0.50400001928E-02 0. -1.
        1   -1    0    0  501    0  0.00000000000E+00  0.00000000000E+00 -0.20639283992E+04  0.20639283993E+04  0.50400001928E-02 0.  1.
    10030    2    1    2    0    0  0.00000000000E+00  0.00000000000E+00 -0.12463146515E+04  0.28815421470E+04  0.25980733120E+04 0.  0.
        2    1    3    3  502    0 -0.10899651099E+04  0.45463655035E+03 -0.12232837090E+04  0.17003356629E+04  0.25500000920E-02 0.  1.
       -2    1    3    3    0  502  0.10899651099E+04 -0.45463655035E+03 -0.23030942519E+02  0.11812064841E+04  0.25500000920E-02 0. -1.
</event>
<event>
 5   0  0.9855352E-06  0.2662976E+04  0.7818609E-02  0.8347119E-01
        1   -1    0    0  501    0  0.00000000000E+00  0.00000000000E+00  0.16991057583E+04  0.16991057583E+04  0.50400001928E-02 0. -1.
       -1   -1    0    0    0  501  0.00000000000E+00  0.00000000000E+00 -0.10434078501E+04  0.10434078501E+04  0.50400001928E-02 0.  1.
    10030    2    1    2    0    0  0.00000000000E+00  0.00000000000E+00  0.65569790823E+03  0.27425136084E+04  0.26629759942E+04 0.  0.
        2    1    3    3  502    0  0.87108497304E+03  0.87192998805E+03  0.84669122321E+03  0.14953049728E+04  0.25500000920E-02 0. -1.
       -2    1    3    3    0  502 -0.87108497304E+03 -0.87192998805E+03 -0.19099331499E+03  0.12472086356E+04  0.25500000920E-02 0.  1.
</event>
<event>
 5   0  0.9855352E-06  0.2585127E+04  0.7818609E-02  0.8373271E-01
       -1   -1    0    0    0  501  0.00000000000E+00  0.00000000000E+00  0.10545547409E+04  0.10545547409E+04  0.50400001928E-02 0.  1.
        1   -1    0    0  501    0  0.00000000000E+00  0.00000000000E+00 -0.15842899473E+04  0.15842899473E+04  0.50400001928E-02 0. -1.
    10030    2    1    2    0    0  0.00000000000E+00  0.00000000000E+00 -0.52973520647E+03  0.26388446882E+04  0.25851270568E+04 0.  0.
        2    1    3    3  502    0  0.78541960937E+03 -0.62406907442E+03 -0.10968963853E+04  0.14864480659E+04  0.25500000920E-02 0. -1.
       -2    1    3    3    0  502 -0.78541960937E+03  0.62406907442E+03  0.56716117883E+03  0.11523966224E+04  0.25500000920E-02 0.  1.
</event>
<event>
 5   0  0.2528460E-05  0.2584487E+04  0.7818609E-02  0.8373490E-01
       -2   -1    0    0    0  501  0.00000000000E+00  0.00000000000E+00  0.11572573177E+04  0.11572573177E+04  0.25500000920E-02 0.  1.
        2   -1    0    0  501    0  0.00000000000E+00  0.00000000000E+00 -0.14429743814E+04  0.14429743814E+04  0.25500000920E-02 0. -1.
    10030    2    1    2    0    0  0.00000000000E+00  0.00000000000E+00 -0.28571706378E+03  0.26002316991E+04  0.25844865348E+04 0.  0.
        5    1    3    3  502    0 -0.52626263743E+03  0.10677918142E+04  0.36293558933E+03  0.12445384903E+04  0.46999998093E+01 0.  1.
       -5    1    3    3    0  502  0.52626263743E+03 -0.10677918142E+04 -0.64865265311E+03  0.13556932088E+04  0.46999998093E+01 0. -1.
</event>
<event>
 5   0  0.1025153E-05  0.2609425E+04  0.7818609E-02  0.8365007E-01
       -1   -1    0    0    0  501  0.00000000000E+00  0.00000000000E+00  0.18481519062E+04  0.18481519062E+04  0.50400001928E-02 0.  1.
        1   -1    0    0  501    0  0.00000000000E+00  0.00000000000E+00 -0.92106893378E+03  0.92106893380E+03  0.50400001928E-02 0. -1.
    10030    2    1    2    0    0  0.00000000000E+00  0.00000000000E+00  0.92708297240E+03  0.27692208400E+04  0.26094254584E+04 0.  0.
        1    1    3    3  502    0  0.10021201165E+04  0.76288952706E+03  0.82503300964E+03  0.15056309725E+04  0.50400001928E-02 0.  1.
       -1    1    3    3    0  502 -0.10021201165E+04 -0.76288952706E+03  0.10204996276E+03  0.12635898675E+04  0.50400001928E-02 0. -1.
</event>
<event>
 5   0  0.8605000E-06  0.2338938E+04  0.7818609E-02  0.8462725E-01
       -3   -1    0    0    0  501  0.00000000000E+00  0.00000000000E+00  0.12881002175E+04  0.12881002215E+04  0.10100000352E+00 0. -1.
        3   -1    0    0  501    0  0.00000000000E+00  0.00000000000E+00 -0.10617631625E+04  0.10617631673E+04  0.10100000352E+00 0.  1.
    10030    2    1    2    0    0  0.00000000000E+00  0.00000000000E+00  0.22633705502E+03  0.23498633888E+04  0.23389376827E+04 0.  0.
        4    1    3    3  502    0  0.97660771663E+03 -0.23344472147E+02  0.75909334202E+03  0.12371466814E+04  0.12699999809E+01 0. -1.
       -4    1    3    3    0  502 -0.97660771663E+03  0.23344472147E+02 -0.53275628700E+03  0.11127167073E+04  0.12699999809E+01 0.  1.
</event>
<event>
 5   0  0.2484618E-05  0.2251986E+04  0.7818609E-02  0.8497097E-01
       -2   -1    0    0    0  501  0.00000000000E+00  0.00000000000E+00  0.10462586974E+04  0.10462586974E+04  0.25500000920E-02 0. -1.
        2   -1    0    0  501    0  0.00000000000E+00  0.00000000000E+00 -0.12118039432E+04  0.12118039432E+04  0.25500000920E-02 0.  1.
    10030    2    1    2    0    0  0.00000000000E+00  0.00000000000E+00 -0.16554524580E+03  0.22580626405E+04  0.22519861590E+04 0.  0.
        3    1    3    3  502    0  0.42354129175E+03 -0.10200970368E+04  0.13662182612E+03  0.11129468648E+04  0.10100000352E+00 0. -1.
       -3    1    3    3    0  502 -0.42354129175E+03  0.10200970368E+04 -0.30216707192E+03  0.11451157757E+04  0.10100000352E+00 0.  1.
</event>
<event>
 5   0  0.1005492E-05  0.2575304E+04  0.7818609E-02  0.8376638E-01
       -1   -1    0    0    0  501  0.00000000000E+00  0.00000000000E+00  0.84647762894E+03  0.84647762895E+03  0.50400001928E-02 0. -1.
        1   -1    0    0  501    0  0.00000000000E+00  0.00000000000E+00 -0.19587617082E+04  0.19587617082E+04  0.50400001928E-02 0.  1.
    10030    2    1    2    0    0  0.00000000000E+00  0.00000000000E+00 -0.11122840793E+04  0.28052393372E+04  0.25753042278E+04 0.  0.
        4    1    3    3  502    0  0.11390215568E+03 -0.37058228122E+03  0.78139190656E+03  0.87228427291E+03  0.12699999809E+01 0. -1.
       -4    1    3    3    0  502 -0.11390215568E+03  0.37058228122E+03 -0.18936759858E+04  0.19329550643E+04  0.12699999809E+01 0.  1.
</event>
<event>
 5   0  0.2517854E-05  0.2587024E+04  0.7818609E-02  0.8372622E-01
       -2   -1    0    0    0  501  0.00000000000E+00  0.00000000000E+00  0.86136373555E+03  0.86136373555E+03  0.25500000920E-02 0.  1.
        2   -1    0    0  501    0  0.00000000000E+00  0.00000000000E+00 -0.19424704946E+04  0.19424704946E+04  0.25500000920E-02 0. -1.
    10030    2    1    2    0    0  0.00000000000E+00  0.00000000000E+00 -0.10811067591E+04  0.28038342302E+04  0.25870242685E+04 0.  0.
        4    1    3    3  502    0  0.12313561081E+04 -0.25676648784E+03 -0.21360079249E+03  0.12758502286E+04  0.12699999809E+01 0. -1.
       -4    1    3    3    0  502 -0.12313561081E+04  0.25676648784E+03 -0.86750596657E+03  0.15279840016E+04  0.12699999809E+01 0.  1.
</event>
<event>
 5   0  0.2555801E-05  0.2572256E+04  0.7818609E-02  0.8377687E-01
        2   -1    0    0  501    0  0.00000000000E+00  0.00000000000E+00  0.13712741778E+04  0.13712741778E+04  0.25500000920E-02 0. -1.
       -2   -1    0    0    0  501  0.00000000000E+00  0.00000000000E+00 -0.12062684551E+04  0.12062684551E+04  0.25500000920E-02 0.  1.
    10030    2    1    2    0    0  0.00000000000E+00  0.00000000000E+00  0.16500572263E+03  0.25775426329E+04  0.25722556513E+04 0.  0.
        1    1    3    3  502    0  0.83518553351E+03 -0.10070093886E+03 -0.89235295739E+03  0.12263642832E+04  0.50400001928E-02 0.  1.
       -1    1    3    3    0  502 -0.83518553351E+03  0.10070093886E+03  0.10573586800E+04  0.13511783497E+04  0.50400001928E-02 0. -1.
</event>
<event>
 5   0  0.1000421E-05  0.2589261E+04  0.7818609E-02  0.8371858E-01
       -1   -1    0    0    0  501  0.00000000000E+00  0.00000000000E+00  0.18663212242E+04  0.18663212242E+04  0.50400001928E-02 0.  1.
        1   -1    0    0  501    0  0.00000000000E+00  0.00000000000E+00 -0.89805949240E+03  0.89805949241E+03  0.50400001928E-02 0. -1.
    10030    2    1    2    0    0  0.00000000000E+00  0.00000000000E+00  0.96826173180E+03  0.27643807166E+04  0.25892605055E+04 0.  0.
        3    1    3    3  502    0 -0.21244361054E+03  0.60322216758E+03 -0.71763645830E+03  0.96125510017E+03  0.10100000352E+00 0. -1.
       -3    1    3    3    0  502  0.21244361054E+03 -0.60322216758E+03  0.16858981901E+04  0.18031256165E+04  0.10100000352E+00 0.  1.
</event>
<event>
 5   0  0.2484618E-05  0.2624648E+04  0.7818609E-02  0.8359877E-01
        2   -1    0    0  501    0  0.00000000000E+00  0.00000000000E+00  0.10813937950E+04  0.10813937950E+04  0.25500000920E-02 0.  1.
       -2   -1    0    0    0  501  0.00000000000E+00  0.00000000000E+00 -0.15925694957E+04  0.15925694957E+04  0.25500000920E-02 0. -1.
    10030    2    1    2    0    0  0.00000000000E+00  0.00000000000E+00 -0.51117570070E+03  0.26739632907E+04  0.26246483732E+04 0.  0.
        3    1    3    3  502    0  0.38236905452E+03  0.12342028855E+04 -0.21638933453E+02  0.12922581437E+04  0.10100000352E+00 0. -1.
       -3    1    3    3    0  502 -0.38236905452E+03 -0.12342028855E+04 -0.48953676725E+03  0.13817051470E+04  0.10100000352E+00 0.  1.
</event>
<event>
 5   0  0.1005492E-05  0.2586510E+04  0.7818609E-02  0.8372798E-01
       -1   -1    0    0    0  501  0.00000000000E+00  0.00000000000E+00  0.74995991528E+03  0.74995991530E+03  0.50400001928E-02 0. -1.
        1   -1    0    0  501    0  0.00000000000E+00  0.00000000000E+00 -0.22301299966E+04  0.22301299967E+04  0.50400001928E-02 0.  1.
    10030    2    1    2    0    0  0.00000000000E+00  0.00000000000E+00 -0.14801700814E+04  0.29800899120E+04  0.25865096972E+04 0.  0.
        4    1    3    3  502    0  0.60087510329E+03  0.74784923071E+03 -0.17393377128E+04  0.19863601521E+04  0.12699999809E+01 0.  1.
       -4    1    3    3    0  502 -0.60087510329E+03 -0.74784923071E+03  0.25916763143E+03  0.99372975990E+03  0.12699999809E+01 0. -1.
</event>
<event>
 5   0  0.2662024E-05  0.2642360E+04  0.7818609E-02  0.8353953E-01
        2   -1    0    0  501    0  0.00000000000E+00  0.00000000000E+00  0.18375403473E+04  0.18375403473E+04  0.25500000920E-02 0. -1.
       -2   -1    0    0    0  501  0.00000000000E+00  0.00000000000E+00 -0.94991981134E+03  0.94991981135E+03  0.25500000920E-02 0.  1.
    10030    2    1    2    0    0  0.00000000000E+00  0.00000000000E+00  0.88762053598E+03  0.27874601587E+04  0.26423595365E+04 0.  0.
        2    1    3    3  502    0  0.85735481876E+03 -0.10022101656E+04  0.52575115323E+03  0.14198227976E+04  0.25500000920E-02 0. -1.
       -2    1    3    3    0  502 -0.85735481876E+03  0.10022101656E+04  0.36186938275E+03  0.13676373611E+04  0.25500000920E-02 0.  1.
</event>
<event>
 5   0  0.1005492E-05  0.2611559E+04  0.7818609E-02  0.8364286E-01
       -1   -1    0    0    0  501  0.00000000000E+00  0.00000000000E+00  0.92697493617E+03  0.92697493618E+03  0.50400001928E-02 0.  1.
        1   -1    0    0  501    0  0.00000000000E+00  0.00000000000E+00 -0.18393806555E+04  0.18393806555E+04  0.50400001928E-02 0. -1.
    10030    2    1    2    0    0  0.00000000000E+00  0.00000000000E+00 -0.91240571931E+03  0.27663555917E+04  0.26115587420E+04 0.  0.
        4    1    3    3  502    0  0.57146479163E+02  0.46422279652E+03 -0.17476003227E+04  0.18091094565E+04  0.12699999809E+01 0. -1.
       -4    1    3    3    0  502 -0.57146479163E+02 -0.46422279652E+03  0.83519460336E+03  0.95724613516E+03  0.12699999809E+01 0.  1.
</event>
<event>
 5   0  0.1005492E-05  0.2601530E+04  0.7818609E-02  0.8367682E-01
       -1   -1    0    0    0  501  0.00000000000E+00  0.00000000000E+00  0.15273142052E+04  0.15273142052E+04  0.50400001928E-02 0. -1.
        1   -1    0    0  501    0  0.00000000000E+00  0.00000000000E+00 -0.11078198989E+04  0.11078198989E+04  0.50400001928E-02 0.  1.
    10030    2    1    2    0    0  0.00000000000E+00  0.00000000000E+00  0.41949430627E+03  0.26351341041E+04  0.26015296027E+04 0.  0.
        4    1    3    3  502    0 -0.25284114910E+03  0.47189680685E+03 -0.99104994793E+03  0.11264088313E+04  0.12699999809E+01 0.  1.
       -4    1    3    3    0  502  0.25284114910E+03 -0.47189680685E+03  0.14105442542E+04  0.15087252729E+04  0.12699999809E+01 0. -1.
</event>
<event>
 5   0  0.9855352E-06  0.2578203E+04  0.7818609E-02  0.8375643E-01
        1   -1    0    0  501    0  0.00000000000E+00  0.00000000000E+00  0.16554140833E+04  0.16554140833E+04  0.50400001928E-02 0.  1.
       -1   -1    0    0    0  501  0.00000000000E+00  0.00000000000E+00 -0.10038473270E+04  0.10038473270E+04  0.50400001928E-02 0. -1.
    10030    2    1    2    0    0  0.00000000000E+00  0.00000000000E+00  0.65156675630E+03  0.26592614103E+04  0.25782032524E+04 0.  0.
        2    1    3    3  502    0 -0.12113419620E+04  0.18291288410E+03  0.73961641786E+03  0.14310272246E+04  0.25500000920E-02 0.  1.
       -2    1    3    3    0  502  0.12113419620E+04 -0.18291288410E+03 -0.88049661555E+02  0.12282341857E+04  0.25500000920E-02 0. -1.
</event>
<event>
 5   0  0.2662024E-05  0.2045819E+04  0.7818609E-02  0.8585494E-01
       -2   -1    0    0    0  501  0.00000000000E+00  0.00000000000E+00  0.52295544647E+03  0.52295544648E+03  0.25500000920E-02 0.  1.
        2   -1    0    0  501    0  0.00000000000E+00  0.00000000000E+00 -0.20008270729E+04  0.20008270729E+04  0.25500000920E-02 0. -1.
    10030    2    1    2    0    0  0.00000000000E+00  0.00000000000E+00 -0.14778716265E+04  0.25237825194E+04  0.20458185797E+04 0.  0.
        2    1    3    3  502    0 -0.79833337384E+03 -0.45137061844E+03 -0.12978555673E+04  0.15891823950E+04  0.25500000920E-02 0. -1.
       -2    1    3    3    0  502  0.79833337384E+03  0.45137061844E+03 -0.18001605915E+03  0.93460012441E+03  0.25500000920E-02 0.  1.
</event>
<event>
 5   0  0.2555801E-05  0.2535720E+04  0.7818609E-02  0.8390370E-01
        2   -1    0    0  501    0  0.00000000000E+00  0.00000000000E+00  0.11239377054E+04  0.11239377054E+04  0.25500000920E-02 0. -1.
       -2   -1    0    0    0  501  0.00000000000E+00  0.00000000000E+00 -0.14302113768E+04  0.14302113768E+04  0.25500000920E-02 0.  1.
    10030    2    1    2    0    0  0.00000000000E+00  0.00000000000E+00 -0.30627367142E+03  0.25541490821E+04  0.25357196162E+04 0.  0.
        1    1    3    3  502    0  0.76440928878E+03  0.23846026594E+03 -0.11432784744E+04  0.13958046172E+04  0.50400001928E-02 0.  1.
       -1    1    3    3    0  502 -0.76440928878E+03 -0.23846026594E+03  0.83700480301E+03  0.11583444650E+04  0.50400001928E-02 0. -1.
</event>
<event>
 5   0  0.8605000E-06  0.2592826E+04  0.7818609E-02  0.8370642E-01
        4   -1    0    0  501    0  0.00000000000E+00  0.00000000000E+00  0.14028171678E+04  0.14028177427E+04  0.12699999809E+01 0.  1.
       -4   -1    0    0    0  501  0.00000000000E+00  0.00000000000E+00 -0.11980785191E+04  0.11980791922E+04  0.12699999809E+01 0. -1.
    10030    2    1    2    0    0  0.00000000000E+00  0.00000000000E+00  0.20473864877E+03  0.26008969349E+04  0.25928260550E+04 0.  0.
        4    1    3    3  502    0 -0.47026591308E+03 -0.53606916354E+03  0.11884050849E+04  0.13859395498E+04  0.12699999809E+01 0.  1.
       -4    1    3    3    0  502  0.47026591308E+03  0.53606916354E+03 -0.98366643610E+03  0.12149573851E+04  0.12699999809E+01 0. -1.
</event>
<event>
 5   0  0.2555801E-05  0.2613480E+04  0.7818609E-02  0.8363637E-01
        2   -1    0    0  501    0  0.00000000000E+00  0.00000000000E+00  0.22263054597E+04  0.22263054597E+04  0.25500000920E-02 0.  1.
       -2   -1    0    0    0  501  0.00000000000E+00  0.00000000000E+00 -0.76699701253E+03  0.76699701254E+03  0.25500000920E-02 0. -1.
    10030    2    1    2    0    0  0.00000000000E+00  0.00000000000E+00  0.14593084472E+04  0.29933024722E+04  0.26134801599E+04 0.  0.
        1    1    3    3  502    0 -0.21535373608E+03  0.96783824789E+03 -0.24521207306E+03  0.10213799815E+04  0.50400001928E-02 0. -1.
       -1    1    3    3    0  502  0.21535373608E+03 -0.96783824789E+03  0.17045205202E+04  0.19719224908E+04  0.50400001928E-02 0.  1.
</event>
<event>
 5   0  0.1025153E-05  0.2658180E+04  0.7818609E-02  0.8348703E-01
        1   -1    0    0  501    0  0.00000000000E+00  0.00000000000E+00  0.12744044337E+04  0.12744044337E+04  0.50400001928E-02 0.  1.
       -1   -1    0    0    0  501  0.00000000000E+00  0.00000000000E+00 -0.13861219024E+04  0.13861219024E+04  0.50400001928E-02 0. -1.
    10030    2    1    2    0    0  0.00000000000E+00  0.00000000000E+00 -0.11171746865E+03  0.26605263361E+04  0.26581797517E+04 0.  0.
        1    1    3    3  502    0  0.22448427823E+03 -0.25752741252E+03  0.12297074372E+04  0.12762812937E+04  0.50400001928E-02 0.  1.
       -1    1    3    3    0  502 -0.22448427823E+03  0.25752741252E+03 -0.13414249059E+04  0.13842450424E+04  0.50400001928E-02 0. -1.
</event>
<event>
 5   0  0.2528460E-05  0.2590079E+04  0.7818609E-02  0.8371579E-01
        2   -1    0    0  501    0  0.00000000000E+00  0.00000000000E+00  0.19754408224E+04  0.19754408224E+04  0.25500000920E-02 0. -1.
       -2   -1    0    0    0  501  0.00000000000E+00  0.00000000000E+00 -0.84898875652E+03  0.84898875652E+03  0.25500000920E-02 0.  1.
    10030    2    1    2    0    0  0.00000000000E+00  0.00000000000E+00  0.11264520658E+04  0.28244295789E+04  0.25900787998E+04 0.  0.
        5    1    3    3  502    0  0.35673120038E+03 -0.19725239518E+03 -0.77719515074E+03  0.87762181438E+03  0.46999998093E+01 0.  1.
       -5    1    3    3    0  502 -0.35673120038E+03  0.19725239518E+03  0.19036472166E+04  0.19468077645E+04  0.46999998093E+01 0. -1.
</event>
<event>
 5   0  0.8605000E-06  0.1864119E+04  0.7818609E-02  0.8672926E-01
       -3   -1    0    0    0  501  0.00000000000E+00  0.00000000000E+00  0.82864732501E+03  0.82864733116E+03  0.10100000352E+00 0. -1.
        3   -1    0    0  501    0  0.00000000000E+00  0.00000000000E+00 -0.10483767779E+04  0.10483767827E+04  0.10100000352E+00 0.  1.
    10030    2    1    2    0    0  0.00000000000E+00  0.00000000000E+00 -0.21972945286E+03  0.18770241139E+04  0.18641186903E+04 0.  0.
        5    1    3    3  502    0 -0.70920202900E+03 -0.51843589662E+03  0.20368994704E+03  0.90180650994E+03  0.46999998093E+01 0.  1.
       -5    1    3    3    0  502  0.70920202900E+03  0.51843589662E+03 -0.42341939990E+03  0.97521760395E+03  0.46999998093E+01 0. -1.
</event>
<event>
 5   0  0.2517854E-05  0.2640381E+04  0.7818609E-02  0.8354613E-01
       -2   -1    0    0    0  501  0.00000000000E+00  0.00000000000E+00  0.10496688464E+04  0.10496688464E+04  0.25500000920E-02 0.  1.
        2   -1    0    0  501    0  0.00000000000E+00  0.00000000000E+00 -0.16604313144E+04  0.16604313144E+04  0.25500000920E-02 0. -1.
    10030    2    1    2    0    0  0.00000000000E+00  0.00000000000E+00 -0.61076246802E+03  0.27101001608E+04  0.26403810500E+04 0.  0.
        4    1    3    3  502    0  0.11451183309E+04  0.64163246773E+03 -0.45022146107E+03  0.13876920380E+04  0.12699999809E+01 0.  1.
       -4    1    3    3    0  502 -0.11451183309E+04 -0.64163246773E+03 -0.16054100695E+03  0.13224081228E+04  0.12699999809E+01 0. -1.
</event>
<event>
 5   0  0.2517854E-05  0.2686465E+04  0.7818609E-02  0.8339410E-01
        2   -1    0    0  501    0  0.00000000000E+00  0.00000000000E+00  0.11453054514E+04  0.11453054514E+04  0.25500000920E-02 0. -1.
       -2   -1    0    0    0  501  0.00000000000E+00  0.00000000000E+00 -0.15753649539E+04  0.15753649539E+04  0.25500000920E-02 0.  1.
    10030    2    1    2    0    0  0.00000000000E+00  0.00000000000E+00 -0.43005950245E+03  0.27206704053E+04  0.26864653875E+04 0.  0.
        4    1    3    3  502    0 -0.27141669655E+02  0.50852703117E+03 -0.14738100466E+04  0.15593120528E+04  0.12699999809E+01 0.  1.
       -4    1    3    3    0  502  0.27141669655E+02 -0.50852703117E+03  0.10437505441E+04  0.11613583525E+04  0.12699999809E+01 0. -1.
</event>
<event>
 5   0  0.9855352E-06  0.2610281E+04  0.7818609E-02  0.8364717E-01
       -1   -1    0    0    0  501  0.00000000000E+00  0.00000000000E+00  0.89910074509E+03  0.89910074510E+03  0.50400001928E-02 0. -1.
        1   -1    0    0  501    0  0.00000000000E+00  0.00000000000E+00 -0.18945503864E+04  0.18945503864E+04  0.50400001928E-02 0.  1.
    10030    2    1    2    0    0  0.00000000000E+00  0.00000000000E+00 -0.99544964128E+03  0.27936511315E+04  0.26102809535E+04 0.  0.
        2    1    3    3  502    0  0.12516471069E+04 -0.21753056421E+03 -0.17762969279E+03  0.12827674514E+04  0.25500000920E-02 0. -1.
       -2    1    3    3    0  502 -0.12516471069E+04  0.21753056421E+03 -0.81781994849E+03  0.15108836801E+04  0.25500000920E-02 0.  1.
</event>
<event>
 5   0  0.1000421E-05  0.2615619E+04  0.7818609E-02  0.8362915E-01
        1   -1    0    0  501    0  0.00000000000E+00  0.00000000000E+00  0.12654836100E+04  0.12654836100E+04  0.50400001928E-02 0.  1.
       -1   -1    0    0    0  501  0.00000000000E+00  0.00000000000E+00 -0.13515505715E+04  0.13515505715E+04  0.50400001928E-02 0. -1.
    10030    2    1    2    0    0  0.00000000000E+00  0.00000000000E+00 -0.86066961482E+02  0.26170341816E+04  0.26156185474E+04 0.  0.
        3    1    3    3  502    0 -0.67958652799E+03  0.96426290312E+03 -0.60789575273E+03  0.13270938368E+04  0.10100000352E+00 0. -1.
       -3    1    3    3    0  502  0.67958652799E+03 -0.96426290312E+03  0.52182879125E+03  0.12899403447E+04  0.10100000352E+00 0.  1.
</event>
<event>
 5   0  0.1034714E-05  0.2451017E+04  0.7818609E-02  0.8420647E-01
        1   -1    0    0  501    0  0.00000000000E+00  0.00000000000E+00  0.14335349715E+04  0.14335349715E+04  0.50400001928E-02 0.  1.
       -1   -1    0    0    0  501  0.00000000000E+00  0.00000000000E+00 -0.10476699767E+04  0.10476699767E+04  0.50400001928E-02 0. -1.
    10030    2    1    2    0    0  0.00000000000E+00  0.00000000000E+00  0.38586499477E+03  0.24812049482E+04  0.24510173807E+04 0.  0.
        5    1    3    3  502    0 -0.62599782369E+02  0.92559820815E+01 -0.10460058419E+04  0.10479287749E+04  0.46999998093E+01 0. -1.
       -5    1    3    3    0  502  0.62599782369E+02 -0.92559820815E+01  0.14318708367E+04  0.14332761733E+04  0.46999998093E+01 0.  1.
</event>
<event>
 5   0  0.2517854E-05  0.2609099E+04  0.7818609E-02  0.8365117E-01
        2   -1    0    0  501    0  0.00000000000E+00  0.00000000000E+00  0.18797963925E+04  0.18797963925E+04  0.25500000920E-02 0.  1.
       -2   -1    0    0    0  501  0.00000000000E+00  0.00000000000E+00 -0.90533723153E+03  0.90533723153E+03  0.25500000920E-02 0. -1.
    10030    2    1    2    0    0  0.00000000000E+00  0.00000000000E+00  0.97445916095E+03  0.27851336240E+04  0.26090992023E+04 0.  0.
        4    1    3    3  502    0 -0.10713186110E+04  0.27854226164E+03  0.12241227454E+04  0.16503900953E+04  0.12699999809E+01 0.  1.
       -4    1    3    3    0  502  0.10713186110E+04 -0.27854226164E+03 -0.24966358447E+03  0.11347435288E+04  0.12699999809E+01 0. -1.
</event>
<event>
 5   0  0.2528460E-05  0.2637268E+04  0.7818609E-02  0.8355651E-01
        2   -1    0    0  501    0  0.00000000000E+00  0.00000000000E+00  0.22333830665E+04  0.22333830665E+04  0.25500000920E-02 0.  1.
       -2   -1    0    0    0  501  0.00000000000E+00  0.00000000000E+00 -0.77854798548E+03  0.77854798549E+03  0.25500000920E-02 0. -1.
    10030    2    1    2    0    0  0.00000000000E+00  0.00000000000E+00  0.14548350811E+04  0.30119310520E+04  0.26372681982E+04 0.  0.
        5    1    3    3  502    0 -0.64936916672E+03  0.40626630587E+03 -0.49839688579E+03  0.91386769925E+03  0.46999998093E+01 0. -1.
       -5    1    3    3    0  502  0.64936916672E+03 -0.40626630587E+03  0.19532319668E+04  0.20980633528E+04  0.46999998093E+01 0.  1.
</event>
<event>
 5   0  0.2555801E-05  0.2635404E+04  0.7818609E-02  0.8356274E-01
        2   -1    0    0  501    0  0.00000000000E+00  0.00000000000E+00  0.16436987505E+04  0.16436987505E+04  0.25500000920E-02 0.  1.
       -2   -1    0    0    0  501  0.00000000000E+00  0.00000000000E+00 -0.10563608788E+04  0.10563608788E+04  0.25500000920E-02 0. -1.
    10030    2    1    2    0    0  0.00000000000E+00  0.00000000000E+00  0.58733787168E+03  0.27000596293E+04  0.26354043762E+04 0.  0.
        1    1    3    3  502    0 -0.76795370286E+03  0.21974767279E+03 -0.78003863760E+03  0.11164686317E+04  0.50400001928E-02 0. -1.
       -1    1    3    3    0  502  0.76795370286E+03 -0.21974767279E+03  0.13673765093E+04  0.15835909976E+04  0.50400001928E-02 0.  1.
</event>
<event>
 5   0  0.2555801E-05  0.2621152E+04  0.7818609E-02  0.8361052E-01
       -2   -1    0    0    0  501  0.00000000000E+00  0.00000000000E+00  0.19628662441E+04  0.19628662441E+04  0.25500000920E-02 0. -1.
        2   -1    0    0  501    0  0.00000000000E+00  0.00000000000E+00 -0.87505140925E+03  0.87505140925E+03  0.25500000920E-02 0.  1.
    10030    2    1    2    0    0  0.00000000000E+00  0.00000000000E+00  0.10878148349E+04  0.28379176534E+04  0.26211515585E+04 0.  0.
        1    1    3    3  502    0  0.83635146051E+03 -0.92533714466E+03  0.97951883995E+03  0.15859349781E+04  0.50400001928E-02 0. -1.
       -1    1    3    3    0  502 -0.83635146051E+03  0.92533714466E+03  0.10829599494E+03  0.12519826753E+04  0.50400001928E-02 0.  1.
</event>
<event>
 5   0  0.1034714E-05  0.2605513E+04  0.7818609E-02  0.8366331E-01
        1   -1    0    0  501    0  0.00000000000E+00  0.00000000000E+00  0.27508313676E+04  0.27508313676E+04  0.50400001928E-02 0. -1.
       -1   -1    0    0    0  501  0.00000000000E+00  0.00000000000E+00 -0.61696800795E+03  0.61696800797E+03  0.50400001928E-02 0.  1.
    10030    2    1    2    0    0  0.00000000000E+00  0.00000000000E+00  0.21338633597E+04  0.33677993756E+04  0.26055133461E+04 0.  0.
        5    1    3    3  502    0 -0.87444115804E+03 -0.96404117038E+03  0.11392477695E+04  0.17297197135E+04  0.46999998093E+01 0.  1.
       -5    1    3    3    0  502  0.87444115804E+03  0.96404117038E+03  0.99461559017E+03  0.16380796621E+04  0.46999998093E+01 0. -1.
</event>
<event>
 5   0  0.1034714E-05  0.2562601E+04  0.7818609E-02  0.8381017E-01
       -1   -1    0    0    0  501  0.00000000000E+00  0.00000000000E+00  0.15810854766E+04  0.15810854766E+04  0.50400001928E-02 0.  1.
        1   -1    0    0  501    0  0.00000000000E+00  0.00000000000E+00 -0.10383569106E+04  0.10383569106E+04  0.50400001928E-02 0. -1.
    10030    2    1    2    0    0  0.00000000000E+00  0.00000000000E+00  0.54272856593E+03  0.26194423872E+04  0.25626010465E+04 0.  0.
        5    1    3    3  502    0 -0.55606594285E+03  0.13997406728E+03  0.14426013595E+04  0.15523926194E+04  0.46999998093E+01 0.  1.
       -5    1    3    3    0  502  0.55606594285E+03 -0.13997406728E+03 -0.89987279359E+03  0.10670497678E+04  0.46999998093E+01 0. -1.
</event>
<event>
 5   0  0.2517854E-05  0.2577012E+04  0.7818609E-02  0.8376052E-01
       -2   -1    0    0    0  501  0.00000000000E+00  0.00000000000E+00  0.84522606065E+03  0.84522606066E+03  0.25500000920E-02 0.  1.
        2   -1    0    0  501    0  0.00000000000E+00  0.00000000000E+00 -0.19642653632E+04  0.19642653632E+04  0.25500000920E-02 0. -1.
    10030    2    1    2    0    0  0.00000000000E+00  0.00000000000E+00 -0.11190393025E+04  0.28094914239E+04  0.25770124369E+04 0.  0.
        4    1    3    3  502    0  0.89454729792E+03  0.91080993717E+03 -0.74978299746E+03  0.14805288805E+04  0.12699999809E+01 0.  1.
       -4    1    3    3    0  502 -0.89454729792E+03 -0.91080993717E+03 -0.36925630509E+03  0.13289625433E+04  0.12699999809E+01 0. -1.
</event>
<event>
 5   0  0.1005492E-05  0.2584545E+04  0.7818609E-02  0.8373470E-01
        1   -1    0    0  501    0  0.00000000000E+00  0.00000000000E+00  0.81578463844E+03  0.81578463846E+03  0.50400001928E-02 0.  1.
       -1   -1    0    0    0  501  0.00000000000E+00  0.00000000000E+00 -0.20470694134E+04  0.20470694134E+04  0.50400001928E-02 0. -1.
    10030    2    1    2    0    0  0.00000000000E+00  0.00000000000E+00 -0.12312847750E+04  0.28628540519E+04  0.25845446650E+04 0.  0.
        4    1    3    3  502    0  0.45092616094E+03  0.71170635875E+03 -0.17010046534E+04  0.18982304358E+04  0.12699999809E+01 0. -1.
       -4    1    3    3    0  502 -0.45092616094E+03 -0.71170635875E+03  0.46971987837E+03  0.96462361610E+03  0.12699999809E+01 0.  1.
</event>
<event>
 5   0  0.2517854E-05  0.2596017E+04  0.7818609E-02  0.8369556E-01
        2   -1    0    0  501    0  0.00000000000E+00  0.00000000000E+00  0.16753997031E+04  0.16753997031E+04  0.25500000920E-02 0.  1.
       -2   -1    0    0    0  501  0.00000000000E+00  0.00000000000E+00 -0.10056260674E+04  0.10056260674E+04  0.25500000920E-02 0. -1.
    10030    2    1    2    0    0  0.00000000000E+00  0.00000000000E+00  0.66977363565E+03  0.26810257705E+04  0.25960166523E+04 0.  0.
        4    1    3    3  502    0 -0.12185129723E+04 -0.44098544633E+03  0.41204596786E+03  0.13597887777E+04  0.12699999809E+01 0.  1.
       -4    1    3    3    0  502  0.12185129723E+04  0.44098544633E+03  0.25772766779E+03  0.13212369928E+04  0.12699999809E+01 0. -1.
</event>
<event>
 5   0  0.1000421E-05  0.2591513E+04  0.7818609E-02  0.8371090E-01
        1   -1    0    0  501    0  0.00000000000E+00  0.00000000000E+00  0.10067020412E+04  0.10067020412E+04  0.50400001928E-02 0.  1.
       -1   -1    0    0    0  501  0.00000000000E+00  0.00000000000E+00 -0.16678065654E+04  0.16678065655E+04  0.50400001928E-02 0. -1.
    10030    2    1    2    0    0  0.00000000000E+00  0.00000000000E+00 -0.66110452429E+03  0.26745086066E+04  0.25915125110E+04 0.  0.
        3    1    3    3  502    0 -0.99230600683E+03 -0.82306215199E+03 -0.46464318342E+03  0.13703998742E+04  0.10100000352E+00 0. -1.
       -3    1    3    3    0  502  0.99230600683E+03  0.82306215199E+03 -0.19646134087E+03  0.13041087324E+04  0.10100000352E+00 0.  1.
</event>
<event>
 5   0  0.1005492E-05  0.2479252E+04  0.7818609E-02  0.8410415E-01
       -1   -1    0    0    0  501  0.00000000000E+00  0.00000000000E+00  0.10065723982E+04  0.10065723982E+04  0.50400001928E-02 0. -1.
        1   -1    0    0  501    0  0.00000000000E+00  0.00000000000E+00 -0.15266383771E+04  0.15266383771E+04  0.50400001928E-02 0.  1.
    10030    2    1    2    0    0  0.00000000000E+00  0.00000000000E+00 -0.52006597894E+03  0.25332107754E+04  0.24792515423E+04 0.  0.
        4    1    3    3  502    0 -0.73274226429E+03  0.80439580177E+03 -0.86684970105E+03  0.13911843332E+04  0.12699999809E+01 0.  1.
       -4    1    3    3    0  502  0.73274226429E+03 -0.80439580177E+03  0.34678372212E+03  0.11420264422E+04  0.12699999809E+01 0. -1.
</event>
<event>
 5   0  0.9855352E-06  0.2578762E+04  0.7818609E-02  0.8375451E-01
       -1   -1    0    0    0  501  0.00000000000E+00  0.00000000000E+00  0.62890698412E+03  0.62890698414E+03  0.50400001928E-02 0. -1.
        1   -1    0    0  501    0  0.00000000000E+00  0.00000000000E+00 -0.26434807923E+04  0.26434807923E+04  0.50400001928E-02 0.  1.
    10030    2    1    2    0    0  0.00000000000E+00  0.00000000000E+00 -0.20145738081E+04  0.32723877764E+04  0.25787621315E+04 0.  0.
        2    1    3    3  502    0  0.66780042029E+03  0.75156849401E+03 -0.20316980995E+04  0.22668501869E+04  0.25500000920E-02 0.  1.
       -2    1    3    3    0  502 -0.66780042029E+03 -0.75156849401E+03  0.17124291330E+02  0.10055375895E+04  0.25500000920E-02 0. -1.
</event>
<event>
 5   0  0.2555801E-05  0.2591523E+04  0.7818609E-02  0.8371086E-01
        2   -1    0    0  501    0  0.00000000000E+00  0.00000000000E+00  0.14957719629E+04  0.14957719629E+04  0.25500000920E-02 0. -1.
       -2   -1    0    0    0  501  0.00000000000E+00  0.00000000000E+00 -0.11224956726E+04  0.11224956726E+04  0.25500000920E-02 0.  1.
    10030    2    1    2    0    0  0.00000000000E+00  0.00000000000E+00  0.37327629026E+03  0.26182676355E+04  0.25915227612E+04 0.  0.
        1    1    3    3  502    0 -0.16248681951E+03  0.85402517475E+03  0.11574062836E+04  0.14475324766E+04  0.50400001928E-02 0. -1.
       -1    1    3    3    0  502  0.16248681951E+03 -0.85402517475E+03 -0.78412999333E+03  0.11707351588E+04  0.50400001928E-02 0.  1.
</event>
<event>
 5   0  0.1025153E-05  0.2602422E+04  0.7818609E-02  0.8367379E-01
        1   -1    0    0  501    0  0.00000000000E+00  0.00000000000E+00  0.18664128761E+04  0.18664128761E+04  0.50400001928E-02 0.  1.
       -1   -1    0    0    0  501  0.00000000000E+00  0.00000000000E+00 -0.90716821177E+03  0.90716821178E+03  0.50400001928E-02 0. -1.
    10030    2    1    2    0    0  0.00000000000E+00  0.00000000000E+00  0.95924466433E+03  0.27735810879E+04  0.26024222803E+04 0.  0.
        1    1    3    3  502    0 -0.59718345998E+03  0.75596724067E+03 -0.45256672420E+03  0.10643924059E+04  0.50400001928E-02 0. -1.
       -1    1    3    3    0  502  0.59718345998E+03 -0.75596724067E+03  0.14118113885E+04  0.17091886820E+04  0.50400001928E-02 0.  1.
</event>
<event>
 5   0  0.2555801E-05  0.2690194E+04  0.7818609E-02  0.8338194E-01
       -2   -1    0    0    0  501  0.00000000000E+00  0.00000000000E+00  0.86216751004E+03  0.86216751004E+03  0.25500000920E-02 0.  1.
        2   -1    0    0  501    0  0.00000000000E+00  0.00000000000E+00 -0.20985317054E+04  0.20985317054E+04  0.25500000920E-02 0. -1.
    10030    2    1    2    0    0  0.00000000000E+00  0.00000000000E+00 -0.12363641954E+04  0.29606992154E+04  0.26901939374E+04 0.  0.
        1    1    3    3  502    0  0.73526080185E+03  0.10831279822E+04 -0.95830651455E+03  0.16223828304E+04  0.50400001928E-02 0.  1.
       -1    1    3    3    0  502 -0.73526080185E+03 -0.10831279822E+04 -0.27805768082E+03  0.13383163850E+04  0.50400001928E-02 0. -1.
</event>
<event>
 5   0  0.2662024E-05  0.2618346E+04  0.7818609E-02  0.8361996E-01
        2   -1    0    0  501    0  0.00000000000E+00  0.00000000000E+00  0.17804852689E+04  0.17804852689E+04  0.25500000920E-02 0.  1.
       -2   -1    0    0    0  501  0.00000000000E+00  0.00000000000E+00 -0.96262198079E+03  0.96262198079E+03  0.25500000920E-02 0. -1.
    10030    2    1    2    0    0  0.00000000000E+00  0.00000000000E+00  0.81786328812E+03  0.27431072497E+04  0.26183462386E+04 0.  0.
        2    1    3    3  502    0  0.96881542298E+02 -0.10579298079E+04  0.12104567363E+04  0.16105300438E+04  0.25500000920E-02 0.  1.
       -2    1    3    3    0  502 -0.96881542298E+02  0.10579298079E+04 -0.39259344817E+03  0.11325772059E+04  0.25500000920E-02 0. -1.
</event>
<event>
 5   0  0.2517854E-05  0.2612918E+04  0.7818609E-02  0.8363826E-01
       -2   -1    0    0    0  501  0.00000000000E+00  0.00000000000E+00  0.86639655125E+03  0.86639655126E+03  0.25500000920E-02 0. -1.
        2   -1    0    0  501    0  0.00000000000E+00  0.00000000000E+00 -0.19700394557E+04  0.19700394557E+04  0.25500000920E-02 0.  1.
    10030    2    1    2    0    0  0.00000000000E+00  0.00000000000E+00 -0.11036429045E+04  0.28364360070E+04  0.26129182079E+04 0.  0.
        4    1    3    3  502    0  0.63699469646E+03  0.11268604790E+04 -0.74374169602E+03  0.14928931997E+04  0.12699999809E+01 0.  1.
       -4    1    3    3    0  502 -0.63699469646E+03 -0.11268604790E+04 -0.35990120848E+03  0.13435428073E+04  0.12699999809E+01 0. -1.
</event>
<event>
 5   0  0.1005492E-05  0.2572853E+04  0.7818609E-02  0.8377481E-01
        1   -1    0    0  501    0  0.00000000000E+00  0.00000000000E+00  0.18426378588E+04  0.18426378588E+04  0.50400001928E-02 0.  1.
       -1   -1    0    0    0  501  0.00000000000E+00  0.00000000000E+00 -0.89811092478E+03  0.89811092479E+03  0.50400001928E-02 0. -1.
    10030    2    1    2    0    0  0.00000000000E+00  0.00000000000E+00  0.94452693405E+03  0.27407487836E+04  0.25728530401E+04 0.  0.
        4    1    3    3  502    0 -0.54517261487E+03  0.11442835798E+04  0.70636191493E+03  0.14510502606E+04  0.12699999809E+01 0.  1.
       -4    1    3    3    0  502  0.54517261487E+03 -0.11442835798E+04  0.23816501912E+03  0.12896985230E+04  0.12699999809E+01 0. -1.
</event>
<event>
 5   0  0.1025153E-05  0.2609421E+04  0.7818609E-02  0.8365008E-01
       -1   -1    0    0    0  501  0.00000000000E+00  0.00000000000E+00  0.10649137630E+04  0.10649137631E+04  0.50400001928E-02 0. -1.
        1   -1    0    0  501    0  0.00000000000E+00  0.00000000000E+00 -0.15985039331E+04  0.15985039331E+04  0.50400001928E-02 0.  1.
    10030    2    1    2    0    0  0.00000000000E+00  0.00000000000E+00 -0.53359017003E+03  0.26634176961E+04  0.26094205017E+04 0.  0.
        1    1    3    3  502    0  0.52556655361E+02 -0.55225889546E+03  0.93853800135E+03  0.10902319339E+04  0.50400001928E-02 0. -1.
       -1    1    3    3    0  502 -0.52556655361E+02  0.55225889546E+03 -0.14721281714E+04  0.15731857623E+04  0.50400001928E-02 0.  1.
</event>
<event>
 5   0  0.2517854E-05  0.2618957E+04  0.7818609E-02  0.8361790E-01
        2   -1    0    0  501    0  0.00000000000E+00  0.00000000000E+00  0.16326630541E+04  0.16326630541E+04  0.25500000920E-02 0. -1.
       -2   -1    0    0    0  501  0.00000000000E+00  0.00000000000E+00 -0.10502680305E+04  0.10502680305E+04  0.25500000920E-02 0.  1.
    10030    2    1    2    0    0  0.00000000000E+00  0.00000000000E+00  0.58239502362E+03  0.26829310847E+04  0.26189568995E+04 0.  0.
        4    1    3    3  502    0 -0.61045185028E+03  0.29192208928E+03 -0.85728663221E+03  0.10921593063E+04  0.12699999809E+01 0.  1.
       -4    1    3    3    0  502  0.61045185028E+03 -0.29192208928E+03  0.14396816558E+04  0.15907717783E+04  0.12699999809E+01 0. -1.
</event>
<event>
 5   0  0.2528460E-05  0.2614305E+04  0.7818609E-02  0.8363358E-01
        2   -1    0    0  501    0  0.00000000000E+00  0.00000000000E+00  0.12603279485E+04  0.12603279485E+04  0.25500000920E-02 0. -1.
       -2   -1    0    0    0  501  0.00000000000E+00  0.00000000000E+00 -0.13557171130E+04  0.13557171130E+04  0.25500000920E-02 0.  1.
    10030    2    1    2    0    0  0.00000000000E+00  0.00000000000E+00 -0.95389164459E+02  0.26160450615E+04  0.26143053898E+04 0.  0.
        5    1    3    3  502    0 -0.34867553861E+03 -0.65456992601E+03 -0.11247888783E+04  0.13472967491E+04  0.46999998093E+01 0.  1.
       -5    1    3    3    0  502  0.34867553861E+03  0.65456992601E+03  0.10293997139E+04  0.12687483124E+04  0.46999998093E+01 0. -1.
</event>
<event>
 5   0  0.9855352E-06  0.2608313E+04  0.7818609E-02  0.8365383E-01
        1   -1    0    0  501    0  0.00000000000E+00  0.00000000000E+00  0.15393692019E+04  0.15393692020E+04  0.50400001928E-02 0. -1.
       -1   -1    0    0    0  501  0.00000000000E+00  0.00000000000E+00 -0.11048835282E+04  0.11048835282E+04  0.50400001928E-02 0.  1.
    10030    2    1    2    0    0  0.00000000000E+00  0.00000000000E+00  0.43448567372E+03  0.26442527302E+04  0.26083126156E+04 0.  0.
        2    1    3    3  502    0 -0.30732811649E+03 -0.10912500806E+04 -0.43626840618E+03  0.12147458301E+04  0.25500000920E-02 0.  1.
       -2    1    3    3    0  502  0.30732811649E+03  0.10912500806E+04  0.87075407990E+03  0.14295069000E+04  0.25500000920E-02 0. -1.
</event>
<event>
 5   0  0.1000421E-05  0.2408608E+04  0.7818609E-02  0.8436288E-01
        1   -1    0    0  501    0  0.00000000000E+00  0.00000000000E+00  0.47057635955E+03  0.47057635958E+03  0.50400001928E-02 0. -1.
       -1   -1    0    0    0  501  0.00000000000E+00  0.00000000000E+00 -0.30820686033E+04  0.30820686033E+04  0.50400001928E-02 0.  1.
    10030    2    1    2    0    0  0.00000000000E+00  0.00000000000E+00 -0.26114922438E+04  0.35526449629E+04  0.24086084142E+04 0.  0.
        3    1    3    3  502    0  0.34226158514E+03  0.10594429070E+04 -0.19829303705E+04  0.22741097445E+04  0.10100000352E+00 0.  1.
       -3    1    3    3    0  502 -0.34226158514E+03 -0.10594429070E+04 -0.62856187328E+03  0.12785352184E+04  0.10100000352E+00 0. -1.
</event>
<event>
 5   0  0.2662024E-05  0.2583302E+04  0.7818609E-02  0.8373895E-01
       -2   -1    0    0    0  501  0.00000000000E+00  0.00000000000E+00  0.18019776702E+04  0.18019776702E+04  0.25500000920E-02 0.  1.
        2   -1    0    0  501    0  0.00000000000E+00  0.00000000000E+00 -0.92585063431E+03  0.92585063431E+03  0.25500000920E-02 0. -1.
    10030    2    1    2    0    0  0.00000000000E+00  0.00000000000E+00  0.87612703588E+03  0.27278283045E+04  0.25833018941E+04 0.  0.
        2    1    3    3  502    0  0.29750773148E+03 -0.12561411981E+04  0.48481952127E+03  0.13789312992E+04  0.25500000920E-02 0.  1.
       -2    1    3    3    0  502 -0.29750773148E+03  0.12561411981E+04  0.39130751461E+03  0.13488970053E+04  0.25500000920E-02 0. -1.
</event>
<event>
 5   0  0.2517854E-05  0.2570667E+04  0.7818609E-02  0.8378234E-01
        2   -1    0    0  501    0  0.00000000000E+00  0.00000000000E+00  0.14718324487E+04  0.14718324487E+04  0.25500000920E-02 0. -1.
       -2   -1    0    0    0  501  0.00000000000E+00  0.00000000000E+00 -0.11224658458E+04  0.11224658458E+04  0.25500000920E-02 0.  1.
    10030    2    1    2    0    0  0.00000000000E+00  0.00000000000E+00  0.34936660294E+03  0.25942982945E+04  0.25706665706E+04 0.  0.
        4    1    3    3  502    0  0.72416766411E+03 -0.31211030064E+03  0.11990256640E+04  0.14350943528E+04  0.12699999809E+01 0. -1.
       -4    1    3    3    0  502 -0.72416766411E+03  0.31211030064E+03 -0.84965906106E+03  0.11592039417E+04  0.12699999809E+01 0.  1.
</event>
<event>
 5   0  0.1025153E-05  0.2264989E+04  0.7818609E-02  0.8491855E-01
        1   -1    0    0  501    0  0.00000000000E+00  0.00000000000E+00  0.15639317149E+04  0.15639317149E+04  0.50400001928E-02 0. -1.
       -1   -1    0    0    0  501  0.00000000000E+00  0.00000000000E+00 -0.82007646416E+03  0.82007646417E+03  0.50400001928E-02 0.  1.
    10030    2    1    2    0    0  0.00000000000E+00  0.00000000000E+00  0.74385525070E+03  0.23840081790E+04  0.22649888220E+04 0.  0.
        1    1    3    3  502    0 -0.17315757210E+03  0.10904097258E+04  0.10655481173E+03  0.11092027961E+04  0.50400001928E-02 0. -1.
       -1    1    3    3    0  502  0.17315757210E+03 -0.10904097258E+04  0.63730043898E+03  0.12748053830E+04  0.50400001928E-02 0.  1.
</event>
<event>
 5   0  0.1025153E-05  0.2541048E+04  0.7818609E-02  0.8388506E-01
        1   -1    0    0  501    0  0.00000000000E+00  0.00000000000E+00  0.16768984639E+04  0.16768984639E+04  0.50400001928E-02 0.  1.
       -1   -1    0    0    0  501  0.00000000000E+00  0.00000000000E+00 -0.96262943260E+03  0.96262943261E+03  0.50400001928E-02 0. -1.
    10030    2    1    2    0    0  0.00000000000E+00  0.00000000000E+00  0.71426903130E+03  0.26395278965E+04  0.25410484583E+04 0.  0.
        1    1    3    3  502    0 -0.58241205886E+03 -0.45310148012E+03  0.14314944399E+04  0.16104909466E+04  0.50400001928E-02 0.  1.
       -1    1    3    3    0  502  0.58241205886E+03  0.45310148012E+03 -0.71722540858E+03  0.10290369499E+04  0.50400001928E-02 0. -1.
</event>
<event>
 5   0  0.2484618E-05  0.2661356E+04  0.7818609E-02  0.8347654E-01
       -2   -1    0    0    0  501  0.00000000000E+00  0.00000000000E+00  0.11107700947E+04  0.11107700947E+04  0.25500000920E-02 0.  1.
        2   -1    0    0  501    0  0.00000000000E+00  0.00000000000E+00 -0.15941229259E+04  0.15941229259E+04  0.25500000920E-02 0. -1.
    10030    2    1    2    0    0  0.00000000000E+00  0.00000000000E+00 -0.48335283111E+03  0.27048930206E+04  0.26613561005E+04 0.  0.
        3    1    3    3  502    0  0.11782809133E+04 -0.18783127416E+02  0.38650028650E+03  0.12401940164E+04  0.10100000352E+00 0.  1.
       -3    1    3    3    0  502 -0.11782809133E+04  0.18783127416E+02 -0.86985311761E+03  0.14646990042E+04  0.10100000352E+00 0. -1.
</event>
<event>
 5   0  0.1005492E-05  0.2563934E+04  0.7818609E-02  0.8380556E-01
       -1   -1    0    0    0  501  0.00000000000E+00  0.00000000000E+00  0.88155984165E+03  0.88155984166E+03  0.50400001928E-02 0. -1.
        1   -1    0    0  501    0  0.00000000000E+00  0.00000000000E+00 -0.18642399955E+04  0.18642399955E+04  0.50400001928E-02 0.  1.
    10030    2    1    2    0    0  0.00000000000E+00  0.00000000000E+00 -0.98268015381E+03  0.27457998371E+04  0.25639337864E+04 0.  0.
        4    1    3    3  502    0 -0.96403617980E+03 -0.67101911563E+03 -0.10413919619E+04  0.15697551531E+04  0.12699999809E+01 0.  1.
       -4    1    3    3    0  502  0.96403617980E+03  0.67101911563E+03  0.58711808076E+02  0.11760446840E+04  0.12699999809E+01 0. -1.
</event>
<event>
 5   0  0.1025153E-05  0.2719386E+04  0.7818609E-02  0.8328742E-01
       -1   -1    0    0    0  501  0.00000000000E+00  0.00000000000E+00  0.92591561867E+03  0.92591561869E+03  0.50400001928E-02 0.  1.
        1   -1    0    0  501    0  0.00000000000E+00  0.00000000000E+00 -0.19966891935E+04  0.19966891935E+04  0.50400001928E-02 0. -1.
    10030    2    1    2    0    0  0.00000000000E+00  0.00000000000E+00 -0.10707735748E+04  0.29226048122E+04  0.27193864822E+04 0.  0.
        1    1    3    3  502    0  0.10040695094E+04  0.77911849426E+03 -0.15963791243E+02  0.12709980529E+04  0.50400001928E-02 0.  1.
       -1    1    3    3    0  502 -0.10040695094E+04 -0.77911849426E+03 -0.10548097836E+04  0.16516067593E+04  0.50400001928E-02 0. -1.
</event>
<event>
 5   0  0.1025153E-05  0.2622073E+04  0.7818609E-02  0.8360742E-01
       -1   -1    0    0    0  501  0.00000000000E+00  0.00000000000E+00  0.14027353748E+04  0.14027353748E+04  0.50400001928E-02 0. -1.
        1   -1    0    0  501    0  0.00000000000E+00  0.00000000000E+00 -0.12253321882E+04  0.12253321882E+04  0.50400001928E-02 0.  1.
    10030    2    1    2    0    0  0.00000000000E+00  0.00000000000E+00  0.17740318667E+03  0.26280675630E+04  0.26220730778E+04 0.  0.
        1    1    3    3  502    0  0.50576760417E+03 -0.11832546969E+04  0.34012215370E+03  0.13310054946E+04  0.50400001928E-02 0. -1.
       -1    1    3    3    0  502 -0.50576760417E+03  0.11832546969E+04 -0.16271896703E+03  0.12970620684E+04  0.50400001928E-02 0.  1.
</event>
<event>
 5   0  0.1000421E-05  0.2576393E+04  0.7818609E-02  0.8376265E-01
        1   -1    0    0  501    0  0.00000000000E+00  0.00000000000E+00  0.93894988926E+03  0.93894988927E+03  0.50400001928E-02 0. -1.
       -1   -1    0    0    0  501  0.00000000000E+00  0.00000000000E+00 -0.17673462972E+04  0.17673462972E+04  0.50400001928E-02 0.  1.
    10030    2    1    2    0    0  0.00000000000E+00  0.00000000000E+00 -0.82839640798E+03  0.27062961865E+04  0.25763925245E+04 0.  0.
        3    1    3    3  502    0 -0.53392786415E+03  0.11683428432E+04 -0.31265105476E+03  0.13220645429E+04  0.10100000352E+00 0. -1.
       -3    1    3    3    0  502  0.53392786415E+03 -0.11683428432E+04 -0.51574535322E+03  0.13842316436E+04  0.10100000352E+00 0.  1.
</event>
<event>
 5   0  0.2528460E-05  0.2566726E+04  0.7818609E-02  0.8379592E-01
        2   -1    0    0  501    0  0.00000000000E+00  0.00000000000E+00  0.12951437033E+04  0.12951437034E+04  0.25500000920E-02 0. -1.
       -2   -1    0    0    0  501  0.00000000000E+00  0.00000000000E+00 -0.12716898650E+04  0.12716898651E+04  0.25500000920E-02 0.  1.
    10030    2    1    2    0    0  0.00000000000E+00  0.00000000000E+00  0.23453838300E+02  0.25668335684E+04  0.25667264142E+04 0.  0.
        5    1    3    3  502    0  0.46574093348E+03 -0.26052708976E+03 -0.11554593512E+04  0.12727518940E+04  0.46999998093E+01 0.  1.
       -5    1    3    3    0  502 -0.46574093348E+03  0.26052708976E+03  0.11789131895E+04  0.12940816744E+04  0.46999998093E+01 0. -1.
</event>
<event>
 5   0  0.1005492E-05  0.2576833E+04  0.7818609E-02  0.8376113E-01
       -1   -1    0    0    0  501  0.00000000000E+00  0.00000000000E+00  0.10117049505E+04  0.10117049505E+04  0.50400001928E-02 0. -1.
        1   -1    0    0  501    0  0.00000000000E+00  0.00000000000E+00 -0.16408120003E+04  0.16408120003E+04  0.50400001928E-02 0.  1.
    10030    2    1    2    0    0  0.00000000000E+00  0.00000000000E+00 -0.62910704974E+03  0.26525169508E+04  0.25768334239E+04 0.  0.
        4    1    3    3  502    0 -0.21004675777E+03  0.11377143372E+04 -0.89821895469E+03  0.14646885188E+04  0.12699999809E+01 0.  1.
       -4    1    3    3    0  502  0.21004675777E+03 -0.11377143372E+04  0.26911190495E+03  0.11878284320E+04  0.12699999809E+01 0. -1.
</event>
<event>
 5   0  0.1025153E-05  0.2632274E+04  0.7818609E-02  0.8357320E-01
       -1   -1    0    0    0  501  0.00000000000E+00  0.00000000000E+00  0.20095522531E+04  0.20095522531E+04  0.50400001928E-02 0.  1.
        1   -1    0    0  501    0  0.00000000000E+00  0.00000000000E+00 -0.86199122769E+03  0.86199122771E+03  0.50400001928E-02 0. -1.
    10030    2    1    2    0    0  0.00000000000E+00  0.00000000000E+00  0.11475610254E+04  0.28715434808E+04  0.26322738564E+04 0.  0.
        1    1    3    3  502    0 -0.26709153638E+02 -0.67275411274E+03 -0.65990214162E+03  0.94275251876E+03  0.50400001928E-02 0. -1.
       -1    1    3    3    0  502  0.26709153638E+02  0.67275411274E+03  0.18074631670E+04  0.19287909620E+04  0.50400001928E-02 0.  1.
</event>
<event>
 5   0  0.1025153E-05  0.2061570E+04  0.7818609E-02  0.8578363E-01
       -1   -1    0    0    0  501  0.00000000000E+00  0.00000000000E+00  0.10513752947E+04  0.10513752947E+04  0.50400001928E-02 0. -1.
        1   -1    0    0  501    0  0.00000000000E+00  0.00000000000E+00 -0.10105982450E+04  0.10105982450E+04  0.50400001928E-02 0.  1.
    10030    2    1    2    0    0  0.00000000000E+00  0.00000000000E+00  0.40777049704E+02  0.20619735397E+04  0.20615703021E+04 0.  0.
        1    1    3    3  502    0 -0.35630354883E+03 -0.66351785506E+03 -0.68353167392E+03  0.10170662280E+04  0.50400001928E-02 0.  1.
       -1    1    3    3    0  502  0.35630354883E+03  0.66351785506E+03  0.72430872362E+03  0.10449073117E+04  0.50400001928E-02 0. -1.
</event>
<event>
 5   0  0.2528460E-05  0.2595653E+04  0.7818609E-02  0.8369679E-01
        2   -1    0    0  501    0  0.00000000000E+00  0.00000000000E+00  0.14905031269E+04  0.14905031269E+04  0.25500000920E-02 0. -1.
       -2   -1    0    0    0  501  0.00000000000E+00  0.00000000000E+00 -0.11300574291E+04  0.11300574291E+04  0.25500000920E-02 0.  1.
    10030    2    1    2    0    0  0.00000000000E+00  0.00000000000E+00  0.36044569779E+03  0.26205605560E+04  0.25956533910E+04 0.  0.
        5    1    3    3  502    0 -0.29277088577E+03 -0.42771505587E+03 -0.10210166431E+04  0.11450554730E+04  0.46999998093E+01 0.  1.
       -5    1    3    3    0  502  0.29277088577E+03  0.42771505587E+03  0.13814623409E+04  0.14755050830E+04  0.46999998093E+01 0. -1.
</event>
<event>
 5   0  0.2517854E-05  0.2377263E+04  0.7818609E-02  0.8448065E-01
       -2   -1    0    0    0  501  0.00000000000E+00  0.00000000000E+00  0.66522196049E+03  0.66522196049E+03  0.25500000920E-02 0. -1.
        2   -1    0    0  501    0  0.00000000000E+00  0.00000000000E+00 -0.21238701779E+04  0.21238701779E+04  0.25500000920E-02 0.  1.
    10030    2    1    2    0    0  0.00000000000E+00  0.00000000000E+00 -0.14586482174E+04  0.27890921384E+04  0.23772632026E+04 0.  0.
        4    1    3    3  502    0 -0.10855294671E+04  0.16983318038E+03 -0.12613399220E+04  0.16727813799E+04  0.12699999809E+01 0.  1.
       -4    1    3    3    0  502  0.10855294671E+04 -0.16983318038E+03 -0.19730829543E+03  0.11163107585E+04  0.12699999809E+01 0. -1.
</event>
<event>
 5   0  0.1034714E-05  0.2588135E+04  0.7818609E-02  0.8372243E-01
        1   -1    0    0  501    0  0.00000000000E+00  0.00000000000E+00  0.15632217426E+04  0.15632217426E+04  0.50400001928E-02 0. -1.
       -1   -1    0    0    0  501  0.00000000000E+00  0.00000000000E+00 -0.10712556227E+04  0.10712556227E+04  0.50400001928E-02 0.  1.
    10030    2    1    2    0    0  0.00000000000E+00  0.00000000000E+00  0.49196611985E+03  0.26344773653E+04  0.25881345261E+04 0.  0.
        5    1    3    3  502    0 -0.84045008617E+03  0.82773537861E+03 -0.29560197789E+03  0.12161023081E+04  0.46999998093E+01 0.  1.
       -5    1    3    3    0  502  0.84045008617E+03 -0.82773537861E+03  0.78756809773E+03  0.14183750572E+04  0.46999998093E+01 0. -1.
</event>
<event>
 5   0  0.2517854E-05  0.2615021E+04  0.7818609E-02  0.8363117E-01
       -2   -1    0    0    0  501  0.00000000000E+00  0.00000000000E+00  0.80149312910E+03  0.80149312911E+03  0.25500000920E-02 0.  1.
        2   -1    0    0  501    0  0.00000000000E+00  0.00000000000E+00 -0.21329988498E+04  0.21329988499E+04  0.25500000920E-02 0. -1.
    10030    2    1    2    0    0  0.00000000000E+00  0.00000000000E+00 -0.13315057207E+04  0.29344919790E+04  0.26150211644E+04 0.  0.
        4    1    3    3  502    0  0.55456161624E+03  0.59605347607E+03 -0.18138591680E+04  0.19881913959E+04  0.12699999809E+01 0. -1.
       -4    1    3    3    0  502 -0.55456161624E+03 -0.59605347607E+03  0.48235344724E+03  0.94630058306E+03  0.12699999809E+01 0.  1.
</event>
<event>
 5   0  0.1000421E-05  0.1981979E+04  0.7818609E-02  0.8615093E-01
        1   -1    0    0  501    0  0.00000000000E+00  0.00000000000E+00  0.15188076022E+04  0.15188076022E+04  0.50400001928E-02 0.  1.
       -1   -1    0    0    0  501  0.00000000000E+00  0.00000000000E+00 -0.64659969324E+03  0.64659969326E+03  0.50400001928E-02 0. -1.
    10030    2    1    2    0    0  0.00000000000E+00  0.00000000000E+00  0.87220790894E+03  0.21654072955E+04  0.19819793437E+04 0.  0.
        3    1    3    3  502    0 -0.12143556852E+03  0.90584640937E+03  0.85464562925E+03  0.12512887263E+04  0.10100000352E+00 0.  1.
       -3    1    3    3    0  502  0.12143556852E+03 -0.90584640937E+03  0.17562279699E+02  0.91411856920E+03  0.10100000352E+00 0. -1.
</event>
<event>
 5   0  0.2662024E-05  0.2512436E+04  0.7818609E-02  0.8398568E-01
       -2   -1    0    0    0  501  0.00000000000E+00  0.00000000000E+00  0.86835175139E+03  0.86835175139E+03  0.25500000920E-02 0. -1.
        2   -1    0    0  501    0  0.00000000000E+00  0.00000000000E+00 -0.18173327733E+04  0.18173327733E+04  0.25500000920E-02 0.  1.
    10030    2    1    2    0    0  0.00000000000E+00  0.00000000000E+00 -0.94898102194E+03  0.26856845247E+04  0.25124363447E+04 0.  0.
        2    1    3    3  502    0  0.47258856702E+03 -0.10662611709E+04  0.24416985498E+02  0.11665543397E+04  0.25500000920E-02 0. -1.
       -2    1    3    3    0  502 -0.47258856702E+03  0.10662611709E+04 -0.97339800744E+03  0.15191301851E+04  0.25500000920E-02 0.  1.
</event>
<event>
 5   0  0.2555801E-05  0.2368049E+04  0.7818609E-02  0.8451563E-01
       -2   -1    0    0    0  501  0.00000000000E+00  0.00000000000E+00  0.13298753410E+04  0.13298753410E+04  0.25500000920E-02 0. -1.
        2   -1    0    0  501    0  0.00000000000E+00  0.00000000000E+00 -0.10541690578E+04  0.10541690578E+04  0.25500000920E-02 0.  1.
    10030    2    1    2    0    0  0.00000000000E+00  0.00000000000E+00  0.27570628325E+03  0.23840443988E+04  0.23680485090E+04 0.  0.
        1    1    3    3  502    0 -0.35221731760E+03  0.11278085689E+04  0.21521115698E+03  0.12009683797E+04  0.50400001928E-02 0.  1.
       -1    1    3    3    0  502  0.35221731760E+03 -0.11278085689E+04  0.60495126271E+02  0.11830760192E+04  0.50400001928E-02 0. -1.
</event>
<event>
 5   0  0.1005492E-05  0.2606418E+04  0.7818609E-02  0.8366024E-01
       -1   -1    0    0    0  501  0.00000000000E+00  0.00000000000E+00  0.62299167736E+03  0.62299167738E+03  0.50400001928E-02 0.  1.
        1   -1    0    0  501    0  0.00000000000E+00  0.00000000000E+00 -0.27261256830E+04  0.27261256830E+04  0.50400001928E-02 0. -1.
    10030    2    1    2    0    0  0.00000000000E+00  0.00000000000E+00 -0.21031340056E+04  0.33491173604E+04  0.26064179342E+04 0.  0.
        4    1    3    3  502    0  0.18396489495E+03  0.12436351268E+04 -0.61039549383E+03  0.13975176861E+04  0.12699999809E+01 0.  1.
       -4    1    3    3    0  502 -0.18396489495E+03 -0.12436351268E+04 -0.14927385118E+04  0.19515996743E+04  0.12699999809E+01 0. -1.
</event>
<event>
 5   0  0.2555801E-05  0.2695090E+04  0.7818609E-02  0.8336600E-01
        2   -1    0    0  501    0  0.00000000000E+00  0.00000000000E+00  0.16319758367E+04  0.16319758367E+04  0.25500000920E-02 0. -1.
       -2   -1    0    0    0  501  0.00000000000E+00  0.00000000000E+00 -0.11126863822E+04  0.11126863822E+04  0.25500000920E-02 0.  1.
    10030    2    1    2    0    0  0.00000000000E+00  0.00000000000E+00  0.51928945451E+03  0.27446622189E+04  0.26950898238E+04 0.  0.
        1    1    3    3  502    0 -0.10708567267E+04 -0.75825957679E+03 -0.52896890818E+02  0.13131983079E+04  0.50400001928E-02 0.  1.
       -1    1    3    3    0  502  0.10708567267E+04  0.75825957679E+03  0.57218634533E+03  0.14314639110E+04  0.50400001928E-02 0. -1.
</event>
<event>
 5   0  0.9855352E-06  0.2596138E+04  0.7818609E-02  0.8369514E-01
       -1   -1    0    0    0  501  0.00000000000E+00  0.00000000000E+00  0.10282461041E+04  0.10282461042E+04  0.50400001928E-02 0.  1.
        1   -1    0    0  501    0  0.00000000000E+00  0.00000000000E+00 -0.16386962212E+04  0.16386962212E+04  0.50400001928E-02 0. -1.
    10030    2    1    2    0    0  0.00000000000E+00  0.00000000000E+00 -0.61045011709E+03  0.26669423254E+04  0.25961379050E+04 0.  0.
        2    1    3    3  502    0 -0.47887702070E+03  0.10877554370E+04 -0.84142604547E+03  0.14562049587E+04  0.25500000920E-02 0. -1.
       -2    1    3    3    0  502  0.47887702070E+03 -0.10877554370E+04  0.23097592838E+03  0.12107373667E+04  0.25500000920E-02 0.  1.
</event>
<event>
 5   0  0.2517854E-05  0.2586995E+04  0.7818609E-02  0.8372632E-01
        2   -1    0    0  501    0  0.00000000000E+00  0.00000000000E+00  0.20293981667E+04  0.20293981667E+04  0.25500000920E-02 0. -1.
       -2   -1    0    0    0  501  0.00000000000E+00  0.00000000000E+00 -0.82444906371E+03  0.82444906372E+03  0.25500000920E-02 0.  1.
    10030    2    1    2    0    0  0.00000000000E+00  0.00000000000E+00  0.12049491030E+04  0.28538472305E+04  0.25869947186E+04 0.  0.
        4    1    3    3  502    0  0.20517607899E+03 -0.58558555126E+03  0.18545035176E+04  0.19555542874E+04  0.12699999809E+01 0. -1.
       -4    1    3    3    0  502 -0.20517607899E+03  0.58558555126E+03 -0.64955441455E+03  0.89829294309E+03  0.12699999809E+01 0.  1.
</event>
<event>
 5   0  0.2484618E-05  0.2615758E+04  0.7818609E-02  0.8362868E-01
       -2   -1    0    0    0  501  0.00000000000E+00  0.00000000000E+00  0.71555813702E+03  0.71555813703E+03  0.25500000920E-02 0.  1.
        2   -1    0    0  501    0  0.00000000000E+00  0.00000000000E+00 -0.23905071761E+04  0.23905071761E+04  0.25500000920E-02 0. -1.
    10030    2    1    2    0    0  0.00000000000E+00  0.00000000000E+00 -0.16749490390E+04  0.31060653131E+04  0.26157575281E+04 0.  0.
        3    1    3    3  502    0  0.30780073420E+03 -0.11413570789E+04 -0.15019229441E+04  0.19113371795E+04  0.10100000352E+00 0.  1.
       -3    1    3    3    0  502 -0.30780073420E+03  0.11413570789E+04 -0.17302609497E+03  0.11947281336E+04  0.10100000352E+00 0. -1.
</event>
<event>
 5   0  0.9855352E-06  0.2602856E+04  0.7818609E-02  0.8367232E-01
        1   -1    0    0  501    0  0.00000000000E+00  0.00000000000E+00  0.83396291276E+03  0.83396291278E+03  0.50400001928E-02 0.  1.
       -1   -1    0    0    0  501  0.00000000000E+00  0.00000000000E+00 -0.20309241838E+04  0.20309241838E+04  0.50400001928E-02 0. -1.
    10030    2    1    2    0    0  0.00000000000E+00  0.00000000000E+00 -0.11969612711E+04  0.28648870966E+04  0.26028564678E+04 0.  0.
        2    1    3    3  502    0 -0.88873132284E+01  0.12771293114E+04 -0.32314317379E+03  0.13174064571E+04  0.25500000920E-02 0.  1.
       -2    1    3    3    0  502  0.88873132284E+01 -0.12771293114E+04 -0.87381809726E+03  0.15474806395E+04  0.25500000920E-02 0. -1.
</event>
<event>
 5   0  0.1005492E-05  0.2637345E+04  0.7818609E-02  0.8355626E-01
        1   -1    0    0  501    0  0.00000000000E+00  0.00000000000E+00  0.16555935761E+04  0.16555935761E+04  0.50400001928E-02 0. -1.
       -1   -1    0    0    0  501  0.00000000000E+00  0.00000000000E+00 -0.10503163321E+04  0.10503163321E+04  0.50400001928E-02 0.  1.
    10030    2    1    2    0    0  0.00000000000E+00  0.00000000000E+00  0.60527724401E+03  0.27059099083E+04  0.26373448560E+04 0.  0.
        4    1    3    3  502    0  0.83586859578E+02  0.61860855203E+02  0.16513796342E+04  0.16546509715E+04  0.12699999809E+01 0. -1.
       -4    1    3    3    0  502 -0.83586859578E+02 -0.61860855203E+02 -0.10461023902E+04  0.10512589368E+04  0.12699999809E+01 0.  1.
</event>
<event>
 5   0  0.1000421E-05  0.2628736E+04  0.7818609E-02  0.8358505E-01
       -1   -1    0    0    0  501  0.00000000000E+00  0.00000000000E+00  0.15588718745E+04  0.15588718745E+04  0.50400001928E-02 0. -1.
        1   -1    0    0  501    0  0.00000000000E+00  0.00000000000E+00 -0.11082138650E+04  0.11082138650E+04  0.50400001928E-02 0.  1.
    10030    2    1    2    0    0  0.00000000000E+00  0.00000000000E+00  0.45065800953E+03  0.26670857395E+04  0.26287361413E+04 0.  0.
        3    1    3    3  502    0  0.15389884158E+02  0.75523954444E+03 -0.86597402616E+03  0.11491451789E+04  0.10100000352E+00 0.  1.
       -3    1    3    3    0  502 -0.15389884158E+02 -0.75523954444E+03  0.13166320357E+04  0.15179405606E+04  0.10100000352E+00 0. -1.
</event>
<event>
 5   0  0.1000421E-05  0.1895697E+04  0.7818609E-02  0.8657001E-01
        1   -1    0    0  501    0  0.00000000000E+00  0.00000000000E+00  0.56149178334E+03  0.56149178336E+03  0.50400001928E-02 0. -1.
       -1   -1    0    0    0  501  0.00000000000E+00  0.00000000000E+00 -0.16000535988E+04  0.16000535988E+04  0.50400001928E-02 0.  1.
    10030    2    1    2    0    0  0.00000000000E+00  0.00000000000E+00 -0.10385618155E+04  0.21615453822E+04  0.18956971791E+04 0.  0.
        3    1    3    3  502    0  0.17767178429E+03  0.42728000709E+03  0.42393862206E+03  0.62758221203E+03  0.10100000352E+00 0. -1.
       -3    1    3    3    0  502 -0.17767178429E+03 -0.42728000709E+03 -0.14625004375E+04  0.15339631702E+04  0.10100000352E+00 0.  1.
</event>
<event>
 5   0  0.2484618E-05  0.2661108E+04  0.7818609E-02  0.8347735E-01
       -2   -1    0    0    0  501  0.00000000000E+00  0.00000000000E+00  0.12567167338E+04  0.12567167338E+04  0.25500000920E-02 0. -1.
        2   -1    0    0  501    0  0.00000000000E+00  0.00000000000E+00 -0.14087299085E+04  0.14087299085E+04  0.25500000920E-02 0.  1.
    10030    2    1    2    0    0  0.00000000000E+00  0.00000000000E+00 -0.15201317468E+03  0.26654466423E+04  0.26611083776E+04 0.  0.
        3    1    3    3  502    0  0.52267332121E+03 -0.31979864687E+02 -0.13011786319E+04  0.14025961481E+04  0.10100000352E+00 0.  1.
       -3    1    3    3    0  502 -0.52267332121E+03  0.31979864687E+02  0.11491654572E+04  0.12628504942E+04  0.10100000352E+00 0. -1.
</event>
<event>
 5   0  0.2528460E-05  0.2599156E+04  0.7818609E-02  0.8368488E-01
       -2   -1    0    0    0  501  0.00000000000E+00  0.00000000000E+00  0.16755590297E+04  0.16755590297E+04  0.25500000920E-02 0. -1.
        2   -1    0    0  501    0  0.00000000000E+00  0.00000000000E+00 -0.10079642328E+04  0.10079642328E+04  0.25500000920E-02 0.  1.
    10030    2    1    2    0    0  0.00000000000E+00  0.00000000000E+00  0.66759479690E+03  0.26835232625E+04  0.25991564569E+04 0.  0.
        5    1    3    3  502    0  0.93745564326E+03 -0.83378401548E+03  0.68371218100E+03  0.14288118504E+04  0.46999998093E+01 0. -1.
       -5    1    3    3    0  502 -0.93745564326E+03  0.83378401548E+03 -0.16117384097E+02  0.12547114121E+04  0.46999998093E+01 0.  1.
</event>
<event>
 5   0  0.2662024E-05  0.2611132E+04  0.7818609E-02  0.8364430E-01
       -2   -1    0    0    0  501  0.00000000000E+00  0.00000000000E+00  0.95443537972E+03  0.95443537972E+03  0.25500000920E-02 0.  1.
        2   -1    0    0  501    0  0.00000000000E+00  0.00000000000E+00 -0.17858749109E+04  0.17858749109E+04  0.25500000920E-02 0. -1.
    10030    2    1    2    0    0  0.00000000000E+00  0.00000000000E+00 -0.83143953113E+03  0.27403102906E+04  0.26111317077E+04 0.  0.
        2    1    3    3  502    0  0.11959425119E+04 -0.47986989601E+03 -0.19570925204E+03  0.13034015959E+04  0.25500000920E-02 0. -1.
       -2    1    3    3    0  502 -0.11959425119E+04  0.47986989601E+03 -0.63573027910E+03  0.14369086946E+04  0.25500000920E-02 0.  1.
</event>
<event>
 5   0  0.1025153E-05  0.2509092E+04  0.7818609E-02  0.8399754E-01
       -1   -1    0    0    0  501  0.00000000000E+00  0.00000000000E+00  0.12393860448E+04  0.12393860448E+04  0.50400001928E-02 0. -1.
        1   -1    0    0  501    0  0.00000000000E+00  0.00000000000E+00 -0.12698913942E+04  0.12698913942E+04  0.50400001928E-02 0.  1.
    10030    2    1    2    0    0  0.00000000000E+00  0.00000000000E+00 -0.30505349400E+02  0.25092774391E+04  0.25090920051E+04 0.  0.
        1    1    3    3  502    0  0.11129230534E+04  0.44419926442E+03  0.35622458966E+03  0.12501226610E+04  0.50400001928E-02 0.  1.
       -1    1    3    3    0  502 -0.11129230534E+04 -0.44419926442E+03 -0.38672993906E+03  0.12591547780E+04  0.50400001928E-02 0. -1.
</event>
<event>
 5   0  0.2662024E-05  0.2630293E+04  0.7818609E-02  0.8357984E-01
       -2   -1    0    0    0  501  0.00000000000E+00  0.00000000000E+00  0.89468947882E+03  0.89468947883E+03  0.25500000920E-02 0.  1.
        2   -1    0    0  501    0  0.00000000000E+00  0.00000000000E+00 -0.19331964476E+04  0.19331964476E+04  0.25500000920E-02 0. -1.
    10030    2    1    2    0    0  0.00000000000E+00  0.00000000000E+00 -0.10385069688E+04  0.28278859264E+04  0.26302931564E+04 0.  0.
        2    1    3    3  502    0 -0.11158435535E+04  0.57705419764E+03 -0.10076699016E+03  0.12602588501E+04  0.25500000920E-02 0.  1.
       -2    1    3    3    0  502  0.11158435535E+04 -0.57705419764E+03 -0.93773997862E+03  0.15676270763E+04  0.25500000920E-02 0. -1.
</event>
<event>
 5   0  0.1025153E-05  0.2582930E+04  0.7818609E-02  0.8374023E-01
       -1   -1    0    0    0  501  0.00000000000E+00  0.00000000000E+00  0.92659079631E+03  0.92659079632E+03  0.50400001928E-02 0.  1.
        1   -1    0    0  501    0  0.00000000000E+00  0.00000000000E+00 -0.18000196995E+04  0.18000196995E+04  0.50400001928E-02 0. -1.
    10030    2    1    2    0    0  0.00000000000E+00  0.00000000000E+00 -0.87342890315E+03  0.27266104958E+04  0.25829298765E+04 0.  0.
        1    1    3    3  502    0  0.99612201276E+03  0.66898838333E+03 -0.94085472169E+03  0.15247990454E+04  0.50400001928E-02 0. -1.
       -1    1    3    3    0  502 -0.99612201276E+03 -0.66898838333E+03  0.67425818547E+02  0.12018114504E+04  0.50400001928E-02 0.  1.
</event>
<event>
 5   0  0.1034714E-05  0.2597923E+04  0.7818609E-02  0.8368907E-01
        1   -1    0    0  501    0  0.00000000000E+00  0.00000000000E+00  0.11187492301E+04  0.11187492301E+04  0.50400001928E-02 0. -1.
       -1   -1    0    0    0  501  0.00000000000E+00  0.00000000000E+00 -0.15082027117E+04  0.15082027117E+04  0.50400001928E-02 0.  1.
    10030    2    1    2    0    0  0.00000000000E+00  0.00000000000E+00 -0.38945348159E+03  0.26269519418E+04  0.25979227260E+04 0.  0.
        5    1    3    3  502    0 -0.84443857358E+03  0.86175438888E+03 -0.68133305213E+03  0.13856168118E+04  0.46999998093E+01 0.  1.
       -5    1    3    3    0  502  0.84443857358E+03 -0.86175438888E+03  0.29187957053E+03  0.12413351300E+04  0.46999998093E+01 0. -1.
</event>
<event>
 5   0  0.2517854E-05  0.2668388E+04  0.7818609E-02  0.8345335E-01
       -2   -1    0    0    0  501  0.00000000000E+00  0.00000000000E+00  0.11223764345E+04  0.11223764345E+04  0.25500000920E-02 0.  1.
        2   -1    0    0  501    0  0.00000000000E+00  0.00000000000E+00 -0.15859863434E+04  0.15859863434E+04  0.25500000920E-02 0. -1.
    10030    2    1    2    0    0  0.00000000000E+00  0.00000000000E+00 -0.46360990894E+03  0.27083627779E+04  0.26683880507E+04 0.  0.
        4    1    3    3  502    0 -0.77625291125E+03 -0.86250145167E+03 -0.90014865026E+03  0.14685865796E+04  0.12699999809E+01 0. -1.
       -4    1    3    3    0  502  0.77625291125E+03  0.86250145167E+03  0.43653874132E+03  0.12397761983E+04  0.12699999809E+01 0.  1.
</event>
<event>
 5   0  0.1000421E-05  0.2598068E+04  0.7818609E-02  0.8368858E-01
       -1   -1    0    0    0  501  0.00000000000E+00  0.00000000000E+00  0.14787358060E+04  0.14787358060E+04  0.50400001928E-02 0. -1.
        1   -1    0    0  501    0  0.00000000000E+00  0.00000000000E+00 -0.11411706279E+04  0.11411706279E+04  0.50400001928E-02 0.  1.
    10030    2    1    2    0    0  0.00000000000E+00  0.00000000000E+00  0.33756517812E+03  0.26199064338E+04  0.25980684118E+04 0.  0.
        3    1    3    3  502    0  0.88052284376E+03  0.34459878452E+03  0.10670115632E+04  0.14256866720E+04  0.10100000352E+00 0. -1.
       -3    1    3    3    0  502 -0.88052284376E+03 -0.34459878452E+03 -0.72944638504E+03  0.11942197618E+04  0.10100000352E+00 0.  1.
</event>
<event>
 5   0  0.8605000E-06  0.2628627E+04  0.7818609E-02  0.8358542E-01
       -3   -1    0    0    0  501  0.00000000000E+00  0.00000000000E+00  0.96727093938E+03  0.96727094465E+03  0.10100000352E+00 0. -1.
        3   -1    0    0  501    0  0.00000000000E+00  0.00000000000E+00 -0.17858692419E+04  0.17858692447E+04  0.10100000352E+00 0.  1.
    10030    2    1    2    0    0  0.00000000000E+00  0.00000000000E+00 -0.81859830251E+03  0.27531401894E+04  0.26286265847E+04 0.  0.
        4    1    3    3  502    0  0.16003684351E+02 -0.32781501523E+03 -0.17422575316E+04  0.17729020620E+04  0.12699999809E+01 0.  1.
       -4    1    3    3    0  502 -0.16003684351E+02  0.32781501523E+03  0.92365922906E+03  0.98023812742E+03  0.12699999809E+01 0. -1.
</event>
<event>
 5   0  0.1025153E-05  0.2449870E+04  0.7818609E-02  0.8421066E-01
        1   -1    0    0  501    0  0.00000000000E+00  0.00000000000E+00  0.11108811831E+04  0.11108811831E+04  0.50400001928E-02 0. -1.
       -1   -1    0    0    0  501  0.00000000000E+00  0.00000000000E+00 -0.13506983902E+04  0.13506983902E+04  0.50400001928E-02 0.  1.
    10030    2    1    2    0    0  0.00000000000E+00  0.00000000000E+00 -0.23981720707E+03  0.24615795734E+04  0.24498697319E+04 0.  0.
        1    1    3    3  502    0  0.73377460644E+03 -0.69631272682E+03  0.57418177800E+03  0.11631686468E+04  0.50400001928E-02 0. -1.
       -1    1    3    3    0  502 -0.73377460644E+03  0.69631272682E+03 -0.81399898507E+03  0.12984109266E+04  0.50400001928E-02 0.  1.
</event>
<event>
 5   0  0.9855352E-06  0.2634688E+04  0.7818609E-02  0.8356513E-01
       -1   -1    0    0    0  501  0.00000000000E+00  0.00000000000E+00  0.10989770392E+04  0.10989770393E+04  0.50400001928E-02 0.  1.
        1   -1    0    0  501    0  0.00000000000E+00  0.00000000000E+00 -0.15791008986E+04  0.15791008986E+04  0.50400001928E-02 0. -1.
    10030    2    1    2    0    0  0.00000000000E+00  0.00000000000E+00 -0.48012385932E+03  0.26780779378E+04  0.26346883157E+04 0.  0.
        2    1    3    3  502    0 -0.12052000738E+03  0.88662320790E+03 -0.12228193085E+04  0.15152269950E+04  0.25500000920E-02 0. -1.
       -2    1    3    3    0  502  0.12052000738E+03 -0.88662320790E+03  0.74269544922E+03  0.11628509428E+04  0.25500000920E-02 0.  1.
</event>
<event>
 5   0  0.1005492E-05  0.2614056E+04  0.7818609E-02  0.8363442E-01
        1   -1    0    0  501    0  0.00000000000E+00  0.00000000000E+00  0.15860899421E+04  0.15860899421E+04  0.50400001928E-02 0. -1.
       -1   -1    0    0    0  501  0.00000000000E+00  0.00000000000E+00 -0.10770648173E+04  0.10770648173E+04  0.50400001928E-02 0.  1.
    10030    2    1    2    0    0  0.00000000000E+00  0.00000000000E+00  0.50902512478E+03  0.26631547594E+04  0.26140556029E+04 0.  0.
        4    1    3    3  502    0 -0.85308013936E+01 -0.79555734255E+03 -0.80194884278E+03  0.11296494231E+04  0.12699999809E+01 0.  1.
       -4    1    3    3    0  502  0.85308013936E+01  0.79555734255E+03  0.13109739676E+04  0.15335053363E+04  0.12699999809E+01 0. -1.
</event>
<event>
 5   0  0.1034714E-05  0.2593855E+04  0.7818609E-02  0.8370292E-01
        1   -1    0    0  501    0  0.00000000000E+00  0.00000000000E+00  0.91868528445E+03  0.91868528446E+03  0.50400001928E-02 0.  1.
       -1   -1    0    0    0  501  0.00000000000E+00  0.00000000000E+00 -0.18308994318E+04  0.18308994318E+04  0.50400001928E-02 0. -1.
    10030    2    1    2    0    0  0.00000000000E+00  0.00000000000E+00 -0.91221414739E+03  0.27495847163E+04  0.25938545567E+04 0.  0.
        5    1    3    3  502    0 -0.96352790446E+02 -0.12212882919E+03 -0.18209649066E+04  0.18276035107E+04  0.46999998093E+01 0. -1.
       -5    1    3    3    0  502  0.96352790446E+02  0.12212882919E+03  0.90875075922E+03  0.92198120563E+03  0.46999998093E+01 0.  1.
</event>
<event>
 5   0  0.2555801E-05  0.2554455E+04  0.7818609E-02  0.8383838E-01
       -2   -1    0    0    0  501  0.00000000000E+00  0.00000000000E+00  0.79240209406E+03  0.79240209407E+03  0.25500000920E-02 0.  1.
        2   -1    0    0  501    0  0.00000000000E+00  0.00000000000E+00 -0.20586905471E+04  0.20586905471E+04  0.25500000920E-02 0. -1.
    10030    2    1    2    0    0  0.00000000000E+00  0.00000000000E+00 -0.12662884530E+04  0.28510926412E+04  0.25544554806E+04 0.  0.
        1    1    3    3  502    0  0.21226897007E+03  0.44395957644E+03  0.68234698260E+03  0.84128213214E+03  0.50400001928E-02 0.  1.
       -1    1    3    3    0  502 -0.21226897007E+03 -0.44395957644E+03 -0.19486354356E+04  0.20098105090E+04  0.50400001928E-02 0. -1.
</event>
<event>
 5   0  0.9855352E-06  0.2578058E+04  0.7818609E-02  0.8375693E-01
       -1   -1    0    0    0  501  0.00000000000E+00  0.00000000000E+00  0.11137853838E+04  0.11137853838E+04  0.50400001928E-02 0. -1.
        1   -1    0    0  501    0  0.00000000000E+00  0.00000000000E+00 -0.14918450985E+04  0.14918450985E+04  0.50400001928E-02 0.  1.
    10030    2    1    2    0    0  0.00000000000E+00  0.00000000000E+00 -0.37805971475E+03  0.26056304823E+04  0.25780576142E+04 0.  0.
        2    1    3    3  502    0  0.92370465158E+03 -0.89126084974E+03 -0.30869838940E+03  0.13201783521E+04  0.25500000920E-02 0.  1.
       -2    1    3    3    0  502 -0.92370465158E+03  0.89126084974E+03 -0.69361325352E+02  0.12854521302E+04  0.25500000920E-02 0. -1.
</event>
<event>
 5   0  0.2484618E-05  0.2649752E+04  0.7818609E-02  0.8351495E-01
        2   -1    0    0  501    0  0.00000000000E+00  0.00000000000E+00  0.65595559911E+03  0.65595559911E+03  0.25500000920E-02 0.  1.
       -2   -1    0    0    0  501  0.00000000000E+00  0.00000000000E+00 -0.26759378332E+04  0.26759378332E+04  0.25500000920E-02 0. -1.
    10030    2    1    2    0    0  0.00000000000E+00  0.00000000000E+00 -0.20199822341E+04  0.33318934323E+04  0.26497519918E+04 0.  0.
        3    1    3    3  502    0  0.44082759008E+03  0.21307400170E+03 -0.25579999377E+04  0.26044372109E+04  0.10100000352E+00 0. -1.
       -3    1    3    3    0  502 -0.44082759008E+03 -0.21307400170E+03  0.53801770361E+03  0.72745622135E+03  0.10100000352E+00 0.  1.
</event>
<event>
 5   0  0.1005492E-05  0.2636139E+04  0.7818609E-02  0.8356028E-01
        1   -1    0    0  501    0  0.00000000000E+00  0.00000000000E+00  0.17930504441E+04  0.17930504441E+04  0.50400001928E-02 0.  1.
       -1   -1    0    0    0  501  0.00000000000E+00  0.00000000000E+00 -0.96891171291E+03  0.96891171292E+03  0.50400001928E-02 0. -1.
    10030    2    1    2    0    0  0.00000000000E+00  0.00000000000E+00  0.82413873119E+03  0.27619621570E+04  0.26361392810E+04 0.  0.
        4    1    3    3  502    0 -0.12023842720E+04 -0.46128465854E+03  0.70617090447E+03  0.14687377005E+04  0.12699999809E+01 0.  1.
       -4    1    3    3    0  502  0.12023842720E+04  0.46128465854E+03  0.11796782673E+03  0.12932244565E+04  0.12699999809E+01 0. -1.
</event>
<event>
 5   0  0.2555801E-05  0.2599675E+04  0.7818609E-02  0.8368311E-01
       -2   -1    0    0    0  501  0.00000000000E+00  0.00000000000E+00  0.10654542925E+04  0.10654542925E+04  0.25500000920E-02 0. -1.
        2   -1    0    0  501    0  0.00000000000E+00  0.00000000000E+00 -0.15857818950E+04  0.15857818950E+04  0.25500000920E-02 0.  1.
    10030    2    1    2    0    0  0.00000000000E+00  0.00000000000E+00 -0.52032760252E+03  0.26512361875E+04  0.25996754620E+04 0.  0.
        1    1    3    3  502    0  0.60687502189E+02 -0.24486499030E+03 -0.15605760342E+04  0.15808350309E+04  0.50400001928E-02 0.  1.
       -1    1    3    3    0  502 -0.60687502189E+02  0.24486499030E+03  0.10402484317E+04  0.10704011566E+04  0.50400001928E-02 0. -1.
</event>
<event>
 5   0  0.1000421E-05  0.2610001E+04  0.7818609E-02  0.8364812E-01
        1   -1    0    0  501    0  0.00000000000E+00  0.00000000000E+00  0.22105562876E+04  0.22105562876E+04  0.50400001928E-02 0.  1.
       -1   -1    0    0    0  501  0.00000000000E+00  0.00000000000E+00 -0.77040619266E+03  0.77040619268E+03  0.50400001928E-02 0. -1.
    10030    2    1    2    0    0  0.00000000000E+00  0.00000000000E+00  0.14401500949E+04  0.29809624803E+04  0.26100009603E+04 0.  0.
        3    1    3    3  502    0 -0.13046777834E+04  0.16104756270E+02  0.69250349340E+03  0.14771609865E+04  0.10100000352E+00 0.  1.
       -3    1    3    3    0  502  0.13046777834E+04 -0.16104756270E+02  0.74764660151E+03  0.15038014937E+04  0.10100000352E+00 0. -1.
</event>
<event>
 5   0  0.2517854E-05  0.2480314E+04  0.7818609E-02  0.8410032E-01
        2   -1    0    0  501    0  0.00000000000E+00  0.00000000000E+00  0.13381136330E+04  0.13381136330E+04  0.25500000920E-02 0.  1.
       -2   -1    0    0    0  501  0.00000000000E+00  0.00000000000E+00 -0.11493715743E+04  0.11493715743E+04  0.25500000920E-02 0. -1.
    10030    2    1    2    0    0  0.00000000000E+00  0.00000000000E+00  0.18874205874E+03  0.24874852073E+04  0.24803143131E+04 0.  0.
        4    1    3    3  502    0 -0.89219466783E+03 -0.54285697668E+03 -0.57635482933E+03  0.11928501686E+04  0.12699999809E+01 0. -1.
       -4    1    3    3    0  502  0.89219466783E+03  0.54285697668E+03  0.76509688807E+03  0.12946350387E+04  0.12699999809E+01 0.  1.
</event>
<event>
 5   0  0.2517854E-05  0.2621483E+04  0.7818609E-02  0.8360940E-01
        2   -1    0    0  501    0  0.00000000000E+00  0.00000000000E+00  0.59561579195E+03  0.59561579196E+03  0.25500000920E-02 0.  1.
       -2   -1    0    0    0  501  0.00000000000E+00  0.00000000000E+00 -0.28844830405E+04  0.28844830405E+04  0.25500000920E-02 0. -1.
    10030    2    1    2    0    0  0.00000000000E+00  0.00000000000E+00 -0.22888672486E+04  0.34800988325E+04  0.26214832828E+04 0.  0.
        4    1    3    3  502    0  0.17274872833E+02  0.11162113237E+04 -0.20562990937E+04  0.23397849722E+04  0.12699999809E+01 0. -1.
       -4    1    3    3    0  502 -0.17274872833E+02 -0.11162113237E+04 -0.23256815489E+03  0.11403138603E+04  0.12699999809E+01 0.  1.
</event>
<event>
 5   0  0.2528460E-05  0.2614668E+04  0.7818609E-02  0.8363236E-01
        2   -1    0    0  501    0  0.00000000000E+00  0.00000000000E+00  0.21838236784E+04  0.21838236784E+04  0.25500000920E-02 0. -1.
       -2   -1    0    0    0  501  0.00000000000E+00  0.00000000000E+00 -0.78262848654E+03  0.78262848655E+03  0.25500000920E-02 0.  1.
    10030    2    1    2    0    0  0.00000000000E+00  0.00000000000E+00  0.14011951919E+04  0.29664521650E+04  0.26146683310E+04 0.  0.
        5    1    3    3  502    0  0.11435510550E+03 -0.58844965101E+03 -0.61749974245E+03  0.86062657631E+03  0.46999998093E+01 0.  1.
       -5    1    3    3    0  502 -0.11435510550E+03  0.58844965101E+03  0.20186949343E+04  0.21058255887E+04  0.46999998093E+01 0. -1.
</event>
<event>
 5   0  0.2662024E-05  0.2603655E+04  0.7818609E-02  0.8366961E-01
       -2   -1    0    0    0  501  0.00000000000E+00  0.00000000000E+00  0.21247838452E+04  0.21247838452E+04  0.25500000920E-02 0. -1.
        2   -1    0    0  501    0  0.00000000000E+00  0.00000000000E+00 -0.79761265556E+03  0.79761265557E+03  0.25500000920E-02 0.  1.
    10030    2    1    2    0    0  0.00000000000E+00  0.00000000000E+00  0.13271711896E+04  0.29223965007E+04  0.26036547277E+04 0.  0.
        2    1    3    3  502    0 -0.29410211043E+03  0.81969862557E+03  0.17496997085E+04  0.19544438999E+04  0.25500000920E-02 0. -1.
       -2    1    3    3    0  502  0.29410211043E+03 -0.81969862557E+03 -0.42252851888E+03  0.96795260080E+03  0.25500000920E-02 0.  1.
</event>
<event>
 5   0  0.2484618E-05  0.2591857E+04  0.7818609E-02  0.8370973E-01
        2   -1    0    0  501    0  0.00000000000E+00  0.00000000000E+00  0.10908663844E+04  0.10908663844E+04  0.25500000920E-02 0. -1.
       -2   -1    0    0    0  501  0.00000000000E+00  0.00000000000E+00 -0.15395381707E+04  0.15395381707E+04  0.25500000920E-02 0.  1.
    10030    2    1    2    0    0  0.00000000000E+00  0.00000000000E+00 -0.44867178628E+03  0.26304045552E+04  0.25918568155E+04 0.  0.
        3    1    3    3  502    0  0.67020000200E+03 -0.94300120168E+03  0.36831072705E+03  0.12141137142E+04  0.10100000352E+00 0. -1.
       -3    1    3    3    0  502 -0.67020000200E+03  0.94300120168E+03 -0.81698251333E+03  0.14162908410E+04  0.10100000352E+00 0.  1.
</event>
<event>
 5   0  0.2484618E-05  0.2527487E+04  0.7818609E-02  0.8393258E-01
       -2   -1    0    0    0  501  0.00000000000E+00  0.00000000000E+00  0.12016844059E+04  0.12016844059E+04  0.25500000920E-02 0. -1.
        2   -1    0    0  501    0  0.00000000000E+00  0.00000000000E+00 -0.13290077597E+04  0.13290077597E+04  0.25500000920E-02 0.  1.
    10030    2    1    2    0    0  0.00000000000E+00  0.00000000000E+00 -0.12732335374E+03  0.25306921656E+04  0.25274872108E+04 0.  0.
        3    1    3    3  502    0  0.59689159181E+03  0.11056252372E+04  0.72013476894E+02  0.12585200390E+04  0.10100000352E+00 0.  1.
       -3    1    3    3    0  502 -0.59689159181E+03 -0.11056252372E+04 -0.19933683064E+03  0.12721721266E+04  0.10100000352E+00 0. -1.
</event>
<event>
 5   0  0.2662024E-05  0.2579936E+04  0.7818609E-02  0.8375049E-01
       -2   -1    0    0    0  501  0.00000000000E+00  0.00000000000E+00  0.10173875621E+04  0.10173875621E+04  0.25500000920E-02 0. -1.
        2   -1    0    0  501    0  0.00000000000E+00  0.00000000000E+00 -0.16355782282E+04  0.16355782282E+04  0.25500000920E-02 0.  1.
    10030    2    1    2    0    0  0.00000000000E+00  0.00000000000E+00 -0.61819066611E+03  0.26529657904E+04  0.25799356165E+04 0.  0.
        2    1    3    3  502    0 -0.32397688204E+03  0.13629552764E+03 -0.15853893611E+04  0.16238832832E+04  0.25500000920E-02 0.  1.
       -2    1    3    3    0  502  0.32397688204E+03 -0.13629552764E+03  0.96719869503E+03  0.10290825072E+04  0.25500000920E-02 0. -1.
</event>
<event>
 5   0  0.8605000E-06  0.2413906E+04  0.7818609E-02  0.8434316E-01
        3   -1    0    0  501    0  0.00000000000E+00  0.00000000000E+00  0.30819586525E+04  0.30819586542E+04  0.10100000352E+00 0.  1.
       -3   -1    0    0    0  501  0.00000000000E+00  0.00000000000E+00 -0.47266537512E+03  0.47266538591E+03  0.10100000352E+00 0. -1.
    10030    2    1    2    0    0  0.00000000000E+00  0.00000000000E+00  0.26092932774E+04  0.35546240401E+04  0.24139056856E+04 0.  0.
        3    1    3    3  502    0 -0.53719469574E+02 -0.10291223890E+04  0.37944155413E+03  0.10981596314E+04  0.10100000352E+00 0. -1.
       -3    1    3    3    0  502  0.53719469574E+02  0.10291223890E+04  0.22298517233E+04  0.24564644086E+04  0.10100000352E+00 0.  1.
</event>
<event>
 5   0  0.8605000E-06  0.2611640E+04  0.7818609E-02  0.8364258E-01
       -4   -1    0    0    0  501  0.00000000000E+00  0.00000000000E+00  0.12058605906E+04  0.12058612594E+04  0.12699999809E+01 0.  1.
        4   -1    0    0  501    0  0.00000000000E+00  0.00000000000E+00 -0.14140638700E+04  0.14140644403E+04  0.12699999809E+01 0. -1.
    10030    2    1    2    0    0  0.00000000000E+00  0.00000000000E+00 -0.20820327937E+03  0.26199256997E+04  0.26116397275E+04 0.  0.
        4    1    3    3  502    0  0.40784985646E+03 -0.54509602398E+03  0.10137464182E+04  0.12211284102E+04  0.12699999809E+01 0.  1.
       -4    1    3    3    0  502 -0.40784985646E+03  0.54509602398E+03 -0.12219496976E+04  0.13987972895E+04  0.12699999809E+01 0. -1.
</event>
<event>
 5   0  0.2484618E-05  0.2652005E+04  0.7818609E-02  0.8350748E-01
        2   -1    0    0  501    0  0.00000000000E+00  0.00000000000E+00  0.11736098175E+04  0.11736098175E+04  0.25500000920E-02 0.  1.
       -2   -1    0    0    0  501  0.00000000000E+00  0.00000000000E+00 -0.14981827621E+04  0.14981827621E+04  0.25500000920E-02 0. -1.
    10030    2    1    2    0    0  0.00000000000E+00  0.00000000000E+00 -0.32457294461E+03  0.26717925796E+04  0.26520045234E+04 0.  0.
        3    1    3    3  502    0  0.68583434444E+03 -0.10837749979E+04  0.17689307038E+03  0.12946923042E+04  0.10100000352E+00 0.  1.
       -3    1    3    3    0  502 -0.68583434444E+03  0.10837749979E+04 -0.50146601499E+03  0.13771002754E+04  0.10100000352E+00 0. -1.
</event>
<event>
 5   0  0.1005492E-05  0.2266025E+04  0.7818609E-02  0.8491439E-01
       -1   -1    0    0    0  501  0.00000000000E+00  0.00000000000E+00  0.59628765041E+03  0.59628765043E+03  0.50400001928E-02 0.  1.
        1   -1    0    0  501    0  0.00000000000E+00  0.00000000000E+00 -0.21528490092E+04  0.21528490092E+04  0.50400001928E-02 0. -1.
    10030    2    1    2    0    0  0.00000000000E+00  0.00000000000E+00 -0.15565613588E+04  0.27491366596E+04  0.22660249579E+04 0.  0.
        4    1    3    3  502    0  0.40932433651E+03  0.91314005180E+01 -0.20599631518E+04  0.21002570306E+04  0.12699999809E+01 0. -1.
       -4    1    3    3    0  502 -0.40932433651E+03 -0.91314005180E+01  0.50340179298E+03  0.64887962906E+03  0.12699999809E+01 0.  1.
</event>
<event>
 5   0  0.2555801E-05  0.2203440E+04  0.7818609E-02  0.8516998E-01
        2   -1    0    0  501    0  0.00000000000E+00  0.00000000000E+00  0.21879721865E+04  0.21879721865E+04  0.25500000920E-02 0.  1.
       -2   -1    0    0    0  501  0.00000000000E+00  0.00000000000E+00 -0.55475412225E+03  0.55475412226E+03  0.25500000920E-02 0. -1.
    10030    2    1    2    0    0  0.00000000000E+00  0.00000000000E+00  0.16332180642E+04  0.27427263087E+04  0.22034396655E+04 0.  0.
        1    1    3    3  502    0 -0.26310953046E+03  0.43935841779E+03  0.20308117924E+04  0.20943874953E+04  0.50400001928E-02 0.  1.
       -1    1    3    3    0  502  0.26310953046E+03 -0.43935841779E+03 -0.39759372817E+03  0.64833881344E+03  0.50400001928E-02 0. -1.
</event>
<event>
 5   0  0.2662024E-05  0.2601768E+04  0.7818609E-02  0.8367601E-01
        2   -1    0    0  501    0  0.00000000000E+00  0.00000000000E+00  0.17895296690E+04  0.17895296690E+04  0.25500000920E-02 0. -1.
       -2   -1    0    0    0  501  0.00000000000E+00  0.00000000000E+00 -0.94566736610E+03  0.94566736610E+03  0.25500000920E-02 0.  1.
    10030    2    1    2    0    0  0.00000000000E+00  0.00000000000E+00  0.84386230294E+03  0.27351970351E+04  0.26017684822E+04 0.  0.
        2    1    3    3  502    0  0.10915009736E+04  0.69123025747E+03  0.58180291828E+03  0.14169221150E+04  0.25500000920E-02 0.  1.
       -2    1    3    3    0  502 -0.10915009736E+04 -0.69123025747E+03  0.26205938466E+03  0.13182749202E+04  0.25500000920E-02 0. -1.
</event>
<event>
 5   0  0.9855352E-06  0.2614397E+04  0.7818609E-02  0.8363327E-01
       -1   -1    0    0    0  501  0.00000000000E+00  0.00000000000E+00  0.15244715679E+04  0.15244715679E+04  0.50400001928E-02 0.  1.
        1   -1    0    0  501    0  0.00000000000E+00  0.00000000000E+00 -0.11208920367E+04  0.11208920367E+04  0.50400001928E-02 0. -1.
    10030    2    1    2    0    0  0.00000000000E+00  0.00000000000E+00  0.40357953118E+03  0.26453636047E+04  0.26143970936E+04 0.  0.
        2    1    3    3  502    0 -0.36609216589E+03 -0.12157511170E+04  0.51642916908E+03  0.13706835299E+04  0.25500000920E-02 0.  1.
       -2    1    3    3    0  502  0.36609216589E+03  0.12157511170E+04 -0.11284963789E+03  0.12746800748E+04  0.25500000920E-02 0. -1.
</event>
<event>
 5   0  0.2528460E-05  0.2674387E+04  0.7818609E-02  0.8343364E-01
       -2   -1    0    0    0  501  0.00000000000E+00  0.00000000000E+00  0.13980955140E+04  0.13980955140E+04  0.25500000920E-02 0.  1.
        2   -1    0    0  501    0  0.00000000000E+00  0.00000000000E+00 -0.12789441147E+04  0.12789441147E+04  0.25500000920E-02 0. -1.
    10030    2    1    2    0    0  0.00000000000E+00  0.00000000000E+00  0.11915139931E+03  0.26770396288E+04  0.26743866807E+04 0.  0.
        5    1    3    3  502    0  0.77412936101E+03 -0.87011056116E+03  0.71726269014E+03  0.13677925694E+04  0.46999998093E+01 0.  1.
       -5    1    3    3    0  502 -0.77412936101E+03  0.87011056116E+03 -0.59811129084E+03  0.13092470594E+04  0.46999998093E+01 0. -1.
</event>
<event>
 5   0  0.1000421E-05  0.2702629E+04  0.7818609E-02  0.8334152E-01
       -1   -1    0    0    0  501  0.00000000000E+00  0.00000000000E+00  0.10497444977E+04  0.10497444977E+04  0.50400001928E-02 0.  1.
        1   -1    0    0  501    0  0.00000000000E+00  0.00000000000E+00 -0.17395198367E+04  0.17395198368E+04  0.50400001928E-02 0. -1.
    10030    2    1    2    0    0  0.00000000000E+00  0.00000000000E+00 -0.68977533908E+03  0.27892643344E+04  0.27026293695E+04 0.  0.
        3    1    3    3  502    0  0.93790211681E+03  0.92419287592E+03 -0.65836519527E+03  0.14721540657E+04  0.10100000352E+00 0. -1.
       -3    1    3    3    0  502 -0.93790211681E+03 -0.92419287592E+03 -0.31410143817E+02  0.13171102687E+04  0.10100000352E+00 0.  1.
</event>
<event>
 5   0  0.1000421E-05  0.2604189E+04  0.7818609E-02  0.8366780E-01
        1   -1    0    0  501    0  0.00000000000E+00  0.00000000000E+00  0.13625753624E+04  0.13625753624E+04  0.50400001928E-02 0. -1.
       -1   -1    0    0    0  501  0.00000000000E+00  0.00000000000E+00 -0.12442980463E+04  0.12442980463E+04  0.50400001928E-02 0.  1.
    10030    2    1    2    0    0  0.00000000000E+00  0.00000000000E+00  0.11827731608E+03  0.26068734087E+04  0.26041888268E+04 0.  0.
        3    1    3    3  502    0 -0.10721551201E+04 -0.16446771671E+03 -0.66193968368E+03  0.12707204203E+04  0.10100000352E+00 0.  1.
       -3    1    3    3    0  502  0.10721551201E+04  0.16446771671E+03  0.78021699976E+03  0.13361529884E+04  0.10100000352E+00 0. -1.
</event>
<event>
 5   0  0.1005492E-05  0.2523779E+04  0.7818609E-02  0.8394563E-01
        1   -1    0    0  501    0  0.00000000000E+00  0.00000000000E+00  0.17773620237E+04  0.17773620237E+04  0.50400001928E-02 0. -1.
       -1   -1    0    0    0  501  0.00000000000E+00  0.00000000000E+00 -0.89591508283E+03  0.89591508285E+03  0.50400001928E-02 0.  1.
    10030    2    1    2    0    0  0.00000000000E+00  0.00000000000E+00  0.88144694084E+03  0.26732771065E+04  0.25237792651E+04 0.  0.
        4    1    3    3  502    0 -0.11858447324E+04 -0.37197521365E+03  0.20921190051E+03  0.12603033449E+04  0.12699999809E+01 0.  1.
       -4    1    3    3    0  502  0.11858447324E+04  0.37197521365E+03  0.67223504032E+03  0.14129737617E+04  0.12699999809E+01 0. -1.
</event>
<event>
 5   0  0.2517854E-05  0.2514520E+04  0.7818609E-02  0.8397831E-01
       -2   -1    0    0    0  501  0.00000000000E+00  0.00000000000E+00  0.10456739300E+04  0.10456739300E+04  0.25500000920E-02 0.  1.
        2   -1    0    0  501    0  0.00000000000E+00  0.00000000000E+00 -0.15116590430E+04  0.15116590430E+04  0.25500000920E-02 0. -1.
    10030    2    1    2    0    0  0.00000000000E+00  0.00000000000E+00 -0.46598511296E+03  0.25573329730E+04  0.25145197970E+04 0.  0.
        4    1    3    3  502    0  0.15895320658E+03 -0.10030010409E+04 -0.98684419967E+03  0.14160297657E+04  0.12699999809E+01 0. -1.
       -4    1    3    3    0  502 -0.15895320658E+03  0.10030010409E+04  0.52085908671E+03  0.11413032074E+04  0.12699999809E+01 0.  1.
</event>
<event>
 5   0  0.2662024E-05  0.2272597E+04  0.7818609E-02  0.8488805E-01
        2   -1    0    0  501    0  0.00000000000E+00  0.00000000000E+00  0.13054240384E+04  0.13054240384E+04  0.25500000920E-02 0. -1.
       -2   -1    0    0    0  501  0.00000000000E+00  0.00000000000E+00 -0.98908421737E+03  0.98908421737E+03  0.25500000920E-02 0.  1.
    10030    2    1    2    0    0  0.00000000000E+00  0.00000000000E+00  0.31633982101E+03  0.22945082558E+04  0.22725970284E+04 0.  0.
        2    1    3    3  502    0  0.50589934105E+03  0.10139611654E+04  0.24338105080E+03  0.11590020380E+04  0.25500000920E-02 0. -1.
       -2    1    3    3    0  502 -0.50589934105E+03 -0.10139611654E+04  0.72958770207E+02  0.11355062177E+04  0.25500000920E-02 0.  1.
</event>
<event>
 5   0  0.2517854E-05  0.2586974E+04  0.7818609E-02  0.8372639E-01
        2   -1    0    0  501    0  0.00000000000E+00  0.00000000000E+00  0.19319077076E+04  0.19319077076E+04  0.25500000920E-02 0. -1.
       -2   -1    0    0    0  501  0.00000000000E+00  0.00000000000E+00 -0.86603976169E+03  0.86603976169E+03  0.25500000920E-02 0.  1.
    10030    2    1    2    0    0  0.00000000000E+00  0.00000000000E+00  0.10658679459E+04  0.27979474693E+04  0.25869742099E+04 0.  0.
        4    1    3    3  502    0 -0.55391078115E+03  0.11224421502E+04  0.88574838617E+03  0.15333771064E+04  0.12699999809E+01 0. -1.
       -4    1    3    3    0  502  0.55391078115E+03 -0.11224421502E+04  0.18011955976E+03  0.12645703629E+04  0.12699999809E+01 0.  1.
</event>
<event>
 5   0  0.2555801E-05  0.2133816E+04  0.7818609E-02  0.8546492E-01
       -2   -1    0    0    0  501  0.00000000000E+00  0.00000000000E+00  0.96739375342E+03  0.96739375343E+03  0.25500000920E-02 0. -1.
        2   -1    0    0  501    0  0.00000000000E+00  0.00000000000E+00 -0.11766590761E+04  0.11766590761E+04  0.25500000920E-02 0.  1.
    10030    2    1    2    0    0  0.00000000000E+00  0.00000000000E+00 -0.20926532271E+03  0.21440528296E+04  0.21338159622E+04 0.  0.
        1    1    3    3  502    0 -0.42524622405E+03 -0.32475153278E+03 -0.10320964816E+04  0.11625493781E+04  0.50400001928E-02 0.  1.
       -1    1    3    3    0  502  0.42524622405E+03  0.32475153278E+03  0.82283115892E+03  0.98150345146E+03  0.50400001928E-02 0. -1.
</event>
<event>
 5   0  0.2484618E-05  0.2703507E+04  0.7818609E-02  0.8333868E-01
       -2   -1    0    0    0  501  0.00000000000E+00  0.00000000000E+00  0.10147598214E+04  0.10147598214E+04  0.25500000920E-02 0. -1.
        2   -1    0    0  501    0  0.00000000000E+00  0.00000000000E+00 -0.18006597349E+04  0.18006597349E+04  0.25500000920E-02 0.  1.
    10030    2    1    2    0    0  0.00000000000E+00  0.00000000000E+00 -0.78589991352E+03  0.28154195563E+04  0.27035067235E+04 0.  0.
        3    1    3    3  502    0 -0.12914912632E+03  0.12986358439E+04 -0.75981479516E+03  0.15101169111E+04  0.10100000352E+00 0.  1.
       -3    1    3    3    0  502  0.12914912632E+03 -0.12986358439E+04 -0.26085118353E+02  0.13053026452E+04  0.10100000352E+00 0. -1.
</event>
<event>
 5   0  0.1025153E-05  0.2574821E+04  0.7818609E-02  0.8376805E-01
       -1   -1    0    0    0  501  0.00000000000E+00  0.00000000000E+00  0.98307140254E+03  0.98307140255E+03  0.50400001928E-02 0. -1.
        1   -1    0    0  501    0  0.00000000000E+00  0.00000000000E+00 -0.16859667858E+04  0.16859667858E+04  0.50400001928E-02 0.  1.
    10030    2    1    2    0    0  0.00000000000E+00  0.00000000000E+00 -0.70289538324E+03  0.26690381883E+04  0.25748209513E+04 0.  0.
        1    1    3    3  502    0  0.85767899135E+03  0.40322979361E+03  0.55176714442E+03  0.10966560538E+04  0.50400001928E-02 0. -1.
       -1    1    3    3    0  502 -0.85767899135E+03 -0.40322979361E+03 -0.12546625277E+04  0.15723821345E+04  0.50400001928E-02 0.  1.
</event>
<event>
 5   0  0.2662024E-05  0.2609445E+04  0.7818609E-02  0.8365000E-01
        2   -1    0    0  501    0  0.00000000000E+00  0.00000000000E+00  0.16510908207E+04  0.16510908207E+04  0.25500000920E-02 0. -1.
       -2   -1    0    0    0  501  0.00000000000E+00  0.00000000000E+00 -0.10310159236E+04  0.10310159236E+04  0.25500000920E-02 0.  1.
    10030    2    1    2    0    0  0.00000000000E+00  0.00000000000E+00  0.62007489715E+03  0.26821067443E+04  0.26094450961E+04 0.  0.
        2    1    3    3  502    0  0.11628074624E+04 -0.22168295438E+03 -0.25390839598E+03  0.12106750185E+04  0.25500000920E-02 0.  1.
       -2    1    3    3    0  502 -0.11628074624E+04  0.22168295438E+03  0.87398329313E+03  0.14714317258E+04  0.25500000920E-02 0. -1.
</event>
<event>
 5   0  0.9855352E-06  0.2579167E+04  0.7818609E-02  0.8375312E-01
        1   -1    0    0  501    0  0.00000000000E+00  0.00000000000E+00  0.14261434285E+04  0.14261434285E+04  0.50400001928E-02 0.  1.
       -1   -1    0    0    0  501  0.00000000000E+00  0.00000000000E+00 -0.11660999586E+04  0.11660999587E+04  0.50400001928E-02 0. -1.
    10030    2    1    2    0    0  0.00000000000E+00  0.00000000000E+00  0.26004346987E+03  0.25922433872E+04  0.25791671470E+04 0.  0.
        2    1    3    3  502    0 -0.10382511199E+04 -0.71951986339E+03  0.39085930949E+03  0.13222878739E+04  0.25500000920E-02 0.  1.
       -2    1    3    3    0  502  0.10382511199E+04  0.71951986339E+03 -0.13081583961E+03  0.12699555132E+04  0.25500000920E-02 0. -1.
</event>
<event>
 5   0  0.2517854E-05  0.2143776E+04  0.7818609E-02  0.8542201E-01
       -2   -1    0    0    0  501  0.00000000000E+00  0.00000000000E+00  0.88229044617E+03  0.88229044617E+03  0.25500000920E-02 0.  1.
        2   -1    0    0  501    0  0.00000000000E+00  0.00000000000E+00 -0.13022286671E+04  0.13022286671E+04  0.25500000920E-02 0. -1.
    10030    2    1    2    0    0  0.00000000000E+00  0.00000000000E+00 -0.41993822096E+03  0.21845191133E+04  0.21437760254E+04 0.  0.
        4    1    3    3  502    0  0.85184358090E+03 -0.63047383150E+01 -0.87292197326E+03  0.12197014472E+04  0.12699999809E+01 0. -1.
       -4    1    3    3    0  502 -0.85184358090E+03  0.63047383150E+01  0.45298375230E+03  0.96481766609E+03  0.12699999809E+01 0.  1.
</event>
<event>
 5   0  0.2517854E-05  0.2560883E+04  0.7818609E-02  0.8381611E-01
       -2   -1    0    0    0  501  0.00000000000E+00  0.00000000000E+00  0.13924972103E+04  0.13924972103E+04  0.25500000920E-02 0.  1.
        2   -1    0    0  501    0  0.00000000000E+00  0.00000000000E+00 -0.11774031287E+04  0.11774031287E+04  0.25500000920E-02 0. -1.
    10030    2    1    2    0    0  0.00000000000E+00  0.00000000000E+00  0.21509408165E+03  0.25699003390E+04  0.25608831071E+04 0.  0.
        4    1    3    3  502    0  0.76600017321E+03 -0.91330548063E+02 -0.91802575321E+03  0.11991123512E+04  0.12699999809E+01 0. -1.
       -4    1    3    3    0  502 -0.76600017321E+03  0.91330548063E+02  0.11331198349E+04  0.13707879878E+04  0.12699999809E+01 0.  1.
</event>
<event>
 5   0  0.1025153E-05  0.2543362E+04  0.7818609E-02  0.8387698E-01
        1   -1    0    0  501    0  0.00000000000E+00  0.00000000000E+00  0.83286446818E+03  0.83286446820E+03  0.50400001928E-02 0.  1.
       -1   -1    0    0    0  501  0.00000000000E+00  0.00000000000E+00 -0.19416998075E+04  0.19416998075E+04  0.50400001928E-02 0. -1.
    10030    2    1    2    0    0  0.00000000000E+00  0.00000000000E+00 -0.11088353393E+04  0.27745642757E+04  0.25433621666E+04 0.  0.
        1    1    3    3  502    0  0.10646084605E+04 -0.33669316276E+03  0.10952930608E+03  0.11219403411E+04  0.50400001928E-02 0.  1.
       -1    1    3    3    0  502 -0.10646084605E+04  0.33669316276E+03 -0.12183646454E+04  0.16526239346E+04  0.50400001928E-02 0. -1.
</event>
<event>
 5   0  0.1000421E-05  0.2548813E+04  0.7818609E-02  0.8385799E-01
       -1   -1    0    0    0  501  0.00000000000E+00  0.00000000000E+00  0.82500010219E+03  0.82500010221E+03  0.50400001928E-02 0. -1.
        1   -1    0    0  501    0  0.00000000000E+00  0.00000000000E+00 -0.19686206743E+04  0.19686206743E+04  0.50400001928E-02 0.  1.
    10030    2    1    2    0    0  0.00000000000E+00  0.00000000000E+00 -0.11436205721E+04  0.27936207765E+04  0.25488132591E+04 0.  0.
        3    1    3    3  502    0 -0.65421496883E+03 -0.80461422964E+03  0.24008730534E+03  0.10644450236E+04  0.10100000352E+00 0. -1.
       -3    1    3    3    0  502  0.65421496883E+03  0.80461422964E+03 -0.13837078774E+04  0.17291757528E+04  0.10100000352E+00 0.  1.
</event>
<event>
 5   0  0.2484618E-05  0.2669903E+04  0.7818609E-02  0.8344837E-01
       -2   -1    0    0    0  501  0.00000000000E+00  0.00000000000E+00  0.72023606918E+03  0.72023606919E+03  0.25500000920E-02 0.  1.
        2   -1    0    0  501    0  0.00000000000E+00  0.00000000000E+00 -0.24743211737E+04  0.24743211737E+04  0.25500000920E-02 0. -1.
    10030    2    1    2    0    0  0.00000000000E+00  0.00000000000E+00 -0.17540851045E+04  0.31945572428E+04  0.26699028866E+04 0.  0.
        3    1    3    3  502    0  0.68941711828E+03  0.28303276049E+03  0.44816208754E+03  0.86962795114E+03  0.10100000352E+00 0.  1.
       -3    1    3    3    0  502 -0.68941711828E+03 -0.28303276049E+03 -0.22022471920E+04  0.23249292917E+04  0.10100000352E+00 0. -1.
</event>
<event>
 5   0  0.1034714E-05  0.2552518E+04  0.7818609E-02  0.8384511E-01
       -1   -1    0    0    0  501  0.00000000000E+00  0.00000000000E+00  0.57600619023E+03  0.57600619026E+03  0.50400001928E-02 0.  1.
        1   -1    0    0  501    0  0.00000000000E+00  0.00000000000E+00 -0.28278106922E+04  0.28278106922E+04  0.50400001928E-02 0. -1.
    10030    2    1    2    0    0  0.00000000000E+00  0.00000000000E+00 -0.22518045020E+04  0.34038168825E+04  0.25525175522E+04 0.  0.
        5    1    3    3  502    0  0.57524664090E+03 -0.24789540123E+03  0.35691064012E+03  0.72094945928E+03  0.46999998093E+01 0.  1.
       -5    1    3    3    0  502 -0.57524664090E+03  0.24789540123E+03 -0.26087151421E+04  0.26828674232E+04  0.46999998093E+01 0. -1.
</event>
<event>
 5   0  0.1005492E-05  0.2471663E+04  0.7818609E-02  0.8413151E-01
       -1   -1    0    0    0  501  0.00000000000E+00  0.00000000000E+00  0.23591690512E+04  0.23591690512E+04  0.50400001928E-02 0. -1.
        1   -1    0    0  501    0  0.00000000000E+00  0.00000000000E+00 -0.64738003673E+03  0.64738003675E+03  0.50400001928E-02 0.  1.
    10030    2    1    2    0    0  0.00000000000E+00  0.00000000000E+00  0.17117890145E+04  0.30065490880E+04  0.24716625555E+04 0.  0.
        4    1    3    3  502    0  0.64854203627E+03 -0.29621454297E+02 -0.42323955677E+03  0.77499518623E+03  0.12699999809E+01 0.  1.
       -4    1    3    3    0  502 -0.64854203627E+03  0.29621454297E+02  0.21350285713E+04  0.22315539017E+04  0.12699999809E+01 0. -1.
</event>
<event>
 5   0  0.2517854E-05  0.2605297E+04  0.7818609E-02  0.8366404E-01
       -2   -1    0    0    0  501  0.00000000000E+00  0.00000000000E+00  0.17719330189E+04  0.17719330189E+04  0.25500000920E-02 0. -1.
        2   -1    0    0  501    0  0.00000000000E+00  0.00000000000E+00 -0.95765080803E+03  0.95765080804E+03  0.25500000920E-02 0.  1.
    10030    2    1    2    0    0  0.00000000000E+00  0.00000000000E+00  0.81428221083E+03  0.27295838269E+04  0.26052969791E+04 0.  0.
        4    1    3    3  502    0 -0.11766430743E+04 -0.55844773244E+03  0.43145780919E+03  0.13720460081E+04  0.12699999809E+01 0.  1.
       -4    1    3    3    0  502  0.11766430743E+04  0.55844773244E+03  0.38282440164E+03  0.13575378188E+04  0.12699999809E+01 0. -1.
</event>
<event>
 5   0  0.2555801E-05  0.2637719E+04  0.7818609E-02  0.8355501E-01
        2   -1    0    0  501    0  0.00000000000E+00  0.00000000000E+00  0.16702870869E+04  0.16702870869E+04  0.25500000920E-02 0. -1.
       -2   -1    0    0    0  501  0.00000000000E+00  0.00000000000E+00 -0.10413722635E+04  0.10413722635E+04  0.25500000920E-02 0.  1.
    10030    2    1    2    0    0  0.00000000000E+00  0.00000000000E+00  0.62891482342E+03  0.27116593503E+04  0.26377191998E+04 0.  0.
        1    1    3    3  502    0 -0.62179886916E+01  0.83070212122E+03 -0.73860352403E+03  0.11115933804E+04  0.50400001928E-02 0. -1.
       -1    1    3    3    0  502  0.62179886916E+01 -0.83070212122E+03  0.13675183474E+04  0.16000659700E+04  0.50400001928E-02 0.  1.
</event>
<event>
 5   0  0.9855352E-06  0.2564099E+04  0.7818609E-02  0.8380499E-01
        1   -1    0    0  501    0  0.00000000000E+00  0.00000000000E+00  0.26905775876E+04  0.26905775876E+04  0.50400001928E-02 0. -1.
       -1   -1    0    0    0  501  0.00000000000E+00  0.00000000000E+00 -0.61089162604E+03  0.61089162606E+03  0.50400001928E-02 0.  1.
    10030    2    1    2    0    0  0.00000000000E+00  0.00000000000E+00  0.20796859615E+04  0.33014692136E+04  0.25640993097E+04 0.  0.
        2    1    3    3  502    0 -0.29289094311E+03  0.84016603217E+03 -0.14862902972E+03  0.90208350759E+03  0.25500000920E-02 0.  1.
       -2    1    3    3    0  502  0.29289094311E+03 -0.84016603217E+03  0.22283149913E+04  0.23993857061E+04  0.25500000920E-02 0. -1.
</event>
<event>
 5   0  0.2662024E-05  0.2616350E+04  0.7818609E-02  0.8362669E-01
        2   -1    0    0  501    0  0.00000000000E+00  0.00000000000E+00  0.18081150649E+04  0.18081150649E+04  0.25500000920E-02 0. -1.
       -2   -1    0    0    0  501  0.00000000000E+00  0.00000000000E+00 -0.94646754413E+03  0.94646754414E+03  0.25500000920E-02 0.  1.
    10030    2    1    2    0    0  0.00000000000E+00  0.00000000000E+00  0.86164752078E+03  0.27545826090E+04  0.26163503015E+04 0.  0.
        2    1    3    3  502    0 -0.84525065124E+03  0.75191696932E+03 -0.26076433457E+03  0.11609590132E+04  0.25500000920E-02 0.  1.
       -2    1    3    3    0  502  0.84525065124E+03 -0.75191696932E+03  0.11224118553E+04  0.15936235958E+04  0.25500000920E-02 0. -1.
</event>
<event>
 5   0  0.2555801E-05  0.2630456E+04  0.7818609E-02  0.8357929E-01
        2   -1    0    0  501    0  0.00000000000E+00  0.00000000000E+00  0.18609018055E+04  0.18609018055E+04  0.25500000920E-02 0. -1.
       -2   -1    0    0    0  501  0.00000000000E+00  0.00000000000E+00 -0.92956280850E+03  0.92956280851E+03  0.25500000920E-02 0.  1.
    10030    2    1    2    0    0  0.00000000000E+00  0.00000000000E+00  0.93133899695E+03  0.27904646140E+04  0.26304563168E+04 0.  0.
        1    1    3    3  502    0 -0.14721147809E+03 -0.11272427265E+04  0.11673241329E+04  0.16294149303E+04  0.50400001928E-02 0. -1.
       -1    1    3    3    0  502  0.14721147809E+03  0.11272427265E+04 -0.23598513596E+03  0.11610496837E+04  0.50400001928E-02 0.  1.
</event>
<event>
 5   0  0.2484618E-05  0.2637689E+04  0.7818609E-02  0.8355511E-01
        2   -1    0    0  501    0  0.00000000000E+00  0.00000000000E+00  0.17970639987E+04  0.17970639987E+04  0.25500000920E-02 0.  1.
       -2   -1    0    0    0  501  0.00000000000E+00  0.00000000000E+00 -0.96788471821E+03  0.96788471821E+03  0.25500000920E-02 0. -1.
    10030    2    1    2    0    0  0.00000000000E+00  0.00000000000E+00  0.82917928046E+03  0.27649487169E+04  0.26376889748E+04 0.  0.
        3    1    3    3  502    0  0.90202988908E+02  0.95714814150E+03  0.13609663604E+04  0.16662828657E+04  0.10100000352E+00 0.  1.
       -3    1    3    3    0  502 -0.90202988908E+02 -0.95714814150E+03 -0.53178707998E+03  0.10986658512E+04  0.10100000352E+00 0. -1.
</event>
<event>
 5   0  0.2662024E-05  0.2644739E+04  0.7818609E-02  0.8353161E-01
        2   -1    0    0  501    0  0.00000000000E+00  0.00000000000E+00  0.18386487423E+04  0.18386487423E+04  0.25500000920E-02 0. -1.
       -2   -1    0    0    0  501  0.00000000000E+00  0.00000000000E+00 -0.95105759752E+03  0.95105759752E+03  0.25500000920E-02 0.  1.
    10030    2    1    2    0    0  0.00000000000E+00  0.00000000000E+00  0.88759114475E+03  0.27897063398E+04  0.26447388192E+04 0.  0.
        2    1    3    3  502    0  0.45995585002E+03 -0.87955148050E+03  0.13654700579E+04  0.16880991292E+04  0.25500000920E-02 0. -1.
       -2    1    3    3    0  502 -0.45995585002E+03  0.87955148050E+03 -0.47787891318E+03  0.11016072106E+04  0.25500000920E-02 0.  1.
</event>
<event>
 5   0  0.1034714E-05  0.2595482E+04  0.7818609E-02  0.8369738E-01
        1   -1    0    0  501    0  0.00000000000E+00  0.00000000000E+00  0.25491217637E+04  0.25491217637E+04  0.50400001928E-02 0.  1.
       -1   -1    0    0    0  501  0.00000000000E+00  0.00000000000E+00 -0.66067126103E+03  0.66067126105E+03  0.50400001928E-02 0. -1.
    10030    2    1    2    0    0  0.00000000000E+00  0.00000000000E+00  0.18884505026E+04  0.32097930247E+04  0.25954818359E+04 0.  0.
        5    1    3    3  502    0  0.11942935209E+04  0.93448254589E+02  0.15613790736E+04  0.19679929603E+04  0.46999998093E+01 0.  1.
       -5    1    3    3    0  502 -0.11942935209E+04 -0.93448254589E+02  0.32707142902E+03  0.12418000644E+04  0.46999998093E+01 0. -1.
</event>
<event>
 5   0  0.2517854E-05  0.2637513E+04  0.7818609E-02  0.8355570E-01
       -2   -1    0    0    0  501  0.00000000000E+00  0.00000000000E+00  0.12612241819E+04  0.12612241819E+04  0.25500000920E-02 0. -1.
        2   -1    0    0  501    0  0.00000000000E+00  0.00000000000E+00 -0.13789128839E+04  0.13789128839E+04  0.25500000920E-02 0.  1.
    10030    2    1    2    0    0  0.00000000000E+00  0.00000000000E+00 -0.11768870195E+03  0.26401370658E+04  0.26375126721E+04 0.  0.
        4    1    3    3  502    0 -0.12896175343E+02  0.16783983784E+03 -0.13681137555E+04  0.13784314939E+04  0.12699999809E+01 0.  1.
       -4    1    3    3    0  502  0.12896175343E+02 -0.16783983784E+03  0.12504250536E+04  0.12617055719E+04  0.12699999809E+01 0. -1.
</event>
<event>
 5   0  0.1000421E-05  0.2611685E+04  0.7818609E-02  0.8364243E-01
       -1   -1    0    0    0  501  0.00000000000E+00  0.00000000000E+00  0.12078287029E+04  0.12078287029E+04  0.50400001928E-02 0. -1.
        1   -1    0    0  501    0  0.00000000000E+00  0.00000000000E+00 -0.14118099240E+04  0.14118099240E+04  0.50400001928E-02 0.  1.
    10030    2    1    2    0    0  0.00000000000E+00  0.00000000000E+00 -0.20398122106E+03  0.26196386269E+04  0.26116849344E+04 0.  0.
        3    1    3    3  502    0  0.61266991261E+03  0.65867034211E+03 -0.10514532443E+04  0.13837503302E+04  0.10100000352E+00 0.  1.
       -3    1    3    3    0  502 -0.61266991261E+03 -0.65867034211E+03  0.84747202320E+03  0.12358882966E+04  0.10100000352E+00 0. -1.
</event>
<event>
 5   0  0.1025153E-05  0.2694356E+04  0.7818609E-02  0.8336839E-01
       -1   -1    0    0    0  501  0.00000000000E+00  0.00000000000E+00  0.90492945522E+03  0.90492945523E+03  0.50400001928E-02 0. -1.
        1   -1    0    0  501    0  0.00000000000E+00  0.00000000000E+00 -0.20055582673E+04  0.20055582673E+04  0.50400001928E-02 0.  1.
    10030    2    1    2    0    0  0.00000000000E+00  0.00000000000E+00 -0.11006288120E+04  0.29104877225E+04  0.26943561385E+04 0.  0.
        1    1    3    3  502    0  0.12214497623E+04 -0.50532194511E+02 -0.11617548029E+04  0.16864659043E+04  0.50400001928E-02 0.  1.
       -1    1    3    3    0  502 -0.12214497623E+04  0.50532194511E+02  0.61125990809E+02  0.12240218182E+04  0.50400001928E-02 0. -1.
</event>
<event>
 5   0  0.2484618E-05  0.2637209E+04  0.7818609E-02  0.8355671E-01
       -2   -1    0    0    0  501  0.00000000000E+00  0.00000000000E+00  0.12083690718E+04  0.12083690718E+04  0.25500000920E-02 0.  1.
        2   -1    0    0  501    0  0.00000000000E+00  0.00000000000E+00 -0.14388962152E+04  0.14388962152E+04  0.25500000920E-02 0. -1.
    10030    2    1    2    0    0  0.00000000000E+00  0.00000000000E+00 -0.23052714334E+03  0.26472652870E+04  0.26372088912E+04 0.  0.
        3    1    3    3  502    0  0.12918001235E+04  0.25796725676E+03 -0.56533982695E+02  0.13185183981E+04  0.10100000352E+00 0.  1.
       -3    1    3    3    0  502 -0.12918001235E+04 -0.25796725676E+03 -0.17399316064E+03  0.13287468889E+04  0.10100000352E+00 0. -1.
</event>
<event>
 5   0  0.8605000E-06  0.2584409E+04  0.7818609E-02  0.8373517E-01
        3   -1    0    0  501    0  0.00000000000E+00  0.00000000000E+00  0.14816502033E+04  0.14816502067E+04  0.10100000352E+00 0. -1.
       -3   -1    0    0    0  501  0.00000000000E+00  0.00000000000E+00 -0.11269812669E+04  0.11269812715E+04  0.10100000352E+00 0.  1.
    10030    2    1    2    0    0  0.00000000000E+00  0.00000000000E+00  0.35466893634E+03  0.26086314782E+04  0.25844086625E+04 0.  0.
        4    1    3    3  502    0 -0.25192574629E+03 -0.36114680898E+03  0.14035859389E+04  0.14710366073E+04  0.12699999809E+01 0. -1.
       -4    1    3    3    0  502  0.25192574629E+03  0.36114680898E+03 -0.10489170025E+04  0.11375948709E+04  0.12699999809E+01 0.  1.
</event>
<event>
 5   0  0.1000421E-05  0.2594380E+04  0.7818609E-02  0.8370113E-01
        1   -1    0    0  501    0  0.00000000000E+00  0.00000000000E+00  0.66621769660E+03  0.66621769662E+03  0.50400001928E-02 0.  1.
       -1   -1    0    0    0  501  0.00000000000E+00  0.00000000000E+00 -0.25257544810E+04  0.25257544810E+04  0.50400001928E-02 0. -1.
    10030    2    1    2    0    0  0.00000000000E+00  0.00000000000E+00 -0.18595367844E+04  0.31919721776E+04  0.25943803365E+04 0.  0.
        3    1    3    3  502    0 -0.43034702725E+03  0.40396643989E+03  0.49142970322E+03  0.76804336585E+03  0.10100000352E+00 0.  1.
       -3    1    3    3    0  502  0.43034702725E+03 -0.40396643989E+03 -0.23509664876E+04  0.24239288118E+04  0.10100000352E+00 0. -1.
</event>
<event>
 5   0  0.1005492E-05  0.2581209E+04  0.7818609E-02  0.8374612E-01
       -1   -1    0    0    0  501  0.00000000000E+00  0.00000000000E+00  0.96959438934E+03  0.96959438935E+03  0.50400001928E-02 0.  1.
        1   -1    0    0  501    0  0.00000000000E+00  0.00000000000E+00 -0.17178937503E+04  0.17178937503E+04  0.50400001928E-02 0. -1.
    10030    2    1    2    0    0  0.00000000000E+00  0.00000000000E+00 -0.74829936098E+03  0.26874881397E+04  0.25812091289E+04 0.  0.
        4    1    3    3  502    0 -0.43758099467E+03  0.32773716262E+02 -0.16378396916E+04  0.16956036423E+04  0.12699999809E+01 0. -1.
       -4    1    3    3    0  502  0.43758099467E+03 -0.32773716262E+02  0.88954033066E+03  0.99188449738E+03  0.12699999809E+01 0.  1.
</event>
<event>
 5   0  0.1034714E-05  0.2553816E+04  0.7818609E-02  0.8384060E-01
       -1   -1    0    0    0  501  0.00000000000E+00  0.00000000000E+00  0.64452767276E+03  0.64452767278E+03  0.50400001928E-02 0. -1.
        1   -1    0    0  501    0  0.00000000000E+00  0.00000000000E+00 -0.25297498185E+04  0.25297498185E+04  0.50400001928E-02 0.  1.
    10030    2    1    2    0    0  0.00000000000E+00  0.00000000000E+00 -0.18852221457E+04  0.31742774913E+04  0.25538157829E+04 0.  0.
        5    1    3    3  502    0 -0.95263433456E+03 -0.61601345071E+02  0.11145910358E+03  0.96112024371E+03  0.46999998093E+01 0. -1.
       -5    1    3    3    0  502  0.95263433456E+03  0.61601345071E+02 -0.19966812493E+04  0.22131572476E+04  0.46999998093E+01 0.  1.
</event>
<event>
 5   0  0.1005492E-05  0.1948072E+04  0.7818609E-02  0.8631291E-01
        1   -1    0    0  501    0  0.00000000000E+00  0.00000000000E+00  0.73077467668E+03  0.73077467670E+03  0.50400001928E-02 0. -1.
       -1   -1    0    0    0  501  0.00000000000E+00  0.00000000000E+00 -0.12982739411E+04  0.12982739411E+04  0.50400001928E-02 0.  1.
    10030    2    1    2    0    0  0.00000000000E+00  0.00000000000E+00 -0.56749926437E+03  0.20290486178E+04  0.19480715793E+04 0.  0.
        4    1    3    3  502    0 -0.55693381719E+03 -0.28759762359E+03 -0.10602986279E+04  0.12317152524E+04  0.12699999809E+01 0.  1.
       -4    1    3    3    0  502  0.55693381719E+03  0.28759762359E+03  0.49279936355E+03  0.79733336532E+03  0.12699999809E+01 0. -1.
</event>
<event>
 5   0  0.2484618E-05  0.2582713E+04  0.7818609E-02  0.8374097E-01
       -2   -1    0    0    0  501  0.00000000000E+00  0.00000000000E+00  0.13759176883E+04  0.13759176883E+04  0.25500000920E-02 0. -1.
        2   -1    0    0  501    0  0.00000000000E+00  0.00000000000E+00 -0.12119921902E+04  0.12119921902E+04  0.25500000920E-02 0.  1.
    10030    2    1    2    0    0  0.00000000000E+00  0.00000000000E+00  0.16392549805E+03  0.25879098785E+04  0.25827129090E+04 0.  0.
        3    1    3    3  502    0 -0.29771894798E+03  0.11520472286E+04 -0.42079591141E+03  0.12621087902E+04  0.10100000352E+00 0.  1.
       -3    1    3    3    0  502  0.29771894798E+03 -0.11520472286E+04  0.58472140946E+03  0.13258010883E+04  0.10100000352E+00 0. -1.
</event>
<event>
 5   0  0.1025153E-05  0.2589627E+04  0.7818609E-02  0.8371733E-01
        1   -1    0    0  501    0  0.00000000000E+00  0.00000000000E+00  0.32000586672E+04  0.32000586672E+04  0.50400001928E-02 0. -1.
       -1   -1    0    0    0  501  0.00000000000E+00  0.00000000000E+00 -0.52390972623E+03  0.52390972625E+03  0.50400001928E-02 0.  1.
    10030    2    1    2    0    0  0.00000000000E+00  0.00000000000E+00  0.26761489410E+04  0.37239683935E+04  0.25896268923E+04 0.  0.
        1    1    3    3  502    0  0.64422703966E+03 -0.42594452061E+03 -0.15643160997E+03  0.78798988692E+03  0.50400001928E-02 0.  1.
       -1    1    3    3    0  502 -0.64422703966E+03  0.42594452061E+03  0.28325805510E+04  0.29359785066E+04  0.50400001928E-02 0. -1.
</event>
<event>
 5   0  0.2484618E-05  0.2597697E+04  0.7818609E-02  0.8368984E-01
       -2   -1    0    0    0  501  0.00000000000E+00  0.00000000000E+00  0.11085869609E+04  0.11085869609E+04  0.25500000920E-02 0. -1.
        2   -1    0    0  501    0  0.00000000000E+00  0.00000000000E+00 -0.15217632330E+04  0.15217632330E+04  0.25500000920E-02 0.  1.
    10030    2    1    2    0    0  0.00000000000E+00  0.00000000000E+00 -0.41317627207E+03  0.26303501939E+04  0.25976965779E+04 0.  0.
        3    1    3    3  502    0  0.87040059039E+03  0.91670049966E+03 -0.50878542805E+03  0.13626443468E+04  0.10100000352E+00 0.  1.
       -3    1    3    3    0  502 -0.87040059039E+03 -0.91670049966E+03  0.95609155978E+02  0.12677058471E+04  0.10100000352E+00 0. -1.
</event>
<event>
 5   0  0.2517854E-05  0.2612948E+04  0.7818609E-02  0.8363816E-01
        2   -1    0    0  501    0  0.00000000000E+00  0.00000000000E+00  0.18742849565E+04  0.18742849565E+04  0.25500000920E-02 0. -1.
       -2   -1    0    0    0  501  0.00000000000E+00  0.00000000000E+00 -0.91068043519E+03  0.91068043520E+03  0.25500000920E-02 0.  1.
    10030    2    1    2    0    0  0.00000000000E+00  0.00000000000E+00  0.96360452129E+03  0.27849653917E+04  0.26129482504E+04 0.  0.
        4    1    3    3  502    0 -0.11994182737E+04 -0.23707834703E+03 -0.90164678427E+01  0.12226582710E+04  0.12699999809E+01 0.  1.
       -4    1    3    3    0  502  0.11994182737E+04  0.23707834703E+03  0.97262098914E+03  0.15623071207E+04  0.12699999809E+01 0. -1.
</event>
<event>
 5   0  0.1005492E-05  0.2623164E+04  0.7818609E-02  0.8360375E-01
        1   -1    0    0  501    0  0.00000000000E+00  0.00000000000E+00  0.18749899445E+04  0.18749899446E+04  0.50400001928E-02 0.  1.
       -1   -1    0    0    0  501  0.00000000000E+00  0.00000000000E+00 -0.91746984414E+03  0.91746984415E+03  0.50400001928E-02 0. -1.
    10030    2    1    2    0    0  0.00000000000E+00  0.00000000000E+00  0.95752010040E+03  0.27924597887E+04  0.26231635345E+04 0.  0.
        4    1    3    3  502    0  0.99278728508E+03  0.54731851549E+03  0.11809209190E+04  0.16369972452E+04  0.12699999809E+01 0.  1.
       -4    1    3    3    0  502 -0.99278728508E+03 -0.54731851549E+03 -0.22340081863E+03  0.11554625435E+04  0.12699999809E+01 0. -1.
</event>
<event>
 5   0  0.1025153E-05  0.1888769E+04  0.7818609E-02  0.8660467E-01
        1   -1    0    0  501    0  0.00000000000E+00  0.00000000000E+00  0.16431302162E+04  0.16431302162E+04  0.50400001928E-02 0.  1.
       -1   -1    0    0    0  501  0.00000000000E+00  0.00000000000E+00 -0.54278262410E+03  0.54278262412E+03  0.50400001928E-02 0. -1.
    10030    2    1    2    0    0  0.00000000000E+00  0.00000000000E+00  0.11003475921E+04  0.21859128403E+04  0.18887694730E+04 0.  0.
        1    1    3    3  502    0 -0.47919188087E+03 -0.79665954037E+03  0.35800533914E+03  0.99622241735E+03  0.50400001928E-02 0.  1.
       -1    1    3    3    0  502  0.47919188087E+03  0.79665954037E+03  0.74234225295E+03  0.11896904230E+04  0.50400001928E-02 0. -1.
</event>
<event>
 5   0  0.2662024E-05  0.2578021E+04  0.7818609E-02  0.8375705E-01
       -2   -1    0    0    0  501  0.00000000000E+00  0.00000000000E+00  0.77464573295E+03  0.77464573296E+03  0.25500000920E-02 0. -1.
        2   -1    0    0  501    0  0.00000000000E+00  0.00000000000E+00 -0.21449142304E+04  0.21449142304E+04  0.25500000920E-02 0.  1.
    10030    2    1    2    0    0  0.00000000000E+00  0.00000000000E+00 -0.13702684975E+04  0.29195599634E+04  0.25780214554E+04 0.  0.
        2    1    3    3  502    0  0.75084898690E+02 -0.46565923165E+03 -0.20436735075E+04  0.20973978324E+04  0.25500000920E-02 0.  1.
       -2    1    3    3    0  502 -0.75084898690E+02  0.46565923165E+03  0.67340501006E+03  0.82216213097E+03  0.25500000920E-02 0. -1.
</event>
<event>
 5   0  0.2484618E-05  0.2607014E+04  0.7818609E-02  0.8365822E-01
        2   -1    0    0  501    0  0.00000000000E+00  0.00000000000E+00  0.23634470241E+04  0.23634470241E+04  0.25500000920E-02 0.  1.
       -2   -1    0    0    0  501  0.00000000000E+00  0.00000000000E+00 -0.71892069893E+03  0.71892069893E+03  0.25500000920E-02 0. -1.
    10030    2    1    2    0    0  0.00000000000E+00  0.00000000000E+00  0.16445263251E+04  0.30823677230E+04  0.26070143739E+04 0.  0.
        3    1    3    3  502    0 -0.92652767967E+03  0.55822755442E+03  0.16822528700E+04  0.20000115681E+04  0.10100000352E+00 0.  1.
       -3    1    3    3    0  502  0.92652767967E+03 -0.55822755442E+03 -0.37726544839E+02  0.10823561549E+04  0.10100000352E+00 0. -1.
</event>
<event>
 5   0  0.1005492E-05  0.2626812E+04  0.7818609E-02  0.8359151E-01
        1   -1    0    0  501    0  0.00000000000E+00  0.00000000000E+00  0.12478075180E+04  0.12478075180E+04  0.50400001928E-02 0. -1.
       -1   -1    0    0    0  501  0.00000000000E+00  0.00000000000E+00 -0.13824527014E+04  0.13824527014E+04  0.50400001928E-02 0.  1.
    10030    2    1    2    0    0  0.00000000000E+00  0.00000000000E+00 -0.13464518340E+03  0.26302602195E+04  0.26268116599E+04 0.  0.
        4    1    3    3  502    0  0.77762738805E+03  0.68562538330E+02  0.99029703267E+03  0.12609896915E+04  0.12699999809E+01 0. -1.
       -4    1    3    3    0  502 -0.77762738805E+03 -0.68562538330E+02 -0.11249422161E+04  0.13692705279E+04  0.12699999809E+01 0.  1.
</event>
<event>
 5   0  0.9855352E-06  0.2572793E+04  0.7818609E-02  0.8377502E-01
       -1   -1    0    0    0  501  0.00000000000E+00  0.00000000000E+00  0.10428296874E+04  0.10428296875E+04  0.50400001928E-02 0.  1.
        1   -1    0    0  501    0  0.00000000000E+00  0.00000000000E+00 -0.15868520832E+04  0.15868520832E+04  0.50400001928E-02 0. -1.
    10030    2    1    2    0    0  0.00000000000E+00  0.00000000000E+00 -0.54402239575E+03  0.26296817706E+04  0.25727933939E+04 0.  0.
        2    1    3    3  502    0 -0.48610272570E+03 -0.28575726570E+03 -0.14538052463E+04  0.15593276657E+04  0.25500000920E-02 0. -1.
       -2    1    3    3    0  502  0.48610272570E+03  0.28575726570E+03  0.90978285055E+03  0.10703541050E+04  0.25500000920E-02 0.  1.
</event>
<event>
 5   0  0.1025153E-05  0.2568116E+04  0.7818609E-02  0.8379113E-01
        1   -1    0    0  501    0  0.00000000000E+00  0.00000000000E+00  0.25076391179E+04  0.25076391179E+04  0.50400001928E-02 0. -1.
       -1   -1    0    0    0  501  0.00000000000E+00  0.00000000000E+00 -0.65751264409E+03  0.65751264411E+03  0.50400001928E-02 0.  1.
    10030    2    1    2    0    0  0.00000000000E+00  0.00000000000E+00  0.18501264738E+04  0.31651517620E+04  0.25681155947E+04 0.  0.
        1    1    3    3  502    0 -0.10529437809E+04  0.52175867158E+03  0.28716485380E+03  0.12097050758E+04  0.50400001928E-02 0. -1.
       -1    1    3    3    0  502  0.10529437809E+04 -0.52175867158E+03  0.15629616200E+04  0.19554466862E+04  0.50400001928E-02 0.  1.
</event>
<event>
 5   0  0.2662024E-05  0.2562913E+04  0.7818609E-02  0.8380909E-01
       -2   -1    0    0    0  501  0.00000000000E+00  0.00000000000E+00  0.12931128589E+04  0.12931128589E+04  0.25500000920E-02 0.  1.
        2   -1    0    0  501    0  0.00000000000E+00  0.00000000000E+00 -0.12699052319E+04  0.12699052319E+04  0.25500000920E-02 0. -1.
    10030    2    1    2    0    0  0.00000000000E+00  0.00000000000E+00  0.23207626971E+02  0.25630180908E+04  0.25629130184E+04 0.  0.
        2    1    3    3  502    0 -0.97980434815E+03  0.36194041876E+03 -0.73079671639E+03  0.12747867540E+04  0.25500000920E-02 0. -1.
       -2    1    3    3    0  502  0.97980434815E+03 -0.36194041876E+03  0.75400434336E+03  0.12882313368E+04  0.25500000920E-02 0.  1.
</event>
<event>
 5   0  0.1034714E-05  0.2600421E+04  0.7818609E-02  0.8368058E-01
       -1   -1    0    0    0  501  0.00000000000E+00  0.00000000000E+00  0.10241402530E+04  0.10241402530E+04  0.50400001928E-02 0.  1.
        1   -1    0    0  501    0  0.00000000000E+00  0.00000000000E+00 -0.16506994848E+04  0.16506994848E+04  0.50400001928E-02 0. -1.
    10030    2    1    2    0    0  0.00000000000E+00  0.00000000000E+00 -0.62655923183E+03  0.26748397378E+04  0.26004213413E+04 0.  0.
        5    1    3    3  502    0 -0.29865093782E+03  0.20953612824E+03  0.97040407582E+03  0.10367275110E+04  0.46999998093E+01 0.  1.
       -5    1    3    3    0  502  0.29865093782E+03 -0.20953612824E+03 -0.15969633077E+04  0.16381122268E+04  0.46999998093E+01 0. -1.
</event>
<event>
 5   0  0.1000421E-05  0.2553916E+04  0.7818609E-02  0.8384026E-01
       -1   -1    0    0    0  501  0.00000000000E+00  0.00000000000E+00  0.12004098527E+04  0.12004098527E+04  0.50400001928E-02 0.  1.
        1   -1    0    0  501    0  0.00000000000E+00  0.00000000000E+00 -0.13583875001E+04  0.13583875001E+04  0.50400001928E-02 0. -1.
    10030    2    1    2    0    0  0.00000000000E+00  0.00000000000E+00 -0.15797764733E+03  0.25587973528E+04  0.25539160041E+04 0.  0.
        3    1    3    3  502    0  0.19546907186E+03 -0.11882333833E+04 -0.50467145244E+03  0.13056799058E+04  0.10100000352E+00 0. -1.
       -3    1    3    3    0  502 -0.19546907186E+03  0.11882333833E+04  0.34669380511E+03  0.12531174470E+04  0.10100000352E+00 0.  1.
</event>
<event>
 5   0  0.2484618E-05  0.2581457E+04  0.7818609E-02  0.8374527E-01
       -2   -1    0    0    0  501  0.00000000000E+00  0.00000000000E+00  0.91915232303E+03  0.91915232304E+03  0.25500000920E-02 0.  1.
        2   -1    0    0  501    0  0.00000000000E+00  0.00000000000E+00 -0.18125180259E+04  0.18125180259E+04  0.25500000920E-02 0. -1.
    10030    2    1    2    0    0  0.00000000000E+00  0.00000000000E+00 -0.89336570286E+03  0.27316703489E+04  0.25814570723E+04 0.  0.
        3    1    3    3  502    0 -0.86527751808E+03  0.95316448896E+03 -0.54568107346E+03  0.13982115614E+04  0.10100000352E+00 0. -1.
       -3    1    3    3    0  502  0.86527751808E+03 -0.95316448896E+03 -0.34768462940E+03  0.13334587875E+04  0.10100000352E+00 0.  1.
</event>
<event>
 5   0  0.2484618E-05  0.2631899E+04  0.7818609E-02  0.8357446E-01
       -2   -1    0    0    0  501  0.00000000000E+00  0.00000000000E+00  0.83188438632E+03  0.83188438633E+03  0.25500000920E-02 0.  1.
        2   -1    0    0  501    0  0.00000000000E+00  0.00000000000E+00 -0.20816875479E+04  0.20816875480E+04  0.25500000920E-02 0. -1.
    10030    2    1    2    0    0  0.00000000000E+00  0.00000000000E+00 -0.12498031616E+04  0.29135719343E+04  0.26318992141E+04 0.  0.
        3    1    3    3  502    0  0.61850796067E+03 -0.17130651812E+03 -0.18966895765E+04  0.20023309867E+04  0.10100000352E+00 0. -1.
       -3    1    3    3    0  502 -0.61850796067E+03  0.17130651812E+03  0.64688641487E+03  0.91124094756E+03  0.10100000352E+00 0.  1.
</event>
<event>
 5   0  0.1025153E-05  0.2599854E+04  0.7818609E-02  0.8368251E-01
        1   -1    0    0  501    0  0.00000000000E+00  0.00000000000E+00  0.20801850367E+04  0.20801850367E+04  0.50400001928E-02 0.  1.
       -1   -1    0    0    0  501  0.00000000000E+00  0.00000000000E+00 -0.81233671797E+03  0.81233671799E+03  0.50400001928E-02 0. -1.
    10030    2    1    2    0    0  0.00000000000E+00  0.00000000000E+00  0.12678483187E+04  0.28925217547E+04  0.25998543694E+04 0.  0.
        1    1    3    3  502    0  0.61160892405E+03  0.92896106759E+03 -0.11470988447E+03  0.11181200735E+04  0.50400001928E-02 0. -1.
       -1    1    3    3    0  502 -0.61160892405E+03 -0.92896106759E+03  0.13825582032E+04  0.17744016812E+04  0.50400001928E-02 0.  1.
</event>
<event>
 5   0  0.2555801E-05  0.2569089E+04  0.7818609E-02  0.8378777E-01
        2   -1    0    0  501    0  0.00000000000E+00  0.00000000000E+00  0.13615988213E+04  0.13615988213E+04  0.25500000920E-02 0.  1.
       -2   -1    0    0    0  501  0.00000000000E+00  0.00000000000E+00 -0.12118504795E+04  0.12118504795E+04  0.25500000920E-02 0. -1.
    10030    2    1    2    0    0  0.00000000000E+00  0.00000000000E+00  0.14974834189E+03  0.25734493008E+04  0.25690886980E+04 0.  0.
        1    1    3    3  502    0  0.17685879477E+03  0.75045185966E+03 -0.95429228865E+03  0.12268377232E+04  0.50400001928E-02 0. -1.
       -1    1    3    3    0  502 -0.17685879477E+03 -0.75045185966E+03  0.11040406305E+04  0.13466115776E+04  0.50400001928E-02 0.  1.
</event>
<event>
 5   0  0.9855352E-06  0.2622809E+04  0.7818609E-02  0.8360495E-01
        1   -1    0    0  501    0  0.00000000000E+00  0.00000000000E+00  0.92383818269E+03  0.92383818270E+03  0.50400001928E-02 0.  1.
       -1   -1    0    0    0  501  0.00000000000E+00  0.00000000000E+00 -0.18615612787E+04  0.18615612787E+04  0.50400001928E-02 0. -1.
    10030    2    1    2    0    0  0.00000000000E+00  0.00000000000E+00 -0.93772309601E+03  0.27853994614E+04  0.26228087149E+04 0.  0.
        2    1    3    3  502    0 -0.27076209910E+03 -0.15512730087E+03 -0.18215584016E+04  0.18480940463E+04  0.25500000920E-02 0. -1.
       -2    1    3    3    0  502  0.27076209910E+03  0.15512730087E+03  0.88383530555E+03  0.93730541507E+03  0.25500000920E-02 0.  1.
</event>
<event>
 5   0  0.1025153E-05  0.2592699E+04  0.7818609E-02  0.8370686E-01
       -1   -1    0    0    0  501  0.00000000000E+00  0.00000000000E+00  0.14878648527E+04  0.14878648527E+04  0.50400001928E-02 0. -1.
        1   -1    0    0  501    0  0.00000000000E+00  0.00000000000E+00 -0.11294852951E+04  0.11294852951E+04  0.50400001928E-02 0.  1.
    10030    2    1    2    0    0  0.00000000000E+00  0.00000000000E+00  0.35837955762E+03  0.26173501478E+04  0.25926985727E+04 0.  0.
        1    1    3    3  502    0  0.70048163410E+03 -0.10873449406E+04  0.91601163728E+02  0.12966820400E+04  0.50400001928E-02 0.  1.
       -1    1    3    3    0  502 -0.70048163410E+03  0.10873449406E+04  0.26677839389E+03  0.13206681078E+04  0.50400001928E-02 0. -1.
</event>
<event>
 5   0  0.8605000E-06  0.2548607E+04  0.7818609E-02  0.8385871E-01
       -4   -1    0    0    0  501  0.00000000000E+00  0.00000000000E+00  0.13890585510E+04  0.13890591316E+04  0.12699999809E+01 0. -1.
        4   -1    0    0  501    0  0.00000000000E+00  0.00000000000E+00 -0.11690272847E+04  0.11690279746E+04  0.12699999809E+01 0.  1.
    10030    2    1    2    0    0  0.00000000000E+00  0.00000000000E+00  0.22003126633E+03  0.25580871062E+04  0.25486066555E+04 0.  0.
        5    1    3    3  502    0  0.25744740248E+02 -0.12730093783E+04  0.58725526749E+02  0.12746318866E+04  0.46999998093E+01 0. -1.
       -5    1    3    3    0  502 -0.25744740248E+02  0.12730093783E+04  0.16130573958E+03  0.12834552195E+04  0.46999998093E+01 0.  1.
</event>
<event>
 5   0  0.2555801E-05  0.2566772E+04  0.7818609E-02  0.8379576E-01
        2   -1    0    0  501    0  0.00000000000E+00  0.00000000000E+00  0.20467455270E+04  0.20467455270E+04  0.25500000920E-02 0. -1.
       -2   -1    0    0    0  501  0.00000000000E+00  0.00000000000E+00 -0.80473114499E+03  0.80473114499E+03  0.25500000920E-02 0.  1.
    10030    2    1    2    0    0  0.00000000000E+00  0.00000000000E+00  0.12420143820E+04  0.28514766720E+04  0.25667721920E+04 0.  0.
        1    1    3    3  502    0 -0.93782835193E+03  0.39514478898E+03  0.14896710782E+04  0.18041012564E+04  0.50400001928E-02 0. -1.
       -1    1    3    3    0  502  0.93782835193E+03 -0.39514478898E+03 -0.24765669624E+03  0.10473754156E+04  0.50400001928E-02 0.  1.
</event>
<event>
 5   0  0.1005492E-05  0.2518300E+04  0.7818609E-02  0.8396495E-01
        1   -1    0    0  501    0  0.00000000000E+00  0.00000000000E+00  0.18763342282E+04  0.18763342282E+04  0.50400001928E-02 0. -1.
       -1   -1    0    0    0  501  0.00000000000E+00  0.00000000000E+00 -0.84497686100E+03  0.84497686101E+03  0.50400001928E-02 0.  1.
    10030    2    1    2    0    0  0.00000000000E+00  0.00000000000E+00  0.10313573672E+04  0.27213110892E+04  0.25183002254E+04 0.  0.
        4    1    3    3  502    0  0.63151166944E+03 -0.10181595464E+04  0.97156434851E+02  0.12020386168E+04  0.12699999809E+01 0.  1.
       -4    1    3    3    0  502 -0.63151166944E+03  0.10181595464E+04  0.93420093235E+03  0.15192724724E+04  0.12699999809E+01 0. -1.
</event>
<event>
 5   0  0.9855352E-06  0.2577888E+04  0.7818609E-02  0.8375751E-01
       -1   -1    0    0    0  501  0.00000000000E+00  0.00000000000E+00  0.11944820399E+04  0.11944820399E+04  0.50400001928E-02 0.  1.
        1   -1    0    0  501    0  0.00000000000E+00  0.00000000000E+00 -0.13908765345E+04  0.13908765345E+04  0.50400001928E-02 0. -1.
    10030    2    1    2    0    0  0.00000000000E+00  0.00000000000E+00 -0.19639449455E+03  0.25853585744E+04  0.25778883142E+04 0.  0.
        2    1    3    3  502    0 -0.11115499731E+04  0.64932579655E+03 -0.16326752230E+03  0.12976222935E+04  0.25500000920E-02 0. -1.
       -2    1    3    3    0  502  0.11115499731E+04 -0.64932579655E+03 -0.33126972251E+02  0.12877362809E+04  0.25500000920E-02 0.  1.
</event>
<event>
 5   0  0.2662024E-05  0.2609653E+04  0.7818609E-02  0.8364930E-01
        2   -1    0    0  501    0  0.00000000000E+00  0.00000000000E+00  0.11357072200E+04  0.11357072200E+04  0.25500000920E-02 0.  1.
       -2   -1    0    0    0  501  0.00000000000E+00  0.00000000000E+00 -0.14991298664E+04  0.14991298664E+04  0.25500000920E-02 0. -1.
    10030    2    1    2    0    0  0.00000000000E+00  0.00000000000E+00 -0.36342264638E+03  0.26348370864E+04  0.26096533203E+04 0.  0.
        2    1    3    3  502    0  0.10154085549E+04 -0.77782688296E+03 -0.44208252027E+03  0.13533314996E+04  0.25500000920E-02 0. -1.
       -2    1    3    3    0  502 -0.10154085549E+04  0.77782688296E+03  0.78659873892E+02  0.12815055868E+04  0.25500000920E-02 0.  1.
</event>
<event>
 5   0  0.1000421E-05  0.2553073E+04  0.7818609E-02  0.8384318E-01
       -1   -1    0    0    0  501  0.00000000000E+00  0.00000000000E+00  0.12085768704E+04  0.12085768704E+04  0.50400001928E-02 0. -1.
        1   -1    0    0  501    0  0.00000000000E+00  0.00000000000E+00 -0.13483177340E+04  0.13483177340E+04  0.50400001928E-02 0.  1.
    10030    2    1    2    0    0  0.00000000000E+00  0.00000000000E+00 -0.13974086359E+03  0.25568946044E+04  0.25530731500E+04 0.  0.
        3    1    3    3  502    0  0.51882813272E+03 -0.47957788881E+03 -0.11346494931E+04  0.13366402153E+04  0.10100000352E+00 0.  1.
       -3    1    3    3    0  502 -0.51882813272E+03  0.47957788881E+03  0.99490862955E+03  0.12202543891E+04  0.10100000352E+00 0. -1.
</event>
<event>
 5   0  0.2528460E-05  0.2595740E+04  0.7818609E-02  0.8369650E-01
       -2   -1    0    0    0  501  0.00000000000E+00  0.00000000000E+00  0.91825105208E+03  0.91825105208E+03  0.25500000920E-02 0.  1.
        2   -1    0    0  501    0  0.00000000000E+00  0.00000000000E+00 -0.18344298374E+04  0.18344298374E+04  0.25500000920E-02 0. -1.
    10030    2    1    2    0    0  0.00000000000E+00  0.00000000000E+00 -0.91617878530E+03  0.27526808895E+04  0.25957404556E+04 0.  0.
        5    1    3    3  502    0 -0.10317289276E+04 -0.70983297298E+03 -0.81945235985E+03  0.14966134068E+04  0.46999998093E+01 0.  1.
       -5    1    3    3    0  502  0.10317289276E+04  0.70983297298E+03 -0.96726425456E+02  0.12560674826E+04  0.46999998093E+01 0. -1.
</event>
<event>
 5   0  0.1000421E-05  0.2617301E+04  0.7818609E-02  0.8362348E-01
        1   -1    0    0  501    0  0.00000000000E+00  0.00000000000E+00  0.17692340043E+04  0.17692340043E+04  0.50400001928E-02 0. -1.
       -1   -1    0    0    0  501  0.00000000000E+00  0.00000000000E+00 -0.96797009944E+03  0.96797009946E+03  0.50400001928E-02 0.  1.
    10030    2    1    2    0    0  0.00000000000E+00  0.00000000000E+00  0.80126390483E+03  0.27372041037E+04  0.26173006056E+04 0.  0.
        3    1    3    3  502    0 -0.67820692897E+03  0.10935241565E+04  0.15137329949E+03  0.12956363708E+04  0.10100000352E+00 0.  1.
       -3    1    3    3    0  502  0.67820692897E+03 -0.10935241565E+04  0.64989060534E+03  0.14415677329E+04  0.10100000352E+00 0. -1.
</event>
<event>
 5   0  0.2662024E-05  0.2578493E+04  0.7818609E-02  0.8375544E-01
       -2   -1    0    0    0  501  0.00000000000E+00  0.00000000000E+00  0.65661454395E+03  0.65661454396E+03  0.25500000920E-02 0.  1.
        2   -1    0    0  501    0  0.00000000000E+00  0.00000000000E+00 -0.25314034954E+04  0.25314034954E+04  0.25500000920E-02 0. -1.
    10030    2    1    2    0    0  0.00000000000E+00  0.00000000000E+00 -0.18747889515E+04  0.31880180394E+04  0.25784928557E+04 0.  0.
        2    1    3    3  502    0  0.78165984771E+03 -0.52916779814E+03 -0.20231275093E+04  0.22324998533E+04  0.25500000920E-02 0. -1.
       -2    1    3    3    0  502 -0.78165984771E+03  0.52916779814E+03  0.14833855787E+03  0.95551818605E+03  0.25500000920E-02 0.  1.
</event>
<event>
 5   0  0.2662024E-05  0.2657531E+04  0.7818609E-02  0.8348918E-01
        2   -1    0    0  501    0  0.00000000000E+00  0.00000000000E+00  0.18137546409E+04  0.18137546409E+04  0.25500000920E-02 0. -1.
       -2   -1    0    0    0  501  0.00000000000E+00  0.00000000000E+00 -0.97346014553E+03  0.97346014553E+03  0.25500000920E-02 0.  1.
    10030    2    1    2    0    0  0.00000000000E+00  0.00000000000E+00  0.84029449537E+03  0.27872147864E+04  0.26575310773E+04 0.  0.
        2    1    3    3  502    0  0.63386144568E+03 -0.87124219132E+03 -0.39547459065E+03  0.11477122636E+04  0.25500000920E-02 0. -1.
       -2    1    3    3    0  502 -0.63386144568E+03  0.87124219132E+03  0.12357690860E+04  0.16395025228E+04  0.25500000920E-02 0.  1.
</event>
<event>
 5   0  0.1025153E-05  0.2042933E+04  0.7818609E-02  0.8586807E-01
        1   -1    0    0  501    0  0.00000000000E+00  0.00000000000E+00  0.13847356801E+04  0.13847356801E+04  0.50400001928E-02 0.  1.
       -1   -1    0    0    0  501  0.00000000000E+00  0.00000000000E+00 -0.75349708315E+03  0.75349708317E+03  0.50400001928E-02 0. -1.
    10030    2    1    2    0    0  0.00000000000E+00  0.00000000000E+00  0.63123859692E+03  0.21382327632E+04  0.20429334751E+04 0.  0.
        1    1    3    3  502    0 -0.50580616163E+03 -0.80802745109E+03  0.69967797543E+03  0.11824963020E+04  0.50400001928E-02 0. -1.
       -1    1    3    3    0  502  0.50580616163E+03  0.80802745109E+03 -0.68439378511E+02  0.95573646128E+03  0.50400001928E-02 0.  1.
</event>
<event>
 5   0  0.2484618E-05  0.2596130E+04  0.7818609E-02  0.8369517E-01
       -2   -1    0    0    0  501  0.00000000000E+00  0.00000000000E+00  0.82256085081E+03  0.82256085081E+03  0.25500000920E-02 0. -1.
        2   -1    0    0  501    0  0.00000000000E+00  0.00000000000E+00 -0.20484474225E+04  0.20484474225E+04  0.25500000920E-02 0.  1.
    10030    2    1    2    0    0  0.00000000000E+00  0.00000000000E+00 -0.12258865717E+04  0.28710082733E+04  0.25961299310E+04 0.  0.
        3    1    3    3  502    0  0.18240449130E+03  0.65461180230E+03  0.61013435865E+03  0.91326445018E+03  0.10100000352E+00 0. -1.
       -3    1    3    3    0  502 -0.18240449130E+03 -0.65461180230E+03 -0.18360209303E+04  0.19577438231E+04  0.10100000352E+00 0.  1.
</event>
<event>
 5   0  0.2662024E-05  0.2616371E+04  0.7818609E-02  0.8362662E-01
       -2   -1    0    0    0  501  0.00000000000E+00  0.00000000000E+00  0.88604231669E+03  0.88604231669E+03  0.25500000920E-02 0. -1.
        2   -1    0    0  501    0  0.00000000000E+00  0.00000000000E+00 -0.19314528425E+04  0.19314528425E+04  0.25500000920E-02 0.  1.
    10030    2    1    2    0    0  0.00000000000E+00  0.00000000000E+00 -0.10454105258E+04  0.28174951592E+04  0.26163707315E+04 0.  0.
        2    1    3    3  502    0 -0.98357677435E+03 -0.13696852581E+03 -0.14397328578E+04  0.17490038164E+04  0.25500000920E-02 0.  1.
       -2    1    3    3    0  502  0.98357677435E+03  0.13696852581E+03  0.39432233195E+03  0.10684913428E+04  0.25500000920E-02 0. -1.
</event>
<event>
 5   0  0.1000421E-05  0.2803399E+04  0.7818609E-02  0.8302214E-01
        1   -1    0    0  501    0  0.00000000000E+00  0.00000000000E+00  0.72279052278E+03  0.72279052280E+03  0.50400001928E-02 0. -1.
       -1   -1    0    0    0  501  0.00000000000E+00  0.00000000000E+00 -0.27183007585E+04  0.27183007585E+04  0.50400001928E-02 0.  1.
    10030    2    1    2    0    0  0.00000000000E+00  0.00000000000E+00 -0.19955102357E+04  0.34410912813E+04  0.28033993838E+04 0.  0.
        3    1    3    3  502    0  0.24134519419E+03 -0.93422315380E+03  0.25025245045E+03  0.99681828986E+03  0.10100000352E+00 0. -1.
       -3    1    3    3    0  502 -0.24134519419E+03  0.93422315380E+03 -0.22457626861E+04  0.24442729914E+04  0.10100000352E+00 0.  1.
</event>
<event>
 5   0  0.1000421E-05  0.2226372E+04  0.7818609E-02  0.8507531E-01
       -1   -1    0    0    0  501  0.00000000000E+00  0.00000000000E+00  0.56848322026E+03  0.56848322029E+03  0.50400001928E-02 0.  1.
        1   -1    0    0  501    0  0.00000000000E+00  0.00000000000E+00 -0.21798054430E+04  0.21798054430E+04  0.50400001928E-02 0. -1.
    10030    2    1    2    0    0  0.00000000000E+00  0.00000000000E+00 -0.16113222227E+04  0.27482886633E+04  0.22263717729E+04 0.  0.
        3    1    3    3  502    0 -0.72656125106E+03  0.17663409444E+03 -0.18236627505E+04  0.19709989073E+04  0.10100000352E+00 0. -1.
       -3    1    3    3    0  502  0.72656125106E+03 -0.17663409444E+03  0.21234052774E+03  0.77728975600E+03  0.10100000352E+00 0.  1.
</event>
<event>
 5   0  0.1005492E-05  0.2612411E+04  0.7818609E-02  0.8363998E-01
        1   -1    0    0  501    0  0.00000000000E+00  0.00000000000E+00  0.16270588054E+04  0.16270588054E+04  0.50400001928E-02 0.  1.
       -1   -1    0    0    0  501  0.00000000000E+00  0.00000000000E+00 -0.10486236061E+04  0.10486236061E+04  0.50400001928E-02 0. -1.
    10030    2    1    2    0    0  0.00000000000E+00  0.00000000000E+00  0.57843519937E+03  0.26756824115E+04  0.26124105893E+04 0.  0.
        4    1    3    3  502    0  0.56632228227E+03 -0.82120669503E+03  0.11528900992E+04  0.15245519201E+04  0.12699999809E+01 0.  1.
       -4    1    3    3    0  502 -0.56632228227E+03  0.82120669503E+03 -0.57445489984E+03  0.11511304914E+04  0.12699999809E+01 0. -1.
</event>
<event>
 5   0  0.2484618E-05  0.2457503E+04  0.7818609E-02  0.8418284E-01
       -2   -1    0    0    0  501  0.00000000000E+00  0.00000000000E+00  0.16761481162E+04  0.16761481162E+04  0.25500000920E-02 0. -1.
        2   -1    0    0  501    0  0.00000000000E+00  0.00000000000E+00 -0.90077402787E+03  0.90077402787E+03  0.25500000920E-02 0.  1.
    10030    2    1    2    0    0  0.00000000000E+00  0.00000000000E+00  0.77537408833E+03  0.25769221441E+04  0.24575033590E+04 0.  0.
        3    1    3    3  502    0  0.73104495030E+03  0.83299259240E+03 -0.16868773648E+03  0.11210526040E+04  0.10100000352E+00 0.  1.
       -3    1    3    3    0  502 -0.73104495030E+03 -0.83299259240E+03  0.94406182480E+03  0.14558695400E+04  0.10100000352E+00 0. -1.
</event>
<event>
 5   0  0.2662024E-05  0.2618544E+04  0.7818609E-02  0.8361929E-01
        2   -1    0    0  501    0  0.00000000000E+00  0.00000000000E+00  0.12171593621E+04  0.12171593621E+04  0.25500000920E-02 0.  1.
       -2   -1    0    0    0  501  0.00000000000E+00  0.00000000000E+00 -0.14083552966E+04  0.14083552966E+04  0.25500000920E-02 0. -1.
    10030    2    1    2    0    0  0.00000000000E+00  0.00000000000E+00 -0.19119593444E+03  0.26255146587E+04  0.26185437437E+04 0.  0.
        2    1    3    3  502    0  0.11575043758E+04  0.59843006325E+03  0.32247997190E+02  0.13034472961E+04  0.25500000920E-02 0.  1.
       -2    1    3    3    0  502 -0.11575043758E+04 -0.59843006325E+03 -0.22344393163E+03  0.13220673625E+04  0.25500000920E-02 0. -1.
</event>
<event>
 5   0  0.2517854E-05  0.2593371E+04  0.7818609E-02  0.8370457E-01
        2   -1    0    0  501    0  0.00000000000E+00  0.00000000000E+00  0.99598093947E+03  0.99598093947E+03  0.25500000920E-02 0. -1.
       -2   -1    0    0    0  501  0.00000000000E+00  0.00000000000E+00 -0.16881777568E+04  0.16881777568E+04  0.25500000920E-02 0.  1.
    10030    2    1    2    0    0  0.00000000000E+00  0.00000000000E+00 -0.69219681733E+03  0.26841586963E+04  0.25933706779E+04 0.  0.
        4    1    3    3  502    0  0.12345754120E+04  0.26067015000E+03 -0.65533176855E+03  0.14218251351E+04  0.12699999809E+01 0.  1.
       -4    1    3    3    0  502 -0.12345754120E+04 -0.26067015000E+03 -0.36865048776E+02  0.12623335612E+04  0.12699999809E+01 0. -1.
</event>
<event>
 5   0  0.9855352E-06  0.2545283E+04  0.7818609E-02  0.8387029E-01
       -1   -1    0    0    0  501  0.00000000000E+00  0.00000000000E+00  0.10575794303E+04  0.10575794303E+04  0.50400001928E-02 0. -1.
        1   -1    0    0  501    0  0.00000000000E+00  0.00000000000E+00 -0.15314371521E+04  0.15314371521E+04  0.50400001928E-02 0.  1.
    10030    2    1    2    0    0  0.00000000000E+00  0.00000000000E+00 -0.47385772184E+03  0.25890165824E+04  0.25452830341E+04 0.  0.
        2    1    3    3  502    0  0.59100934751E+03 -0.88729638395E+03  0.47001606398E+03  0.11651188876E+04  0.25500000920E-02 0. -1.
       -2    1    3    3    0  502 -0.59100934751E+03  0.88729638395E+03 -0.94387378582E+03  0.14238976948E+04  0.25500000920E-02 0.  1.
</event>
<event>
 5   0  0.8605000E-06  0.2619129E+04  0.7818609E-02  0.8361732E-01
       -3   -1    0    0    0  501  0.00000000000E+00  0.00000000000E+00  0.11781963966E+04  0.11781964009E+04  0.10100000352E+00 0.  1.
        3   -1    0    0  501    0  0.00000000000E+00  0.00000000000E+00 -0.14555802866E+04  0.14555802901E+04  0.10100000352E+00 0. -1.
    10030    2    1    2    0    0  0.00000000000E+00  0.00000000000E+00 -0.27738389002E+03  0.26337766910E+04  0.26191292133E+04 0.  0.
        3    1    3    3  502    0 -0.93582119407E+03 -0.39020647373E+03 -0.97214375745E+03  0.14046657591E+04  0.10100000352E+00 0. -1.
       -3    1    3    3    0  502  0.93582119407E+03  0.39020647373E+03  0.69475986743E+03  0.12291109319E+04  0.10100000352E+00 0.  1.
</event>
<event>
 5   0  0.2484618E-05  0.2579426E+04  0.7818609E-02  0.8375224E-01
       -2   -1    0    0    0  501  0.00000000000E+00  0.00000000000E+00  0.10804187245E+04  0.10804187245E+04  0.25500000920E-02 0.  1.
        2   -1    0    0  501    0  0.00000000000E+00  0.00000000000E+00 -0.15395506525E+04  0.15395506525E+04  0.25500000920E-02 0. -1.
    10030    2    1    2    0    0  0.00000000000E+00  0.00000000000E+00 -0.45913192793E+03  0.26199693770E+04  0.25794257906E+04 0.  0.
        3    1    3    3  502    0  0.36375821667E+03 -0.10157627159E+02 -0.14863241213E+04  0.15302230626E+04  0.10100000352E+00 0. -1.
       -3    1    3    3    0  502 -0.36375821667E+03  0.10157627159E+02  0.10271921933E+04  0.10897463144E+04  0.10100000352E+00 0.  1.
</event>
<event>
 5   0  0.2662024E-05  0.2627029E+04  0.7818609E-02  0.8359077E-01
        2   -1    0    0  501    0  0.00000000000E+00  0.00000000000E+00  0.17210429361E+04  0.17210429361E+04  0.25500000920E-02 0. -1.
       -2   -1    0    0    0  501  0.00000000000E+00  0.00000000000E+00 -0.10024856533E+04  0.10024856533E+04  0.25500000920E-02 0.  1.
    10030    2    1    2    0    0  0.00000000000E+00  0.00000000000E+00  0.71855728281E+03  0.27235285894E+04  0.26270293886E+04 0.  0.
        2    1    3    3  502    0  0.79098995818E+03  0.32034708601E+03  0.13944729576E+04  0.16348829313E+04  0.25500000920E-02 0. -1.
       -2    1    3    3    0  502 -0.79098995818E+03 -0.32034708601E+03 -0.67591567481E+03  0.10886456581E+04  0.25500000920E-02 0.  1.
</event>
<event>
 5   0  0.1025153E-05  0.2600066E+04  0.7818609E-02  0.8368179E-01
       -1   -1    0    0    0  501  0.00000000000E+00  0.00000000000E+00  0.14365334816E+04  0.14365334816E+04  0.50400001928E-02 0.  1.
        1   -1    0    0  501    0  0.00000000000E+00  0.00000000000E+00 -0.11765025662E+04  0.11765025662E+04  0.50400001928E-02 0. -1.
    10030    2    1    2    0    0  0.00000000000E+00  0.00000000000E+00  0.26003091538E+03  0.26130360478E+04  0.26000656357E+04 0.  0.
        1    1    3    3  502    0  0.21803658498E+03 -0.30580663877E+03 -0.11207926224E+04  0.11820464268E+04  0.50400001928E-02 0. -1.
       -1    1    3    3    0  502 -0.21803658498E+03  0.30580663877E+03  0.13808235378E+04  0.14309896209E+04  0.50400001928E-02 0.  1.
</event>
<event>
 5   0  0.1000421E-05  0.2509943E+04  0.7818609E-02  0.8399452E-01
       -1   -1    0    0    0  501  0.00000000000E+00  0.00000000000E+00  0.87555547612E+03  0.87555547613E+03  0.50400001928E-02 0. -1.
        1   -1    0    0  501    0  0.00000000000E+00  0.00000000000E+00 -0.17988046763E+04  0.17988046763E+04  0.50400001928E-02 0.  1.
    10030    2    1    2    0    0  0.00000000000E+00  0.00000000000E+00 -0.92324920022E+03  0.26743601525E+04  0.25099428558E+04 0.  0.
        3    1    3    3  502    0 -0.19198118103E+03  0.21290803291E+03 -0.17634478504E+04  0.17865987058E+04  0.10100000352E+00 0.  1.
       -3    1    3    3    0  502  0.19198118103E+03 -0.21290803291E+03  0.84019865014E+03  0.88776144670E+03  0.10100000352E+00 0. -1.
</event>
<event>
 5   0  0.1005492E-05  0.2503717E+04  0.7818609E-02  0.8401662E-01
       -1   -1    0    0    0  501  0.00000000000E+00  0.00000000000E+00  0.10409050920E+04  0.10409050920E+04  0.50400001928E-02 0. -1.
        1   -1    0    0  501    0  0.00000000000E+00  0.00000000000E+00 -0.15055648261E+04  0.15055648261E+04  0.50400001928E-02 0.  1.
    10030    2    1    2    0    0  0.00000000000E+00  0.00000000000E+00 -0.46465973416E+03  0.25464699181E+04  0.25037173114E+04 0.  0.
        4    1    3    3  502    0  0.32956186223E+03  0.38451990576E+03 -0.13967290964E+04  0.14857053411E+04  0.12699999809E+01 0.  1.
       -4    1    3    3    0  502 -0.32956186223E+03 -0.38451990576E+03  0.93206936224E+03  0.10607645770E+04  0.12699999809E+01 0. -1.
</event>
<event>
 5   0  0.1025153E-05  0.2786909E+04  0.7818609E-02  0.8307344E-01
        1   -1    0    0  501    0  0.00000000000E+00  0.00000000000E+00  0.20096322888E+04  0.20096322888E+04  0.50400001928E-02 0. -1.
       -1   -1    0    0    0  501  0.00000000000E+00  0.00000000000E+00 -0.96620424994E+03  0.96620424996E+03  0.50400001928E-02 0.  1.
    10030    2    1    2    0    0  0.00000000000E+00  0.00000000000E+00  0.10434280389E+04  0.29758365388E+04  0.27869088670E+04 0.  0.
        1    1    3    3  502    0  0.92365135313E+03  0.10201823108E+04  0.28823253872E+03  0.14060518361E+04  0.50400001928E-02 0.  1.
       -1    1    3    3    0  502 -0.92365135313E+03 -0.10201823108E+04  0.75519550015E+03  0.15697847027E+04  0.50400001928E-02 0. -1.
</event>
<event>
 5   0  0.2484618E-05  0.2295511E+04  0.7818609E-02  0.8479693E-01
        2   -1    0    0  501    0  0.00000000000E+00  0.00000000000E+00  0.11503591420E+04  0.11503591420E+04  0.25500000920E-02 0.  1.
       -2   -1    0    0    0  501  0.00000000000E+00  0.00000000000E+00 -0.11451574454E+04  0.11451574454E+04  0.25500000920E-02 0. -1.
    10030    2    1    2    0    0  0.00000000000E+00  0.00000000000E+00  0.52016966120E+01  0.22955165875E+04  0.22955106939E+04 0.  0.
        3    1    3    3  502    0 -0.73313205908E+03 -0.43106390913E+03 -0.76814338085E+03  0.11460117685E+04  0.10100000352E+00 0. -1.
       -3    1    3    3    0  502  0.73313205908E+03  0.43106390913E+03  0.77334507746E+03  0.11495048190E+04  0.10100000352E+00 0.  1.
</event>
<event>
 5   0  0.9855352E-06  0.2601093E+04  0.7818609E-02  0.8367830E-01
        1   -1    0    0  501    0  0.00000000000E+00  0.00000000000E+00  0.13322301242E+04  0.13322301243E+04  0.50400001928E-02 0.  1.
       -1   -1    0    0    0  501  0.00000000000E+00  0.00000000000E+00 -0.12696164538E+04  0.12696164538E+04  0.50400001928E-02 0. -1.
    10030    2    1    2    0    0  0.00000000000E+00  0.00000000000E+00  0.62613670419E+02  0.26018465781E+04  0.26010930672E+04 0.  0.
        2    1    3    3  502    0  0.93138894903E+03  0.17643050355E+03  0.92196254478E+03  0.13223569983E+04  0.25500000920E-02 0.  1.
       -2    1    3    3    0  502 -0.93138894903E+03 -0.17643050355E+03 -0.85934887436E+03  0.12794895798E+04  0.25500000920E-02 0. -1.
</event>
<event>
 5   0  0.2555801E-05  0.2592627E+04  0.7818609E-02  0.8370710E-01
       -2   -1    0    0    0  501  0.00000000000E+00  0.00000000000E+00  0.10655935819E+04  0.10655935819E+04  0.25500000920E-02 0.  1.
        2   -1    0    0  501    0  0.00000000000E+00  0.00000000000E+00 -0.15769887909E+04  0.15769887909E+04  0.25500000920E-02 0. -1.
    10030    2    1    2    0    0  0.00000000000E+00  0.00000000000E+00 -0.51139520904E+03  0.26425823728E+04  0.25926273426E+04 0.  0.
        1    1    3    3  502    0  0.11241392897E+04 -0.12425080947E+03  0.38999223396E+03  0.11963366369E+04  0.50400001928E-02 0.  1.
       -1    1    3    3    0  502 -0.11241392897E+04  0.12425080947E+03 -0.90138744300E+03  0.14462457359E+04  0.50400001928E-02 0. -1.
</event>
<event>
 5   0  0.9855352E-06  0.2585035E+04  0.7818609E-02  0.8373302E-01
        1   -1    0    0  501    0  0.00000000000E+00  0.00000000000E+00  0.12697663682E+04  0.12697663683E+04  0.50400001928E-02 0. -1.
       -1   -1    0    0    0  501  0.00000000000E+00  0.00000000000E+00 -0.13156761951E+04  0.13156761951E+04  0.50400001928E-02 0.  1.
    10030    2    1    2    0    0  0.00000000000E+00  0.00000000000E+00 -0.45909826852E+02  0.25854425634E+04  0.25850349197E+04 0.  0.
        2    1    3    3  502    0 -0.53010959162E+03  0.86830276492E+03 -0.82034816681E+03  0.13068806317E+04  0.25500000920E-02 0.  1.
       -2    1    3    3    0  502  0.53010959162E+03 -0.86830276492E+03  0.77443833996E+03  0.12785619317E+04  0.25500000920E-02 0. -1.
</event>
<event>
 5   0  0.1000421E-05  0.2550847E+04  0.7818609E-02  0.8385092E-01
       -1   -1    0    0    0  501  0.00000000000E+00  0.00000000000E+00  0.85734228754E+03  0.85734228756E+03  0.50400001928E-02 0.  1.
        1   -1    0    0  501    0  0.00000000000E+00  0.00000000000E+00 -0.18973817637E+04  0.18973817637E+04  0.50400001928E-02 0. -1.
    10030    2    1    2    0    0  0.00000000000E+00  0.00000000000E+00 -0.10400394761E+04  0.27547240512E+04  0.25508474056E+04 0.  0.
        3    1    3    3  502    0 -0.18381243019E+02  0.40935134524E+03 -0.18243614479E+04  0.18698131181E+04  0.10100000352E+00 0. -1.
       -3    1    3    3    0  502  0.18381243019E+02 -0.40935134524E+03  0.78432197176E+03  0.88491093311E+03  0.10100000352E+00 0.  1.
</event>
<event>
 5   0  0.2555801E-05  0.2531437E+04  0.7818609E-02  0.8391871E-01
       -2   -1    0    0    0  501  0.00000000000E+00  0.00000000000E+00  0.76471414435E+03  0.76471414435E+03  0.25500000920E-02 0. -1.
        2   -1    0    0  501    0  0.00000000000E+00  0.00000000000E+00 -0.20949563872E+04  0.20949563872E+04  0.25500000920E-02 0.  1.
    10030    2    1    2    0    0  0.00000000000E+00  0.00000000000E+00 -0.13302422428E+04  0.28596705315E+04  0.25314365732E+04 0.  0.
        1    1    3    3  502    0 -0.99035538431E+02 -0.68133745355E+02  0.75825106087E+03  0.76772059791E+03  0.50400001928E-02 0. -1.
       -1    1    3    3    0  502  0.99035538431E+02  0.68133745355E+02 -0.20884933037E+04  0.20919499336E+04  0.50400001928E-02 0.  1.
</event>
<event>
 5   0  0.1005492E-05  0.2828768E+04  0.7818609E-02  0.8294392E-01
       -1   -1    0    0    0  501  0.00000000000E+00  0.00000000000E+00  0.92836334691E+03  0.92836334692E+03  0.50400001928E-02 0.  1.
        1   -1    0    0  501    0  0.00000000000E+00  0.00000000000E+00 -0.21548474548E+04  0.21548474548E+04  0.50400001928E-02 0. -1.
    10030    2    1    2    0    0  0.00000000000E+00  0.00000000000E+00 -0.12264841079E+04  0.30832108018E+04  0.28287675021E+04 0.  0.
        4    1    3    3  502    0 -0.10042743137E+04 -0.91401432036E+03 -0.18207036041E+03  0.13700876994E+04  0.12699999809E+01 0.  1.
       -4    1    3    3    0  502  0.10042743137E+04  0.91401432036E+03 -0.10444137475E+04  0.17131231024E+04  0.12699999809E+01 0. -1.
</event>
<event>
 5   0  0.2662024E-05  0.2618526E+04  0.7818609E-02  0.8361935E-01
       -2   -1    0    0    0  501  0.00000000000E+00  0.00000000000E+00  0.12585822519E+04  0.12585822519E+04  0.25500000920E-02 0. -1.
        2   -1    0    0  501    0  0.00000000000E+00  0.00000000000E+00 -0.13619850802E+04  0.13619850802E+04  0.25500000920E-02 0.  1.
    10030    2    1    2    0    0  0.00000000000E+00  0.00000000000E+00 -0.10340282829E+03  0.26205673321E+04  0.26185264935E+04 0.  0.
        2    1    3    3  502    0  0.94430861641E+03  0.47851733014E+03  0.71927076313E+03  0.12798625039E+04  0.25500000920E-02 0. -1.
       -2    1    3    3    0  502 -0.94430861641E+03 -0.47851733014E+03 -0.82267359142E+03  0.13407048282E+04  0.25500000920E-02 0.  1.
</event>
<event>
 5   0  0.1034714E-05  0.2608349E+04  0.7818609E-02  0.8365371E-01
        1   -1    0    0  501    0  0.00000000000E+00  0.00000000000E+00  0.21355805725E+04  0.21355805725E+04  0.50400001928E-02 0. -1.
       -1   -1    0    0    0  501  0.00000000000E+00  0.00000000000E+00 -0.79644422308E+03  0.79644422310E+03  0.50400001928E-02 0.  1.
    10030    2    1    2    0    0  0.00000000000E+00  0.00000000000E+00  0.13391363494E+04  0.29320247956E+04  0.26083487573E+04 0.  0.
        5    1    3    3  502    0  0.56340753506E+02  0.84812146309E+03  0.17814338035E+04  0.19738320047E+04  0.46999998093E+01 0. -1.
       -5    1    3    3    0  502 -0.56340753506E+02 -0.84812146309E+03 -0.44229745405E+03  0.95819279090E+03  0.46999998093E+01 0.  1.
</event>
<event>
 5   0  0.2484618E-05  0.2576391E+04  0.7818609E-02  0.8376265E-01
        2   -1    0    0  501    0  0.00000000000E+00  0.00000000000E+00  0.11411660388E+04  0.11411660388E+04  0.25500000920E-02 0. -1.
       -2   -1    0    0    0  501  0.00000000000E+00  0.00000000000E+00 -0.14541684307E+04  0.14541684307E+04  0.25500000920E-02 0.  1.
    10030    2    1    2    0    0  0.00000000000E+00  0.00000000000E+00 -0.31300239181E+03  0.25953344695E+04  0.25763909857E+04 0.  0.
        3    1    3    3  502    0  0.10874129657E+04 -0.11521058396E+03 -0.84246859245E+03  0.13803962388E+04  0.10100000352E+00 0.  1.
       -3    1    3    3    0  502 -0.10874129657E+04  0.11521058396E+03  0.52946620064E+03  0.12149382307E+04  0.10100000352E+00 0. -1.
</event>
<event>
 5   0  0.9855352E-06  0.2905155E+04  0.7818609E-02  0.8271345E-01
       -1   -1    0    0    0  501  0.00000000000E+00  0.00000000000E+00  0.10757340073E+04  0.10757340073E+04  0.50400001928E-02 0. -1.
        1   -1    0    0  501    0  0.00000000000E+00  0.00000000000E+00 -0.19614337527E+04  0.19614337527E+04  0.50400001928E-02 0.  1.
    10030    2    1    2    0    0  0.00000000000E+00  0.00000000000E+00 -0.88569974538E+03  0.30371677600E+04  0.29051547228E+04 0.  0.
        2    1    3    3  502    0 -0.26546757853E+03 -0.23259363280E+03  0.10302236216E+04  0.10890057593E+04  0.25500000920E-02 0. -1.
       -2    1    3    3    0  502  0.26546757853E+03  0.23259363280E+03 -0.19159233669E+04  0.19481620008E+04  0.25500000920E-02 0.  1.
</event>
<event>
 5   0  0.2662024E-05  0.2612074E+04  0.7818609E-02  0.8364111E-01
        2   -1    0    0  501    0  0.00000000000E+00  0.00000000000E+00  0.71561981069E+03  0.71561981069E+03  0.25500000920E-02 0.  1.
       -2   -1    0    0    0  501  0.00000000000E+00  0.00000000000E+00 -0.23835745746E+04  0.23835745746E+04  0.25500000920E-02 0. -1.
    10030    2    1    2    0    0  0.00000000000E+00  0.00000000000E+00 -0.16679547639E+04  0.30991943853E+04  0.26120744138E+04 0.  0.
        2    1    3    3  502    0  0.10173760272E+04  0.14513036885E+03 -0.17902720963E+04  0.20642652406E+04  0.25500000920E-02 0. -1.
       -2    1    3    3    0  502 -0.10173760272E+04 -0.14513036885E+03  0.12231733244E+03  0.10349291447E+04  0.25500000920E-02 0.  1.
</event>
<event>
 5   0  0.2555801E-05  0.2088691E+04  0.7818609E-02  0.8566241E-01
        2   -1    0    0  501    0  0.00000000000E+00  0.00000000000E+00  0.15282269395E+04  0.15282269395E+04  0.25500000920E-02 0. -1.
       -2   -1    0    0    0  501  0.00000000000E+00  0.00000000000E+00 -0.71367524575E+03  0.71367524576E+03  0.25500000920E-02 0.  1.
    10030    2    1    2    0    0  0.00000000000E+00  0.00000000000E+00  0.81455169377E+03  0.22419021853E+04  0.20886912042E+04 0.  0.
        1    1    3    3  502    0 -0.45078103568E+03  0.29708063924E+03  0.13668298537E+04  0.14695864375E+04  0.50400001928E-02 0. -1.
       -1    1    3    3    0  502  0.45078103568E+03 -0.29708063924E+03 -0.55227815991E+03  0.77231574779E+03  0.50400001928E-02 0.  1.
</event>
<event>
 5   0  0.1000421E-05  0.2578865E+04  0.7818609E-02  0.8375416E-01
       -1   -1    0    0    0  501  0.00000000000E+00  0.00000000000E+00  0.87452920986E+03  0.87452920987E+03  0.50400001928E-02 0. -1.
        1   -1    0    0  501    0  0.00000000000E+00  0.00000000000E+00 -0.19011792561E+04  0.19011792561E+04  0.50400001928E-02 0.  1.
    10030    2    1    2    0    0  0.00000000000E+00  0.00000000000E+00 -0.10266500462E+04  0.27757084660E+04  0.25788654813E+04 0.  0.
        3    1    3    3  502    0  0.69665613965E+03  0.79440949012E+03  0.28215483119E+03  0.10936304558E+04  0.10100000352E+00 0. -1.
       -3    1    3    3    0  502 -0.69665613965E+03 -0.79440949012E+03 -0.13088048774E+04  0.16820780102E+04  0.10100000352E+00 0.  1.
</event>
<event>
 5   0  0.1005492E-05  0.2599639E+04  0.7818609E-02  0.8368324E-01
        1   -1    0    0  501    0  0.00000000000E+00  0.00000000000E+00  0.10413056438E+04  0.10413056439E+04  0.50400001928E-02 0. -1.
       -1   -1    0    0    0  501  0.00000000000E+00  0.00000000000E+00 -0.16225117070E+04  0.16225117070E+04  0.50400001928E-02 0.  1.
    10030    2    1    2    0    0  0.00000000000E+00  0.00000000000E+00 -0.58120606312E+03  0.26638173508E+04  0.25996388962E+04 0.  0.
        4    1    3    3  502    0 -0.18737671811E+03 -0.12558729298E+04 -0.58908358410E+01  0.12697886301E+04  0.12699999809E+01 0. -1.
       -4    1    3    3    0  502  0.18737671811E+03  0.12558729298E+04 -0.57531522728E+03  0.13940287207E+04  0.12699999809E+01 0.  1.
</event>
<event>
 5   0  0.2662024E-05  0.2575090E+04  0.7818609E-02  0.8376712E-01
       -2   -1    0    0    0  501  0.00000000000E+00  0.00000000000E+00  0.78837587189E+03  0.78837587189E+03  0.25500000920E-02 0. -1.
        2   -1    0    0  501    0  0.00000000000E+00  0.00000000000E+00 -0.21027684115E+04  0.21027684115E+04  0.25500000920E-02 0.  1.
    10030    2    1    2    0    0  0.00000000000E+00  0.00000000000E+00 -0.13143925396E+04  0.28911442834E+04  0.25750898080E+04 0.  0.
        2    1    3    3  502    0 -0.89930731453E+03  0.88729794913E+03 -0.93612445206E+03  0.15723804521E+04  0.25500000920E-02 0.  1.
       -2    1    3    3    0  502  0.89930731453E+03 -0.88729794913E+03 -0.37826808751E+03  0.13187638312E+04  0.25500000920E-02 0. -1.
</event>
<event>
 5   0  0.2517854E-05  0.2621892E+04  0.7818609E-02  0.8360803E-01
        2   -1    0    0  501    0  0.00000000000E+00  0.00000000000E+00  0.18258332838E+04  0.18258332838E+04  0.25500000920E-02 0.  1.
       -2   -1    0    0    0  501  0.00000000000E+00  0.00000000000E+00 -0.94125741036E+03  0.94125741037E+03  0.25500000920E-02 0. -1.
    10030    2    1    2    0    0  0.00000000000E+00  0.00000000000E+00  0.88457587347E+03  0.27670906942E+04  0.26218917663E+04 0.  0.
        4    1    3    3  502    0  0.11492463262E+04  0.24701250476E+02 -0.22285253988E+03  0.11709150855E+04  0.12699999809E+01 0. -1.
       -4    1    3    3    0  502 -0.11492463262E+04 -0.24701250476E+02  0.11074284134E+04  0.15961756087E+04  0.12699999809E+01 0.  1.
</event>
<event>
 5   0  0.2484618E-05  0.2553295E+04  0.7818609E-02  0.8384241E-01
        2   -1    0    0  501    0  0.00000000000E+00  0.00000000000E+00  0.12877267577E+04  0.12877267577E+04  0.25500000920E-02 0.  1.
       -2   -1    0    0    0  501  0.00000000000E+00  0.00000000000E+00 -0.12656633220E+04  0.12656633220E+04  0.25500000920E-02 0. -1.
    10030    2    1    2    0    0  0.00000000000E+00  0.00000000000E+00  0.22063435701E+02  0.25533900797E+04  0.25532947547E+04 0.  0.
        3    1    3    3  502    0 -0.44938533757E+03  0.44151019046E+03  0.11214560286E+04  0.12862900389E+04  0.10100000352E+00 0.  1.
       -3    1    3    3    0  502  0.44938533757E+03 -0.44151019046E+03 -0.10993925929E+04  0.12671000408E+04  0.10100000352E+00 0. -1.
</event>
<event>
 5   0  0.2528460E-05  0.2538665E+04  0.7818609E-02  0.8389339E-01
        2   -1    0    0  501    0  0.00000000000E+00  0.00000000000E+00  0.22875301115E+04  0.22875301115E+04  0.25500000920E-02 0. -1.
       -2   -1    0    0    0  501  0.00000000000E+00  0.00000000000E+00 -0.70434236819E+03  0.70434236820E+03  0.25500000920E-02 0.  1.
    10030    2    1    2    0    0  0.00000000000E+00  0.00000000000E+00  0.15831877433E+04  0.29918724797E+04  0.25386645120E+04 0.  0.
        5    1    3    3  502    0  0.13365327012E+03  0.12530098464E+04  0.97143116212E+03  0.15910994515E+04  0.46999998093E+01 0. -1.
       -5    1    3    3    0  502 -0.13365327012E+03 -0.12530098464E+04  0.61175658121E+03  0.14007730282E+04  0.46999998093E+01 0.  1.
</event>
<event>
 5   0  0.1005492E-05  0.2608397E+04  0.7818609E-02  0.8365354E-01
       -1   -1    0    0    0  501  0.00000000000E+00  0.00000000000E+00  0.11390806474E+04  0.11390806474E+04  0.50400001928E-02 0. -1.
        1   -1    0    0  501    0  0.00000000000E+00  0.00000000000E+00 -0.14932516290E+04  0.14932516290E+04  0.50400001928E-02 0.  1.
    10030    2    1    2    0    0  0.00000000000E+00  0.00000000000E+00 -0.35417098163E+03  0.26323322764E+04  0.26083972338E+04 0.  0.
        4    1    3    3  502    0  0.12549958295E+04  0.32391171970E+03 -0.30845158384E+02  0.12964900196E+04  0.12699999809E+01 0.  1.
       -4    1    3    3    0  502 -0.12549958295E+04 -0.32391171970E+03 -0.32332582325E+03  0.13358422568E+04  0.12699999809E+01 0. -1.
</event>
<event>
 5   0  0.1034714E-05  0.2640680E+04  0.7818609E-02  0.8354513E-01
        1   -1    0    0  501    0  0.00000000000E+00  0.00000000000E+00  0.90317650180E+03  0.90317650181E+03  0.50400001928E-02 0. -1.
       -1   -1    0    0    0  501  0.00000000000E+00  0.00000000000E+00 -0.19301852363E+04  0.19301852363E+04  0.50400001928E-02 0.  1.
    10030    2    1    2    0    0  0.00000000000E+00  0.00000000000E+00 -0.10270087345E+04  0.28333617381E+04  0.26406801772E+04 0.  0.
        5    1    3    3  502    0  0.11258905628E+04 -0.45970475319E+03  0.38127640780E+02  0.12167307946E+04  0.46999998093E+01 0. -1.
       -5    1    3    3    0  502 -0.11258905628E+04  0.45970475319E+03 -0.10651363753E+04  0.16166309435E+04  0.46999998093E+01 0.  1.
</event>
<event>
 5   0  0.1025153E-05  0.2610772E+04  0.7818609E-02  0.8364552E-01
       -1   -1    0    0    0  501  0.00000000000E+00  0.00000000000E+00  0.93861636470E+03  0.93861636472E+03  0.50400001928E-02 0. -1.
        1   -1    0    0  501    0  0.00000000000E+00  0.00000000000E+00 -0.18154724478E+04  0.18154724479E+04  0.50400001928E-02 0.  1.
    10030    2    1    2    0    0  0.00000000000E+00  0.00000000000E+00 -0.87685608315E+03  0.27540888126E+04  0.26107716478E+04 0.  0.
        1    1    3    3  502    0 -0.12247490487E+04 -0.62088701857E+02 -0.91038804516E+03  0.15273086237E+04  0.50400001928E-02 0. -1.
       -1    1    3    3    0  502  0.12247490487E+04  0.62088701857E+02  0.33531962013E+02  0.12267801889E+04  0.50400001928E-02 0.  1.
</event>
<event>
 5   0  0.2517854E-05  0.2608453E+04  0.7818609E-02  0.8365336E-01
       -2   -1    0    0    0  501  0.00000000000E+00  0.00000000000E+00  0.11264400008E+04  0.11264400008E+04  0.25500000920E-02 0. -1.
        2   -1    0    0  501    0  0.00000000000E+00  0.00000000000E+00 -0.15100732362E+04  0.15100732362E+04  0.25500000920E-02 0.  1.
    10030    2    1    2    0    0  0.00000000000E+00  0.00000000000E+00 -0.38363323541E+03  0.26365132370E+04  0.26084531028E+04 0.  0.
        4    1    3    3  502    0 -0.44246797997E+03 -0.69633639905E+02 -0.14298927268E+04  0.14984063468E+04  0.12699999809E+01 0.  1.
       -4    1    3    3    0  502  0.44246797997E+03  0.69633639905E+02  0.10462594914E+04  0.11381068901E+04  0.12699999809E+01 0. -1.
</event>
<event>
 5   0  0.2517854E-05  0.2596630E+04  0.7818609E-02  0.8369347E-01
        2   -1    0    0  501    0  0.00000000000E+00  0.00000000000E+00  0.14254655936E+04  0.14254655936E+04  0.25500000920E-02 0.  1.
       -2   -1    0    0    0  501  0.00000000000E+00  0.00000000000E+00 -0.11825064374E+04  0.11825064374E+04  0.25500000920E-02 0. -1.
    10030    2    1    2    0    0  0.00000000000E+00  0.00000000000E+00  0.24295915620E+03  0.26079720310E+04  0.25966303092E+04 0.  0.
        4    1    3    3  502    0  0.94233571402E+03 -0.34881230625E+03  0.94723489776E+03  0.13809135336E+04  0.12699999809E+01 0.  1.
       -4    1    3    3    0  502 -0.94233571402E+03  0.34881230625E+03 -0.70427574156E+03  0.12270584974E+04  0.12699999809E+01 0. -1.
</event>
<event>
 5   0  0.8605000E-06  0.2605297E+04  0.7818609E-02  0.8366404E-01
        3   -1    0    0  501    0  0.00000000000E+00  0.00000000000E+00  0.80677700291E+03  0.80677700923E+03  0.10100000352E+00 0. -1.
       -3   -1    0    0    0  501  0.00000000000E+00  0.00000000000E+00 -0.21032989764E+04  0.21032989788E+04  0.10100000352E+00 0.  1.
    10030    2    1    2    0    0  0.00000000000E+00  0.00000000000E+00 -0.12965219735E+04  0.29100759881E+04  0.26052971095E+04 0.  0.
        2    1    3    3  502    0 -0.45521170764E+03  0.72401195351E+03 -0.17457981096E+04  0.19440221314E+04  0.25500000920E-02 0.  1.
       -2    1    3    3    0  502  0.45521170764E+03 -0.72401195351E+03  0.44927613612E+03  0.96605385672E+03  0.25500000920E-02 0. -1.
</event>
<event>
 5   0  0.2662024E-05  0.2563415E+04  0.7818609E-02  0.8380736E-01
       -2   -1    0    0    0  501  0.00000000000E+00  0.00000000000E+00  0.18764744792E+04  0.18764744792E+04  0.25500000920E-02 0. -1.
        2   -1    0    0  501    0  0.00000000000E+00  0.00000000000E+00 -0.87545741927E+03  0.87545741928E+03  0.25500000920E-02 0.  1.
    10030    2    1    2    0    0  0.00000000000E+00  0.00000000000E+00  0.10010170600E+04  0.27519318985E+04  0.25634145236E+04 0.  0.
        2    1    3    3  502    0  0.62113903681E+03  0.49064892922E+03  0.15827232670E+04  0.17696222803E+04  0.25500000920E-02 0. -1.
       -2    1    3    3    0  502 -0.62113903681E+03 -0.49064892922E+03 -0.58170620706E+03  0.98230961826E+03  0.25500000920E-02 0.  1.
</event>
<event>
 5   0  0.9855352E-06  0.2345917E+04  0.7818609E-02  0.8460034E-01
       -1   -1    0    0    0  501  0.00000000000E+00  0.00000000000E+00  0.93888237793E+03  0.93888237794E+03  0.50400001928E-02 0.  1.
        1   -1    0    0  501    0  0.00000000000E+00  0.00000000000E+00 -0.14653930779E+04  0.14653930779E+04  0.50400001928E-02 0. -1.
    10030    2    1    2    0    0  0.00000000000E+00  0.00000000000E+00 -0.52651069993E+03  0.24042754558E+04  0.23459170809E+04 0.  0.
        2    1    3    3  502    0 -0.37269390666E+03 -0.66899266866E+03  0.64731723266E+03  0.10027320372E+04  0.25500000920E-02 0.  1.
       -2    1    3    3    0  502  0.37269390666E+03  0.66899266866E+03 -0.11738279326E+04  0.14015434186E+04  0.25500000920E-02 0. -1.
</event>
<event>
 5   0  0.1000421E-05  0.2595011E+04  0.7818609E-02  0.8369898E-01
        1   -1    0    0  501    0  0.00000000000E+00  0.00000000000E+00  0.97077647251E+03  0.97077647252E+03  0.50400001928E-02 0.  1.
       -1   -1    0    0    0  501  0.00000000000E+00  0.00000000000E+00 -0.17342004258E+04  0.17342004258E+04  0.50400001928E-02 0. -1.
    10030    2    1    2    0    0  0.00000000000E+00  0.00000000000E+00 -0.76342395330E+03  0.27049768983E+04  0.25950113464E+04 0.  0.
        3    1    3    3  502    0  0.95239977786E+03  0.72629935791E+03 -0.90179884432E+03  0.14992722435E+04  0.10100000352E+00 0. -1.
       -3    1    3    3    0  502 -0.95239977786E+03 -0.72629935791E+03  0.13837489102E+03  0.12057046549E+04  0.10100000352E+00 0.  1.
</event>
<event>
 5   0  0.2528460E-05  0.2535647E+04  0.7818609E-02  0.8390395E-01
       -2   -1    0    0    0  501  0.00000000000E+00  0.00000000000E+00  0.12511897009E+04  0.12511897009E+04  0.25500000920E-02 0.  1.
        2   -1    0    0  501    0  0.00000000000E+00  0.00000000000E+00 -0.12846781160E+04  0.12846781160E+04  0.25500000920E-02 0. -1.
    10030    2    1    2    0    0  0.00000000000E+00  0.00000000000E+00 -0.33488415078E+02  0.25358678169E+04  0.25356466849E+04 0.  0.
        5    1    3    3  502    0  0.89951685592E+03  0.59535844211E+03  0.64947579696E+03  0.12591358741E+04  0.46999998093E+01 0.  1.
       -5    1    3    3    0  502 -0.89951685592E+03 -0.59535844211E+03 -0.68296421204E+03  0.12767319427E+04  0.46999998093E+01 0. -1.
</event>
<event>
 5   0  0.2555801E-05  0.2278881E+04  0.7818609E-02  0.8486295E-01
        2   -1    0    0  501    0  0.00000000000E+00  0.00000000000E+00  0.14475909807E+04  0.14475909807E+04  0.25500000920E-02 0.  1.
       -2   -1    0    0    0  501  0.00000000000E+00  0.00000000000E+00 -0.89688624638E+03  0.89688624638E+03  0.25500000920E-02 0. -1.
    10030    2    1    2    0    0  0.00000000000E+00  0.00000000000E+00  0.55070473435E+03  0.23444772271E+04  0.22788808139E+04 0.  0.
        1    1    3    3  502    0 -0.76625273694E+02 -0.71148202159E+03 -0.63687631959E+03  0.95796114018E+03  0.50400001928E-02 0. -1.
       -1    1    3    3    0  502  0.76625273694E+02  0.71148202159E+03  0.11875810539E+04  0.13865160869E+04  0.50400001928E-02 0.  1.
</event>
<event>
 5   0  0.1005492E-05  0.1879281E+04  0.7818609E-02  0.8665239E-01
       -1   -1    0    0    0  501  0.00000000000E+00  0.00000000000E+00  0.74388722080E+03  0.74388722081E+03  0.50400001928E-02 0. -1.
        1   -1    0    0  501    0  0.00000000000E+00  0.00000000000E+00 -0.11869060246E+04  0.11869060246E+04  0.50400001928E-02 0.  1.
    10030    2    1    2    0    0  0.00000000000E+00  0.00000000000E+00 -0.44301880382E+03  0.19307932454E+04  0.18792809519E+04 0.  0.
        4    1    3    3  502    0 -0.38568316381E+03  0.25991171805E+03  0.61733662853E+03  0.77292414237E+03  0.12699999809E+01 0. -1.
       -4    1    3    3    0  502  0.38568316381E+03 -0.25991171805E+03 -0.10603554324E+04  0.11578691031E+04  0.12699999809E+01 0.  1.
</event>
<event>
 5   0  0.1005492E-05  0.2581899E+04  0.7818609E-02  0.8374376E-01
       -1   -1    0    0    0  501  0.00000000000E+00  0.00000000000E+00  0.14849834148E+04  0.14849834148E+04  0.50400001928E-02 0. -1.
        1   -1    0    0  501    0  0.00000000000E+00  0.00000000000E+00 -0.11222688151E+04  0.11222688151E+04  0.50400001928E-02 0.  1.
    10030    2    1    2    0    0  0.00000000000E+00  0.00000000000E+00  0.36271459973E+03  0.26072522299E+04  0.25818989735E+04 0.  0.
        4    1    3    3  502    0  0.12429305967E+03  0.50525550949E+03 -0.10116910799E+04  0.11376521211E+04  0.12699999809E+01 0.  1.
       -4    1    3    3    0  502 -0.12429305967E+03 -0.50525550949E+03  0.13744056797E+04  0.14696001088E+04  0.12699999809E+01 0. -1.
</event>
<event>
 5   0  0.1034714E-05  0.2577371E+04  0.7818609E-02  0.8375929E-01
        1   -1    0    0  501    0  0.00000000000E+00  0.00000000000E+00  0.26452020129E+04  0.26452020129E+04  0.50400001928E-02 0.  1.
       -1   -1    0    0    0  501  0.00000000000E+00  0.00000000000E+00 -0.62781968721E+03  0.62781968723E+03  0.50400001928E-02 0. -1.
    10030    2    1    2    0    0  0.00000000000E+00  0.00000000000E+00  0.20173823257E+04  0.32730217001E+04  0.25773706760E+04 0.  0.
        5    1    3    3  502    0 -0.49965931903E+03 -0.81706606233E+03 -0.86254226343E+02  0.96162272585E+03  0.46999998093E+01 0. -1.
       -5    1    3    3    0  502  0.49965931903E+03  0.81706606233E+03  0.21036365520E+04  0.23113989743E+04  0.46999998093E+01 0.  1.
</event>
<event>
 5   0  0.2517854E-05  0.2597888E+04  0.7818609E-02  0.8368919E-01
       -2   -1    0    0    0  501  0.00000000000E+00  0.00000000000E+00  0.18390224007E+04  0.18390224007E+04  0.25500000920E-02 0.  1.
        2   -1    0    0  501    0  0.00000000000E+00  0.00000000000E+00 -0.91747384547E+03  0.91747384547E+03  0.25500000920E-02 0. -1.
    10030    2    1    2    0    0  0.00000000000E+00  0.00000000000E+00  0.92154855521E+03  0.27564962462E+04  0.25978875679E+04 0.  0.
        4    1    3    3  502    0 -0.13443056850E+03  0.15315434426E+03 -0.90040633352E+03  0.92317983582E+03  0.12699999809E+01 0. -1.
       -4    1    3    3    0  502  0.13443056850E+03 -0.15315434426E+03  0.18219548887E+04  0.18333164103E+04  0.12699999809E+01 0.  1.
</event>
<event>
 5   0  0.1034714E-05  0.2570934E+04  0.7818609E-02  0.8378142E-01
        1   -1    0    0  501    0  0.00000000000E+00  0.00000000000E+00  0.13932794391E+04  0.13932794391E+04  0.50400001928E-02 0. -1.
       -1   -1    0    0    0  501  0.00000000000E+00  0.00000000000E+00 -0.11859974036E+04  0.11859974036E+04  0.50400001928E-02 0.  1.
    10030    2    1    2    0    0  0.00000000000E+00  0.00000000000E+00  0.20728203545E+03  0.25792768427E+04  0.25709343028E+04 0.  0.
        5    1    3    3  502    0  0.22145194527E+03  0.64017259165E+03 -0.99239744796E+03  0.12015559479E+04  0.46999998093E+01 0.  1.
       -5    1    3    3    0  502 -0.22145194527E+03 -0.64017259165E+03  0.11996794834E+04  0.13777208948E+04  0.46999998093E+01 0. -1.
</event>
<event>
 5   0  0.2484618E-05  0.2453010E+04  0.7818609E-02  0.8419920E-01
        2   -1    0    0  501    0  0.00000000000E+00  0.00000000000E+00  0.16680295172E+04  0.16680295172E+04  0.25500000920E-02 0.  1.
       -2   -1    0    0    0  501  0.00000000000E+00  0.00000000000E+00 -0.90185141139E+03  0.90185141139E+03  0.25500000920E-02 0. -1.
    10030    2    1    2    0    0  0.00000000000E+00  0.00000000000E+00  0.76617810577E+03  0.25698809286E+04  0.24530102114E+04 0.  0.
        3    1    3    3  502    0  0.77147030661E+03 -0.26335448955E+03 -0.57697388378E+03  0.99870961441E+03  0.10100000352E+00 0. -1.
       -3    1    3    3    0  502 -0.77147030661E+03  0.26335448955E+03  0.13431519896E+04  0.15711713141E+04  0.10100000352E+00 0.  1.
</event>
<event>
 5   0  0.2484618E-05  0.2631146E+04  0.7818609E-02  0.8357698E-01
       -2   -1    0    0    0  501  0.00000000000E+00  0.00000000000E+00  0.17788484071E+04  0.17788484071E+04  0.25500000920E-02 0. -1.
        2   -1    0    0  501    0  0.00000000000E+00  0.00000000000E+00 -0.97295080689E+03  0.97295080689E+03  0.25500000920E-02 0.  1.
    10030    2    1    2    0    0  0.00000000000E+00  0.00000000000E+00  0.80589760019E+03  0.27517992140E+04  0.26311457527E+04 0.  0.
        3    1    3    3  502    0  0.12013141193E+03 -0.43205962873E+03 -0.89054487242E+03  0.99708437903E+03  0.10100000352E+00 0.  1.
       -3    1    3    3    0  502 -0.12013141193E+03  0.43205962873E+03  0.16964424726E+04  0.17547148349E+04  0.10100000352E+00 0. -1.
</event>
<event>
 5   0  0.8605000E-06  0.2597146E+04  0.7818609E-02  0.8369171E-01
       -3   -1    0    0    0  501  0.00000000000E+00  0.00000000000E+00  0.12529746618E+04  0.12529746658E+04  0.10100000352E+00 0.  1.
        3   -1    0    0  501    0  0.00000000000E+00  0.00000000000E+00 -0.13458307936E+04  0.13458307974E+04  0.10100000352E+00 0. -1.
    10030    2    1    2    0    0  0.00000000000E+00  0.00000000000E+00 -0.92856131885E+02  0.25988054633E+04  0.25971460442E+04 0.  0.
        4    1    3    3  502    0  0.11749123848E+04 -0.41994342084E+03 -0.40654506667E+03  0.13122698247E+04  0.12699999809E+01 0. -1.
       -4    1    3    3    0  502 -0.11749123848E+04  0.41994342084E+03  0.31368893478E+03  0.12865356386E+04  0.12699999809E+01 0.  1.
</event>
<event>
 5   0  0.1034714E-05  0.2072507E+04  0.7818609E-02  0.8573452E-01
        1   -1    0    0  501    0  0.00000000000E+00  0.00000000000E+00  0.17475995598E+04  0.17475995598E+04  0.50400001928E-02 0. -1.
       -1   -1    0    0    0  501  0.00000000000E+00  0.00000000000E+00 -0.61445508857E+03  0.61445508859E+03  0.50400001928E-02 0.  1.
    10030    2    1    2    0    0  0.00000000000E+00  0.00000000000E+00  0.11331444712E+04  0.23620546484E+04  0.20725071216E+04 0.  0.
        5    1    3    3  502    0 -0.33993555345E+03 -0.37424061631E+03  0.15974810011E+04  0.16755834382E+04  0.46999998093E+01 0. -1.
       -5    1    3    3    0  502  0.33993555345E+03  0.37424061631E+03 -0.46433652991E+03  0.68647121018E+03  0.46999998093E+01 0.  1.
</event>
<event>
 5   0  0.2484618E-05  0.2585899E+04  0.7818609E-02  0.8373007E-01
        2   -1    0    0  501    0  0.00000000000E+00  0.00000000000E+00  0.15687208840E+04  0.15687208840E+04  0.25500000920E-02 0.  1.
       -2   -1    0    0    0  501  0.00000000000E+00  0.00000000000E+00 -0.10656573761E+04  0.10656573761E+04  0.25500000920E-02 0. -1.
    10030    2    1    2    0    0  0.00000000000E+00  0.00000000000E+00  0.50306350796E+03  0.26343782601E+04  0.25858994420E+04 0.  0.
        3    1    3    3  502    0  0.34225666348E+02  0.12854061923E+04  0.38926434693E+03  0.13434906838E+04  0.10100000352E+00 0. -1.
       -3    1    3    3    0  502 -0.34225666348E+02 -0.12854061923E+04  0.11379916102E+03  0.12908875763E+04  0.10100000352E+00 0.  1.
</event>
<event>
 5   0  0.8605000E-06  0.2635706E+04  0.7818609E-02  0.8356173E-01
        3   -1    0    0  501    0  0.00000000000E+00  0.00000000000E+00  0.10672017823E+04  0.10672017870E+04  0.10100000352E+00 0.  1.
       -3   -1    0    0    0  501  0.00000000000E+00  0.00000000000E+00 -0.16273736652E+04  0.16273736684E+04  0.10100000352E+00 0. -1.
    10030    2    1    2    0    0  0.00000000000E+00  0.00000000000E+00 -0.56017188297E+03  0.26945754554E+04  0.26357056638E+04 0.  0.
        5    1    3    3  502    0 -0.42685537851E+03  0.11916610140E+04  0.94781651118E+02  0.12693569781E+04  0.46999998093E+01 0.  1.
       -5    1    3    3    0  502  0.42685537851E+03 -0.11916610140E+04 -0.65495353409E+03  0.14252184774E+04  0.46999998093E+01 0. -1.
</event>
<event>
 5   0  0.2662024E-05  0.2624966E+04  0.7818609E-02  0.8359770E-01
       -2   -1    0    0    0  501  0.00000000000E+00  0.00000000000E+00  0.10658277859E+04  0.10658277859E+04  0.25500000920E-02 0.  1.
        2   -1    0    0  501    0  0.00000000000E+00  0.00000000000E+00 -0.16162199552E+04  0.16162199552E+04  0.25500000920E-02 0. -1.
    10030    2    1    2    0    0  0.00000000000E+00  0.00000000000E+00 -0.55039216923E+03  0.26820477411E+04  0.26249663894E+04 0.  0.
        2    1    3    3  502    0 -0.94861454604E+03  0.43907145632E+03  0.53576281269E+03  0.11746042279E+04  0.25500000920E-02 0.  1.
       -2    1    3    3    0  502  0.94861454604E+03 -0.43907145632E+03 -0.10861549819E+04  0.15074435132E+04  0.25500000920E-02 0. -1.
</event>
<event>
 5   0  0.2555801E-05  0.2561969E+04  0.7818609E-02  0.8381235E-01
        2   -1    0    0  501    0  0.00000000000E+00  0.00000000000E+00  0.17880924474E+04  0.17880924474E+04  0.25500000920E-02 0.  1.
       -2   -1    0    0    0  501  0.00000000000E+00  0.00000000000E+00 -0.91769387107E+03  0.91769387107E+03  0.25500000920E-02 0. -1.
    10030    2    1    2    0    0  0.00000000000E+00  0.00000000000E+00  0.87039857629E+03  0.27057863184E+04  0.25619691488E+04 0.  0.
        1    1    3    3  502    0 -0.44858536323E+02  0.37949569492E+03  0.17264915249E+04  0.17682766345E+04  0.50400001928E-02 0.  1.
       -1    1    3    3    0  502  0.44858536323E+02 -0.37949569492E+03 -0.85609294859E+03  0.93750968390E+03  0.50400001928E-02 0. -1.
</event>
<event>
 5   0  0.1025153E-05  0.2535307E+04  0.7818609E-02  0.8390514E-01
       -1   -1    0    0    0  501  0.00000000000E+00  0.00000000000E+00  0.11515219640E+04  0.11515219641E+04  0.50400001928E-02 0. -1.
        1   -1    0    0  501    0  0.00000000000E+00  0.00000000000E+00 -0.13954973348E+04  0.13954973348E+04  0.50400001928E-02 0.  1.
    10030    2    1    2    0    0  0.00000000000E+00  0.00000000000E+00 -0.24397537077E+03  0.25470192989E+04  0.25353073438E+04 0.  0.
        1    1    3    3  502    0 -0.39147205902E+03 -0.26745805021E+03 -0.13030723772E+04  0.13866440791E+04  0.50400001928E-02 0.  1.
       -1    1    3    3    0  502  0.39147205902E+03  0.26745805021E+03  0.10590970065E+04  0.11603752198E+04  0.50400001928E-02 0. -1.
</event>
<event>
 5   0  0.2517854E-05  0.2616682E+04  0.7818609E-02  0.8362557E-01
        2   -1    0    0  501    0  0.00000000000E+00  0.00000000000E+00  0.14267847883E+04  0.14267847883E+04  0.25500000920E-02 0. -1.
       -2   -1    0    0    0  501  0.00000000000E+00  0.00000000000E+00 -0.11997297459E+04  0.11997297459E+04  0.25500000920E-02 0.  1.
    10030    2    1    2    0    0  0.00000000000E+00  0.00000000000E+00  0.22705504233E+03  0.26265145342E+04  0.26166819841E+04 0.  0.
        4    1    3    3  502    0 -0.12377670679E+04 -0.38374717535E+03 -0.67219465168E+02  0.12976321814E+04  0.12699999809E+01 0.  1.
       -4    1    3    3    0  502  0.12377670679E+04  0.38374717535E+03  0.29427450750E+03  0.13288823528E+04  0.12699999809E+01 0. -1.
</event>
<event>
 5   0  0.2517854E-05  0.2615754E+04  0.7818609E-02  0.8362870E-01
        2   -1    0    0  501    0  0.00000000000E+00  0.00000000000E+00  0.20357127612E+04  0.20357127612E+04  0.25500000920E-02 0. -1.
       -2   -1    0    0    0  501  0.00000000000E+00  0.00000000000E+00 -0.84026692692E+03  0.84026692693E+03  0.25500000920E-02 0.  1.
    10030    2    1    2    0    0  0.00000000000E+00  0.00000000000E+00  0.11954458343E+04  0.28759796881E+04  0.26157538921E+04 0.  0.
        4    1    3    3  502    0  0.11700345874E+04 -0.38798236894E+03  0.10782732217E+04  0.16377380767E+04  0.12699999809E+01 0. -1.
       -4    1    3    3    0  502 -0.11700345874E+04  0.38798236894E+03  0.11717261258E+03  0.12382416115E+04  0.12699999809E+01 0.  1.
</event>
<event>
 5   0  0.2528460E-05  0.2532554E+04  0.7818609E-02  0.8391479E-01
        2   -1    0    0  501    0  0.00000000000E+00  0.00000000000E+00  0.10611115002E+04  0.10611115002E+04  0.25500000920E-02 0. -1.
       -2   -1    0    0    0  501  0.00000000000E+00  0.00000000000E+00 -0.15111113235E+04  0.15111113235E+04  0.25500000920E-02 0.  1.
    10030    2    1    2    0    0  0.00000000000E+00  0.00000000000E+00 -0.44999982332E+03  0.25722228236E+04  0.25325541284E+04 0.  0.
        5    1    3    3  502    0  0.63694178371E+03  0.31482695983E+03 -0.12895706466E+04  0.14723536915E+04  0.46999998093E+01 0.  1.
       -5    1    3    3    0  502 -0.63694178371E+03 -0.31482695983E+03  0.83957082326E+03  0.10998691321E+04  0.46999998093E+01 0. -1.
</event>
<event>
 5   0  0.1005492E-05  0.2630288E+04  0.7818609E-02  0.8357985E-01
        1   -1    0    0  501    0  0.00000000000E+00  0.00000000000E+00  0.14068527644E+04  0.14068527644E+04  0.50400001928E-02 0. -1.
       -1   -1    0    0    0  501  0.00000000000E+00  0.00000000000E+00 -0.12294132782E+04  0.12294132782E+04  0.50400001928E-02 0.  1.
    10030    2    1    2    0    0  0.00000000000E+00  0.00000000000E+00  0.17743948618E+03  0.26362660427E+04  0.26302877935E+04 0.  0.
        4    1    3    3  502    0 -0.10299723545E+03 -0.65154382542E+02 -0.12237405120E+04  0.12297950958E+04  0.12699999809E+01 0.  1.
       -4    1    3    3    0  502  0.10299723545E+03  0.65154382542E+02  0.14011799982E+04  0.14064709468E+04  0.12699999809E+01 0. -1.
</event>
<event>
 5   0  0.9855352E-06  0.2640747E+04  0.7818609E-02  0.8354491E-01
       -1   -1    0    0    0  501  0.00000000000E+00  0.00000000000E+00  0.11694921472E+04  0.11694921472E+04  0.50400001928E-02 0. -1.
        1   -1    0    0  501    0  0.00000000000E+00  0.00000000000E+00 -0.14907208138E+04  0.14907208138E+04  0.50400001928E-02 0.  1.
    10030    2    1    2    0    0  0.00000000000E+00  0.00000000000E+00 -0.32122866666E+03  0.26602129610E+04  0.26407470802E+04 0.  0.
        2    1    3    3  502    0 -0.91161430705E+03  0.92647163275E+03 -0.39469751270E+03  0.13583727241E+04  0.25500000920E-02 0.  1.
       -2    1    3    3    0  502  0.91161430705E+03 -0.92647163275E+03  0.73468846047E+02  0.13018402369E+04  0.25500000920E-02 0. -1.
</event>
<event>
 5   0  0.2484618E-05  0.2602183E+04  0.7818609E-02  0.8367460E-01
       -2   -1    0    0    0  501  0.00000000000E+00  0.00000000000E+00  0.12156955694E+04  0.12156955694E+04  0.25500000920E-02 0.  1.
        2   -1    0    0  501    0  0.00000000000E+00  0.00000000000E+00 -0.13924862470E+04  0.13924862470E+04  0.25500000920E-02 0. -1.
    10030    2    1    2    0    0  0.00000000000E+00  0.00000000000E+00 -0.17679067754E+03  0.26081818164E+04  0.26021832071E+04 0.  0.
        3    1    3    3  502    0  0.52995025752E+03 -0.11551896363E+04 -0.36747746725E+03  0.13230079631E+04  0.10100000352E+00 0.  1.
       -3    1    3    3    0  502 -0.52995025752E+03  0.11551896363E+04  0.19068678971E+03  0.12851738533E+04  0.10100000352E+00 0. -1.
</event>
<event>
 5   0  0.2555801E-05  0.2604911E+04  0.7818609E-02  0.8366535E-01
       -2   -1    0    0    0  501  0.00000000000E+00  0.00000000000E+00  0.94820286652E+03  0.94820286652E+03  0.25500000920E-02 0. -1.
        2   -1    0    0  501    0  0.00000000000E+00  0.00000000000E+00 -0.17890584109E+04  0.17890584109E+04  0.25500000920E-02 0.  1.
    10030    2    1    2    0    0  0.00000000000E+00  0.00000000000E+00 -0.84085554434E+03  0.27372612774E+04  0.26049109878E+04 0.  0.
        1    1    3    3  502    0  0.53085868407E+03 -0.89104222148E+03  0.40739495406E+03  0.11143329088E+04  0.50400001928E-02 0. -1.
       -1    1    3    3    0  502 -0.53085868407E+03  0.89104222148E+03 -0.12482504984E+04  0.16229283686E+04  0.50400001928E-02 0.  1.
</event>
<event>
 5   0  0.2517854E-05  0.2631307E+04  0.7818609E-02  0.8357644E-01
        2   -1    0    0  501    0  0.00000000000E+00  0.00000000000E+00  0.15066443682E+04  0.15066443682E+04  0.25500000920E-02 0.  1.
       -2   -1    0    0    0  501  0.00000000000E+00  0.00000000000E+00 -0.11488740147E+04  0.11488740147E+04  0.25500000920E-02 0. -1.
    10030    2    1    2    0    0  0.00000000000E+00  0.00000000000E+00  0.35777035343E+03  0.26555183829E+04  0.26313073284E+04 0.  0.
        4    1    3    3  502    0  0.37793217820E+02 -0.73243440249E+03 -0.92343529511E+03  0.11792467250E+04  0.12699999809E+01 0. -1.
       -4    1    3    3    0  502 -0.37793217820E+02  0.73243440249E+03  0.12812056485E+04  0.14762716579E+04  0.12699999809E+01 0.  1.
</event>
<event>
 5   0  0.1000421E-05  0.2323698E+04  0.7818609E-02  0.8468636E-01
       -1   -1    0    0    0  501  0.00000000000E+00  0.00000000000E+00  0.69950478748E+03  0.69950478750E+03  0.50400001928E-02 0.  1.
        1   -1    0    0  501    0  0.00000000000E+00  0.00000000000E+00 -0.19297831214E+04  0.19297831214E+04  0.50400001928E-02 0. -1.
    10030    2    1    2    0    0  0.00000000000E+00  0.00000000000E+00 -0.12302783339E+04  0.26292879089E+04  0.23236975124E+04 0.  0.
        3    1    3    3  502    0  0.58576876632E+03  0.94740512361E+03 -0.24124216294E+03  0.11396926372E+04  0.10100000352E+00 0.  1.
       -3    1    3    3    0  502 -0.58576876632E+03 -0.94740512361E+03 -0.98903617095E+03  0.14895952717E+04  0.10100000352E+00 0. -1.
</event>
<event>
 5   0  0.1025153E-05  0.2624498E+04  0.7818609E-02  0.8359927E-01
       -1   -1    0    0    0  501  0.00000000000E+00  0.00000000000E+00  0.10931454075E+04  0.10931454075E+04  0.50400001928E-02 0. -1.
        1   -1    0    0  501    0  0.00000000000E+00  0.00000000000E+00 -0.15752689763E+04  0.15752689763E+04  0.50400001928E-02 0.  1.
    10030    2    1    2    0    0  0.00000000000E+00  0.00000000000E+00 -0.48212356878E+03  0.26684143838E+04  0.26244984641E+04 0.  0.
        1    1    3    3  502    0 -0.64775949005E+03  0.24024870849E+03  0.89326162723E+03  0.11292599938E+04  0.50400001928E-02 0. -1.
       -1    1    3    3    0  502  0.64775949005E+03 -0.24024870849E+03 -0.13753851960E+04  0.15391543900E+04  0.50400001928E-02 0.  1.
</event>
<event>
 5   0  0.9855352E-06  0.2593605E+04  0.7818609E-02  0.8370377E-01
        1   -1    0    0  501    0  0.00000000000E+00  0.00000000000E+00  0.15392698132E+04  0.15392698132E+04  0.50400001928E-02 0. -1.
       -1   -1    0    0    0  501  0.00000000000E+00  0.00000000000E+00 -0.10925292774E+04  0.10925292774E+04  0.50400001928E-02 0.  1.
    10030    2    1    2    0    0  0.00000000000E+00  0.00000000000E+00  0.44674053588E+03  0.26317990906E+04  0.25936054725E+04 0.  0.
        2    1    3    3  502    0  0.79672738351E+03  0.10630902744E+03  0.12560110807E+04  0.14911874355E+04  0.25500000920E-02 0. -1.
       -2    1    3    3    0  502 -0.79672738351E+03 -0.10630902744E+03 -0.80927054485E+03  0.11406116551E+04  0.25500000920E-02 0.  1.
</event>
<event>
 5   0  0.2555801E-05  0.2603528E+04  0.7818609E-02  0.8367004E-01
       -2   -1    0    0    0  501  0.00000000000E+00  0.00000000000E+00  0.96612202351E+03  0.96612202352E+03  0.25500000920E-02 0. -1.
        2   -1    0    0  501    0  0.00000000000E+00  0.00000000000E+00 -0.17540121503E+04  0.17540121503E+04  0.25500000920E-02 0.  1.
    10030    2    1    2    0    0  0.00000000000E+00  0.00000000000E+00 -0.78789012683E+03  0.27201341739E+04  0.26035281969E+04 0.  0.
        1    1    3    3  502    0  0.53656771603E+03 -0.11003958662E+04 -0.85627251337E+03  0.14939807875E+04  0.50400001928E-02 0.  1.
       -1    1    3    3    0  502 -0.53656771603E+03  0.11003958662E+04  0.68382386545E+02  0.12261533864E+04  0.50400001928E-02 0. -1.
</event>
<event>
 5   0  0.2517854E-05  0.2702787E+04  0.7818609E-02  0.8334101E-01
        2   -1    0    0  501    0  0.00000000000E+00  0.00000000000E+00  0.17612853046E+04  0.17612853046E+04  0.25500000920E-02 0.  1.
       -2   -1    0    0    0  501  0.00000000000E+00  0.00000000000E+00 -0.10368930489E+04  0.10368930489E+04  0.25500000920E-02 0. -1.
    10030    2    1    2    0    0  0.00000000000E+00  0.00000000000E+00  0.72439225573E+03  0.27981783535E+04  0.27027870722E+04 0.  0.
        4    1    3    3  502    0  0.26676345413E+03  0.34459076277E+03 -0.96215344060E+03  0.10562416345E+04  0.12699999809E+01 0. -1.
       -4    1    3    3    0  502 -0.26676345413E+03 -0.34459076277E+03  0.16865456963E+04  0.17419367190E+04  0.12699999809E+01 0.  1.
</event>
<event>
 5   0  0.1034714E-05  0.2573493E+04  0.7818609E-02  0.8377261E-01
       -1   -1    0    0    0  501  0.00000000000E+00  0.00000000000E+00  0.10585808246E+04  0.10585808247E+04  0.50400001928E-02 0.  1.
        1   -1    0    0  501    0  0.00000000000E+00  0.00000000000E+00 -0.15640911668E+04  0.15640911668E+04  0.50400001928E-02 0. -1.
    10030    2    1    2    0    0  0.00000000000E+00  0.00000000000E+00 -0.50551034216E+03  0.26226719915E+04  0.25734932813E+04 0.  0.
        5    1    3    3  502    0  0.47349731522E+03  0.98760226666E+03  0.43553019282E+03  0.11786715333E+04  0.46999998093E+01 0.  1.
       -5    1    3    3    0  502 -0.47349731522E+03 -0.98760226666E+03 -0.94104053499E+03  0.14440004581E+04  0.46999998093E+01 0. -1.
</event>
<event>
 5   0  0.2555801E-05  0.2327171E+04  0.7818609E-02  0.8467284E-01
       -2   -1    0    0    0  501  0.00000000000E+00  0.00000000000E+00  0.18804622558E+04  0.18804622558E+04  0.25500000920E-02 0.  1.
        2   -1    0    0  501    0  0.00000000000E+00  0.00000000000E+00 -0.71999931027E+03  0.71999931027E+03  0.25500000920E-02 0. -1.
    10030    2    1    2    0    0  0.00000000000E+00  0.00000000000E+00  0.11604629455E+04  0.26004615660E+04  0.23271712676E+04 0.  0.
        1    1    3    3  502    0  0.29207259991E+03 -0.79396952604E+03  0.14729473466E+04  0.16986076350E+04  0.50400001928E-02 0.  1.
       -1    1    3    3    0  502 -0.29207259991E+03  0.79396952604E+03 -0.31248440111E+03  0.90185393100E+03  0.50400001928E-02 0. -1.
</event>
<event>
 5   0  0.1000421E-05  0.2537788E+04  0.7818609E-02  0.8389646E-01
        1   -1    0    0  501    0  0.00000000000E+00  0.00000000000E+00  0.11409083684E+04  0.11409083684E+04  0.50400001928E-02 0.  1.
       -1   -1    0    0    0  501  0.00000000000E+00  0.00000000000E+00 -0.14112367511E+04  0.14112367511E+04  0.50400001928E-02 0. -1.
    10030    2    1    2    0    0  0.00000000000E+00  0.00000000000E+00 -0.27032838266E+03  0.25521451195E+04  0.25377878706E+04 0.  0.
        3    1    3    3  502    0 -0.82067280617E+03  0.33543004359E+03  0.77775707258E+03  0.11793740895E+04  0.10100000352E+00 0.  1.
       -3    1    3    3    0  502  0.82067280617E+03 -0.33543004359E+03 -0.10480854552E+04  0.13727710299E+04  0.10100000352E+00 0. -1.
</event>
<event>
 5   0  0.1034714E-05  0.2504893E+04  0.7818609E-02  0.8401245E-01
       -1   -1    0    0    0  501  0.00000000000E+00  0.00000000000E+00  0.19950179467E+04  0.19950179467E+04  0.50400001928E-02 0. -1.
        1   -1    0    0  501    0  0.00000000000E+00  0.00000000000E+00 -0.78626959435E+03  0.78626959437E+03  0.50400001928E-02 0.  1.
    10030    2    1    2    0    0  0.00000000000E+00  0.00000000000E+00  0.12087483523E+04  0.27812875411E+04  0.25048927735E+04 0.  0.
        5    1    3    3  502    0 -0.80746060116E+03  0.95627511672E+03  0.65580039734E+03  0.14129936208E+04  0.46999998093E+01 0.  1.
       -5    1    3    3    0  502  0.80746060116E+03 -0.95627511672E+03  0.55294795498E+03  0.13682939203E+04  0.46999998093E+01 0. -1.
</event>
<event>
 5   0  0.1034714E-05  0.2623851E+04  0.7818609E-02  0.8360145E-01
       -1   -1    0    0    0  501  0.00000000000E+00  0.00000000000E+00  0.91285858101E+03  0.91285858102E+03  0.50400001928E-02 0.  1.
        1   -1    0    0  501    0  0.00000000000E+00  0.00000000000E+00 -0.18854486056E+04  0.18854486056E+04  0.50400001928E-02 0. -1.
    10030    2    1    2    0    0  0.00000000000E+00  0.00000000000E+00 -0.97259002459E+03  0.27983071866E+04  0.26238505588E+04 0.  0.
        5    1    3    3  502    0  0.33073530678E+03 -0.11002209441E+04 -0.11618581031E+04  0.16339548068E+04  0.46999998093E+01 0. -1.
       -5    1    3    3    0  502 -0.33073530678E+03  0.11002209441E+04  0.18926807852E+03  0.11643523798E+04  0.46999998093E+01 0.  1.
</event>
<event>
 5   0  0.8605000E-06  0.2608045E+04  0.7818609E-02  0.8365474E-01
       -4   -1    0    0    0  501  0.00000000000E+00  0.00000000000E+00  0.13861635713E+04  0.13861641531E+04  0.12699999809E+01 0.  1.
        4   -1    0    0  501    0  0.00000000000E+00  0.00000000000E+00 -0.12267479452E+04  0.12267486026E+04  0.12699999809E+01 0. -1.
    10030    2    1    2    0    0  0.00000000000E+00  0.00000000000E+00  0.15941562607E+03  0.26129127557E+04  0.26080451927E+04 0.  0.
        4    1    3    3  502    0 -0.87009433186E+03 -0.35854371066E+03 -0.82467045605E+03  0.12512796301E+04  0.12699999809E+01 0. -1.
       -4    1    3    3    0  502  0.87009433186E+03  0.35854371066E+03  0.98408608212E+03  0.13616331256E+04  0.12699999809E+01 0.  1.
</event>
<event>
 5   0  0.2528460E-05  0.2504511E+04  0.7818609E-02  0.8401380E-01
        2   -1    0    0  501    0  0.00000000000E+00  0.00000000000E+00  0.93864229687E+03  0.93864229688E+03  0.25500000920E-02 0. -1.
       -2   -1    0    0    0  501  0.00000000000E+00  0.00000000000E+00 -0.16706508720E+04  0.16706508720E+04  0.25500000920E-02 0.  1.
    10030    2    1    2    0    0  0.00000000000E+00  0.00000000000E+00 -0.73200857513E+03  0.26092931689E+04  0.25045107880E+04 0.  0.
        5    1    3    3  502    0  0.10390669148E+04  0.25973702925E+03 -0.10419939283E+04  0.14942880627E+04  0.46999998093E+01 0.  1.
       -5    1    3    3    0  502 -0.10390669148E+04 -0.25973702925E+03  0.30998535314E+03  0.11150051062E+04  0.46999998093E+01 0. -1.
</event>
<event>
 5   0  0.2517854E-05  0.2512839E+04  0.7818609E-02  0.8398426E-01
        2   -1    0    0  501    0  0.00000000000E+00  0.00000000000E+00  0.13905234446E+04  0.13905234446E+04  0.25500000920E-02 0. -1.
       -2   -1    0    0    0  501  0.00000000000E+00  0.00000000000E+00 -0.11352484244E+04  0.11352484244E+04  0.25500000920E-02 0.  1.
    10030    2    1    2    0    0  0.00000000000E+00  0.00000000000E+00  0.25527502027E+03  0.25257718690E+04  0.25128386733E+04 0.  0.
        4    1    3    3  502    0  0.78695321613E+03  0.79271283328E+03 -0.45056130863E+03  0.12044484655E+04  0.12699999809E+01 0.  1.
       -4    1    3    3    0  502 -0.78695321613E+03 -0.79271283328E+03  0.70583632889E+03  0.13213234035E+04  0.12699999809E+01 0. -1.
</event>
<event>
 5   0  0.1025153E-05  0.2540878E+04  0.7818609E-02  0.8388566E-01
        1   -1    0    0  501    0  0.00000000000E+00  0.00000000000E+00  0.17144135638E+04  0.17144135638E+04  0.50400001928E-02 0. -1.
       -1   -1    0    0    0  501  0.00000000000E+00  0.00000000000E+00 -0.94143846080E+03  0.94143846082E+03  0.50400001928E-02 0.  1.
    10030    2    1    2    0    0  0.00000000000E+00  0.00000000000E+00  0.77297510300E+03  0.26558520246E+04  0.25408776962E+04 0.  0.
        1    1    3    3  502    0  0.11527352245E+04  0.41630439298E+03  0.73614982814E+03  0.14296938186E+04  0.50400001928E-02 0.  1.
       -1    1    3    3    0  502 -0.11527352245E+04 -0.41630439298E+03  0.36825274865E+02  0.12261582061E+04  0.50400001928E-02 0. -1.
</event>
<event>
 5   0  0.2528460E-05  0.2616566E+04  0.7818609E-02  0.8362596E-01
       -2   -1    0    0    0  501  0.00000000000E+00  0.00000000000E+00  0.13512468894E+04  0.13512468894E+04  0.25500000920E-02 0. -1.
        2   -1    0    0  501    0  0.00000000000E+00  0.00000000000E+00 -0.12666847955E+04  0.12666847955E+04  0.25500000920E-02 0.  1.
    10030    2    1    2    0    0  0.00000000000E+00  0.00000000000E+00  0.84562093995E+02  0.26179316849E+04  0.26165656038E+04 0.  0.
        5    1    3    3  502    0 -0.10633117038E+04 -0.69783402611E+03 -0.26443681612E+03  0.12990585156E+04  0.46999998093E+01 0.  1.
       -5    1    3    3    0  502  0.10633117038E+04  0.69783402611E+03  0.34899891012E+03  0.13188731693E+04  0.46999998093E+01 0. -1.
</event>
<event>
 5   0  0.1034714E-05  0.2600845E+04  0.7818609E-02  0.8367914E-01
        1   -1    0    0  501    0  0.00000000000E+00  0.00000000000E+00  0.13911612408E+04  0.13911612408E+04  0.50400001928E-02 0. -1.
       -1   -1    0    0    0  501  0.00000000000E+00  0.00000000000E+00 -0.12156023996E+04  0.12156023996E+04  0.50400001928E-02 0.  1.
    10030    2    1    2    0    0  0.00000000000E+00  0.00000000000E+00  0.17555884117E+03  0.26067636404E+04  0.26008452030E+04 0.  0.
        5    1    3    3  502    0  0.13696241341E+02 -0.12071860616E+04 -0.39663300623E+03  0.12707578864E+04  0.46999998093E+01 0. -1.
       -5    1    3    3    0  502 -0.13696241341E+02  0.12071860616E+04  0.57219184740E+03  0.13360057539E+04  0.46999998093E+01 0.  1.
</event>
<event>
 5   0  0.2484618E-05  0.2601990E+04  0.7818609E-02  0.8367526E-01
        2   -1    0    0  501    0  0.00000000000E+00  0.00000000000E+00  0.15408526399E+04  0.15408526399E+04  0.25500000920E-02 0.  1.
       -2   -1    0    0    0  501  0.00000000000E+00  0.00000000000E+00 -0.10984750241E+04  0.10984750241E+04  0.25500000920E-02 0. -1.
    10030    2    1    2    0    0  0.00000000000E+00  0.00000000000E+00  0.44237761579E+03  0.26393276641E+04  0.26019901159E+04 0.  0.
        3    1    3    3  502    0 -0.51546891535E+03 -0.93393850489E+03 -0.53423869116E+03  0.11930466558E+04  0.10100000352E+00 0. -1.
       -3    1    3    3    0  502  0.51546891535E+03  0.93393850489E+03  0.97661630695E+03  0.14462810082E+04  0.10100000352E+00 0.  1.
</event>
<event>
 5   0  0.2528460E-05  0.2360375E+04  0.7818609E-02  0.8454489E-01
        2   -1    0    0  501    0  0.00000000000E+00  0.00000000000E+00  0.15409183732E+04  0.15409183732E+04  0.25500000920E-02 0.  1.
       -2   -1    0    0    0  501  0.00000000000E+00  0.00000000000E+00 -0.90390424127E+03  0.90390424127E+03  0.25500000920E-02 0. -1.
    10030    2    1    2    0    0  0.00000000000E+00  0.00000000000E+00  0.63701413193E+03  0.24448226145E+04  0.23603750998E+04 0.  0.
        5    1    3    3  502    0 -0.11392040360E+04 -0.29788750727E+03  0.40070471455E+03  0.12438284291E+04  0.46999998093E+01 0. -1.
       -5    1    3    3    0  502  0.11392040360E+04  0.29788750727E+03  0.23630941738E+03  0.12009941854E+04  0.46999998093E+01 0.  1.
</event>
<event>
 5   0  0.1005492E-05  0.2591907E+04  0.7818609E-02  0.8370955E-01
        1   -1    0    0  501    0  0.00000000000E+00  0.00000000000E+00  0.17538137358E+04  0.17538137358E+04  0.50400001928E-02 0.  1.
       -1   -1    0    0    0  501  0.00000000000E+00  0.00000000000E+00 -0.95762481919E+03  0.95762481920E+03  0.50400001928E-02 0. -1.
    10030    2    1    2    0    0  0.00000000000E+00  0.00000000000E+00  0.79618891663E+03  0.27114385550E+04  0.25919070675E+04 0.  0.
        4    1    3    3  502    0 -0.35147078628E+03 -0.10837966384E+04  0.10441064130E+04  0.15454147281E+04  0.12699999809E+01 0.  1.
       -4    1    3    3    0  502  0.35147078628E+03  0.10837966384E+04 -0.24791749640E+03  0.11660238270E+04  0.12699999809E+01 0. -1.
</event>
<event>
 5   0  0.2484618E-05  0.2599428E+04  0.7818609E-02  0.8368396E-01
        2   -1    0    0  501    0  0.00000000000E+00  0.00000000000E+00  0.16970127841E+04  0.16970127841E+04  0.25500000920E-02 0.  1.
       -2   -1    0    0    0  501  0.00000000000E+00  0.00000000000E+00 -0.99542939733E+03  0.99542939733E+03  0.25500000920E-02 0. -1.
    10030    2    1    2    0    0  0.00000000000E+00  0.00000000000E+00  0.70158338681E+03  0.26924421815E+04  0.25994279471E+04 0.  0.
        3    1    3    3  502    0 -0.59271829742E+03  0.11154378204E+04  0.66791694534E+03  0.14288560345E+04  0.10100000352E+00 0. -1.
       -3    1    3    3    0  502  0.59271829742E+03 -0.11154378204E+04  0.33666441474E+02  0.12635861470E+04  0.10100000352E+00 0.  1.
</event>
<event>
 5   0  0.2662024E-05  0.2612422E+04  0.7818609E-02  0.8363994E-01
        2   -1    0    0  501    0  0.00000000000E+00  0.00000000000E+00  0.14575934382E+04  0.14575934382E+04  0.25500000920E-02 0.  1.
       -2   -1    0    0    0  501  0.00000000000E+00  0.00000000000E+00 -0.11705508207E+04  0.11705508207E+04  0.25500000920E-02 0. -1.
    10030    2    1    2    0    0  0.00000000000E+00  0.00000000000E+00  0.28704261748E+03  0.26281442589E+04  0.26124220144E+04 0.  0.
        2    1    3    3  502    0  0.11160555940E+04  0.46357699930E+03 -0.35514670493E+03  0.12596082348E+04  0.25500000920E-02 0.  1.
       -2    1    3    3    0  502 -0.11160555940E+04 -0.46357699930E+03  0.64218932241E+03  0.13685360240E+04  0.25500000920E-02 0. -1.
</event>
<event>
 5   0  0.2517854E-05  0.2641780E+04  0.7818609E-02  0.8354146E-01
        2   -1    0    0  501    0  0.00000000000E+00  0.00000000000E+00  0.10692185470E+04  0.10692185470E+04  0.25500000920E-02 0. -1.
       -2   -1    0    0    0  501  0.00000000000E+00  0.00000000000E+00 -0.16317997175E+04  0.16317997175E+04  0.25500000920E-02 0.  1.
    10030    2    1    2    0    0  0.00000000000E+00  0.00000000000E+00 -0.56258117059E+03  0.27010182645E+04  0.26417800990E+04 0.  0.
        4    1    3    3  502    0  0.83700875489E+03  0.66490980902E+03 -0.10746149927E+04  0.15157465835E+04  0.12699999809E+01 0.  1.
       -4    1    3    3    0  502 -0.83700875489E+03 -0.66490980902E+03  0.51203382213E+03  0.11852716810E+04  0.12699999809E+01 0. -1.
</event>
<event>
 5   0  0.2528460E-05  0.2560074E+04  0.7818609E-02  0.8381891E-01
        2   -1    0    0  501    0  0.00000000000E+00  0.00000000000E+00  0.14926269736E+04  0.14926269736E+04  0.25500000920E-02 0.  1.
       -2   -1    0    0    0  501  0.00000000000E+00  0.00000000000E+00 -0.10977259354E+04  0.10977259354E+04  0.25500000920E-02 0. -1.
    10030    2    1    2    0    0  0.00000000000E+00  0.00000000000E+00  0.39490103816E+03  0.25903529090E+04  0.25600744839E+04 0.  0.
        5    1    3    3  502    0  0.61545738423E+03 -0.20211245489E+03 -0.91961584355E+03  0.11248789383E+04  0.46999998093E+01 0. -1.
       -5    1    3    3    0  502 -0.61545738423E+03  0.20211245489E+03  0.13145168817E+04  0.14654739706E+04  0.46999998093E+01 0.  1.
</event>
<event>
 5   0  0.2555801E-05  0.2466020E+04  0.7818609E-02  0.8415192E-01
       -2   -1    0    0    0  501  0.00000000000E+00  0.00000000000E+00  0.19881688892E+04  0.19881688892E+04  0.25500000920E-02 0.  1.
        2   -1    0    0  501    0  0.00000000000E+00  0.00000000000E+00 -0.76468054951E+03  0.76468054952E+03  0.25500000920E-02 0. -1.
    10030    2    1    2    0    0  0.00000000000E+00  0.00000000000E+00  0.12234883397E+04  0.27528494387E+04  0.24660203395E+04 0.  0.
        1    1    3    3  502    0  0.15198132462E+03  0.91855481230E+03 -0.29065682771E+03  0.97535770759E+03  0.50400001928E-02 0. -1.
       -1    1    3    3    0  502 -0.15198132462E+03 -0.91855481230E+03  0.15141451674E+04  0.17774917312E+04  0.50400001928E-02 0.  1.
</event>
<event>
 5   0  0.2555801E-05  0.2619421E+04  0.7818609E-02  0.8361634E-01
       -2   -1    0    0    0  501  0.00000000000E+00  0.00000000000E+00  0.80856372948E+03  0.80856372949E+03  0.25500000920E-02 0. -1.
        2   -1    0    0  501    0  0.00000000000E+00  0.00000000000E+00 -0.21214673025E+04  0.21214673025E+04  0.25500000920E-02 0.  1.
    10030    2    1    2    0    0  0.00000000000E+00  0.00000000000E+00 -0.13129035730E+04  0.29300310320E+04  0.26194209391E+04 0.  0.
        1    1    3    3  502    0  0.11715333419E+04 -0.28448135954E+02 -0.22578021310E+01  0.11718808665E+04  0.50400001928E-02 0. -1.
       -1    1    3    3    0  502 -0.11715333419E+04  0.28448135954E+02 -0.13106457709E+04  0.17581501655E+04  0.50400001928E-02 0.  1.
</event>
<event>
 5   0  0.1025153E-05  0.2608769E+04  0.7818609E-02  0.8365229E-01
        1   -1    0    0  501    0  0.00000000000E+00  0.00000000000E+00  0.16309390150E+04  0.16309390150E+04  0.50400001928E-02 0. -1.
       -1   -1    0    0    0  501  0.00000000000E+00  0.00000000000E+00 -0.10432145374E+04  0.10432145374E+04  0.50400001928E-02 0.  1.
    10030    2    1    2    0    0  0.00000000000E+00  0.00000000000E+00  0.58772447757E+03  0.26741535524E+04  0.26087692808E+04 0.  0.
        1    1    3    3  502    0  0.39272015835E+03  0.11372194022E+04  0.81039872540E+03  0.14506009740E+04  0.50400001928E-02 0. -1.
       -1    1    3    3    0  502 -0.39272015835E+03 -0.11372194022E+04 -0.22267424783E+03  0.12235525785E+04  0.50400001928E-02 0.  1.
</event>
<event>
 5   0  0.9855352E-06  0.2684025E+04  0.7818609E-02  0.8340207E-01
        1   -1    0    0  501    0  0.00000000000E+00  0.00000000000E+00  0.12179956746E+04  0.12179956747E+04  0.50400001928E-02 0.  1.
       -1   -1    0    0    0  501  0.00000000000E+00  0.00000000000E+00 -0.14786568147E+04  0.14786568147E+04  0.50400001928E-02 0. -1.
    10030    2    1    2    0    0  0.00000000000E+00  0.00000000000E+00 -0.26066114009E+03  0.26966524894E+04  0.26840250406E+04 0.  0.
        2    1    3    3  502    0  0.21459187254E+02  0.13054638583E+04  0.18145378640E+03  0.13181888554E+04  0.25500000920E-02 0. -1.
       -2    1    3    3    0  502 -0.21459187254E+02 -0.13054638583E+04 -0.44211492649E+03  0.13784636340E+04  0.25500000920E-02 0.  1.
</event>
<event>
 5   0  0.2555801E-05  0.2615725E+04  0.7818609E-02  0.8362879E-01
        2   -1    0    0  501    0  0.00000000000E+00  0.00000000000E+00  0.20507298921E+04  0.20507298921E+04  0.25500000920E-02 0.  1.
       -2   -1    0    0    0  501  0.00000000000E+00  0.00000000000E+00 -0.83409559571E+03  0.83409559572E+03  0.25500000920E-02 0. -1.
    10030    2    1    2    0    0  0.00000000000E+00  0.00000000000E+00  0.12166342964E+04  0.28848254878E+04  0.26157253457E+04 0.  0.
        1    1    3    3  502    0  0.12774713961E+04  0.15691203094E+03  0.86448463425E+03  0.15504477535E+04  0.50400001928E-02 0. -1.
       -1    1    3    3    0  502 -0.12774713961E+04 -0.15691203094E+03  0.35214966214E+03  0.13343777344E+04  0.50400001928E-02 0.  1.
</event>
<event>
 5   0  0.1000421E-05  0.2293651E+04  0.7818609E-02  0.8480429E-01
        1   -1    0    0  501    0  0.00000000000E+00  0.00000000000E+00  0.22521755255E+04  0.22521755255E+04  0.50400001928E-02 0. -1.
       -1   -1    0    0    0  501  0.00000000000E+00  0.00000000000E+00 -0.58397245300E+03  0.58397245302E+03  0.50400001928E-02 0.  1.
    10030    2    1    2    0    0  0.00000000000E+00  0.00000000000E+00  0.16682030725E+04  0.28361479785E+04  0.22936507722E+04 0.  0.
        3    1    3    3  502    0  0.86972781161E+03 -0.25632528943E+03 -0.34178857151E+02  0.90735733025E+03  0.10100000352E+00 0.  1.
       -3    1    3    3    0  502 -0.86972781161E+03  0.25632528943E+03  0.17023819296E+04  0.19287906482E+04  0.10100000352E+00 0. -1.
</event>
<event>
 5   0  0.2528460E-05  0.2612282E+04  0.7818609E-02  0.8364041E-01
       -2   -1    0    0    0  501  0.00000000000E+00  0.00000000000E+00  0.27535765117E+04  0.27535765117E+04  0.25500000920E-02 0.  1.
        2   -1    0    0  501    0  0.00000000000E+00  0.00000000000E+00 -0.61955925321E+03  0.61955925322E+03  0.25500000920E-02 0. -1.
    10030    2    1    2    0    0  0.00000000000E+00  0.00000000000E+00  0.21340172585E+04  0.33731357650E+04  0.26122816137E+04 0.  0.
        5    1    3    3  502    0  0.93474603312E+03  0.26945356243E+03 -0.58409321218E+02  0.97457124293E+03  0.46999998093E+01 0. -1.
       -5    1    3    3    0  502 -0.93474603312E+03 -0.26945356243E+03  0.21924265798E+04  0.23985645220E+04  0.46999998093E+01 0.  1.
</event>
<event>
 5   0  0.1000421E-05  0.2519335E+04  0.7818609E-02  0.8396129E-01
       -1   -1    0    0    0  501  0.00000000000E+00  0.00000000000E+00  0.11696780614E+04  0.11696780614E+04  0.50400001928E-02 0. -1.
        1   -1    0    0  501    0  0.00000000000E+00  0.00000000000E+00 -0.13565807843E+04  0.13565807843E+04  0.50400001928E-02 0.  1.
    10030    2    1    2    0    0  0.00000000000E+00  0.00000000000E+00 -0.18690272285E+03  0.25262588457E+04  0.25193354536E+04 0.  0.
        3    1    3    3  502    0  0.52001111197E+03 -0.91192777482E+03  0.60469392010E+03  0.12114778456E+04  0.10100000352E+00 0. -1.
       -3    1    3    3    0  502 -0.52001111197E+03  0.91192777482E+03 -0.79159664294E+03  0.13147810002E+04  0.10100000352E+00 0.  1.
</event>
<event>
 5   0  0.2662024E-05  0.2595573E+04  0.7818609E-02  0.8369707E-01
       -2   -1    0    0    0  501  0.00000000000E+00  0.00000000000E+00  0.14465930700E+04  0.14465930700E+04  0.25500000920E-02 0. -1.
        2   -1    0    0  501    0  0.00000000000E+00  0.00000000000E+00 -0.11642867609E+04  0.11642867609E+04  0.25500000920E-02 0.  1.
    10030    2    1    2    0    0  0.00000000000E+00  0.00000000000E+00  0.28230630909E+03  0.26108798308E+04  0.25955725070E+04 0.  0.
        2    1    3    3  502    0 -0.42694127592E+03 -0.99920546618E+03 -0.57265053487E+03  0.12282585444E+04  0.25500000920E-02 0.  1.
       -2    1    3    3    0  502  0.42694127592E+03  0.99920546618E+03  0.85495684396E+03  0.13826212865E+04  0.25500000920E-02 0. -1.
</event>
<event>
 5   0  0.1005492E-05  0.2349581E+04  0.7818609E-02  0.8458624E-01
       -1   -1    0    0    0  501  0.00000000000E+00  0.00000000000E+00  0.13045083985E+04  0.13045083985E+04  0.50400001928E-02 0. -1.
        1   -1    0    0  501    0  0.00000000000E+00  0.00000000000E+00 -0.10579717685E+04  0.10579717685E+04  0.50400001928E-02 0.  1.
    10030    2    1    2    0    0  0.00000000000E+00  0.00000000000E+00  0.24653663004E+03  0.23624801670E+04  0.23495812881E+04 0.  0.
        4    1    3    3  502    0 -0.33383799725E+03 -0.97528687779E+01  0.12557679860E+04  0.12994220925E+04  0.12699999809E+01 0. -1.
       -4    1    3    3    0  502  0.33383799725E+03  0.97528687779E+01 -0.10092313560E+04  0.10630580745E+04  0.12699999809E+01 0.  1.
</event>
<event>
 5   0  0.1034714E-05  0.2571216E+04  0.7818609E-02  0.8378045E-01
       -1   -1    0    0    0  501  0.00000000000E+00  0.00000000000E+00  0.13623898011E+04  0.13623898011E+04  0.50400001928E-02 0.  1.
        1   -1    0    0  501    0  0.00000000000E+00  0.00000000000E+00 -0.12131533411E+04  0.12131533411E+04  0.50400001928E-02 0. -1.
    10030    2    1    2    0    0  0.00000000000E+00  0.00000000000E+00  0.14923646004E+03  0.25755431422E+04  0.25712158517E+04 0.  0.
        5    1    3    3  502    0 -0.80029034602E+03  0.58702682126E+02  0.10807263842E+04  0.13460691849E+04  0.46999998093E+01 0.  1.
       -5    1    3    3    0  502  0.80029034602E+03 -0.58702682126E+02 -0.93148992420E+03  0.12294739573E+04  0.46999998093E+01 0. -1.
</event>
<event>
 5   0  0.1025153E-05  0.2448181E+04  0.7818609E-02  0.8421682E-01
        1   -1    0    0  501    0  0.00000000000E+00  0.00000000000E+00  0.17499544992E+04  0.17499544992E+04  0.50400001928E-02 0.  1.
       -1   -1    0    0    0  501  0.00000000000E+00  0.00000000000E+00 -0.85624953797E+03  0.85624953798E+03  0.50400001928E-02 0. -1.
    10030    2    1    2    0    0  0.00000000000E+00  0.00000000000E+00  0.89370496127E+03  0.26062040372E+04  0.24481811465E+04 0.  0.
        1    1    3    3  502    0  0.23989742373E+03 -0.11981441733E+04  0.36937058376E+03  0.12765323584E+04  0.50400001928E-02 0.  1.
       -1    1    3    3    0  502 -0.23989742373E+03  0.11981441733E+04  0.52433437750E+03  0.13296716788E+04  0.50400001928E-02 0. -1.
</event>
<event>
 5   0  0.9855352E-06  0.2584015E+04  0.7818609E-02  0.8373651E-01
        1   -1    0    0  501    0  0.00000000000E+00  0.00000000000E+00  0.13442892101E+04  0.13442892102E+04  0.50400001928E-02 0.  1.
       -1   -1    0    0    0  501  0.00000000000E+00  0.00000000000E+00 -0.12417594744E+04  0.12417594744E+04  0.50400001928E-02 0. -1.
    10030    2    1    2    0    0  0.00000000000E+00  0.00000000000E+00  0.10252973578E+03  0.25860486845E+04  0.25840153738E+04 0.  0.
        2    1    3    3  502    0 -0.62002725126E+03  0.15245029103E+03  0.11753623864E+04  0.13375917250E+04  0.25500000920E-02 0.  1.
       -2    1    3    3    0  502  0.62002725126E+03 -0.15245029103E+03 -0.10728326506E+04  0.12484569595E+04  0.25500000920E-02 0. -1.
</event>
<event>
 5   0  0.2484618E-05  0.2550850E+04  0.7818609E-02  0.8385090E-01
       -2   -1    0    0    0  501  0.00000000000E+00  0.00000000000E+00  0.13439683528E+04  0.13439683528E+04  0.25500000920E-02 0.  1.
        2   -1    0    0  501    0  0.00000000000E+00  0.00000000000E+00 -0.12103777805E+04  0.12103777805E+04  0.25500000920E-02 0. -1.
    10030    2    1    2    0    0  0.00000000000E+00  0.00000000000E+00  0.13359057233E+03  0.25543461332E+04  0.25508503930E+04 0.  0.
        3    1    3    3  502    0 -0.10615222835E+04 -0.15513260575E+02  0.77461558326E+03  0.13141915887E+04  0.10100000352E+00 0.  1.
       -3    1    3    3    0  502  0.10615222835E+04  0.15513260575E+02 -0.64102501093E+03  0.12401545446E+04  0.10100000352E+00 0. -1.
</event>
<event>
 5   0  0.2555801E-05  0.2615323E+04  0.7818609E-02  0.8363015E-01
       -2   -1    0    0    0  501  0.00000000000E+00  0.00000000000E+00  0.66707143024E+03  0.66707143025E+03  0.25500000920E-02 0. -1.
        2   -1    0    0  501    0  0.00000000000E+00  0.00000000000E+00 -0.25634122502E+04  0.25634122502E+04  0.25500000920E-02 0.  1.
    10030    2    1    2    0    0  0.00000000000E+00  0.00000000000E+00 -0.18963408199E+04  0.32304836804E+04  0.26153233651E+04 0.  0.
        1    1    3    3  502    0  0.36873351013E+03 -0.11578719990E+04 -0.15448530045E+04  0.19655031857E+04  0.50400001928E-02 0.  1.
       -1    1    3    3    0  502 -0.36873351013E+03  0.11578719990E+04 -0.35148781544E+03  0.12649804947E+04  0.50400001928E-02 0. -1.
</event>
<event>
 5   0  0.9855352E-06  0.2645889E+04  0.7818609E-02  0.8352779E-01
        1   -1    0    0  501    0  0.00000000000E+00  0.00000000000E+00  0.12298929648E+04  0.12298929649E+04  0.50400001928E-02 0.  1.
       -1   -1    0    0    0  501  0.00000000000E+00  0.00000000000E+00 -0.14230358399E+04  0.14230358399E+04  0.50400001928E-02 0. -1.
    10030    2    1    2    0    0  0.00000000000E+00  0.00000000000E+00 -0.19314287505E+03  0.26529288048E+04  0.26458887114E+04 0.  0.
        2    1    3    3  502    0 -0.10140426597E+04 -0.76358896105E+03 -0.47016336560E+03  0.13536632548E+04  0.25500000920E-02 0.  1.
       -2    1    3    3    0  502  0.10140426597E+04  0.76358896105E+03  0.27702049055E+03  0.12992655499E+04  0.25500000920E-02 0. -1.
</event>
<event>
 5   0  0.1005492E-05  0.2603500E+04  0.7818609E-02  0.8367013E-01
       -1   -1    0    0    0  501  0.00000000000E+00  0.00000000000E+00  0.90266738174E+03  0.90266738175E+03  0.50400001928E-02 0.  1.
        1   -1    0    0  501    0  0.00000000000E+00  0.00000000000E+00 -0.18772734208E+04  0.18772734208E+04  0.50400001928E-02 0. -1.
    10030    2    1    2    0    0  0.00000000000E+00  0.00000000000E+00 -0.97460603902E+03  0.27799408025E+04  0.26035003235E+04 0.  0.
        4    1    3    3  502    0  0.95350684824E+03  0.66404059726E+03 -0.11139548078E+04  0.16096652295E+04  0.12699999809E+01 0. -1.
       -4    1    3    3    0  502 -0.95350684824E+03 -0.66404059726E+03  0.13934876878E+03  0.11702755730E+04  0.12699999809E+01 0.  1.
</event>
<event>
 5   0  0.1000421E-05  0.2599119E+04  0.7818609E-02  0.8368500E-01
        1   -1    0    0  501    0  0.00000000000E+00  0.00000000000E+00  0.17852183261E+04  0.17852183261E+04  0.50400001928E-02 0.  1.
       -1   -1    0    0    0  501  0.00000000000E+00  0.00000000000E+00 -0.94602155235E+03  0.94602155236E+03  0.50400001928E-02 0. -1.
    10030    2    1    2    0    0  0.00000000000E+00  0.00000000000E+00  0.83919677375E+03  0.27312398785E+04  0.25991190909E+04 0.  0.
        3    1    3    3  502    0  0.58843026253E+03 -0.38705051032E+03  0.15672680073E+04  0.17182512296E+04  0.10100000352E+00 0.  1.
       -3    1    3    3    0  502 -0.58843026253E+03  0.38705051032E+03 -0.72807123350E+03  0.10129886488E+04  0.10100000352E+00 0. -1.
</event>
<event>
 5   0  0.1005492E-05  0.2466158E+04  0.7818609E-02  0.8415142E-01
       -1   -1    0    0    0  501  0.00000000000E+00  0.00000000000E+00  0.15084319302E+04  0.15084319302E+04  0.50400001928E-02 0.  1.
        1   -1    0    0  501    0  0.00000000000E+00  0.00000000000E+00 -0.10079892871E+04  0.10079892871E+04  0.50400001928E-02 0. -1.
    10030    2    1    2    0    0  0.00000000000E+00  0.00000000000E+00  0.50044264306E+03  0.25164212173E+04  0.24661575180E+04 0.  0.
        4    1    3    3  502    0 -0.10726321591E+04 -0.27873655969E+02  0.87019427078E+03  0.13815051109E+04  0.12699999809E+01 0.  1.
       -4    1    3    3    0  502  0.10726321591E+04  0.27873655969E+02 -0.36975162771E+03  0.11349161064E+04  0.12699999809E+01 0. -1.
</event>
<event>
 5   0  0.2662024E-05  0.2565584E+04  0.7818609E-02  0.8379986E-01
        2   -1    0    0  501    0  0.00000000000E+00  0.00000000000E+00  0.14202113249E+04  0.14202113249E+04  0.25500000920E-02 0. -1.
       -2   -1    0    0    0  501  0.00000000000E+00  0.00000000000E+00 -0.11586694900E+04  0.11586694900E+04  0.25500000920E-02 0.  1.
    10030    2    1    2    0    0  0.00000000000E+00  0.00000000000E+00  0.26154183496E+03  0.25788808149E+04  0.25655841686E+04 0.  0.
        2    1    3    3  502    0  0.76968512337E+03 -0.94402076221E+03  0.53530562053E+03  0.13304670218E+04  0.25500000920E-02 0. -1.
       -2    1    3    3    0  502 -0.76968512337E+03  0.94402076221E+03 -0.27376378557E+03  0.12484137931E+04  0.25500000920E-02 0.  1.
</event>
<event>
 5   0  0.2555801E-05  0.2650866E+04  0.7818609E-02  0.8351126E-01
       -2   -1    0    0    0  501  0.00000000000E+00  0.00000000000E+00  0.89909089092E+03  0.89909089092E+03  0.25500000920E-02 0.  1.
        2   -1    0    0  501    0  0.00000000000E+00  0.00000000000E+00 -0.19539436000E+04  0.19539436000E+04  0.25500000920E-02 0. -1.
    10030    2    1    2    0    0  0.00000000000E+00  0.00000000000E+00 -0.10548527091E+04  0.28530344910E+04  0.26508661922E+04 0.  0.
        1    1    3    3  502    0  0.42973320454E+03  0.61860245075E+03 -0.17012132516E+04  0.18605015847E+04  0.50400001928E-02 0. -1.
       -1    1    3    3    0  502 -0.42973320454E+03 -0.61860245075E+03  0.64636054248E+03  0.99253290628E+03  0.50400001928E-02 0.  1.
</event>
<event>
 5   0  0.1025153E-05  0.2424053E+04  0.7818609E-02  0.8430553E-01
        1   -1    0    0  501    0  0.00000000000E+00  0.00000000000E+00  0.20328892647E+04  0.20328892647E+04  0.50400001928E-02 0.  1.
       -1   -1    0    0    0  501  0.00000000000E+00  0.00000000000E+00 -0.72262107927E+03  0.72262107929E+03  0.50400001928E-02 0. -1.
    10030    2    1    2    0    0  0.00000000000E+00  0.00000000000E+00  0.13102681855E+04  0.27555103440E+04  0.24240533282E+04 0.  0.
        1    1    3    3  502    0 -0.38227568460E+03  0.10425540605E+04  0.10296202035E+03  0.11151927393E+04  0.50400001928E-02 0. -1.
       -1    1    3    3    0  502  0.38227568460E+03 -0.10425540605E+04  0.12073061651E+04  0.16403176047E+04  0.50400001928E-02 0.  1.
</event>
<event>
 5   0  0.2662024E-05  0.2612746E+04  0.7818609E-02  0.8363884E-01
        2   -1    0    0  501    0  0.00000000000E+00  0.00000000000E+00  0.22006283292E+04  0.22006283292E+04  0.25500000920E-02 0. -1.
       -2   -1    0    0    0  501  0.00000000000E+00  0.00000000000E+00 -0.77551060819E+03  0.77551060820E+03  0.25500000920E-02 0.  1.
    10030    2    1    2    0    0  0.00000000000E+00  0.00000000000E+00  0.14251177210E+04  0.29761389374E+04  0.26127461522E+04 0.  0.
        2    1    3    3  502    0  0.47757537770E+03 -0.93339382725E+03 -0.17512966508E+03  0.10630017299E+04  0.25500000920E-02 0.  1.
       -2    1    3    3    0  502 -0.47757537770E+03  0.93339382725E+03  0.16002473861E+04  0.19131372075E+04  0.25500000920E-02 0. -1.
</event>
<event>
 5   0  0.1000421E-05  0.2525377E+04  0.7818609E-02  0.8394000E-01
       -1   -1    0    0    0  501  0.00000000000E+00  0.00000000000E+00  0.11139728448E+04  0.11139728448E+04  0.50400001928E-02 0. -1.
        1   -1    0    0  501    0  0.00000000000E+00  0.00000000000E+00 -0.14312581362E+04  0.14312581362E+04  0.50400001928E-02 0.  1.
    10030    2    1    2    0    0  0.00000000000E+00  0.00000000000E+00 -0.31728529145E+03  0.25452309810E+04  0.25253773561E+04 0.  0.
        3    1    3    3  502    0 -0.58335738463E+03  0.11198167150E+04 -0.16806354638E+03  0.12737898881E+04  0.10100000352E+00 0. -1.
       -3    1    3    3    0  502  0.58335738463E+03 -0.11198167150E+04 -0.14922174506E+03  0.12714410929E+04  0.10100000352E+00 0.  1.
</event>
<event>
 5   0  0.2555801E-05  0.2601245E+04  0.7818609E-02  0.8367778E-01
       -2   -1    0    0    0  501  0.00000000000E+00  0.00000000000E+00  0.62084010563E+03  0.62084010563E+03  0.25500000920E-02 0.  1.
        2   -1    0    0  501    0  0.00000000000E+00  0.00000000000E+00 -0.27247258185E+04  0.27247258185E+04  0.25500000920E-02 0. -1.
    10030    2    1    2    0    0  0.00000000000E+00  0.00000000000E+00 -0.21038857129E+04  0.33455659241E+04  0.26012451365E+04 0.  0.
        1    1    3    3  502    0  0.26226639287E+03  0.77003728758E+03 -0.23571552743E+04  0.24935761614E+04  0.50400001928E-02 0. -1.
       -1    1    3    3    0  502 -0.26226639287E+03 -0.77003728758E+03  0.25326956147E+03  0.85198976278E+03  0.50400001928E-02 0.  1.
</event>
<event>
 5   0  0.1000421E-05  0.2593399E+04  0.7818609E-02  0.8370447E-01
        1   -1    0    0  501    0  0.00000000000E+00  0.00000000000E+00  0.19772778154E+04  0.19772778154E+04  0.50400001928E-02 0. -1.
       -1   -1    0    0    0  501  0.00000000000E+00  0.00000000000E+00 -0.85037595010E+03  0.85037595011E+03  0.50400001928E-02 0.  1.
    10030    2    1    2    0    0  0.00000000000E+00  0.00000000000E+00  0.11269018653E+04  0.28276537655E+04  0.25933989287E+04 0.  0.
        3    1    3    3  502    0  0.50503790344E+03 -0.35905181969E+03 -0.67849269581E+03  0.91887640170E+03  0.10100000352E+00 0.  1.
       -3    1    3    3    0  502 -0.50503790344E+03  0.35905181969E+03  0.18053945611E+04  0.19087773638E+04  0.10100000352E+00 0. -1.
</event>
<event>
 5   0  0.2528460E-05  0.2553526E+04  0.7818609E-02  0.8384161E-01
       -2   -1    0    0    0  501  0.00000000000E+00  0.00000000000E+00  0.15036368198E+04  0.15036368198E+04  0.25500000920E-02 0.  1.
        2   -1    0    0  501    0  0.00000000000E+00  0.00000000000E+00 -0.10841205378E+04  0.10841205378E+04  0.25500000920E-02 0. -1.
    10030    2    1    2    0    0  0.00000000000E+00  0.00000000000E+00  0.41951628197E+03  0.25877573576E+04  0.25535258430E+04 0.  0.
        5    1    3    3  502    0  0.74356368659E+03 -0.81394757474E+03  0.86236604894E+03  0.13996767137E+04  0.46999998093E+01 0.  1.
       -5    1    3    3    0  502 -0.74356368659E+03  0.81394757474E+03 -0.44284976697E+03  0.11880806440E+04  0.46999998093E+01 0. -1.
</event>
<event>
 5   0  0.2555801E-05  0.2615503E+04  0.7818609E-02  0.8362954E-01
       -2   -1    0    0    0  501  0.00000000000E+00  0.00000000000E+00  0.77726854548E+03  0.77726854548E+03  0.25500000920E-02 0. -1.
        2   -1    0    0  501    0  0.00000000000E+00  0.00000000000E+00 -0.22002863433E+04  0.22002863433E+04  0.25500000920E-02 0.  1.
    10030    2    1    2    0    0  0.00000000000E+00  0.00000000000E+00 -0.14230177978E+04  0.29775548888E+04  0.26155025259E+04 0.  0.
        1    1    3    3  502    0 -0.10525153580E+02  0.20759304705E+03  0.75834252358E+03  0.78631357303E+03  0.50400001928E-02 0. -1.
       -1    1    3    3    0  502  0.10525153580E+02 -0.20759304705E+03 -0.21813603214E+04  0.21912413158E+04  0.50400001928E-02 0.  1.
</event>
<event>
 5   0  0.9855352E-06  0.2519645E+04  0.7818609E-02  0.8396020E-01
        1   -1    0    0  501    0  0.00000000000E+00  0.00000000000E+00  0.19871570499E+04  0.19871570499E+04  0.50400001928E-02 0.  1.
       -1   -1    0    0    0  501  0.00000000000E+00  0.00000000000E+00 -0.79870508551E+03  0.79870508553E+03  0.50400001928E-02 0. -1.
    10030    2    1    2    0    0  0.00000000000E+00  0.00000000000E+00  0.11884519644E+04  0.27858621354E+04  0.25196447698E+04 0.  0.
        2    1    3    3  502    0  0.26166202056E+03  0.12216769689E+04  0.77316077157E+03  0.14692648529E+04  0.25500000920E-02 0.  1.
       -2    1    3    3    0  502 -0.26166202056E+03 -0.12216769689E+04  0.41529119280E+03  0.13165972825E+04  0.25500000920E-02 0. -1.
</event>
<event>
 5   0  0.2662024E-05  0.2523648E+04  0.7818609E-02  0.8394609E-01
       -2   -1    0    0    0  501  0.00000000000E+00  0.00000000000E+00  0.87588597076E+03  0.87588597076E+03  0.25500000920E-02 0.  1.
        2   -1    0    0  501    0  0.00000000000E+00  0.00000000000E+00 -0.18178157017E+04  0.18178157017E+04  0.25500000920E-02 0. -1.
    10030    2    1    2    0    0  0.00000000000E+00  0.00000000000E+00 -0.94192973098E+03  0.26937016725E+04  0.25236475749E+04 0.  0.
        2    1    3    3  502    0 -0.21755563322E+03 -0.65473928090E+03  0.65672307869E+03  0.95252253600E+03  0.25500000920E-02 0.  1.
       -2    1    3    3    0  502  0.21755563322E+03  0.65473928090E+03 -0.15986528097E+04  0.17411791365E+04  0.25500000920E-02 0. -1.
</event>
<event>
 5   0  0.2555801E-05  0.2886618E+04  0.7818609E-02  0.8276870E-01
        2   -1    0    0  501    0  0.00000000000E+00  0.00000000000E+00  0.21325135996E+04  0.21325135996E+04  0.25500000920E-02 0.  1.
       -2   -1    0    0    0  501  0.00000000000E+00  0.00000000000E+00 -0.97684786218E+03  0.97684786218E+03  0.25500000920E-02 0. -1.
    10030    2    1    2    0    0  0.00000000000E+00  0.00000000000E+00  0.11556657374E+04  0.31093614618E+04  0.28866183335E+04 0.  0.
        1    1    3    3  502    0  0.98810801657E+03 -0.24511327498E+03  0.16798634831E+04  0.19642757678E+04  0.50400001928E-02 0.  1.
       -1    1    3    3    0  502 -0.98810801657E+03  0.24511327498E+03 -0.52419774570E+03  0.11450856940E+04  0.50400001928E-02 0. -1.
</event>
<event>
 5   0  0.9855352E-06  0.2605305E+04  0.7818609E-02  0.8366401E-01
       -1   -1    0    0    0  501  0.00000000000E+00  0.00000000000E+00  0.12359981098E+04  0.12359981098E+04  0.50400001928E-02 0.  1.
        1   -1    0    0  501    0  0.00000000000E+00  0.00000000000E+00 -0.13729012737E+04  0.13729012737E+04  0.50400001928E-02 0. -1.
    10030    2    1    2    0    0  0.00000000000E+00  0.00000000000E+00 -0.13690316390E+03  0.26088993834E+04  0.26053048798E+04 0.  0.
        2    1    3    3  502    0 -0.47607638509E+03 -0.11768333234E+04  0.22404383720E+03  0.12891008636E+04  0.25500000920E-02 0.  1.
       -2    1    3    3    0  502  0.47607638509E+03  0.11768333234E+04 -0.36094700110E+03  0.13197985199E+04  0.25500000920E-02 0. -1.
</event>
<event>
 5   0  0.1005492E-05  0.2533494E+04  0.7818609E-02  0.8391149E-01
        1   -1    0    0  501    0  0.00000000000E+00  0.00000000000E+00  0.21012603100E+04  0.21012603100E+04  0.50400001928E-02 0. -1.
       -1   -1    0    0    0  501  0.00000000000E+00  0.00000000000E+00 -0.76366006804E+03  0.76366006806E+03  0.50400001928E-02 0.  1.
    10030    2    1    2    0    0  0.00000000000E+00  0.00000000000E+00  0.13376002419E+04  0.28649203781E+04  0.25334944968E+04 0.  0.
        4    1    3    3  502    0  0.48196130395E+02 -0.10052956488E+04  0.15386516405E+04  0.18385844261E+04  0.12699999809E+01 0. -1.
       -4    1    3    3    0  502 -0.48196130395E+02  0.10052956488E+04 -0.20105139853E+03  0.10263359519E+04  0.12699999809E+01 0.  1.
</event>
<event>
 5   0  0.2528460E-05  0.2604358E+04  0.7818609E-02  0.8366722E-01
       -2   -1    0    0    0  501  0.00000000000E+00  0.00000000000E+00  0.68801007122E+03  0.68801007122E+03  0.25500000920E-02 0.  1.
        2   -1    0    0  501    0  0.00000000000E+00  0.00000000000E+00 -0.24646007872E+04  0.24646007872E+04  0.25500000920E-02 0. -1.
    10030    2    1    2    0    0  0.00000000000E+00  0.00000000000E+00 -0.17765907160E+04  0.31526108585E+04  0.26043580116E+04 0.  0.
        5    1    3    3  502    0  0.28129216354E+03 -0.44594686394E+03 -0.23295968445E+04  0.23885220188E+04  0.46999998093E+01 0. -1.
       -5    1    3    3    0  502 -0.28129216354E+03  0.44594686394E+03  0.55300612845E+03  0.76408883962E+03  0.46999998093E+01 0.  1.
</event>
<event>
 5   0  0.1000421E-05  0.2593247E+04  0.7818609E-02  0.8370499E-01
        1   -1    0    0  501    0  0.00000000000E+00  0.00000000000E+00  0.10301895257E+04  0.10301895257E+04  0.50400001928E-02 0. -1.
       -1   -1    0    0    0  501  0.00000000000E+00  0.00000000000E+00 -0.16319637232E+04  0.16319637232E+04  0.50400001928E-02 0.  1.
    10030    2    1    2    0    0  0.00000000000E+00  0.00000000000E+00 -0.60177419744E+03  0.26621532489E+04  0.25932465629E+04 0.  0.
        3    1    3    3  502    0 -0.71249719489E+03  0.95473581305E+03 -0.82640673161E+03  0.14498692430E+04  0.10100000352E+00 0.  1.
       -3    1    3    3    0  502  0.71249719489E+03 -0.95473581305E+03  0.22463253417E+03  0.12122840059E+04  0.10100000352E+00 0. -1.
</event>
<event>
 5   0  0.1000421E-05  0.2543872E+04  0.7818609E-02  0.8387521E-01
       -1   -1    0    0    0  501  0.00000000000E+00  0.00000000000E+00  0.12025764538E+04  0.12025764538E+04  0.50400001928E-02 0. -1.
        1   -1    0    0  501    0  0.00000000000E+00  0.00000000000E+00 -0.13452954392E+04  0.13452954393E+04  0.50400001928E-02 0.  1.
    10030    2    1    2    0    0  0.00000000000E+00  0.00000000000E+00 -0.14271898545E+03  0.25478718930E+04  0.25438715523E+04 0.  0.
        3    1    3    3  502    0  0.11654573052E+02 -0.11006724825E+04  0.56698478533E+03  0.12381791065E+04  0.10100000352E+00 0. -1.
       -3    1    3    3    0  502 -0.11654573052E+02  0.11006724825E+04 -0.70970377078E+03  0.13096927866E+04  0.10100000352E+00 0.  1.
</event>
<event>
 5   0  0.2484618E-05  0.2468351E+04  0.7818609E-02  0.8414348E-01
        2   -1    0    0  501    0  0.00000000000E+00  0.00000000000E+00  0.16118033817E+04  0.16118033817E+04  0.25500000920E-02 0.  1.
       -2   -1    0    0    0  501  0.00000000000E+00  0.00000000000E+00 -0.94502169893E+03  0.94502169893E+03  0.25500000920E-02 0. -1.
    10030    2    1    2    0    0  0.00000000000E+00  0.00000000000E+00  0.66678168276E+03  0.25568250806E+04  0.24683510043E+04 0.  0.
        3    1    3    3  502    0  0.41482226498E+03 -0.10677100632E+04 -0.14254157159E+03  0.11542964959E+04  0.10100000352E+00 0. -1.
       -3    1    3    3    0  502 -0.41482226498E+03  0.10677100632E+04  0.80932325435E+03  0.14025285847E+04  0.10100000352E+00 0.  1.
</event>
<event>
 5   0  0.2528460E-05  0.2548209E+04  0.7818609E-02  0.8386009E-01
        2   -1    0    0  501    0  0.00000000000E+00  0.00000000000E+00  0.24489535717E+04  0.24489535717E+04  0.25500000920E-02 0.  1.
       -2   -1    0    0    0  501  0.00000000000E+00  0.00000000000E+00 -0.66287183921E+03  0.66287183921E+03  0.25500000920E-02 0. -1.
    10030    2    1    2    0    0  0.00000000000E+00  0.00000000000E+00  0.17860817325E+04  0.31118254109E+04  0.25482090638E+04 0.  0.
        5    1    3    3  502    0  0.21269136277E+03  0.12207558046E+04  0.53111369956E+03  0.13481788465E+04  0.46999998093E+01 0.  1.
       -5    1    3    3    0  502 -0.21269136277E+03 -0.12207558046E+04  0.12549680330E+04  0.17636465644E+04  0.46999998093E+01 0. -1.
</event>
<event>
 5   0  0.1034714E-05  0.2647159E+04  0.7818609E-02  0.8352357E-01
        1   -1    0    0  501    0  0.00000000000E+00  0.00000000000E+00  0.22836000188E+04  0.22836000188E+04  0.50400001928E-02 0. -1.
       -1   -1    0    0    0  501  0.00000000000E+00  0.00000000000E+00 -0.76714956412E+03  0.76714956414E+03  0.50400001928E-02 0.  1.
    10030    2    1    2    0    0  0.00000000000E+00  0.00000000000E+00  0.15164504547E+04  0.30507495830E+04  0.26471590501E+04 0.  0.
        5    1    3    3  502    0  0.25148194312E+03 -0.50111723889E+03  0.21399682532E+04  0.22122043010E+04  0.46999998093E+01 0. -1.
       -5    1    3    3    0  502 -0.25148194312E+03  0.50111723889E+03 -0.62351779849E+03  0.83854528194E+03  0.46999998093E+01 0.  1.
</event>
<event>
 5   0  0.9855352E-06  0.2721870E+04  0.7818609E-02  0.8327943E-01
        1   -1    0    0  501    0  0.00000000000E+00  0.00000000000E+00  0.19458099587E+04  0.19458099587E+04  0.50400001928E-02 0.  1.
       -1   -1    0    0    0  501  0.00000000000E+00  0.00000000000E+00 -0.95186307151E+03  0.95186307152E+03  0.50400001928E-02 0. -1.
    10030    2    1    2    0    0  0.00000000000E+00  0.00000000000E+00  0.99394688721E+03  0.28976730302E+04  0.27218704186E+04 0.  0.
        2    1    3    3  502    0  0.13043200977E+04 -0.19963587913E+03  0.14222526211E+03  0.13271523751E+04  0.25500000920E-02 0. -1.
       -2    1    3    3    0  502 -0.13043200977E+04  0.19963587913E+03  0.85172162510E+03  0.15705206551E+04  0.25500000920E-02 0.  1.
</event>
<event>
 5   0  0.2517854E-05  0.2589646E+04  0.7818609E-02  0.8371727E-01
       -2   -1    0    0    0  501  0.00000000000E+00  0.00000000000E+00  0.94906485612E+03  0.94906485612E+03  0.25500000920E-02 0. -1.
        2   -1    0    0  501    0  0.00000000000E+00  0.00000000000E+00 -0.17665459370E+04  0.17665459370E+04  0.25500000920E-02 0.  1.
    10030    2    1    2    0    0  0.00000000000E+00  0.00000000000E+00 -0.81748108093E+03  0.27156107932E+04  0.25896460496E+04 0.  0.
        4    1    3    3  502    0 -0.27306127736E+03  0.10926688190E+04  0.26114161929E+03  0.11561505816E+04  0.12699999809E+01 0. -1.
       -4    1    3    3    0  502  0.27306127736E+03 -0.10926688190E+04 -0.10786227002E+04  0.15594602116E+04  0.12699999809E+01 0.  1.
</event>
<event>
 5   0  0.2528460E-05  0.2585900E+04  0.7818609E-02  0.8373007E-01
       -2   -1    0    0    0  501  0.00000000000E+00  0.00000000000E+00  0.90700528909E+03  0.90700528910E+03  0.25500000920E-02 0. -1.
        2   -1    0    0  501    0  0.00000000000E+00  0.00000000000E+00 -0.18431197633E+04  0.18431197633E+04  0.25500000920E-02 0.  1.
    10030    2    1    2    0    0  0.00000000000E+00  0.00000000000E+00 -0.93611447421E+03  0.27501250524E+04  0.25858997457E+04 0.  0.
        5    1    3    3  502    0 -0.18467749500E+03 -0.84128065786E+03  0.55746359892E+03  0.10259857097E+04  0.46999998093E+01 0. -1.
       -5    1    3    3    0  502  0.18467749500E+03  0.84128065786E+03 -0.14935780731E+04  0.17241393427E+04  0.46999998093E+01 0.  1.
</event>
<event>
 5   0  0.1025153E-05  0.2601613E+04  0.7818609E-02  0.8367653E-01
       -1   -1    0    0    0  501  0.00000000000E+00  0.00000000000E+00  0.89972725346E+03  0.89972725347E+03  0.50400001928E-02 0.  1.
        1   -1    0    0  501    0  0.00000000000E+00  0.00000000000E+00 -0.18806786912E+04  0.18806786912E+04  0.50400001928E-02 0. -1.
    10030    2    1    2    0    0  0.00000000000E+00  0.00000000000E+00 -0.98095143770E+03  0.27804059446E+04  0.26016132483E+04 0.  0.
        1    1    3    3  502    0 -0.97182135217E+03 -0.85472468397E+03 -0.35069397151E+03  0.13408867542E+04  0.50400001928E-02 0.  1.
       -1    1    3    3    0  502  0.97182135217E+03  0.85472468397E+03 -0.63025746619E+03  0.14395191904E+04  0.50400001928E-02 0. -1.
</event>
<event>
 5   0  0.2662024E-05  0.2675762E+04  0.7818609E-02  0.8342912E-01
       -2   -1    0    0    0  501  0.00000000000E+00  0.00000000000E+00  0.10110313339E+04  0.10110313339E+04  0.25500000920E-02 0. -1.
        2   -1    0    0  501    0  0.00000000000E+00  0.00000000000E+00 -0.17703955811E+04  0.17703955811E+04  0.25500000920E-02 0.  1.
    10030    2    1    2    0    0  0.00000000000E+00  0.00000000000E+00 -0.75936424716E+03  0.27814269150E+04  0.26757618773E+04 0.  0.
        2    1    3    3  502    0 -0.46830876792E+03 -0.11575541262E+04  0.11957683574E+03  0.12544095332E+04  0.25500000920E-02 0. -1.
       -2    1    3    3    0  502  0.46830876792E+03  0.11575541262E+04 -0.87894108291E+03  0.15270173819E+04  0.25500000920E-02 0.  1.
</event>
<event>
 5   0  0.9855352E-06  0.2593065E+04  0.7818609E-02  0.8370561E-01
       -1   -1    0    0    0  501  0.00000000000E+00  0.00000000000E+00  0.84582980849E+03  0.84582980850E+03  0.50400001928E-02 0.  1.
        1   -1    0    0  501    0  0.00000000000E+00  0.00000000000E+00 -0.19873939744E+04  0.19873939744E+04  0.50400001928E-02 0. -1.
    10030    2    1    2    0    0  0.00000000000E+00  0.00000000000E+00 -0.11415641659E+04  0.28332237829E+04  0.25930654174E+04 0.  0.
        2    1    3    3  502    0 -0.37342180366E+03  0.12372329947E+04 -0.68437070007E+03  0.14623790828E+04  0.25500000920E-02 0.  1.
       -2    1    3    3    0  502  0.37342180366E+03 -0.12372329947E+04 -0.45719346585E+03  0.13708447001E+04  0.25500000920E-02 0. -1.
</event>
<event>
 5   0  0.2555801E-05  0.2594477E+04  0.7818609E-02  0.8370080E-01
        2   -1    0    0  501    0  0.00000000000E+00  0.00000000000E+00  0.24377217891E+04  0.24377217891E+04  0.25500000920E-02 0. -1.
       -2   -1    0    0    0  501  0.00000000000E+00  0.00000000000E+00 -0.69032790549E+03  0.69032790550E+03  0.25500000920E-02 0.  1.
    10030    2    1    2    0    0  0.00000000000E+00  0.00000000000E+00  0.17473938836E+04  0.31280496946E+04  0.25944767309E+04 0.  0.
        1    1    3    3  502    0 -0.10153502547E+04  0.16857883980E+03  0.18256871567E+04  0.20958264621E+04  0.50400001928E-02 0. -1.
       -1    1    3    3    0  502  0.10153502547E+04 -0.16857883980E+03 -0.78293273148E+02  0.10322232325E+04  0.50400001928E-02 0.  1.
</event>
<event>
 5   0  0.1000421E-05  0.2597832E+04  0.7818609E-02  0.8368938E-01
       -1   -1    0    0    0  501  0.00000000000E+00  0.00000000000E+00  0.83106220662E+03  0.83106220663E+03  0.50400001928E-02 0. -1.
        1   -1    0    0  501    0  0.00000000000E+00  0.00000000000E+00 -0.20301519318E+04  0.20301519318E+04  0.50400001928E-02 0.  1.
    10030    2    1    2    0    0  0.00000000000E+00  0.00000000000E+00 -0.11990897252E+04  0.28612141384E+04  0.25978318223E+04 0.  0.
        3    1    3    3  502    0  0.91460068959E+03 -0.13747790412E+03  0.40494518754E+03  0.10096411296E+04  0.10100000352E+00 0. -1.
       -3    1    3    3    0  502 -0.91460068959E+03  0.13747790412E+03 -0.16040349127E+04  0.18515730088E+04  0.10100000352E+00 0.  1.
</event>
<event>
 5   0  0.1000421E-05  0.2582072E+04  0.7818609E-02  0.8374316E-01
        1   -1    0    0  501    0  0.00000000000E+00  0.00000000000E+00  0.11987718305E+04  0.11987718305E+04  0.50400001928E-02 0. -1.
       -1   -1    0    0    0  501  0.00000000000E+00  0.00000000000E+00 -0.13904018349E+04  0.13904018349E+04  0.50400001928E-02 0.  1.
    10030    2    1    2    0    0  0.00000000000E+00  0.00000000000E+00 -0.19163000436E+03  0.25891736654E+04  0.25820724643E+04 0.  0.
        3    1    3    3  502    0  0.12389874234E+04  0.29557822358E+02 -0.45848777927E+03  0.13214289819E+04  0.10100000352E+00 0.  1.
       -3    1    3    3    0  502 -0.12389874234E+04 -0.29557822358E+02  0.26685777491E+03  0.12677446835E+04  0.10100000352E+00 0. -1.
</event>
<event>
 5   0  0.2517854E-05  0.2456391E+04  0.7818609E-02  0.8418688E-01
        2   -1    0    0  501    0  0.00000000000E+00  0.00000000000E+00  0.12268686280E+04  0.12268686280E+04  0.25500000920E-02 0. -1.
       -2   -1    0    0    0  501  0.00000000000E+00  0.00000000000E+00 -0.12295233671E+04  0.12295233671E+04  0.25500000920E-02 0.  1.
    10030    2    1    2    0    0  0.00000000000E+00  0.00000000000E+00 -0.26547391057E+01  0.24563919950E+04  0.24563905605E+04 0.  0.
        4    1    3    3  502    0 -0.78588556737E+03 -0.85484972350E+03  0.39877017569E+03  0.12277635932E+04  0.12699999809E+01 0. -1.
       -4    1    3    3    0  502  0.78588556737E+03  0.85484972350E+03 -0.40142491480E+03  0.12286284019E+04  0.12699999809E+01 0.  1.
</event>
<event>
 5   0  0.2555801E-05  0.2595899E+04  0.7818609E-02  0.8369596E-01
        2   -1    0    0  501    0  0.00000000000E+00  0.00000000000E+00  0.12453499054E+04  0.12453499054E+04  0.25500000920E-02 0.  1.
       -2   -1    0    0    0  501  0.00000000000E+00  0.00000000000E+00 -0.13527704976E+04  0.13527704976E+04  0.25500000920E-02 0. -1.
    10030    2    1    2    0    0  0.00000000000E+00  0.00000000000E+00 -0.10742059226E+03  0.25981204030E+04  0.25958987740E+04 0.  0.
        1    1    3    3  502    0  0.58371415758E+03 -0.86476153096E+03 -0.82647073850E+03  0.13310103699E+04  0.50400001928E-02 0. -1.
       -1    1    3    3    0  502 -0.58371415758E+03  0.86476153096E+03  0.71905014624E+03  0.12671100331E+04  0.50400001928E-02 0.  1.
</event>
<event>
 5   0  0.9855352E-06  0.2567931E+04  0.7818609E-02  0.8379177E-01
        1   -1    0    0  501    0  0.00000000000E+00  0.00000000000E+00  0.94234377119E+03  0.94234377121E+03  0.50400001928E-02 0.  1.
       -1   -1    0    0    0  501  0.00000000000E+00  0.00000000000E+00 -0.17494325974E+04  0.17494325974E+04  0.50400001928E-02 0. -1.
    10030    2    1    2    0    0  0.00000000000E+00  0.00000000000E+00 -0.80708882620E+03  0.26917763686E+04  0.25679306153E+04 0.  0.
        2    1    3    3  502    0 -0.44207418300E+03 -0.10506084477E+04 -0.10231164295E+04  0.15316575734E+04  0.25500000920E-02 0. -1.
       -2    1    3    3    0  502  0.44207418300E+03  0.10506084477E+04  0.21602760335E+03  0.11601187952E+04  0.25500000920E-02 0.  1.
</event>
<event>
 5   0  0.1005492E-05  0.2586480E+04  0.7818609E-02  0.8372808E-01
       -1   -1    0    0    0  501  0.00000000000E+00  0.00000000000E+00  0.74379302424E+03  0.74379302426E+03  0.50400001928E-02 0. -1.
        1   -1    0    0  501    0  0.00000000000E+00  0.00000000000E+00 -0.22485692266E+04  0.22485692266E+04  0.50400001928E-02 0.  1.
    10030    2    1    2    0    0  0.00000000000E+00  0.00000000000E+00 -0.15047762023E+04  0.29923622508E+04  0.25864803152E+04 0.  0.
        4    1    3    3  502    0 -0.58512521035E+03 -0.24355960586E+02 -0.20863695072E+04  0.21670034744E+04  0.12699999809E+01 0.  1.
       -4    1    3    3    0  502  0.58512521035E+03  0.24355960586E+02  0.58159330489E+03  0.82535877641E+03  0.12699999809E+01 0. -1.
</event>
<event>
 5   0  0.1034714E-05  0.2560967E+04  0.7818609E-02  0.8381582E-01
        1   -1    0    0  501    0  0.00000000000E+00  0.00000000000E+00  0.11639487552E+04  0.11639487552E+04  0.50400001928E-02 0.  1.
       -1   -1    0    0    0  501  0.00000000000E+00  0.00000000000E+00 -0.14086852084E+04  0.14086852084E+04  0.50400001928E-02 0. -1.
    10030    2    1    2    0    0  0.00000000000E+00  0.00000000000E+00 -0.24473645324E+03  0.25726339636E+04  0.25609665322E+04 0.  0.
        5    1    3    3  502    0  0.66767504571E+03 -0.10623849338E+04  0.13406635913E+03  0.12619221818E+04  0.46999998093E+01 0. -1.
       -5    1    3    3    0  502 -0.66767504571E+03  0.10623849338E+04 -0.37880281237E+03  0.13107117818E+04  0.46999998093E+01 0.  1.
</event>
<event>
 5   0  0.2662024E-05  0.2412849E+04  0.7818609E-02  0.8434709E-01
        2   -1    0    0  501    0  0.00000000000E+00  0.00000000000E+00  0.18650861060E+04  0.18650861060E+04  0.25500000920E-02 0.  1.
       -2   -1    0    0    0  501  0.00000000000E+00  0.00000000000E+00 -0.78037161814E+03  0.78037161814E+03  0.25500000920E-02 0. -1.
    10030    2    1    2    0    0  0.00000000000E+00  0.00000000000E+00  0.10847144878E+04  0.26454577241E+04  0.24128491561E+04 0.  0.
        2    1    3    3  502    0  0.24346839134E+03  0.92866671774E+03 -0.25866447061E+03  0.99428669839E+03  0.25500000920E-02 0. -1.
       -2    1    3    3    0  502 -0.24346839134E+03 -0.92866671774E+03  0.13433789584E+04  0.16511710257E+04  0.25500000920E-02 0.  1.
</event>
<event>
 5   0  0.1005492E-05  0.2611063E+04  0.7818609E-02  0.8364453E-01
       -1   -1    0    0    0  501  0.00000000000E+00  0.00000000000E+00  0.11227646019E+04  0.11227646020E+04  0.50400001928E-02 0. -1.
        1   -1    0    0  501    0  0.00000000000E+00  0.00000000000E+00 -0.15180496333E+04  0.15180496333E+04  0.50400001928E-02 0.  1.
    10030    2    1    2    0    0  0.00000000000E+00  0.00000000000E+00 -0.39528503139E+03  0.26408142353E+04  0.26110629195E+04 0.  0.
        4    1    3    3  502    0 -0.22134204466E+02  0.22513457448E+03  0.11027900821E+04  0.11257544483E+04  0.12699999809E+01 0. -1.
       -4    1    3    3    0  502  0.22134204466E+02 -0.22513457448E+03 -0.14980751135E+04  0.15150597870E+04  0.12699999809E+01 0.  1.
</event>
<event>
 5   0  0.2528460E-05  0.2605235E+04  0.7818609E-02  0.8366425E-01
        2   -1    0    0  501    0  0.00000000000E+00  0.00000000000E+00  0.14131198985E+04  0.14131198985E+04  0.25500000920E-02 0. -1.
       -2   -1    0    0    0  501  0.00000000000E+00  0.00000000000E+00 -0.12007564196E+04  0.12007564196E+04  0.25500000920E-02 0.  1.
    10030    2    1    2    0    0  0.00000000000E+00  0.00000000000E+00  0.21236347889E+03  0.26138763181E+04  0.26052353366E+04 0.  0.
        5    1    3    3  502    0 -0.95540404467E+03 -0.63992088961E+03  0.72017149375E+03  0.13568215446E+04  0.46999998093E+01 0. -1.
       -5    1    3    3    0  502  0.95540404467E+03  0.63992088961E+03 -0.50780801486E+03  0.12570547735E+04  0.46999998093E+01 0.  1.
</event>
<event>
 5   0  0.1034714E-05  0.2656334E+04  0.7818609E-02  0.8349314E-01
       -1   -1    0    0    0  501  0.00000000000E+00  0.00000000000E+00  0.10944279717E+04  0.10944279718E+04  0.50400001928E-02 0. -1.
        1   -1    0    0  501    0  0.00000000000E+00  0.00000000000E+00 -0.16118259526E+04  0.16118259526E+04  0.50400001928E-02 0.  1.
    10030    2    1    2    0    0  0.00000000000E+00  0.00000000000E+00 -0.51739798088E+03  0.27062539244E+04  0.26563338707E+04 0.  0.
        5    1    3    3  502    0  0.27291549428E+03  0.79849297571E+03  0.78621272116E+03  0.11533544261E+04  0.46999998093E+01 0. -1.
       -5    1    3    3    0  502 -0.27291549428E+03 -0.79849297571E+03 -0.13036107020E+04  0.15528994983E+04  0.46999998093E+01 0.  1.
</event>
<event>
 5   0  0.1025153E-05  0.2524703E+04  0.7818609E-02  0.8394237E-01
        1   -1    0    0  501    0  0.00000000000E+00  0.00000000000E+00  0.12709625547E+04  0.12709625547E+04  0.50400001928E-02 0.  1.
       -1   -1    0    0    0  501  0.00000000000E+00  0.00000000000E+00 -0.12537989816E+04  0.12537989817E+04  0.50400001928E-02 0. -1.
    10030    2    1    2    0    0  0.00000000000E+00  0.00000000000E+00  0.17163573051E+02  0.25247615364E+04  0.25247031959E+04 0.  0.
        1    1    3    3  502    0  0.97898647902E+03 -0.20310176929E+03 -0.76206349393E+03  0.12571418470E+04  0.50400001928E-02 0. -1.
       -1    1    3    3    0  502 -0.97898647902E+03  0.20310176929E+03  0.77922706699E+03  0.12676196893E+04  0.50400001928E-02 0.  1.
</event>
<event>
 5   0  0.2662024E-05  0.2603152E+04  0.7818609E-02  0.8367131E-01
       -2   -1    0    0    0  501  0.00000000000E+00  0.00000000000E+00  0.19336270614E+04  0.19336270614E+04  0.25500000920E-02 0.  1.
        2   -1    0    0  501    0  0.00000000000E+00  0.00000000000E+00 -0.87612562929E+03  0.87612562929E+03  0.25500000920E-02 0. -1.
    10030    2    1    2    0    0  0.00000000000E+00  0.00000000000E+00  0.10575014321E+04  0.28097526907E+04  0.26031521092E+04 0.  0.
        2    1    3    3  502    0  0.50735755726E+03  0.78954468405E+03 -0.44465972237E+03  0.10385156560E+04  0.25500000920E-02 0. -1.
       -2    1    3    3    0  502 -0.50735755726E+03 -0.78954468405E+03  0.15021611544E+04  0.17712370347E+04  0.25500000920E-02 0.  1.
</event>
<event>
 5   0  0.1034714E-05  0.2585789E+04  0.7818609E-02  0.8373045E-01
       -1   -1    0    0    0  501  0.00000000000E+00  0.00000000000E+00  0.26006570113E+04  0.26006570113E+04  0.50400001928E-02 0.  1.
        1   -1    0    0  501    0  0.00000000000E+00  0.00000000000E+00 -0.64275127527E+03  0.64275127529E+03  0.50400001928E-02 0. -1.
    10030    2    1    2    0    0  0.00000000000E+00  0.00000000000E+00  0.19579057360E+04  0.32434082865E+04  0.25857885533E+04 0.  0.
        5    1    3    3  502    0 -0.71920938261E+03  0.18466324459E+03  0.23065143028E+04  0.24230957408E+04  0.46999998093E+01 0.  1.
       -5    1    3    3    0  502  0.71920938261E+03 -0.18466324459E+03 -0.34860856680E+03  0.82031254579E+03  0.46999998093E+01 0. -1.
</event>
<event>
 5   0  0.2555801E-05  0.2562989E+04  0.7818609E-02  0.8380883E-01
        2   -1    0    0  501    0  0.00000000000E+00  0.00000000000E+00  0.13829297158E+04  0.13829297158E+04  0.25500000920E-02 0.  1.
       -2   -1    0    0    0  501  0.00000000000E+00  0.00000000000E+00 -0.11874991609E+04  0.11874991609E+04  0.25500000920E-02 0. -1.
    10030    2    1    2    0    0  0.00000000000E+00  0.00000000000E+00  0.19543055491E+03  0.25704288767E+04  0.25629887843E+04 0.  0.
        1    1    3    3  502    0 -0.14646551285E+03 -0.12376591936E+04  0.39686870644E+03  0.13079591722E+04  0.50400001928E-02 0. -1.
       -1    1    3    3    0  502  0.14646551285E+03  0.12376591936E+04 -0.20143815153E+03  0.12624697045E+04  0.50400001928E-02 0.  1.
</event>
<event>
 5   0  0.1025153E-05  0.2544856E+04  0.7818609E-02  0.8387177E-01
       -1   -1    0    0    0  501  0.00000000000E+00  0.00000000000E+00  0.14092128056E+04  0.14092128056E+04  0.50400001928E-02 0.  1.
        1   -1    0    0  501    0  0.00000000000E+00  0.00000000000E+00 -0.11489201178E+04  0.11489201178E+04  0.50400001928E-02 0. -1.
    10030    2    1    2    0    0  0.00000000000E+00  0.00000000000E+00  0.26029268785E+03  0.25581329234E+04  0.25448559429E+04 0.  0.
        1    1    3    3  502    0 -0.12522541987E+04 -0.23291104081E+02  0.35579440399E+03  0.13020263867E+04  0.50400001928E-02 0. -1.
       -1    1    3    3    0  502  0.12522541987E+04  0.23291104081E+02 -0.95501716139E+02  0.12561065367E+04  0.50400001928E-02 0.  1.
</event>
<event>
 5   0  0.9855352E-06  0.2671015E+04  0.7818609E-02  0.8344471E-01
        1   -1    0    0  501    0  0.00000000000E+00  0.00000000000E+00  0.86771999110E+03  0.86771999112E+03  0.50400001928E-02 0.  1.
       -1   -1    0    0    0  501  0.00000000000E+00  0.00000000000E+00 -0.20554796357E+04  0.20554796357E+04  0.50400001928E-02 0. -1.
    10030    2    1    2    0    0  0.00000000000E+00  0.00000000000E+00 -0.11877596446E+04  0.29231996268E+04  0.26710153659E+04 0.  0.
        2    1    3    3  502    0 -0.37694838521E+03  0.12095946648E+04 -0.10560955708E+04  0.16494081342E+04  0.25500000920E-02 0. -1.
       -2    1    3    3    0  502  0.37694838521E+03 -0.12095946648E+04 -0.13166407372E+03  0.12737914926E+04  0.25500000920E-02 0.  1.
</event>
<event>
 5   0  0.2517854E-05  0.2590437E+04  0.7818609E-02  0.8371457E-01
        2   -1    0    0  501    0  0.00000000000E+00  0.00000000000E+00  0.19500065222E+04  0.19500065222E+04  0.25500000920E-02 0.  1.
       -2   -1    0    0    0  501  0.00000000000E+00  0.00000000000E+00 -0.86030002703E+03  0.86030002704E+03  0.25500000920E-02 0. -1.
    10030    2    1    2    0    0  0.00000000000E+00  0.00000000000E+00  0.10897064951E+04  0.28103065492E+04  0.25904367692E+04 0.  0.
        4    1    3    3  502    0  0.49180763109E+03  0.94081840050E+02  0.18407542458E+04  0.19076435582E+04  0.12699999809E+01 0.  1.
       -4    1    3    3    0  502 -0.49180763109E+03 -0.94081840050E+02 -0.75104775070E+03  0.90266299102E+03  0.12699999809E+01 0. -1.
</event>
<event>
 5   0  0.2662024E-05  0.2636509E+04  0.7818609E-02  0.8355905E-01
       -2   -1    0    0    0  501  0.00000000000E+00  0.00000000000E+00  0.82411031251E+03  0.82411031252E+03  0.25500000920E-02 0.  1.
        2   -1    0    0  501    0  0.00000000000E+00  0.00000000000E+00 -0.21086917631E+04  0.21086917631E+04  0.25500000920E-02 0. -1.
    10030    2    1    2    0    0  0.00000000000E+00  0.00000000000E+00 -0.12845814506E+04  0.29328020756E+04  0.26365087733E+04 0.  0.
        2    1    3    3  502    0  0.61821783613E+03  0.75628909165E+03 -0.16270011758E+04  0.18977089632E+04  0.25500000920E-02 0. -1.
       -2    1    3    3    0  502 -0.61821783613E+03 -0.75628909165E+03  0.34241972522E+03  0.10350931124E+04  0.25500000920E-02 0.  1.
</event>
<event>
 5   0  0.2517854E-05  0.2528885E+04  0.7818609E-02  0.8392767E-01
        2   -1    0    0  501    0  0.00000000000E+00  0.00000000000E+00  0.15781371546E+04  0.15781371546E+04  0.25500000920E-02 0.  1.
       -2   -1    0    0    0  501  0.00000000000E+00  0.00000000000E+00 -0.10131029486E+04  0.10131029486E+04  0.25500000920E-02 0. -1.
    10030    2    1    2    0    0  0.00000000000E+00  0.00000000000E+00  0.56503420602E+03  0.25912401031E+04  0.25288854498E+04 0.  0.
        4    1    3    3  502    0  0.11731619898E+04  0.46406858972E+03  0.36912990451E+03  0.13145064510E+04  0.12699999809E+01 0. -1.
       -4    1    3    3    0  502 -0.11731619898E+04 -0.46406858972E+03  0.19590430151E+03  0.12767336522E+04  0.12699999809E+01 0.  1.
</event>
<event>
 5   0  0.9855352E-06  0.2559964E+04  0.7818609E-02  0.8381929E-01
        1   -1    0    0  501    0  0.00000000000E+00  0.00000000000E+00  0.20500206253E+04  0.20500206253E+04  0.50400001928E-02 0. -1.
       -1   -1    0    0    0  501  0.00000000000E+00  0.00000000000E+00 -0.79918896173E+03  0.79918896174E+03  0.50400001928E-02 0.  1.
    10030    2    1    2    0    0  0.00000000000E+00  0.00000000000E+00  0.12508316636E+04  0.28492095871E+04  0.25599639491E+04 0.  0.
        2    1    3    3  502    0  0.11996913550E+04  0.44516742339E+03  0.65918311209E+03  0.14394289692E+04  0.25500000920E-02 0. -1.
       -2    1    3    3    0  502 -0.11996913550E+04 -0.44516742339E+03  0.59164855151E+03  0.14097806179E+04  0.25500000920E-02 0.  1.
</event>
<event>
 5   0  0.2555801E-05  0.2496487E+04  0.7818609E-02  0.8404238E-01
       -2   -1    0    0    0  501  0.00000000000E+00  0.00000000000E+00  0.94885495031E+03  0.94885495032E+03  0.25500000920E-02 0. -1.
        2   -1    0    0  501    0  0.00000000000E+00  0.00000000000E+00 -0.16420965795E+04  0.16420965795E+04  0.25500000920E-02 0.  1.
    10030    2    1    2    0    0  0.00000000000E+00  0.00000000000E+00 -0.69324162917E+03  0.25909515298E+04  0.24964867060E+04 0.  0.
        1    1    3    3  502    0  0.65962128523E+03  0.10156481798E+04 -0.32736670427E+02  0.12114921191E+04  0.50400001928E-02 0. -1.
       -1    1    3    3    0  502 -0.65962128523E+03 -0.10156481798E+04 -0.66050495874E+03  0.13794594107E+04  0.50400001928E-02 0.  1.
</event>
<event>
 5   0  0.1005492E-05  0.2590977E+04  0.7818609E-02  0.8371273E-01
        1   -1    0    0  501    0  0.00000000000E+00  0.00000000000E+00  0.72710948195E+03  0.72710948197E+03  0.50400001928E-02 0. -1.
       -1   -1    0    0    0  501  0.00000000000E+00  0.00000000000E+00 -0.23081673701E+04  0.23081673701E+04  0.50400001928E-02 0.  1.
    10030    2    1    2    0    0  0.00000000000E+00  0.00000000000E+00 -0.15810578881E+04  0.30352768520E+04  0.25909769437E+04 0.  0.
        4    1    3    3  502    0 -0.28688669680E+03 -0.12609480227E+04 -0.69982528067E+03  0.14703914204E+04  0.12699999809E+01 0. -1.
       -4    1    3    3    0  502  0.28688669680E+03  0.12609480227E+04 -0.88123260745E+03  0.15648854316E+04  0.12699999809E+01 0.  1.
</event>
<event>
 5   0  0.9855352E-06  0.2639028E+04  0.7818609E-02  0.8355064E-01
        1   -1    0    0  501    0  0.00000000000E+00  0.00000000000E+00  0.15577826457E+04  0.15577826457E+04  0.50400001928E-02 0. -1.
       -1   -1    0    0    0  501  0.00000000000E+00  0.00000000000E+00 -0.11176896601E+04  0.11176896601E+04  0.50400001928E-02 0.  1.
    10030    2    1    2    0    0  0.00000000000E+00  0.00000000000E+00  0.44009298558E+03  0.26754723058E+04  0.26390282725E+04 0.  0.
        2    1    3    3  502    0 -0.12542036899E+03  0.12329364620E+04 -0.23926070910E+03  0.12621839309E+04  0.25500000920E-02 0.  1.
       -2    1    3    3    0  502  0.12542036899E+03 -0.12329364620E+04  0.67935369468E+03  0.14132883750E+04  0.25500000920E-02 0. -1.
</event>
<event>
 5   0  0.1025153E-05  0.2614088E+04  0.7818609E-02  0.8363432E-01
        1   -1    0    0  501    0  0.00000000000E+00  0.00000000000E+00  0.21682325935E+04  0.21682325935E+04  0.50400001928E-02 0.  1.
       -1   -1    0    0    0  501  0.00000000000E+00  0.00000000000E+00 -0.78790627836E+03  0.78790627838E+03  0.50400001928E-02 0. -1.
    10030    2    1    2    0    0  0.00000000000E+00  0.00000000000E+00  0.13803263151E+04  0.29561388719E+04  0.26140880424E+04 0.  0.
        1    1    3    3  502    0  0.98679176951E+03  0.31492388920E+03 -0.21127958092E+03  0.10571537796E+04  0.50400001928E-02 0.  1.
       -1    1    3    3    0  502 -0.98679176951E+03 -0.31492388920E+03  0.15916058960E+04  0.18989850923E+04  0.50400001928E-02 0. -1.
</event>
<event>
 5   0  0.2555801E-05  0.2610564E+04  0.7818609E-02  0.8364622E-01
        2   -1    0    0  501    0  0.00000000000E+00  0.00000000000E+00  0.15899179896E+04  0.15899179896E+04  0.25500000920E-02 0. -1.
       -2   -1    0    0    0  501  0.00000000000E+00  0.00000000000E+00 -0.10716030272E+04  0.10716030272E+04  0.25500000920E-02 0.  1.
    10030    2    1    2    0    0  0.00000000000E+00  0.00000000000E+00  0.51831496243E+03  0.26615210168E+04  0.26105638706E+04 0.  0.
        1    1    3    3  502    0  0.42550813535E+02 -0.13045097324E+04  0.24457026749E+03  0.13279197376E+04  0.50400001928E-02 0.  1.
       -1    1    3    3    0  502 -0.42550813535E+02  0.13045097324E+04  0.27374469493E+03  0.13336012792E+04  0.50400001928E-02 0. -1.
</event>
<event>
 5   0  0.1000421E-05  0.2593922E+04  0.7818609E-02  0.8370269E-01
        1   -1    0    0  501    0  0.00000000000E+00  0.00000000000E+00  0.88073740817E+03  0.88073740818E+03  0.50400001928E-02 0. -1.
       -1   -1    0    0    0  501  0.00000000000E+00  0.00000000000E+00 -0.19098859853E+04  0.19098859853E+04  0.50400001928E-02 0.  1.
    10030    2    1    2    0    0  0.00000000000E+00  0.00000000000E+00 -0.10291485772E+04  0.27906233935E+04  0.25939221520E+04 0.  0.
        3    1    3    3  502    0  0.70155111666E+03 -0.80215375452E+03  0.28072900792E+03  0.11020133399E+04  0.10100000352E+00 0. -1.
       -3    1    3    3    0  502 -0.70155111666E+03  0.80215375452E+03 -0.13098775851E+04  0.16886100536E+04  0.10100000352E+00 0.  1.
</event>
<event>
 5   0  0.1034714E-05  0.2686247E+04  0.7818609E-02  0.8339481E-01
        1   -1    0    0  501    0  0.00000000000E+00  0.00000000000E+00  0.12601687398E+04  0.12601687399E+04  0.50400001928E-02 0.  1.
       -1   -1    0    0    0  501  0.00000000000E+00  0.00000000000E+00 -0.14315390231E+04  0.14315390231E+04  0.50400001928E-02 0. -1.
    10030    2    1    2    0    0  0.00000000000E+00  0.00000000000E+00 -0.17137028328E+03  0.26917077630E+04  0.26862469930E+04 0.  0.
        5    1    3    3  502    0  0.14972294778E+03  0.12380929955E+04 -0.58536448993E+03  0.13776664700E+04  0.46999998093E+01 0. -1.
       -5    1    3    3    0  502 -0.14972294778E+03 -0.12380929955E+04  0.41399420666E+03  0.13140412930E+04  0.46999998093E+01 0.  1.
</event>
<event>
 5   0  0.1000421E-05  0.2611020E+04  0.7818609E-02  0.8364467E-01
       -1   -1    0    0    0  501  0.00000000000E+00  0.00000000000E+00  0.69170796418E+03  0.69170796419E+03  0.50400001928E-02 0.  1.
        1   -1    0    0  501    0  0.00000000000E+00  0.00000000000E+00 -0.24639831351E+04  0.24639831351E+04  0.50400001928E-02 0. -1.
    10030    2    1    2    0    0  0.00000000000E+00  0.00000000000E+00 -0.17722751709E+04  0.31556910993E+04  0.26110203049E+04 0.  0.
        3    1    3    3  502    0 -0.12918847354E+04 -0.75231853508E+02 -0.67774265760E+03  0.14608083794E+04  0.10100000352E+00 0.  1.
       -3    1    3    3    0  502  0.12918847354E+04  0.75231853508E+02 -0.10945325133E+04  0.16948827199E+04  0.10100000352E+00 0. -1.
</event>
<event>
 5   0  0.2662024E-05  0.2569277E+04  0.7818609E-02  0.8378713E-01
       -2   -1    0    0    0  501  0.00000000000E+00  0.00000000000E+00  0.11475601375E+04  0.11475601375E+04  0.25500000920E-02 0.  1.
        2   -1    0    0  501    0  0.00000000000E+00  0.00000000000E+00 -0.14380910963E+04  0.14380910963E+04  0.25500000920E-02 0. -1.
    10030    2    1    2    0    0  0.00000000000E+00  0.00000000000E+00 -0.29053095886E+03  0.25856512338E+04  0.25692769537E+04 0.  0.
        2    1    3    3  502    0 -0.27893586724E+02  0.12818494126E+04 -0.22564973077E+03  0.13018578148E+04  0.25500000920E-02 0.  1.
       -2    1    3    3    0  502  0.27893586724E+02 -0.12818494126E+04 -0.64881228089E+02  0.12837934190E+04  0.25500000920E-02 0. -1.
</event>
<event>
 5   0  0.2517854E-05  0.2613744E+04  0.7818609E-02  0.8363548E-01
       -2   -1    0    0    0  501  0.00000000000E+00  0.00000000000E+00  0.14149139755E+04  0.14149139755E+04  0.25500000920E-02 0.  1.
        2   -1    0    0  501    0  0.00000000000E+00  0.00000000000E+00 -0.12070796917E+04  0.12070796917E+04  0.25500000920E-02 0. -1.
    10030    2    1    2    0    0  0.00000000000E+00  0.00000000000E+00  0.20783428383E+03  0.26219936672E+04  0.26137436181E+04 0.  0.
        4    1    3    3  502    0 -0.91211716051E+03  0.80728147980E+03  0.57896356324E+03  0.13486517425E+04  0.12699999809E+01 0.  1.
       -4    1    3    3    0  502  0.91211716051E+03 -0.80728147980E+03 -0.37112927941E+03  0.12733419246E+04  0.12699999809E+01 0. -1.
</event>
<event>
 5   0  0.2517854E-05  0.1894157E+04  0.7818609E-02  0.8657770E-01
       -2   -1    0    0    0  501  0.00000000000E+00  0.00000000000E+00  0.14949133756E+04  0.14949133756E+04  0.25500000920E-02 0. -1.
        2   -1    0    0  501    0  0.00000000000E+00  0.00000000000E+00 -0.60000661539E+03  0.60000661539E+03  0.25500000920E-02 0.  1.
    10030    2    1    2    0    0  0.00000000000E+00  0.00000000000E+00  0.89490676023E+03  0.20949199910E+04  0.18941572425E+04 0.  0.
        4    1    3    3  502    0 -0.52848059669E+03 -0.55206415985E+03 -0.17119953324E+03  0.78318418699E+03  0.12699999809E+01 0.  1.
       -4    1    3    3    0  502  0.52848059669E+03  0.55206415985E+03  0.10661062935E+04  0.13117358040E+04  0.12699999809E+01 0. -1.
</event>
<event>
 5   0  0.8605000E-06  0.2553152E+04  0.7818609E-02  0.8384291E-01
        3   -1    0    0  501    0  0.00000000000E+00  0.00000000000E+00  0.81325287925E+03  0.81325288553E+03  0.10100000352E+00 0.  1.
       -3   -1    0    0    0  501  0.00000000000E+00  0.00000000000E+00 -0.20038620985E+04  0.20038621010E+04  0.10100000352E+00 0. -1.
    10030    2    1    2    0    0  0.00000000000E+00  0.00000000000E+00 -0.11906092192E+04  0.28171149866E+04  0.25531522741E+04 0.  0.
        4    1    3    3  502    0 -0.44950657388E+03  0.80862825119E+03 -0.15658519869E+04  0.18187440354E+04  0.12699999809E+01 0. -1.
       -4    1    3    3    0  502  0.44950657388E+03 -0.80862825119E+03  0.37524276763E+03  0.99837095117E+03  0.12699999809E+01 0.  1.
</event>
<event>
 5   0  0.1000421E-05  0.2587185E+04  0.7818609E-02  0.8372567E-01
       -1   -1    0    0    0  501  0.00000000000E+00  0.00000000000E+00  0.11663935196E+04  0.11663935196E+04  0.50400001928E-02 0.  1.
        1   -1    0    0  501    0  0.00000000000E+00  0.00000000000E+00 -0.14346629513E+04  0.14346629513E+04  0.50400001928E-02 0. -1.
    10030    2    1    2    0    0  0.00000000000E+00  0.00000000000E+00 -0.26826943165E+03  0.26010564709E+04  0.25871850102E+04 0.  0.
        3    1    3    3  502    0  0.27120254493E+03 -0.67712821331E+03 -0.12081922697E+04  0.14113050728E+04  0.10100000352E+00 0. -1.
       -3    1    3    3    0  502 -0.27120254493E+03  0.67712821331E+03  0.93992283806E+03  0.11897513981E+04  0.10100000352E+00 0.  1.
</event>
<event>
 5   0  0.1005492E-05  0.2584992E+04  0.7818609E-02  0.8373317E-01
        1   -1    0    0  501    0  0.00000000000E+00  0.00000000000E+00  0.14514532434E+04  0.14514532434E+04  0.50400001928E-02 0. -1.
       -1   -1    0    0    0  501  0.00000000000E+00  0.00000000000E+00 -0.11509467631E+04  0.11509467631E+04  0.50400001928E-02 0.  1.
    10030    2    1    2    0    0  0.00000000000E+00  0.00000000000E+00  0.30050648032E+03  0.26024000065E+04  0.25849916149E+04 0.  0.
        4    1    3    3  502    0 -0.19065304167E+03 -0.95955891348E+03  0.10005963971E+04  0.13993915297E+04  0.12699999809E+01 0. -1.
       -4    1    3    3    0  502  0.19065304167E+03  0.95955891348E+03 -0.70008991674E+03  0.12030084768E+04  0.12699999809E+01 0.  1.
</event>
<event>
 5   0  0.2528460E-05  0.2590863E+04  0.7818609E-02  0.8371311E-01
        2   -1    0    0  501    0  0.00000000000E+00  0.00000000000E+00  0.14541496783E+04  0.14541496783E+04  0.25500000920E-02 0.  1.
       -2   -1    0    0    0  501  0.00000000000E+00  0.00000000000E+00 -0.11540375356E+04  0.11540375356E+04  0.25500000920E-02 0. -1.
    10030    2    1    2    0    0  0.00000000000E+00  0.00000000000E+00  0.30011214272E+03  0.26081872139E+04  0.25908634169E+04 0.  0.
        5    1    3    3  502    0 -0.41849157759E+03 -0.76821590764E+03 -0.81175390164E+03  0.11934225438E+04  0.46999998093E+01 0. -1.
       -5    1    3    3    0  502  0.41849157759E+03  0.76821590764E+03  0.11118660444E+04  0.14147646701E+04  0.46999998093E+01 0.  1.
</event>
<event>
 5   0  0.1000421E-05  0.2568202E+04  0.7818609E-02  0.8379083E-01
       -1   -1    0    0    0  501  0.00000000000E+00  0.00000000000E+00  0.11015860749E+04  0.11015860749E+04  0.50400001928E-02 0. -1.
        1   -1    0    0  501    0  0.00000000000E+00  0.00000000000E+00 -0.14968556500E+04  0.14968556500E+04  0.50400001928E-02 0.  1.
    10030    2    1    2    0    0  0.00000000000E+00  0.00000000000E+00 -0.39526957510E+03  0.25984417249E+04  0.25682019704E+04 0.  0.
        3    1    3    3  502    0 -0.76333518295E+03 -0.42413954282E+03 -0.11501766549E+04  0.14441195591E+04  0.10100000352E+00 0.  1.
       -3    1    3    3    0  502  0.76333518295E+03  0.42413954282E+03  0.75490707976E+03  0.11543221659E+04  0.10100000352E+00 0. -1.
</event>
<event>
 5   0  0.9855352E-06  0.1934781E+04  0.7818609E-02  0.8637735E-01
        1   -1    0    0  501    0  0.00000000000E+00  0.00000000000E+00  0.76693413466E+03  0.76693413467E+03  0.50400001928E-02 0. -1.
       -1   -1    0    0    0  501  0.00000000000E+00  0.00000000000E+00 -0.12202412031E+04  0.12202412031E+04  0.50400001928E-02 0.  1.
    10030    2    1    2    0    0  0.00000000000E+00  0.00000000000E+00 -0.45330706840E+03  0.19871753377E+04  0.19347812602E+04 0.  0.
        2    1    3    3  502    0 -0.72117661489E+03  0.55773779333E+03  0.10564692073E+03  0.91778452146E+03  0.25500000920E-02 0. -1.
       -2    1    3    3    0  502  0.72117661489E+03 -0.55773779333E+03 -0.55895398913E+03  0.10693908163E+04  0.25500000920E-02 0.  1.
</event>
<event>
 5   0  0.2484618E-05  0.2556435E+04  0.7818609E-02  0.8383152E-01
       -2   -1    0    0    0  501  0.00000000000E+00  0.00000000000E+00  0.48128871576E+03  0.48128871576E+03  0.25500000920E-02 0.  1.
        2   -1    0    0  501    0  0.00000000000E+00  0.00000000000E+00 -0.33947200152E+04  0.33947200152E+04  0.25500000920E-02 0. -1.
    10030    2    1    2    0    0  0.00000000000E+00  0.00000000000E+00 -0.29134312995E+04  0.38760087310E+04  0.25564353592E+04 0.  0.
        3    1    3    3  502    0 -0.76737804173E+03 -0.27312806375E+03 -0.29502635475E+04  0.30606409472E+04  0.10100000352E+00 0. -1.
       -3    1    3    3    0  502  0.76737804173E+03  0.27312806375E+03  0.36832247981E+02  0.81536778378E+03  0.10100000352E+00 0.  1.
</event>
<event>
 5   0  0.1000421E-05  0.2758947E+04  0.7818609E-02  0.8316128E-01
        1   -1    0    0  501    0  0.00000000000E+00  0.00000000000E+00  0.20877192491E+04  0.20877192491E+04  0.50400001928E-02 0. -1.
       -1   -1    0    0    0  501  0.00000000000E+00  0.00000000000E+00 -0.91149584908E+03  0.91149584910E+03  0.50400001928E-02 0.  1.
    10030    2    1    2    0    0  0.00000000000E+00  0.00000000000E+00  0.11762234001E+04  0.29992150982E+04  0.27589472120E+04 0.  0.
        3    1    3    3  502    0 -0.10294753285E+03 -0.76762750080E+03  0.18290569926E+04  0.19862778424E+04  0.10100000352E+00 0. -1.
       -3    1    3    3    0  502  0.10294753285E+03  0.76762750080E+03 -0.65283359260E+03  0.10129372559E+04  0.10100000352E+00 0.  1.
</event>
<event>
 5   0  0.1000421E-05  0.2483436E+04  0.7818609E-02  0.8408910E-01
        1   -1    0    0  501    0  0.00000000000E+00  0.00000000000E+00  0.15170835374E+04  0.15170835375E+04  0.50400001928E-02 0. -1.
       -1   -1    0    0    0  501  0.00000000000E+00  0.00000000000E+00 -0.10163342119E+04  0.10163342119E+04  0.50400001928E-02 0.  1.
    10030    2    1    2    0    0  0.00000000000E+00  0.00000000000E+00  0.50074932558E+03  0.25334177493E+04  0.24834362496E+04 0.  0.
        3    1    3    3  502    0 -0.14655676168E+03  0.87581429872E+03 -0.63504195724E+03  0.10916995319E+04  0.10100000352E+00 0.  1.
       -3    1    3    3    0  502  0.14655676168E+03 -0.87581429872E+03  0.11357912828E+04  0.14417182175E+04  0.10100000352E+00 0. -1.
</event>
<event>
 5   0  0.1000421E-05  0.2495468E+04  0.7818609E-02  0.8404602E-01
       -1   -1    0    0    0  501  0.00000000000E+00  0.00000000000E+00  0.86359288755E+03  0.86359288756E+03  0.50400001928E-02 0. -1.
        1   -1    0    0  501    0  0.00000000000E+00  0.00000000000E+00 -0.18027476668E+04  0.18027476668E+04  0.50400001928E-02 0.  1.
    10030    2    1    2    0    0  0.00000000000E+00  0.00000000000E+00 -0.93915477923E+03  0.26663405543E+04  0.24954679426E+04 0.  0.
        3    1    3    3  502    0  0.81456737018E+03 -0.40323779685E+03  0.44377616127E+03  0.10114633028E+04  0.10100000352E+00 0. -1.
       -3    1    3    3    0  502 -0.81456737018E+03  0.40323779685E+03 -0.13829309405E+04  0.16548772516E+04  0.10100000352E+00 0.  1.
</event>
<event>
 5   0  0.9855352E-06  0.2594934E+04  0.7818609E-02  0.8369924E-01
        1   -1    0    0  501    0  0.00000000000E+00  0.00000000000E+00  0.20723167882E+04  0.20723167882E+04  0.50400001928E-02 0.  1.
       -1   -1    0    0    0  501  0.00000000000E+00  0.00000000000E+00 -0.81233732832E+03  0.81233732834E+03  0.50400001928E-02 0. -1.
    10030    2    1    2    0    0  0.00000000000E+00  0.00000000000E+00  0.12599794599E+04  0.28846541165E+04  0.25949337434E+04 0.  0.
        2    1    3    3  502    0 -0.17067356242E+03 -0.78676860599E+03  0.17610809711E+04  0.19363730248E+04  0.25500000920E-02 0.  1.
       -2    1    3    3    0  502  0.17067356242E+03  0.78676860599E+03 -0.50110151128E+03  0.94828109171E+03  0.25500000920E-02 0. -1.
</event>
<event>
 5   0  0.1005492E-05  0.2598920E+04  0.7818609E-02  0.8368568E-01
        1   -1    0    0  501    0  0.00000000000E+00  0.00000000000E+00  0.15446110723E+04  0.15446110723E+04  0.50400001928E-02 0.  1.
       -1   -1    0    0    0  501  0.00000000000E+00  0.00000000000E+00 -0.10932175876E+04  0.10932175876E+04  0.50400001928E-02 0. -1.
    10030    2    1    2    0    0  0.00000000000E+00  0.00000000000E+00  0.45139348468E+03  0.26378286599E+04  0.25989197681E+04 0.  0.
        4    1    3    3  502    0  0.54973532304E+03  0.52947371194E+03  0.12931275271E+04  0.15015764221E+04  0.12699999809E+01 0.  1.
       -4    1    3    3    0  502 -0.54973532304E+03 -0.52947371194E+03 -0.84173404242E+03  0.11362522379E+04  0.12699999809E+01 0. -1.
</event>
<event>
 5   0  0.1005492E-05  0.2143404E+04  0.7818609E-02  0.8542361E-01
        1   -1    0    0  501    0  0.00000000000E+00  0.00000000000E+00  0.10733962510E+04  0.10733962510E+04  0.50400001928E-02 0. -1.
       -1   -1    0    0    0  501  0.00000000000E+00  0.00000000000E+00 -0.10700104887E+04  0.10700104887E+04  0.50400001928E-02 0.  1.
    10030    2    1    2    0    0  0.00000000000E+00  0.00000000000E+00  0.33857623459E+01  0.21434067397E+04  0.21434040656E+04 0.  0.
        4    1    3    3  502    0 -0.38715080725E+03  0.53265569589E+03  0.84723269702E+03  0.10730389992E+04  0.12699999809E+01 0. -1.
       -4    1    3    3    0  502  0.38715080725E+03 -0.53265569589E+03 -0.84384693468E+03  0.10703677405E+04  0.12699999809E+01 0.  1.
</event>
<event>
 5   0  0.2484618E-05  0.2610673E+04  0.7818609E-02  0.8364585E-01
        2   -1    0    0  501    0  0.00000000000E+00  0.00000000000E+00  0.16135529921E+04  0.16135529921E+04  0.25500000920E-02 0. -1.
       -2   -1    0    0    0  501  0.00000000000E+00  0.00000000000E+00 -0.10559945790E+04  0.10559945791E+04  0.25500000920E-02 0.  1.
    10030    2    1    2    0    0  0.00000000000E+00  0.00000000000E+00  0.55755841307E+03  0.26695475712E+04  0.26106728732E+04 0.  0.
        3    1    3    3  502    0 -0.10169203492E+03  0.17732977017E+03  0.15970841603E+04  0.16101133322E+04  0.10100000352E+00 0. -1.
       -3    1    3    3    0  502  0.10169203492E+03 -0.17732977017E+03 -0.10395257472E+04  0.10594342390E+04  0.10100000352E+00 0.  1.
</event>
<event>
 5   0  0.2517854E-05  0.2558473E+04  0.7818609E-02  0.8382445E-01
        2   -1    0    0  501    0  0.00000000000E+00  0.00000000000E+00  0.11081097741E+04  0.11081097741E+04  0.25500000920E-02 0.  1.
       -2   -1    0    0    0  501  0.00000000000E+00  0.00000000000E+00 -0.14767909617E+04  0.14767909617E+04  0.25500000920E-02 0. -1.
    10030    2    1    2    0    0  0.00000000000E+00  0.00000000000E+00 -0.36868118762E+03  0.25849007358E+04  0.25584733721E+04 0.  0.
        4    1    3    3  502    0  0.57472111165E+03  0.58521214109E+03  0.80746493625E+03  0.11509903746E+04  0.12699999809E+01 0.  1.
       -4    1    3    3    0  502 -0.57472111165E+03 -0.58521214109E+03 -0.11761461239E+04  0.14339103612E+04  0.12699999809E+01 0. -1.
</event>
<event>
 5   0  0.2517854E-05  0.2517067E+04  0.7818609E-02  0.8396930E-01
        2   -1    0    0  501    0  0.00000000000E+00  0.00000000000E+00  0.29555198365E+04  0.29555198365E+04  0.25500000920E-02 0.  1.
       -2   -1    0    0    0  501  0.00000000000E+00  0.00000000000E+00 -0.53591467184E+03  0.53591467185E+03  0.25500000920E-02 0. -1.
    10030    2    1    2    0    0  0.00000000000E+00  0.00000000000E+00  0.24196051646E+04  0.34914345083E+04  0.25170668988E+04 0.  0.
        4    1    3    3  502    0  0.86141029795E+03  0.54355957890E+03  0.18445176939E+03  0.10351370853E+04  0.12699999809E+01 0. -1.
       -4    1    3    3    0  502 -0.86141029795E+03 -0.54355957890E+03  0.22351533953E+04  0.24562974230E+04  0.12699999809E+01 0.  1.
</event>
<event>
 5   0  0.1034714E-05  0.2548526E+04  0.7818609E-02  0.8385899E-01
        1   -1    0    0  501    0  0.00000000000E+00  0.00000000000E+00  0.80681879918E+03  0.80681879920E+03  0.50400001928E-02 0.  1.
       -1   -1    0    0    0  501  0.00000000000E+00  0.00000000000E+00 -0.20125294262E+04  0.20125294262E+04  0.50400001928E-02 0. -1.
    10030    2    1    2    0    0  0.00000000000E+00  0.00000000000E+00 -0.12057106270E+04  0.28193482254E+04  0.25485262997E+04 0.  0.
        5    1    3    3  502    0  0.12533997975E+04  0.14350165827E+03 -0.40458753269E+03  0.13248837458E+04  0.46999998093E+01 0.  1.
       -5    1    3    3    0  502 -0.12533997975E+04 -0.14350165827E+03 -0.80112309433E+03  0.14944644796E+04  0.46999998093E+01 0. -1.
</event>
<event>
 5   0  0.1000421E-05  0.2537127E+04  0.7818609E-02  0.8389877E-01
       -1   -1    0    0    0  501  0.00000000000E+00  0.00000000000E+00  0.14136632566E+04  0.14136632566E+04  0.50400001928E-02 0. -1.
        1   -1    0    0  501    0  0.00000000000E+00  0.00000000000E+00 -0.11383568161E+04  0.11383568161E+04  0.50400001928E-02 0.  1.
    10030    2    1    2    0    0  0.00000000000E+00  0.00000000000E+00  0.27530644054E+03  0.25520200727E+04  0.25371268820E+04 0.  0.
        3    1    3    3  502    0  0.34128891634E+03 -0.42513424294E+02  0.13658727915E+04  0.14085077240E+04  0.10100000352E+00 0. -1.
       -3    1    3    3    0  502 -0.34128891634E+03  0.42513424294E+02 -0.10905663510E+04  0.11435123488E+04  0.10100000352E+00 0.  1.
</event>
<event>
 5   0  0.2517854E-05  0.2272032E+04  0.7818609E-02  0.8489031E-01
       -2   -1    0    0    0  501  0.00000000000E+00  0.00000000000E+00  0.66315497746E+03  0.66315497746E+03  0.25500000920E-02 0. -1.
        2   -1    0    0  501    0  0.00000000000E+00  0.00000000000E+00 -0.19460486310E+04  0.19460486310E+04  0.25500000920E-02 0.  1.
    10030    2    1    2    0    0  0.00000000000E+00  0.00000000000E+00 -0.12828936536E+04  0.26092036085E+04  0.22720315456E+04 0.  0.
        4    1    3    3  502    0 -0.44547427976E+02 -0.30791331763E+03 -0.18961690856E+04  0.19215238480E+04  0.12699999809E+01 0.  1.
       -4    1    3    3    0  502  0.44547427976E+02  0.30791331763E+03  0.61327543203E+03  0.68767976045E+03  0.12699999809E+01 0. -1.
</event>
<event>
 5   0  0.2528460E-05  0.2758144E+04  0.7818609E-02  0.8316382E-01
        2   -1    0    0  501    0  0.00000000000E+00  0.00000000000E+00  0.14186904730E+04  0.14186904730E+04  0.25500000920E-02 0. -1.
       -2   -1    0    0    0  501  0.00000000000E+00  0.00000000000E+00 -0.13405599817E+04  0.13405599817E+04  0.25500000920E-02 0.  1.
    10030    2    1    2    0    0  0.00000000000E+00  0.00000000000E+00  0.78130491317E+02  0.27592504547E+04  0.27581440677E+04 0.  0.
        5    1    3    3  502    0 -0.10075014141E+04 -0.11699847530E+03 -0.89569163153E+03  0.13531568022E+04  0.46999998093E+01 0.  1.
       -5    1    3    3    0  502  0.10075014141E+04  0.11699847530E+03  0.97382212284E+03  0.14060936525E+04  0.46999998093E+01 0. -1.
</event>
<event>
 5   0  0.1034714E-05  0.2582085E+04  0.7818609E-02  0.8374312E-01
        1   -1    0    0  501    0  0.00000000000E+00  0.00000000000E+00  0.26254777729E+04  0.26254777729E+04  0.50400001928E-02 0. -1.
       -1   -1    0    0    0  501  0.00000000000E+00  0.00000000000E+00 -0.63485225173E+03  0.63485225175E+03  0.50400001928E-02 0.  1.
    10030    2    1    2    0    0  0.00000000000E+00  0.00000000000E+00  0.19906255212E+04  0.32603300247E+04  0.25820847980E+04 0.  0.
        5    1    3    3  502    0  0.12318662360E+04 -0.10511691416E+03  0.52586916911E+03  0.13435417604E+04  0.46999998093E+01 0.  1.
       -5    1    3    3    0  502 -0.12318662360E+04  0.10511691416E+03  0.14647563521E+04  0.19167882643E+04  0.46999998093E+01 0. -1.
</event>
<event>
 5   0  0.1000421E-05  0.2514421E+04  0.7818609E-02  0.8397866E-01
        1   -1    0    0  501    0  0.00000000000E+00  0.00000000000E+00  0.12225573961E+04  0.12225573961E+04  0.50400001928E-02 0.  1.
       -1   -1    0    0    0  501  0.00000000000E+00  0.00000000000E+00 -0.12928463289E+04  0.12928463289E+04  0.50400001928E-02 0. -1.
    10030    2    1    2    0    0  0.00000000000E+00  0.00000000000E+00 -0.70288932771E+02  0.25154037250E+04  0.25144214774E+04 0.  0.
        3    1    3    3  502    0  0.10747690042E+04  0.11298629447E+03 -0.67780067765E+03  0.12756598622E+04  0.10100000352E+00 0. -1.
       -3    1    3    3    0  502 -0.10747690042E+04 -0.11298629447E+03  0.60751174488E+03  0.12397438629E+04  0.10100000352E+00 0.  1.
</event>
<event>
 5   0  0.2662024E-05  0.2585751E+04  0.7818609E-02  0.8373058E-01
       -2   -1    0    0    0  501  0.00000000000E+00  0.00000000000E+00  0.13190404629E+04  0.13190404629E+04  0.25500000920E-02 0.  1.
        2   -1    0    0  501    0  0.00000000000E+00  0.00000000000E+00 -0.12672291158E+04  0.12672291158E+04  0.25500000920E-02 0. -1.
    10030    2    1    2    0    0  0.00000000000E+00  0.00000000000E+00  0.51811347078E+02  0.25862695787E+04  0.25857505522E+04 0.  0.
        2    1    3    3  502    0  0.83036140170E+03  0.11746924631E+03 -0.95827730410E+03  0.12734184202E+04  0.25500000920E-02 0. -1.
       -2    1    3    3    0  502 -0.83036140170E+03 -0.11746924631E+03  0.10100886512E+04  0.13128511586E+04  0.25500000920E-02 0.  1.
</event>
<event>
 5   0  0.2528460E-05  0.2649751E+04  0.7818609E-02  0.8351496E-01
        2   -1    0    0  501    0  0.00000000000E+00  0.00000000000E+00  0.15682811942E+04  0.15682811942E+04  0.25500000920E-02 0. -1.
       -2   -1    0    0    0  501  0.00000000000E+00  0.00000000000E+00 -0.11192477853E+04  0.11192477853E+04  0.25500000920E-02 0.  1.
    10030    2    1    2    0    0  0.00000000000E+00  0.00000000000E+00  0.44903340891E+03  0.26875289796E+04  0.26497511230E+04 0.  0.
        5    1    3    3  502    0  0.33420183432E+03  0.63047339200E+03 -0.90768032103E+03  0.11545965613E+04  0.46999998093E+01 0.  1.
       -5    1    3    3    0  502 -0.33420183432E+03 -0.63047339200E+03  0.13567137299E+04  0.15329324183E+04  0.46999998093E+01 0. -1.
</event>
<event>
 5   0  0.2555801E-05  0.2603597E+04  0.7818609E-02  0.8366980E-01
        2   -1    0    0  501    0  0.00000000000E+00  0.00000000000E+00  0.14460686745E+04  0.14460686745E+04  0.25500000920E-02 0. -1.
       -2   -1    0    0    0  501  0.00000000000E+00  0.00000000000E+00 -0.11719215412E+04  0.11719215412E+04  0.25500000920E-02 0.  1.
    10030    2    1    2    0    0  0.00000000000E+00  0.00000000000E+00  0.27414713330E+03  0.26179902157E+04  0.26035967658E+04 0.  0.
        1    1    3    3  502    0 -0.11382158858E+04  0.62243103128E+03  0.24594604101E+03  0.13203958673E+04  0.50400001928E-02 0. -1.
       -1    1    3    3    0  502  0.11382158858E+04 -0.62243103128E+03  0.28201092286E+02  0.12975943484E+04  0.50400001928E-02 0.  1.
</event>
<event>
 5   0  0.2517854E-05  0.2612540E+04  0.7818609E-02  0.8363954E-01
       -2   -1    0    0    0  501  0.00000000000E+00  0.00000000000E+00  0.12927816276E+04  0.12927816276E+04  0.25500000920E-02 0. -1.
        2   -1    0    0  501    0  0.00000000000E+00  0.00000000000E+00 -0.13198991626E+04  0.13198991626E+04  0.25500000920E-02 0.  1.
    10030    2    1    2    0    0  0.00000000000E+00  0.00000000000E+00 -0.27117534931E+02  0.26126807902E+04  0.26125400572E+04 0.  0.
        4    1    3    3  502    0 -0.39068115175E+03  0.94533100795E+03 -0.82604163621E+03  0.13147733168E+04  0.12699999809E+01 0.  1.
       -4    1    3    3    0  502  0.39068115175E+03 -0.94533100795E+03  0.79892410128E+03  0.12979074734E+04  0.12699999809E+01 0. -1.
</event>
<event>
 5   0  0.2528460E-05  0.2604948E+04  0.7818609E-02  0.8366523E-01
       -2   -1    0    0    0  501  0.00000000000E+00  0.00000000000E+00  0.11951711235E+04  0.11951711235E+04  0.25500000920E-02 0. -1.
        2   -1    0    0  501    0  0.00000000000E+00  0.00000000000E+00 -0.14194101788E+04  0.14194101788E+04  0.25500000920E-02 0.  1.
    10030    2    1    2    0    0  0.00000000000E+00  0.00000000000E+00 -0.22423905527E+03  0.26145813023E+04  0.26049476449E+04 0.  0.
        5    1    3    3  502    0 -0.83087373551E+03  0.99875245490E+02  0.88961440473E+03  0.12213771359E+04  0.46999998093E+01 0. -1.
       -5    1    3    3    0  502  0.83087373551E+03 -0.99875245490E+02 -0.11138534600E+04  0.13932041664E+04  0.46999998093E+01 0.  1.
</event>
<event>
 5   0  0.2484618E-05  0.2575789E+04  0.7818609E-02  0.8376472E-01
       -2   -1    0    0    0  501  0.00000000000E+00  0.00000000000E+00  0.10952830200E+04  0.10952830200E+04  0.25500000920E-02 0. -1.
        2   -1    0    0  501    0  0.00000000000E+00  0.00000000000E+00 -0.15143771908E+04  0.15143771908E+04  0.25500000920E-02 0.  1.
    10030    2    1    2    0    0  0.00000000000E+00  0.00000000000E+00 -0.41909417083E+03  0.26096602107E+04  0.25757885184E+04 0.  0.
        3    1    3    3  502    0 -0.50766764423E+03 -0.34198453302E+02  0.98913213535E+03  0.11123301500E+04  0.10100000352E+00 0. -1.
       -3    1    3    3    0  502  0.50766764423E+03  0.34198453302E+02 -0.14082263062E+04  0.14973300607E+04  0.10100000352E+00 0.  1.
</event>
<event>
 5   0  0.1005492E-05  0.2533733E+04  0.7818609E-02  0.8391066E-01
       -1   -1    0    0    0  501  0.00000000000E+00  0.00000000000E+00  0.76936622614E+03  0.76936622616E+03  0.50400001928E-02 0.  1.
        1   -1    0    0  501    0  0.00000000000E+00  0.00000000000E+00 -0.20860687879E+04  0.20860687880E+04  0.50400001928E-02 0. -1.
    10030    2    1    2    0    0  0.00000000000E+00  0.00000000000E+00 -0.13167025618E+04  0.28554350141E+04  0.25337331121E+04 0.  0.
        4    1    3    3  502    0 -0.18158278817E+03 -0.12306801594E+04 -0.38834129765E+03  0.13032100905E+04  0.12699999809E+01 0.  1.
       -4    1    3    3    0  502  0.18158278817E+03  0.12306801594E+04 -0.92836126415E+03  0.15522249236E+04  0.12699999809E+01 0. -1.
</event>
<event>
 5   0  0.2528460E-05  0.2557208E+04  0.7818609E-02  0.8382883E-01
        2   -1    0    0  501    0  0.00000000000E+00  0.00000000000E+00  0.12370266114E+04  0.12370266114E+04  0.25500000920E-02 0.  1.
       -2   -1    0    0    0  501  0.00000000000E+00  0.00000000000E+00 -0.13215793410E+04  0.13215793410E+04  0.25500000920E-02 0. -1.
    10030    2    1    2    0    0  0.00000000000E+00  0.00000000000E+00 -0.84552729574E+02  0.25586059524E+04  0.25572084889E+04 0.  0.
        5    1    3    3  502    0 -0.51033615051E+03 -0.39900063899E+03  0.10606700139E+04  0.12428545630E+04  0.46999998093E+01 0.  1.
       -5    1    3    3    0  502  0.51033615051E+03  0.39900063899E+03 -0.11452227435E+04  0.13157513894E+04  0.46999998093E+01 0. -1.
</event>
<event>
 5   0  0.1034714E-05  0.2596768E+04  0.7818609E-02  0.8369300E-01
       -1   -1    0    0    0  501  0.00000000000E+00  0.00000000000E+00  0.82809781806E+03  0.82809781808E+03  0.50400001928E-02 0. -1.
        1   -1    0    0  501    0  0.00000000000E+00  0.00000000000E+00 -0.20357513404E+04  0.20357513404E+04  0.50400001928E-02 0.  1.
    10030    2    1    2    0    0  0.00000000000E+00  0.00000000000E+00 -0.12076535224E+04  0.28638491585E+04  0.25967681784E+04 0.  0.
        5    1    3    3  502    0 -0.67559335911E+03 -0.55655945418E+03 -0.16614113262E+04  0.18778962958E+04  0.46999998093E+01 0.  1.
       -5    1    3    3    0  502  0.67559335911E+03  0.55655945418E+03  0.45375780385E+03  0.98595286270E+03  0.46999998093E+01 0. -1.
</event>
<event>
 5   0  0.1034714E-05  0.2587112E+04  0.7818609E-02  0.8372592E-01
        1   -1    0    0  501    0  0.00000000000E+00  0.00000000000E+00  0.17597027190E+04  0.17597027190E+04  0.50400001928E-02 0. -1.
       -1   -1    0    0    0  501  0.00000000000E+00  0.00000000000E+00 -0.95089205129E+03  0.95089205130E+03  0.50400001928E-02 0.  1.
    10030    2    1    2    0    0  0.00000000000E+00  0.00000000000E+00  0.80881066769E+03  0.27105947703E+04  0.25871121569E+04 0.  0.
        5    1    3    3  502    0 -0.12099951176E+04 -0.42999691618E+03  0.24114862108E+03  0.13065834378E+04  0.46999998093E+01 0.  1.
       -5    1    3    3    0  502  0.12099951176E+04  0.42999691618E+03  0.56766204660E+03  0.14040113325E+04  0.46999998093E+01 0. -1.
</event>
<event>
 5   0  0.1034714E-05  0.2615871E+04  0.7818609E-02  0.8362830E-01
        1   -1    0    0  501    0  0.00000000000E+00  0.00000000000E+00  0.11133973411E+04  0.11133973411E+04  0.50400001928E-02 0.  1.
       -1   -1    0    0    0  501  0.00000000000E+00  0.00000000000E+00 -0.15364647050E+04  0.15364647050E+04  0.50400001928E-02 0. -1.
    10030    2    1    2    0    0  0.00000000000E+00  0.00000000000E+00 -0.42306736385E+03  0.26498620461E+04  0.26158713403E+04 0.  0.
        5    1    3    3  502    0  0.41375491991E+03 -0.12387086594E+04 -0.28374353567E+03  0.13364597864E+04  0.46999998093E+01 0.  1.
       -5    1    3    3    0  502 -0.41375491991E+03  0.12387086594E+04 -0.13932382818E+03  0.13134022597E+04  0.46999998093E+01 0. -1.
</event>
<event>
 5   0  0.1025153E-05  0.2617559E+04  0.7818609E-02  0.8362261E-01
       -1   -1    0    0    0  501  0.00000000000E+00  0.00000000000E+00  0.14226894532E+04  0.14226894532E+04  0.50400001928E-02 0. -1.
        1   -1    0    0  501    0  0.00000000000E+00  0.00000000000E+00 -0.12039899376E+04  0.12039899376E+04  0.50400001928E-02 0.  1.
    10030    2    1    2    0    0  0.00000000000E+00  0.00000000000E+00  0.21869951565E+03  0.26266793908E+04  0.26175590049E+04 0.  0.
        1    1    3    3  502    0  0.39987403931E+03 -0.11645248043E+04  0.55461477582E+03  0.13504128320E+04  0.50400001928E-02 0. -1.
       -1    1    3    3    0  502 -0.39987403931E+03  0.11645248043E+04 -0.33591526017E+03  0.12762665588E+04  0.50400001928E-02 0.  1.
</event>
<event>
 5   0  0.2484618E-05  0.2096160E+04  0.7818609E-02  0.8562937E-01
       -2   -1    0    0    0  501  0.00000000000E+00  0.00000000000E+00  0.16626161922E+04  0.16626161922E+04  0.25500000920E-02 0. -1.
        2   -1    0    0  501    0  0.00000000000E+00  0.00000000000E+00 -0.66068864049E+03  0.66068864049E+03  0.25500000920E-02 0.  1.
    10030    2    1    2    0    0  0.00000000000E+00  0.00000000000E+00  0.10019275517E+04  0.23233048327E+04  0.20961599478E+04 0.  0.
        3    1    3    3  502    0 -0.94048461476E+03  0.35882603258E+03  0.82449205783E+03  0.13011743142E+04  0.10100000352E+00 0.  1.
       -3    1    3    3    0  502  0.94048461476E+03 -0.35882603258E+03  0.17743549391E+03  0.10221305185E+04  0.10100000352E+00 0. -1.
</event>
<event>
 5   0  0.8605000E-06  0.2758080E+04  0.7818609E-02  0.8316402E-01
        4   -1    0    0  501    0  0.00000000000E+00  0.00000000000E+00  0.12770132698E+04  0.12770139013E+04  0.12699999809E+01 0.  1.
       -4   -1    0    0    0  501  0.00000000000E+00  0.00000000000E+00 -0.14892171282E+04  0.14892176697E+04  0.12699999809E+01 0. -1.
    10030    2    1    2    0    0  0.00000000000E+00  0.00000000000E+00 -0.21220385835E+03  0.27662315710E+04  0.27580802431E+04 0.  0.
        3    1    3    3  502    0 -0.13719538539E+04 -0.11912372800E+03 -0.33059453293E+02  0.13775125326E+04  0.10100000352E+00 0.  1.
       -3    1    3    3    0  502  0.13719538539E+04  0.11912372800E+03 -0.17914440506E+03  0.13887190385E+04  0.10100000352E+00 0. -1.
</event>
<event>
 5   0  0.1005492E-05  0.2617291E+04  0.7818609E-02  0.8362351E-01
       -1   -1    0    0    0  501  0.00000000000E+00  0.00000000000E+00  0.90327604211E+03  0.90327604212E+03  0.50400001928E-02 0. -1.
        1   -1    0    0  501    0  0.00000000000E+00  0.00000000000E+00 -0.18959357163E+04  0.18959357163E+04  0.50400001928E-02 0.  1.
    10030    2    1    2    0    0  0.00000000000E+00  0.00000000000E+00 -0.99265967423E+03  0.27992117585E+04  0.26172912027E+04 0.  0.
        4    1    3    3  502    0 -0.60557192965E+03 -0.17560392472E+03 -0.17227695024E+04  0.18345273156E+04  0.12699999809E+01 0.  1.
       -4    1    3    3    0  502  0.60557192965E+03  0.17560392472E+03  0.73010982813E+03  0.96468444291E+03  0.12699999809E+01 0. -1.
</event>
<event>
 5   0  0.2517854E-05  0.2600092E+04  0.7818609E-02  0.8368170E-01
       -2   -1    0    0    0  501  0.00000000000E+00  0.00000000000E+00  0.16849923191E+04  0.16849923191E+04  0.25500000920E-02 0. -1.
        2   -1    0    0  501    0  0.00000000000E+00  0.00000000000E+00 -0.10030427249E+04  0.10030427249E+04  0.25500000920E-02 0.  1.
    10030    2    1    2    0    0  0.00000000000E+00  0.00000000000E+00  0.68194959424E+03  0.26880350440E+04  0.26000917578E+04 0.  0.
        4    1    3    3  502    0  0.26849267191E+03  0.12032094556E+04  0.76762744186E+03  0.14522585208E+04  0.12699999809E+01 0. -1.
       -4    1    3    3    0  502 -0.26849267191E+03 -0.12032094556E+04 -0.85677847621E+02  0.12357765232E+04  0.12699999809E+01 0.  1.
</event>
<event>
 5   0  0.2662024E-05  0.2610627E+04  0.7818609E-02  0.8364600E-01
        2   -1    0    0  501    0  0.00000000000E+00  0.00000000000E+00  0.12840634596E+04  0.12840634596E+04  0.25500000920E-02 0.  1.
       -2   -1    0    0    0  501  0.00000000000E+00  0.00000000000E+00 -0.13269149326E+04  0.13269149326E+04  0.25500000920E-02 0. -1.
    10030    2    1    2    0    0  0.00000000000E+00  0.00000000000E+00 -0.42851472996E+02  0.26109783922E+04  0.26106267285E+04 0.  0.
        2    1    3    3  502    0 -0.79227659791E+03 -0.27206116596E+03 -0.10226217677E+04  0.13219208620E+04  0.25500000920E-02 0. -1.
       -2    1    3    3    0  502  0.79227659791E+03  0.27206116596E+03  0.97977029471E+03  0.12890575301E+04  0.25500000920E-02 0.  1.
</event>
<event>
 5   0  0.1025153E-05  0.2488606E+04  0.7818609E-02  0.8407056E-01
        1   -1    0    0  501    0  0.00000000000E+00  0.00000000000E+00  0.19602461556E+04  0.19602461556E+04  0.50400001928E-02 0. -1.
       -1   -1    0    0    0  501  0.00000000000E+00  0.00000000000E+00 -0.78984473460E+03  0.78984473461E+03  0.50400001928E-02 0.  1.
    10030    2    1    2    0    0  0.00000000000E+00  0.00000000000E+00  0.11704014210E+04  0.27500908902E+04  0.24886061195E+04 0.  0.
        1    1    3    3  502    0  0.14943573651E+03 -0.54606785288E+03  0.18096736969E+04  0.18961645573E+04  0.50400001928E-02 0. -1.
       -1    1    3    3    0  502 -0.14943573651E+03  0.54606785288E+03 -0.63927227586E+03  0.85392633290E+03  0.50400001928E-02 0.  1.
</event>
<event>
 5   0  0.2528460E-05  0.2636077E+04  0.7818609E-02  0.8356049E-01
        2   -1    0    0  501    0  0.00000000000E+00  0.00000000000E+00  0.13406819758E+04  0.13406819758E+04  0.25500000920E-02 0.  1.
       -2   -1    0    0    0  501  0.00000000000E+00  0.00000000000E+00 -0.12957774290E+04  0.12957774290E+04  0.25500000920E-02 0. -1.
    10030    2    1    2    0    0  0.00000000000E+00  0.00000000000E+00  0.44904546810E+02  0.26364594049E+04  0.26360769669E+04 0.  0.
        5    1    3    3  502    0 -0.11972733612E+02 -0.93630476273E+03 -0.90525622929E+03  0.13024288409E+04  0.46999998093E+01 0. -1.
       -5    1    3    3    0  502  0.11972733612E+02  0.93630476273E+03  0.95016077610E+03  0.13340305639E+04  0.46999998093E+01 0.  1.
</event>
<event>
 5   0  0.1000421E-05  0.2684659E+04  0.7818609E-02  0.8340000E-01
        1   -1    0    0  501    0  0.00000000000E+00  0.00000000000E+00  0.11729447486E+04  0.11729447487E+04  0.50400001928E-02 0. -1.
       -1   -1    0    0    0  501  0.00000000000E+00  0.00000000000E+00 -0.15361749505E+04  0.15361749505E+04  0.50400001928E-02 0.  1.
    10030    2    1    2    0    0  0.00000000000E+00  0.00000000000E+00 -0.36323020189E+03  0.27091196992E+04  0.26846588918E+04 0.  0.
        3    1    3    3  502    0 -0.65853928999E+03  0.17754034561E+03 -0.13482864796E+04  0.15109834585E+04  0.10100000352E+00 0.  1.
       -3    1    3    3    0  502  0.65853928999E+03 -0.17754034561E+03  0.98505627769E+03  0.11981362407E+04  0.10100000352E+00 0. -1.
</event>
<event>
 5   0  0.2517854E-05  0.2572764E+04  0.7818609E-02  0.8377512E-01
       -2   -1    0    0    0  501  0.00000000000E+00  0.00000000000E+00  0.14347081646E+04  0.14347081646E+04  0.25500000920E-02 0. -1.
        2   -1    0    0  501    0  0.00000000000E+00  0.00000000000E+00 -0.11533907367E+04  0.11533907367E+04  0.25500000920E-02 0.  1.
    10030    2    1    2    0    0  0.00000000000E+00  0.00000000000E+00  0.28131742783E+03  0.25880989013E+04  0.25727643553E+04 0.  0.
        4    1    3    3  502    0  0.63983292712E+03  0.10251454688E+04  0.58427249526E+03  0.13422687393E+04  0.12699999809E+01 0.  1.
       -4    1    3    3    0  502 -0.63983292712E+03 -0.10251454688E+04 -0.30295506744E+03  0.12458301620E+04  0.12699999809E+01 0. -1.
</event>
<event>
 5   0  0.8605000E-06  0.2622299E+04  0.7818609E-02  0.8360666E-01
       -4   -1    0    0    0  501  0.00000000000E+00  0.00000000000E+00  0.16367781164E+04  0.16367786091E+04  0.12699999809E+01 0.  1.
        4   -1    0    0  501    0  0.00000000000E+00  0.00000000000E+00 -0.10503017700E+04  0.10503025378E+04  0.12699999809E+01 0. -1.
    10030    2    1    2    0    0  0.00000000000E+00  0.00000000000E+00  0.58647634640E+03  0.26870811469E+04  0.26222987215E+04 0.  0.
        3    1    3    3  502    0 -0.74753003017E+03  0.97890629930E+03 -0.16737068741E+03  0.12430091094E+04  0.10100000352E+00 0.  1.
       -3    1    3    3    0  502  0.74753003017E+03 -0.97890629930E+03  0.75384703380E+03  0.14440720375E+04  0.10100000352E+00 0. -1.
</event>
<event>
 5   0  0.1025153E-05  0.2231856E+04  0.7818609E-02  0.8505285E-01
        1   -1    0    0  501    0  0.00000000000E+00  0.00000000000E+00  0.13294414528E+04  0.13294414528E+04  0.50400001928E-02 0.  1.
       -1   -1    0    0    0  501  0.00000000000E+00  0.00000000000E+00 -0.93670561813E+03  0.93670561814E+03  0.50400001928E-02 0. -1.
    10030    2    1    2    0    0  0.00000000000E+00  0.00000000000E+00  0.39273583466E+03  0.22661470709E+04  0.22318559791E+04 0.  0.
        1    1    3    3  502    0 -0.83865417157E+03  0.51919468804E+03  0.72629799395E+03  0.12249133519E+04  0.50400001928E-02 0.  1.
       -1    1    3    3    0  502  0.83865417157E+03 -0.51919468804E+03 -0.33356215929E+03  0.10412337191E+04  0.50400001928E-02 0. -1.
</event>
<event>
 5   0  0.1025153E-05  0.2589146E+04  0.7818609E-02  0.8371897E-01
        1   -1    0    0  501    0  0.00000000000E+00  0.00000000000E+00  0.17288875602E+04  0.17288875602E+04  0.50400001928E-02 0.  1.
       -1   -1    0    0    0  501  0.00000000000E+00  0.00000000000E+00 -0.96936296303E+03  0.96936296304E+03  0.50400001928E-02 0. -1.
    10030    2    1    2    0    0  0.00000000000E+00  0.00000000000E+00  0.75952459720E+03  0.26982505233E+04  0.25891462440E+04 0.  0.
        1    1    3    3  502    0 -0.59131626431E+03 -0.10861340101E+04 -0.19225326579E+02  0.12368151137E+04  0.50400001928E-02 0.  1.
       -1    1    3    3    0  502  0.59131626431E+03  0.10861340101E+04  0.77874992378E+03  0.14614354095E+04  0.50400001928E-02 0. -1.
</event>
<event>
 5   0  0.1000421E-05  0.2648766E+04  0.7818609E-02  0.8351823E-01
       -1   -1    0    0    0  501  0.00000000000E+00  0.00000000000E+00  0.96019394887E+03  0.96019394888E+03  0.50400001928E-02 0.  1.
        1   -1    0    0  501    0  0.00000000000E+00  0.00000000000E+00 -0.18267039206E+04  0.18267039206E+04  0.50400001928E-02 0. -1.
    10030    2    1    2    0    0  0.00000000000E+00  0.00000000000E+00 -0.86650997173E+03  0.27868978695E+04  0.26487657888E+04 0.  0.
        3    1    3    3  502    0 -0.94587006390E+03  0.38698363132E+03 -0.13195394541E+04  0.16690149459E+04  0.10100000352E+00 0. -1.
       -3    1    3    3    0  502  0.94587006390E+03 -0.38698363132E+03  0.45302948235E+03  0.11178829236E+04  0.10100000352E+00 0.  1.
</event>
<event>
 5   0  0.2517854E-05  0.2592289E+04  0.7818609E-02  0.8370825E-01
       -2   -1    0    0    0  501  0.00000000000E+00  0.00000000000E+00  0.11904107291E+04  0.11904107291E+04  0.25500000920E-02 0. -1.
        2   -1    0    0  501    0  0.00000000000E+00  0.00000000000E+00 -0.14112693439E+04  0.14112693439E+04  0.25500000920E-02 0.  1.
    10030    2    1    2    0    0  0.00000000000E+00  0.00000000000E+00 -0.22085861478E+03  0.26016800730E+04  0.25922886943E+04 0.  0.
        4    1    3    3  502    0  0.46313450812E+03  0.39596137368E+03  0.10377035995E+04  0.12033741543E+04  0.12699999809E+01 0. -1.
       -4    1    3    3    0  502 -0.46313450812E+03 -0.39596137368E+03 -0.12585622143E+04  0.13983059187E+04  0.12699999809E+01 0.  1.
</event>
<event>
 5   0  0.2555801E-05  0.2547852E+04  0.7818609E-02  0.8386134E-01
       -2   -1    0    0    0  501  0.00000000000E+00  0.00000000000E+00  0.86874456006E+03  0.86874456006E+03  0.25500000920E-02 0. -1.
        2   -1    0    0  501    0  0.00000000000E+00  0.00000000000E+00 -0.18680832976E+04  0.18680832976E+04  0.25500000920E-02 0.  1.
    10030    2    1    2    0    0  0.00000000000E+00  0.00000000000E+00 -0.99933873752E+03  0.27368278576E+04  0.25478518030E+04 0.  0.
        1    1    3    3  502    0  0.69353047495E+02 -0.35746945778E+03 -0.18109907454E+04  0.18472362433E+04  0.50400001928E-02 0.  1.
       -1    1    3    3    0  502 -0.69353047495E+02  0.35746945778E+03  0.81165200789E+03  0.88959161438E+03  0.50400001928E-02 0. -1.
</event>
<event>
 5   0  0.8605000E-06  0.2620101E+04  0.7818609E-02  0.8361405E-01
       -4   -1    0    0    0  501  0.00000000000E+00  0.00000000000E+00  0.12229717466E+04  0.12229724060E+04  0.12699999809E+01 0. -1.
        4   -1    0    0  501    0  0.00000000000E+00  0.00000000000E+00 -0.14033277785E+04  0.14033283532E+04  0.12699999809E+01 0.  1.
    10030    2    1    2    0    0  0.00000000000E+00  0.00000000000E+00 -0.18035603189E+03  0.26263007592E+04  0.26201006430E+04 0.  0.
        5    1    3    3  502    0  0.67643012353E+03 -0.10845667139E+04  0.19749778844E+03  0.12933948103E+04  0.46999998093E+01 0. -1.
       -5    1    3    3    0  502 -0.67643012353E+03  0.10845667139E+04 -0.37785382032E+03  0.13329059489E+04  0.46999998093E+01 0.  1.
</event>
<event>
 5   0  0.9855352E-06  0.2597192E+04  0.7818609E-02  0.8369156E-01
       -1   -1    0    0    0  501  0.00000000000E+00  0.00000000000E+00  0.13175720892E+04  0.13175720892E+04  0.50400001928E-02 0. -1.
        1   -1    0    0  501    0  0.00000000000E+00  0.00000000000E+00 -0.12798931154E+04  0.12798931154E+04  0.50400001928E-02 0.  1.
    10030    2    1    2    0    0  0.00000000000E+00  0.00000000000E+00  0.37678973806E+02  0.25974652046E+04  0.25971919036E+04 0.  0.
        2    1    3    3  502    0  0.82776129179E+02  0.92527694396E+03 -0.88864904109E+03  0.12855685236E+04  0.25500000920E-02 0.  1.
       -2    1    3    3    0  502 -0.82776129179E+02 -0.92527694396E+03  0.92632801489E+03  0.13118966811E+04  0.25500000920E-02 0. -1.
</event>
<event>
 5   0  0.1034714E-05  0.1867592E+04  0.7818609E-02  0.8671158E-01
        1   -1    0    0  501    0  0.00000000000E+00  0.00000000000E+00  0.86204981073E+03  0.86204981074E+03  0.50400001928E-02 0. -1.
       -1   -1    0    0    0  501  0.00000000000E+00  0.00000000000E+00 -0.10115133038E+04  0.10115133038E+04  0.50400001928E-02 0.  1.
    10030    2    1    2    0    0  0.00000000000E+00  0.00000000000E+00 -0.14946349303E+03  0.18735631145E+04  0.18675918741E+04 0.  0.
        5    1    3    3  502    0 -0.16448859001E+02  0.25982881679E+03  0.82489136754E+03  0.86501412546E+03  0.46999998093E+01 0. -1.
       -5    1    3    3    0  502  0.16448859001E+02 -0.25982881679E+03 -0.97435486058E+03  0.10085489891E+04  0.46999998093E+01 0.  1.
</event>
<event>
 5   0  0.2517854E-05  0.2610576E+04  0.7818609E-02  0.8364617E-01
        2   -1    0    0  501    0  0.00000000000E+00  0.00000000000E+00  0.20952612247E+04  0.20952612247E+04  0.25500000920E-02 0. -1.
       -2   -1    0    0    0  501  0.00000000000E+00  0.00000000000E+00 -0.81315746892E+03  0.81315746892E+03  0.25500000920E-02 0.  1.
    10030    2    1    2    0    0  0.00000000000E+00  0.00000000000E+00  0.12821037558E+04  0.29084186936E+04  0.26105764223E+04 0.  0.
        4    1    3    3  502    0  0.12769142838E+04 -0.27048023296E+03  0.65252520630E+03  0.14592670771E+04  0.12699999809E+01 0.  1.
       -4    1    3    3    0  502 -0.12769142838E+04  0.27048023296E+03  0.62957854947E+03  0.14491516165E+04  0.12699999809E+01 0. -1.
</event>
<event>
 5   0  0.1000421E-05  0.2641086E+04  0.7818609E-02  0.8354378E-01
        1   -1    0    0  501    0  0.00000000000E+00  0.00000000000E+00  0.19129092854E+04  0.19129092854E+04  0.50400001928E-02 0. -1.
       -1   -1    0    0    0  501  0.00000000000E+00  0.00000000000E+00 -0.91161366542E+03  0.91161366543E+03  0.50400001928E-02 0.  1.
    10030    2    1    2    0    0  0.00000000000E+00  0.00000000000E+00  0.10012956200E+04  0.28245229508E+04  0.26410863260E+04 0.  0.
        3    1    3    3  502    0  0.16983444223E+02 -0.10464717185E+04  0.13618365194E+04  0.17175535540E+04  0.10100000352E+00 0. -1.
       -3    1    3    3    0  502 -0.16983444223E+02  0.10464717185E+04 -0.36054089946E+03  0.11069693968E+04  0.10100000352E+00 0.  1.
</event>
<event>
 5   0  0.2517854E-05  0.1991353E+04  0.7818609E-02  0.8610674E-01
        2   -1    0    0  501    0  0.00000000000E+00  0.00000000000E+00  0.13957532702E+04  0.13957532702E+04  0.25500000920E-02 0.  1.
       -2   -1    0    0    0  501  0.00000000000E+00  0.00000000000E+00 -0.71027716939E+03  0.71027716940E+03  0.25500000920E-02 0. -1.
    10030    2    1    2    0    0  0.00000000000E+00  0.00000000000E+00  0.68547610082E+03  0.21060304396E+04  0.19913529892E+04 0.  0.
        4    1    3    3  502    0  0.54864405561E+03 -0.58382210774E+03 -0.28250250247E+03  0.84951034722E+03  0.12699999809E+01 0. -1.
       -4    1    3    3    0  502 -0.54864405561E+03  0.58382210774E+03  0.96797860329E+03  0.12565200924E+04  0.12699999809E+01 0.  1.
</event>
<event>
 5   0  0.1000421E-05  0.2649420E+04  0.7818609E-02  0.8351606E-01
       -1   -1    0    0    0  501  0.00000000000E+00  0.00000000000E+00  0.15029333575E+04  0.15029333575E+04  0.50400001928E-02 0. -1.
        1   -1    0    0  501    0  0.00000000000E+00  0.00000000000E+00 -0.11676210065E+04  0.11676210066E+04  0.50400001928E-02 0.  1.
    10030    2    1    2    0    0  0.00000000000E+00  0.00000000000E+00  0.33531235098E+03  0.26705543641E+04  0.26494199816E+04 0.  0.
        3    1    3    3  502    0  0.45178480778E+03  0.11931369389E+03  0.14171050560E+04  0.14921568349E+04  0.10100000352E+00 0. -1.
       -3    1    3    3    0  502 -0.45178480778E+03 -0.11931369389E+03 -0.10817927050E+04  0.11783975292E+04  0.10100000352E+00 0.  1.
</event>
<event>
 5   0  0.1025153E-05  0.2606455E+04  0.7818609E-02  0.8366012E-01
       -1   -1    0    0    0  501  0.00000000000E+00  0.00000000000E+00  0.90160517936E+03  0.90160517937E+03  0.50400001928E-02 0.  1.
        1   -1    0    0  501    0  0.00000000000E+00  0.00000000000E+00 -0.18837530244E+04  0.18837530244E+04  0.50400001928E-02 0. -1.
    10030    2    1    2    0    0  0.00000000000E+00  0.00000000000E+00 -0.98214784504E+03  0.27853582038E+04  0.26064546675E+04 0.  0.
        1    1    3    3  502    0 -0.11803135804E+04 -0.38849871800E+03 -0.71260643866E+02  0.12446483364E+04  0.50400001928E-02 0.  1.
       -1    1    3    3    0  502  0.11803135804E+04  0.38849871800E+03 -0.91088720117E+03  0.15407098673E+04  0.50400001928E-02 0. -1.
</event>
<event>
 5   0  0.2517854E-05  0.2571010E+04  0.7818609E-02  0.8378116E-01
       -2   -1    0    0    0  501  0.00000000000E+00  0.00000000000E+00  0.73385096780E+03  0.73385096780E+03  0.25500000920E-02 0.  1.
        2   -1    0    0  501    0  0.00000000000E+00  0.00000000000E+00 -0.22518505578E+04  0.22518505578E+04  0.25500000920E-02 0. -1.
    10030    2    1    2    0    0  0.00000000000E+00  0.00000000000E+00 -0.15179995900E+04  0.29857015256E+04  0.25710096936E+04 0.  0.
        4    1    3    3  502    0  0.12225681732E+03  0.12238044432E+04 -0.32467370946E+03  0.12720293531E+04  0.12699999809E+01 0.  1.
       -4    1    3    3    0  502 -0.12225681732E+03 -0.12238044432E+04 -0.11933258806E+04  0.17136721725E+04  0.12699999809E+01 0. -1.
</event>
<event>
 5   0  0.2555801E-05  0.2584409E+04  0.7818609E-02  0.8373516E-01
       -2   -1    0    0    0  501  0.00000000000E+00  0.00000000000E+00  0.10143502310E+04  0.10143502310E+04  0.25500000920E-02 0. -1.
        2   -1    0    0  501    0  0.00000000000E+00  0.00000000000E+00 -0.16461701363E+04  0.16461701363E+04  0.25500000920E-02 0.  1.
    10030    2    1    2    0    0  0.00000000000E+00  0.00000000000E+00 -0.63181990530E+03  0.26605203673E+04  0.25844094552E+04 0.  0.
        1    1    3    3  502    0 -0.14294600008E+03 -0.84254388500E+02  0.10033376584E+04  0.10169654948E+04  0.50400001928E-02 0. -1.
       -1    1    3    3    0  502  0.14294600008E+03  0.84254388500E+02 -0.16351575637E+04  0.16435548725E+04  0.50400001928E-02 0.  1.
</event>
<event>
 5   0  0.2517854E-05  0.2576655E+04  0.7818609E-02  0.8376174E-01
       -2   -1    0    0    0  501  0.00000000000E+00  0.00000000000E+00  0.11485964984E+04  0.11485964984E+04  0.25500000920E-02 0. -1.
        2   -1    0    0  501    0  0.00000000000E+00  0.00000000000E+00 -0.14450574535E+04  0.14450574535E+04  0.25500000920E-02 0.  1.
    10030    2    1    2    0    0  0.00000000000E+00  0.00000000000E+00 -0.29646095515E+03  0.25936539519E+04  0.25766551427E+04 0.  0.
        4    1    3    3  502    0 -0.10105161347E+04 -0.78171201370E+03  0.18906460732E+02  0.12777228174E+04  0.12699999809E+01 0.  1.
       -4    1    3    3    0  502  0.10105161347E+04  0.78171201370E+03 -0.31536741588E+03  0.13159311345E+04  0.12699999809E+01 0. -1.
</event>
<event>
 5   0  0.2517854E-05  0.2630786E+04  0.7818609E-02  0.8357819E-01
       -2   -1    0    0    0  501  0.00000000000E+00  0.00000000000E+00  0.74340887128E+03  0.74340887129E+03  0.25500000920E-02 0. -1.
        2   -1    0    0  501    0  0.00000000000E+00  0.00000000000E+00 -0.23274654238E+04  0.23274654238E+04  0.25500000920E-02 0.  1.
    10030    2    1    2    0    0  0.00000000000E+00  0.00000000000E+00 -0.15840565525E+04  0.30708742951E+04  0.26307857713E+04 0.  0.
        4    1    3    3  502    0  0.11632587201E+04 -0.57959162399E+03 -0.10288446680E+04  0.16575947226E+04  0.12699999809E+01 0. -1.
       -4    1    3    3    0  502 -0.11632587201E+04  0.57959162399E+03 -0.55521188449E+03  0.14132795725E+04  0.12699999809E+01 0.  1.
</event>
<event>
 5   0  0.1025153E-05  0.2589104E+04  0.7818609E-02  0.8371912E-01
        1   -1    0    0  501    0  0.00000000000E+00  0.00000000000E+00  0.11365574626E+04  0.11365574626E+04  0.50400001928E-02 0. -1.
       -1   -1    0    0    0  501  0.00000000000E+00  0.00000000000E+00 -0.14745090528E+04  0.14745090528E+04  0.50400001928E-02 0.  1.
    10030    2    1    2    0    0  0.00000000000E+00  0.00000000000E+00 -0.33795159022E+03  0.26110665154E+04  0.25891035264E+04 0.  0.
        1    1    3    3  502    0 -0.34148220978E+03  0.99104332867E+03  0.59713092752E+03  0.12063756975E+04  0.50400001928E-02 0. -1.
       -1    1    3    3    0  502  0.34148220978E+03 -0.99104332867E+03 -0.93508251773E+03  0.14046908179E+04  0.50400001928E-02 0.  1.
</event>
<event>
 5   0  0.1000421E-05  0.2594274E+04  0.7818609E-02  0.8370149E-01
       -1   -1    0    0    0  501  0.00000000000E+00  0.00000000000E+00  0.76383275668E+03  0.76383275669E+03  0.50400001928E-02 0.  1.
        1   -1    0    0  501    0  0.00000000000E+00  0.00000000000E+00 -0.22027916064E+04  0.22027916064E+04  0.50400001928E-02 0. -1.
    10030    2    1    2    0    0  0.00000000000E+00  0.00000000000E+00 -0.14389588497E+04  0.29666243631E+04  0.25942739910E+04 0.  0.
        3    1    3    3  502    0  0.11970466699E+04 -0.23345770459E+03 -0.12246303376E+04  0.17283352406E+04  0.10100000352E+00 0. -1.
       -3    1    3    3    0  502 -0.11970466699E+04  0.23345770459E+03 -0.21432851207E+03  0.12382891225E+04  0.10100000352E+00 0.  1.
</event>
<event>
 5   0  0.2662024E-05  0.2272369E+04  0.7818609E-02  0.8488896E-01
       -2   -1    0    0    0  501  0.00000000000E+00  0.00000000000E+00  0.58691049799E+03  0.58691049800E+03  0.25500000920E-02 0. -1.
        2   -1    0    0  501    0  0.00000000000E+00  0.00000000000E+00 -0.21995088828E+04  0.21995088828E+04  0.25500000920E-02 0.  1.
    10030    2    1    2    0    0  0.00000000000E+00  0.00000000000E+00 -0.16125983848E+04  0.27864193808E+04  0.22723686794E+04 0.  0.
        2    1    3    3  502    0  0.69624749678E+02 -0.40263879445E+02  0.58341542098E+03  0.58893322134E+03  0.25500000920E-02 0. -1.
       -2    1    3    3    0  502 -0.69624749678E+02  0.40263879445E+02 -0.21960138058E+04  0.21974861594E+04  0.25500000920E-02 0.  1.
</event>
<event>
 5   0  0.9855352E-06  0.2634715E+04  0.7818609E-02  0.8356504E-01
        1   -1    0    0  501    0  0.00000000000E+00  0.00000000000E+00  0.10565930956E+04  0.10565930956E+04  0.50400001928E-02 0. -1.
       -1   -1    0    0    0  501  0.00000000000E+00  0.00000000000E+00 -0.16424773936E+04  0.16424773936E+04  0.50400001928E-02 0.  1.
    10030    2    1    2    0    0  0.00000000000E+00  0.00000000000E+00 -0.58588429797E+03  0.26990704892E+04  0.26347146136E+04 0.  0.
        2    1    3    3  502    0  0.40463490627E+03 -0.26873789379E+02 -0.15769444149E+04  0.16282522211E+04  0.25500000920E-02 0.  1.
       -2    1    3    3    0  502 -0.40463490627E+03  0.26873789379E+02  0.99106011693E+03  0.10708182681E+04  0.25500000920E-02 0. -1.
</event>
<event>
 5   0  0.1005492E-05  0.2609233E+04  0.7818609E-02  0.8365072E-01
       -1   -1    0    0    0  501  0.00000000000E+00  0.00000000000E+00  0.80411194988E+03  0.80411194990E+03  0.50400001928E-02 0. -1.
        1   -1    0    0  501    0  0.00000000000E+00  0.00000000000E+00 -0.21166509027E+04  0.21166509027E+04  0.50400001928E-02 0.  1.
    10030    2    1    2    0    0  0.00000000000E+00  0.00000000000E+00 -0.13125389528E+04  0.29207628526E+04  0.26092330556E+04 0.  0.
        4    1    3    3  502    0  0.14557768931E+03 -0.11463175872E+04 -0.13342070114E+04  0.17650345143E+04  0.12699999809E+01 0. -1.
       -4    1    3    3    0  502 -0.14557768931E+03  0.11463175872E+04  0.21668058596E+02  0.11557283383E+04  0.12699999809E+01 0.  1.
</event>
<event>
 5   0  0.1005492E-05  0.2631243E+04  0.7818609E-02  0.8357665E-01
        1   -1    0    0  501    0  0.00000000000E+00  0.00000000000E+00  0.14256428007E+04  0.14256428007E+04  0.50400001928E-02 0.  1.
       -1   -1    0    0    0  501  0.00000000000E+00  0.00000000000E+00 -0.12140909724E+04  0.12140909725E+04  0.50400001928E-02 0. -1.
    10030    2    1    2    0    0  0.00000000000E+00  0.00000000000E+00  0.21155182829E+03  0.26397337732E+04  0.26312430935E+04 0.  0.
        4    1    3    3  502    0 -0.56758519611E+02 -0.55967881222E+03  0.12988976240E+04  0.14154852712E+04  0.12699999809E+01 0.  1.
       -4    1    3    3    0  502  0.56758519611E+02  0.55967881222E+03 -0.10873457957E+04  0.12242485020E+04  0.12699999809E+01 0. -1.
</event>
<event>
 5   0  0.2662024E-05  0.2638496E+04  0.7818609E-02  0.8355241E-01
       -2   -1    0    0    0  501  0.00000000000E+00  0.00000000000E+00  0.10360970610E+04  0.10360970611E+04  0.25500000920E-02 0.  1.
        2   -1    0    0  501    0  0.00000000000E+00  0.00000000000E+00 -0.16797799240E+04  0.16797799240E+04  0.25500000920E-02 0. -1.
    10030    2    1    2    0    0  0.00000000000E+00  0.00000000000E+00 -0.64368286292E+03  0.27158769850E+04  0.26384958158E+04 0.  0.
        2    1    3    3  502    0 -0.89229082860E+03  0.24859658814E+03  0.64508687434E+03  0.11287693573E+04  0.25500000920E-02 0.  1.
       -2    1    3    3    0  502  0.89229082860E+03 -0.24859658814E+03 -0.12887697373E+04  0.15871076278E+04  0.25500000920E-02 0. -1.
</event>
<event>
 5   0  0.1025153E-05  0.2508414E+04  0.7818609E-02  0.8399994E-01
       -1   -1    0    0    0  501  0.00000000000E+00  0.00000000000E+00  0.15301768642E+04  0.15301768642E+04  0.50400001928E-02 0. -1.
        1   -1    0    0  501    0  0.00000000000E+00  0.00000000000E+00 -0.10280084540E+04  0.10280084540E+04  0.50400001928E-02 0.  1.
    10030    2    1    2    0    0  0.00000000000E+00  0.00000000000E+00  0.50216841021E+03  0.25581853182E+04  0.25084136442E+04 0.  0.
        1    1    3    3  502    0 -0.10714685901E+04  0.40162130986E+03  0.77478084844E+03  0.13818936208E+04  0.50400001928E-02 0. -1.
       -1    1    3    3    0  502  0.10714685901E+04 -0.40162130986E+03 -0.27261243823E+03  0.11762916975E+04  0.50400001928E-02 0.  1.
</event>
<event>
 5   0  0.2662024E-05  0.2622672E+04  0.7818609E-02  0.8360540E-01
        2   -1    0    0  501    0  0.00000000000E+00  0.00000000000E+00  0.20388533742E+04  0.20388533742E+04  0.25500000920E-02 0. -1.
       -2   -1    0    0    0  501  0.00000000000E+00  0.00000000000E+00 -0.84341653169E+03  0.84341653169E+03  0.25500000920E-02 0.  1.
    10030    2    1    2    0    0  0.00000000000E+00  0.00000000000E+00  0.11954368425E+04  0.28822699059E+04  0.26226724092E+04 0.  0.
        2    1    3    3  502    0  0.35089829218E+03 -0.12379015470E+04  0.87589939149E+03  0.15565119966E+04  0.25500000920E-02 0. -1.
       -2    1    3    3    0  502 -0.35089829218E+03  0.12379015470E+04  0.31953745101E+03  0.13257579093E+04  0.25500000920E-02 0.  1.
</event>
<event>
 5   0  0.2662024E-05  0.2568988E+04  0.7818609E-02  0.8378812E-01
        2   -1    0    0  501    0  0.00000000000E+00  0.00000000000E+00  0.17627983035E+04  0.17627983035E+04  0.25500000920E-02 0. -1.
       -2   -1    0    0    0  501  0.00000000000E+00  0.00000000000E+00 -0.93596888889E+03  0.93596888889E+03  0.25500000920E-02 0.  1.
    10030    2    1    2    0    0  0.00000000000E+00  0.00000000000E+00  0.82682941465E+03  0.26987671924E+04  0.25689876368E+04 0.  0.
        2    1    3    3  502    0  0.19836365144E+03 -0.11650012197E+04  0.94217944080E+03  0.15113828366E+04  0.25500000920E-02 0. -1.
       -2    1    3    3    0  502 -0.19836365144E+03  0.11650012197E+04 -0.11535002615E+03  0.11873843559E+04  0.25500000920E-02 0.  1.
</event>
<event>
 5   0  0.2662024E-05  0.2600810E+04  0.7818609E-02  0.8367926E-01
        2   -1    0    0  501    0  0.00000000000E+00  0.00000000000E+00  0.15288995552E+04  0.15288995552E+04  0.25500000920E-02 0. -1.
       -2   -1    0    0    0  501  0.00000000000E+00  0.00000000000E+00 -0.11060586500E+04  0.11060586501E+04  0.25500000920E-02 0.  1.
    10030    2    1    2    0    0  0.00000000000E+00  0.00000000000E+00  0.42284090517E+03  0.26349582053E+04  0.26008095494E+04 0.  0.
        2    1    3    3  502    0 -0.64434215902E+03 -0.10353483222E+04 -0.24609453580E+03  0.12440600816E+04  0.25500000920E-02 0.  1.
       -2    1    3    3    0  502  0.64434215902E+03  0.10353483222E+04  0.66893544097E+03  0.13908981236E+04  0.25500000920E-02 0. -1.
</event>
<event>
 5   0  0.2555801E-05  0.2683783E+04  0.7818609E-02  0.8340286E-01
        2   -1    0    0  501    0  0.00000000000E+00  0.00000000000E+00  0.23139483314E+04  0.23139483314E+04  0.25500000920E-02 0.  1.
       -2   -1    0    0    0  501  0.00000000000E+00  0.00000000000E+00 -0.77818191135E+03  0.77818191135E+03  0.25500000920E-02 0. -1.
    10030    2    1    2    0    0  0.00000000000E+00  0.00000000000E+00  0.15357664201E+04  0.30921302428E+04  0.26837829534E+04 0.  0.
        1    1    3    3  502    0  0.60749560487E+02  0.13357852196E+04  0.89752006859E+03  0.16104517799E+04  0.50400001928E-02 0. -1.
       -1    1    3    3    0  502 -0.60749560487E+02 -0.13357852196E+04  0.63824635146E+03  0.14816784628E+04  0.50400001928E-02 0.  1.
</event>
<event>
 5   0  0.9855352E-06  0.2633748E+04  0.7818609E-02  0.8356827E-01
       -1   -1    0    0    0  501  0.00000000000E+00  0.00000000000E+00  0.20021270800E+04  0.20021270800E+04  0.50400001928E-02 0.  1.
        1   -1    0    0  501    0  0.00000000000E+00  0.00000000000E+00 -0.86615707665E+03  0.86615707666E+03  0.50400001928E-02 0. -1.
    10030    2    1    2    0    0  0.00000000000E+00  0.00000000000E+00  0.11359700034E+04  0.28682841567E+04  0.26337475496E+04 0.  0.
        2    1    3    3  502    0 -0.12079629493E+04 -0.36015453571E+02 -0.17507576295E+01  0.12085009992E+04  0.25500000920E-02 0. -1.
       -2    1    3    3    0  502  0.12079629493E+04  0.36015453571E+02  0.11377207610E+04  0.16597831575E+04  0.25500000920E-02 0.  1.
</event>
<event>
 5   0  0.2517854E-05  0.2563174E+04  0.7818609E-02  0.8380819E-01
        2   -1    0    0  501    0  0.00000000000E+00  0.00000000000E+00  0.13289399698E+04  0.13289399698E+04  0.25500000920E-02 0. -1.
       -2   -1    0    0    0  501  0.00000000000E+00  0.00000000000E+00 -0.12359216407E+04  0.12359216407E+04  0.25500000920E-02 0.  1.
    10030    2    1    2    0    0  0.00000000000E+00  0.00000000000E+00  0.93018329124E+02  0.25648616105E+04  0.25631743350E+04 0.  0.
        4    1    3    3  502    0  0.50905221971E+03 -0.96975192973E+03  0.71246291260E+03  0.13065825586E+04  0.12699999809E+01 0. -1.
       -4    1    3    3    0  502 -0.50905221971E+03  0.96975192973E+03 -0.61944458348E+03  0.12582790519E+04  0.12699999809E+01 0.  1.
</event>
<event>
 5   0  0.2528460E-05  0.2590686E+04  0.7818609E-02  0.8371372E-01
        2   -1    0    0  501    0  0.00000000000E+00  0.00000000000E+00  0.13629220557E+04  0.13629220557E+04  0.25500000920E-02 0. -1.
       -2   -1    0    0    0  501  0.00000000000E+00  0.00000000000E+00 -0.12311150504E+04  0.12311150504E+04  0.25500000920E-02 0.  1.
    10030    2    1    2    0    0  0.00000000000E+00  0.00000000000E+00  0.13180700528E+03  0.25940371061E+04  0.25906862838E+04 0.  0.
        5    1    3    3  502    0  0.89045257749E+03  0.24015912777E+03  0.97664553665E+03  0.13432947531E+04  0.46999998093E+01 0. -1.
       -5    1    3    3    0  502 -0.89045257749E+03 -0.24015912777E+03 -0.84483853138E+03  0.12507423530E+04  0.46999998093E+01 0.  1.
</event>
<event>
 5   0  0.1000421E-05  0.2760564E+04  0.7818609E-02  0.8315617E-01
       -1   -1    0    0    0  501  0.00000000000E+00  0.00000000000E+00  0.12501052764E+04  0.12501052764E+04  0.50400001928E-02 0.  1.
        1   -1    0    0  501    0  0.00000000000E+00  0.00000000000E+00 -0.15240142293E+04  0.15240142293E+04  0.50400001928E-02 0. -1.
    10030    2    1    2    0    0  0.00000000000E+00  0.00000000000E+00 -0.27390895297E+03  0.27741195057E+04  0.27605638767E+04 0.  0.
        3    1    3    3  502    0 -0.11419336602E+04  0.56497197899E+03  0.39666376103E+03  0.13343717513E+04  0.10100000352E+00 0.  1.
       -3    1    3    3    0  502  0.11419336602E+04 -0.56497197899E+03 -0.67057271400E+03  0.14397477544E+04  0.10100000352E+00 0. -1.
</event>
<event>
 5   0  0.2528460E-05  0.2618888E+04  0.7818609E-02  0.8361814E-01
       -2   -1    0    0    0  501  0.00000000000E+00  0.00000000000E+00  0.12551575603E+04  0.12551575603E+04  0.25500000920E-02 0. -1.
        2   -1    0    0  501    0  0.00000000000E+00  0.00000000000E+00 -0.13660779929E+04  0.13660779929E+04  0.25500000920E-02 0.  1.
    10030    2    1    2    0    0  0.00000000000E+00  0.00000000000E+00 -0.11092043263E+03  0.26212355532E+04  0.26188876423E+04 0.  0.
        5    1    3    3  502    0  0.47382324811E+03 -0.82060747515E+03 -0.95999380269E+03  0.13488940989E+04  0.46999998093E+01 0.  1.
       -5    1    3    3    0  502 -0.47382324811E+03  0.82060747515E+03  0.84907337005E+03  0.12723414543E+04  0.46999998093E+01 0. -1.
</event>
<event>
 5   0  0.1034714E-05  0.2546444E+04  0.7818609E-02  0.8386624E-01
        1   -1    0    0  501    0  0.00000000000E+00  0.00000000000E+00  0.12627143845E+04  0.12627143845E+04  0.50400001928E-02 0.  1.
       -1   -1    0    0    0  501  0.00000000000E+00  0.00000000000E+00 -0.12838170475E+04  0.12838170475E+04  0.50400001928E-02 0. -1.
    10030    2    1    2    0    0  0.00000000000E+00  0.00000000000E+00 -0.21102663031E+02  0.25465314320E+04  0.25464439934E+04 0.  0.
        5    1    3    3  502    0 -0.12619621298E+04  0.36891761659E+02 -0.17536822760E+03  0.12746315249E+04  0.46999998093E+01 0.  1.
       -5    1    3    3    0  502  0.12619621298E+04 -0.36891761659E+02  0.15426556457E+03  0.12718999070E+04  0.46999998093E+01 0. -1.
</event>
<event>
 5   0  0.2528460E-05  0.2556034E+04  0.7818609E-02  0.8383291E-01
        2   -1    0    0  501    0  0.00000000000E+00  0.00000000000E+00  0.20595745807E+04  0.20595745807E+04  0.25500000920E-02 0. -1.
       -2   -1    0    0    0  501  0.00000000000E+00  0.00000000000E+00 -0.79304105174E+03  0.79304105174E+03  0.25500000920E-02 0.  1.
    10030    2    1    2    0    0  0.00000000000E+00  0.00000000000E+00  0.12665335289E+04  0.28526156324E+04  0.25560337960E+04 0.  0.
        5    1    3    3  502    0 -0.65238252174E+03 -0.90475419523E+03  0.13294435782E+04  0.17354035340E+04  0.46999998093E+01 0. -1.
       -5    1    3    3    0  502  0.65238252174E+03  0.90475419523E+03 -0.62910049224E+02  0.11172120984E+04  0.46999998093E+01 0.  1.
</event>
<event>
 5   0  0.2662024E-05  0.2622226E+04  0.7818609E-02  0.8360691E-01
        2   -1    0    0  501    0  0.00000000000E+00  0.00000000000E+00  0.18859797038E+04  0.18859797038E+04  0.25500000920E-02 0. -1.
       -2   -1    0    0    0  501  0.00000000000E+00  0.00000000000E+00 -0.91147160496E+03  0.91147160496E+03  0.25500000920E-02 0.  1.
    10030    2    1    2    0    0  0.00000000000E+00  0.00000000000E+00  0.97450809885E+03  0.27974513088E+04  0.26222257321E+04 0.  0.
        2    1    3    3  502    0  0.62730323162E+03 -0.11038084928E+04  0.83640756564E+03  0.15203552707E+04  0.25500000920E-02 0. -1.
       -2    1    3    3    0  502 -0.62730323162E+03  0.11038084928E+04  0.13810053322E+03  0.12770960381E+04  0.25500000920E-02 0.  1.
</event>
<event>
 5   0  0.1025153E-05  0.2594230E+04  0.7818609E-02  0.8370164E-01
       -1   -1    0    0    0  501  0.00000000000E+00  0.00000000000E+00  0.94670505644E+03  0.94670505646E+03  0.50400001928E-02 0. -1.
        1   -1    0    0  501    0  0.00000000000E+00  0.00000000000E+00 -0.17772247799E+04  0.17772247799E+04  0.50400001928E-02 0.  1.
    10030    2    1    2    0    0  0.00000000000E+00  0.00000000000E+00 -0.83051972348E+03  0.27239298364E+04  0.25942302794E+04 0.  0.
        1    1    3    3  502    0 -0.73294738609E+03  0.10686795726E+04 -0.35567980783E+03  0.13437991016E+04  0.50400001928E-02 0. -1.
       -1    1    3    3    0  502  0.73294738609E+03 -0.10686795726E+04 -0.47483991565E+03  0.13801307348E+04  0.50400001928E-02 0.  1.
</event>
<event>
 5   0  0.1000421E-05  0.2519491E+04  0.7818609E-02  0.8396075E-01
       -1   -1    0    0    0  501  0.00000000000E+00  0.00000000000E+00  0.11115554675E+04  0.11115554675E+04  0.50400001928E-02 0.  1.
        1   -1    0    0  501    0  0.00000000000E+00  0.00000000000E+00 -0.14276918968E+04  0.14276918968E+04  0.50400001928E-02 0. -1.
    10030    2    1    2    0    0  0.00000000000E+00  0.00000000000E+00 -0.31613642932E+03  0.25392473643E+04  0.25194910072E+04 0.  0.
        3    1    3    3  502    0  0.10275777706E+04 -0.43796054225E+01 -0.89249592579E+03  0.13610599705E+04  0.10100000352E+00 0. -1.
       -3    1    3    3    0  502 -0.10275777706E+04  0.43796054225E+01  0.57635949647E+03  0.11781873938E+04  0.10100000352E+00 0.  1.
</event>
<event>
 5   0  0.2517854E-05  0.2629490E+04  0.7818609E-02  0.8358253E-01
       -2   -1    0    0    0  501  0.00000000000E+00  0.00000000000E+00  0.14204688617E+04  0.14204688617E+04  0.25500000920E-02 0.  1.
        2   -1    0    0  501    0  0.00000000000E+00  0.00000000000E+00 -0.12168896429E+04  0.12168896429E+04  0.25500000920E-02 0. -1.
    10030    2    1    2    0    0  0.00000000000E+00  0.00000000000E+00  0.20357921878E+03  0.26373585046E+04  0.26294895671E+04 0.  0.
        4    1    3    3  502    0 -0.46749521127E+03 -0.11636065388E+04 -0.29438646833E+03  0.12880981932E+04  0.12699999809E+01 0. -1.
       -4    1    3    3    0  502  0.46749521127E+03  0.11636065388E+04  0.49796568711E+03  0.13492603115E+04  0.12699999809E+01 0.  1.
</event>
<event>
 5   0  0.2517854E-05  0.2593140E+04  0.7818609E-02  0.8370535E-01
        2   -1    0    0  501    0  0.00000000000E+00  0.00000000000E+00  0.18165595492E+04  0.18165595492E+04  0.25500000920E-02 0. -1.
       -2   -1    0    0    0  501  0.00000000000E+00  0.00000000000E+00 -0.92542744915E+03  0.92542744916E+03  0.25500000920E-02 0.  1.
    10030    2    1    2    0    0  0.00000000000E+00  0.00000000000E+00  0.89113210007E+03  0.27419869984E+04  0.25931402352E+04 0.  0.
        4    1    3    3  502    0  0.12864269597E+03  0.17216019052E+03  0.17975936785E+04  0.18103957358E+04  0.12699999809E+01 0. -1.
       -4    1    3    3    0  502 -0.12864269597E+03 -0.17216019052E+03 -0.90646157842E+03  0.93159126256E+03  0.12699999809E+01 0.  1.
</event>
<event>
 5   0  0.2555801E-05  0.2573439E+04  0.7818609E-02  0.8377280E-01
        2   -1    0    0  501    0  0.00000000000E+00  0.00000000000E+00  0.14101450493E+04  0.14101450493E+04  0.25500000920E-02 0. -1.
       -2   -1    0    0    0  501  0.00000000000E+00  0.00000000000E+00 -0.11740973345E+04  0.11740973345E+04  0.25500000920E-02 0.  1.
    10030    2    1    2    0    0  0.00000000000E+00  0.00000000000E+00  0.23604771487E+03  0.25842423838E+04  0.25734393668E+04 0.  0.
        1    1    3    3  502    0  0.31998188295E+03  0.82987440209E+03 -0.81570071178E+03  0.12068337002E+04  0.50400001928E-02 0.  1.
       -1    1    3    3    0  502 -0.31998188295E+03 -0.82987440209E+03  0.10517484267E+04  0.13774086836E+04  0.50400001928E-02 0. -1.
</event>
<event>
 5   0  0.2528460E-05  0.2288629E+04  0.7818609E-02  0.8482418E-01
        2   -1    0    0  501    0  0.00000000000E+00  0.00000000000E+00  0.13666815587E+04  0.13666815587E+04  0.25500000920E-02 0. -1.
       -2   -1    0    0    0  501  0.00000000000E+00  0.00000000000E+00 -0.95812780173E+03  0.95812780173E+03  0.25500000920E-02 0.  1.
    10030    2    1    2    0    0  0.00000000000E+00  0.00000000000E+00  0.40855375698E+03  0.23248093604E+04  0.22886289324E+04 0.  0.
        5    1    3    3  502    0  0.10689533386E+02  0.10299976222E+04 -0.30202420736E+03  0.10734291219E+04  0.46999998093E+01 0.  1.
       -5    1    3    3    0  502 -0.10689533386E+02 -0.10299976222E+04  0.71057796434E+03  0.12513802385E+04  0.46999998093E+01 0. -1.
</event>
<event>
 5   0  0.1000421E-05  0.2610828E+04  0.7818609E-02  0.8364533E-01
       -1   -1    0    0    0  501  0.00000000000E+00  0.00000000000E+00  0.90340814128E+03  0.90340814130E+03  0.50400001928E-02 0. -1.
        1   -1    0    0  501    0  0.00000000000E+00  0.00000000000E+00 -0.18863072231E+04  0.18863072231E+04  0.50400001928E-02 0.  1.
    10030    2    1    2    0    0  0.00000000000E+00  0.00000000000E+00 -0.98289908179E+03  0.27897153644E+04  0.26108276866E+04 0.  0.
        3    1    3    3  502    0  0.79875825293E+03  0.24099615200E+03  0.58133969360E+03  0.10168823636E+04  0.10100000352E+00 0. -1.
       -3    1    3    3    0  502 -0.79875825293E+03 -0.24099615200E+03 -0.15642387754E+04  0.17728330007E+04  0.10100000352E+00 0.  1.
</event>
<event>
 5   0  0.1025153E-05  0.2176767E+04  0.7818609E-02  0.8528161E-01
        1   -1    0    0  501    0  0.00000000000E+00  0.00000000000E+00  0.11101658272E+04  0.11101658272E+04  0.50400001928E-02 0. -1.
       -1   -1    0    0    0  501  0.00000000000E+00  0.00000000000E+00 -0.10670280849E+04  0.10670280849E+04  0.50400001928E-02 0.  1.
    10030    2    1    2    0    0  0.00000000000E+00  0.00000000000E+00  0.43137742312E+02  0.21771939121E+04  0.21767665162E+04 0.  0.
        1    1    3    3  502    0 -0.18920820692E+03 -0.53816012920E+03  0.94866080979E+03  0.11069658542E+04  0.50400001928E-02 0. -1.
       -1    1    3    3    0  502  0.18920820692E+03  0.53816012920E+03 -0.90552306748E+03  0.10702280579E+04  0.50400001928E-02 0.  1.
</event>
<event>
 5   0  0.2662024E-05  0.2595648E+04  0.7818609E-02  0.8369681E-01
        2   -1    0    0  501    0  0.00000000000E+00  0.00000000000E+00  0.26656837322E+04  0.26656837322E+04  0.25500000920E-02 0. -1.
       -2   -1    0    0    0  501  0.00000000000E+00  0.00000000000E+00 -0.63186314939E+03  0.63186314940E+03  0.25500000920E-02 0.  1.
    10030    2    1    2    0    0  0.00000000000E+00  0.00000000000E+00  0.20338205828E+04  0.32975468816E+04  0.25956481413E+04 0.  0.
        2    1    3    3  502    0 -0.53117639178E+03 -0.83264453465E+03  0.20865518564E+04  0.23084938660E+04  0.25500000920E-02 0. -1.
       -2    1    3    3    0  502  0.53117639178E+03  0.83264453465E+03 -0.52731273594E+02  0.98905301551E+03  0.25500000920E-02 0.  1.
</event>
<event>
 5   0  0.1034714E-05  0.2769680E+04  0.7818609E-02  0.8312744E-01
        1   -1    0    0  501    0  0.00000000000E+00  0.00000000000E+00  0.25699778052E+04  0.25699778052E+04  0.50400001928E-02 0. -1.
       -1   -1    0    0    0  501  0.00000000000E+00  0.00000000000E+00 -0.74622496400E+03  0.74622496401E+03  0.50400001928E-02 0.  1.
    10030    2    1    2    0    0  0.00000000000E+00  0.00000000000E+00  0.18237528412E+04  0.33162027692E+04  0.27696798336E+04 0.  0.
        5    1    3    3  502    0 -0.59413041963E+03  0.50683869056E+03  0.22811681069E+04  0.24111462908E+04  0.46999998093E+01 0. -1.
       -5    1    3    3    0  502  0.59413041963E+03 -0.50683869056E+03 -0.45741526571E+03  0.90505647839E+03  0.46999998093E+01 0.  1.
</event>
<event>
 5   0  0.1000421E-05  0.2544107E+04  0.7818609E-02  0.8387438E-01
       -1   -1    0    0    0  501  0.00000000000E+00  0.00000000000E+00  0.12513047056E+04  0.12513047056E+04  0.50400001928E-02 0.  1.
        1   -1    0    0  501    0  0.00000000000E+00  0.00000000000E+00 -0.12931466238E+04  0.12931466238E+04  0.50400001928E-02 0. -1.
    10030    2    1    2    0    0  0.00000000000E+00  0.00000000000E+00 -0.41841918217E+02  0.25444513295E+04  0.25441072740E+04 0.  0.
        3    1    3    3  502    0 -0.52563492595E+03 -0.25057130082E+03  0.11101795502E+04  0.12536254210E+04  0.10100000352E+00 0.  1.
       -3    1    3    3    0  502  0.52563492595E+03  0.25057130082E+03 -0.11520214684E+04  0.12908259085E+04  0.10100000352E+00 0. -1.
</event>
<event>
 5   0  0.9855352E-06  0.2629072E+04  0.7818609E-02  0.8358393E-01
       -1   -1    0    0    0  501  0.00000000000E+00  0.00000000000E+00  0.15435063623E+04  0.15435063623E+04  0.50400001928E-02 0.  1.
        1   -1    0    0  501    0  0.00000000000E+00  0.00000000000E+00 -0.11195321352E+04  0.11195321352E+04  0.50400001928E-02 0. -1.
    10030    2    1    2    0    0  0.00000000000E+00  0.00000000000E+00  0.42397422714E+03  0.26630384975E+04  0.26290720595E+04 0.  0.
        2    1    3    3  502    0 -0.49896660257E+03 -0.12155461556E+04  0.17295556707E+03  0.13253051554E+04  0.25500000920E-02 0.  1.
       -2    1    3    3    0  502  0.49896660257E+03  0.12155461556E+04  0.25101866007E+03  0.13377333421E+04  0.25500000920E-02 0. -1.
</event>
<event>
 5   0  0.2662024E-05  0.2613996E+04  0.7818609E-02  0.8363463E-01
       -2   -1    0    0    0  501  0.00000000000E+00  0.00000000000E+00  0.12895871301E+04  0.12895871301E+04  0.25500000920E-02 0. -1.
        2   -1    0    0  501    0  0.00000000000E+00  0.00000000000E+00 -0.13246435613E+04  0.13246435613E+04  0.25500000920E-02 0.  1.
    10030    2    1    2    0    0  0.00000000000E+00  0.00000000000E+00 -0.35056431185E+02  0.26142306914E+04  0.26139956302E+04 0.  0.
        2    1    3    3  502    0 -0.10152306703E+04 -0.12357777395E+03 -0.83140635363E+03  0.13180293263E+04  0.25500000920E-02 0. -1.
       -2    1    3    3    0  502  0.10152306703E+04  0.12357777395E+03  0.79634992244E+03  0.12962013652E+04  0.25500000920E-02 0.  1.
</event>
<event>
 5   0  0.2484618E-05  0.2656211E+04  0.7818609E-02  0.8349354E-01
       -2   -1    0    0    0  501  0.00000000000E+00  0.00000000000E+00  0.17749650385E+04  0.17749650385E+04  0.25500000920E-02 0.  1.
        2   -1    0    0  501    0  0.00000000000E+00  0.00000000000E+00 -0.99374590892E+03  0.99374590892E+03  0.25500000920E-02 0. -1.
    10030    2    1    2    0    0  0.00000000000E+00  0.00000000000E+00  0.78121912955E+03  0.27687109474E+04  0.26562110198E+04 0.  0.
        3    1    3    3  502    0 -0.10352080966E+04 -0.82568561580E+03  0.49717305238E+03  0.14144234138E+04  0.10100000352E+00 0.  1.
       -3    1    3    3    0  502  0.10352080966E+04  0.82568561580E+03  0.28404607717E+03  0.13542875336E+04  0.10100000352E+00 0. -1.
</event>
<event>
 5   0  0.1034714E-05  0.2628272E+04  0.7818609E-02  0.8358661E-01
       -1   -1    0    0    0  501  0.00000000000E+00  0.00000000000E+00  0.12940755289E+04  0.12940755289E+04  0.50400001928E-02 0. -1.
        1   -1    0    0  501    0  0.00000000000E+00  0.00000000000E+00 -0.13345070534E+04  0.13345070534E+04  0.50400001928E-02 0.  1.
    10030    2    1    2    0    0  0.00000000000E+00  0.00000000000E+00 -0.40431524479E+02  0.26285825823E+04  0.26282716153E+04 0.  0.
        5    1    3    3  502    0  0.55256700656E+03  0.43050365317E+03 -0.11322228201E+04  0.13313956199E+04  0.46999998093E+01 0.  1.
       -5    1    3    3    0  502 -0.55256700656E+03 -0.43050365317E+03  0.10917912957E+04  0.12971869624E+04  0.46999998093E+01 0. -1.
</event>
<event>
 5   0  0.1025153E-05  0.2650014E+04  0.7818609E-02  0.8351408E-01
        1   -1    0    0  501    0  0.00000000000E+00  0.00000000000E+00  0.88391567894E+03  0.88391567895E+03  0.50400001928E-02 0. -1.
       -1   -1    0    0    0  501  0.00000000000E+00  0.00000000000E+00 -0.19862108314E+04  0.19862108314E+04  0.50400001928E-02 0.  1.
    10030    2    1    2    0    0  0.00000000000E+00  0.00000000000E+00 -0.11022951525E+04  0.28701265104E+04  0.26500135061E+04 0.  0.
        1    1    3    3  502    0  0.50137108887E+02  0.26248335694E+03 -0.19567220626E+04  0.19748854328E+04  0.50400001928E-02 0.  1.
       -1    1    3    3    0  502 -0.50137108887E+02 -0.26248335694E+03  0.85442691008E+03  0.89524107762E+03  0.50400001928E-02 0. -1.
</event>
<event>
 5   0  0.1000421E-05  0.2610741E+04  0.7818609E-02  0.8364562E-01
       -1   -1    0    0    0  501  0.00000000000E+00  0.00000000000E+00  0.11777868218E+04  0.11777868218E+04  0.50400001928E-02 0.  1.
        1   -1    0    0  501    0  0.00000000000E+00  0.00000000000E+00 -0.14467741824E+04  0.14467741824E+04  0.50400001928E-02 0. -1.
    10030    2    1    2    0    0  0.00000000000E+00  0.00000000000E+00 -0.26898736058E+03  0.26245610042E+04  0.26107405586E+04 0.  0.
        3    1    3    3  502    0  0.16249434073E+03 -0.53449008399E+03 -0.13205304202E+04  0.14338356466E+04  0.10100000352E+00 0. -1.
       -3    1    3    3    0  502 -0.16249434073E+03  0.53449008399E+03  0.10515430596E+04  0.11907253575E+04  0.10100000352E+00 0.  1.
</event>
<event>
 5   0  0.2528460E-05  0.2584508E+04  0.7818609E-02  0.8373483E-01
       -2   -1    0    0    0  501  0.00000000000E+00  0.00000000000E+00  0.64430689010E+03  0.64430689010E+03  0.25500000920E-02 0.  1.
        2   -1    0    0  501    0  0.00000000000E+00  0.00000000000E+00 -0.25918092831E+04  0.25918092831E+04  0.25500000920E-02 0. -1.
    10030    2    1    2    0    0  0.00000000000E+00  0.00000000000E+00 -0.19475023930E+04  0.32361161732E+04  0.25845081381E+04 0.  0.
        5    1    3    3  502    0  0.39387084979E+03 -0.99920465922E+03 -0.74004842600E+02  0.10765885955E+04  0.46999998093E+01 0.  1.
       -5    1    3    3    0  502 -0.39387084979E+03  0.99920465922E+03 -0.18734975504E+04  0.21595275777E+04  0.46999998093E+01 0. -1.
</event>
<event>
 5   0  0.8605000E-06  0.2631430E+04  0.7818609E-02  0.8357603E-01
       -3   -1    0    0    0  501  0.00000000000E+00  0.00000000000E+00  0.11218033516E+04  0.11218033561E+04  0.10100000352E+00 0. -1.
        3   -1    0    0  501    0  0.00000000000E+00  0.00000000000E+00 -0.15431454051E+04  0.15431454084E+04  0.10100000352E+00 0.  1.
    10030    2    1    2    0    0  0.00000000000E+00  0.00000000000E+00 -0.42134205351E+03  0.26649487645E+04  0.26314297998E+04 0.  0.
        4    1    3    3  502    0  0.43569920941E+03 -0.84843038537E+01 -0.14679346088E+04  0.15312541961E+04  0.12699999809E+01 0.  1.
       -4    1    3    3    0  502 -0.43569920941E+03  0.84843038537E+01  0.10465925553E+04  0.11336945683E+04  0.12699999809E+01 0. -1.
</event>
<event>
 5   0  0.2662024E-05  0.2595048E+04  0.7818609E-02  0.8369885E-01
       -2   -1    0    0    0  501  0.00000000000E+00  0.00000000000E+00  0.12356444584E+04  0.12356444584E+04  0.25500000920E-02 0. -1.
        2   -1    0    0  501    0  0.00000000000E+00  0.00000000000E+00 -0.13625025622E+04  0.13625025622E+04  0.25500000920E-02 0.  1.
    10030    2    1    2    0    0  0.00000000000E+00  0.00000000000E+00 -0.12685810381E+03  0.25981470206E+04  0.25950481618E+04 0.  0.
        2    1    3    3  502    0  0.60053050843E+03  0.55412196283E+03  0.94568360866E+03  0.12498021959E+04  0.25500000920E-02 0. -1.
       -2    1    3    3    0  502 -0.60053050843E+03 -0.55412196283E+03 -0.10725417125E+04  0.13483448247E+04  0.25500000920E-02 0.  1.
</event>
<event>
 5   0  0.2662024E-05  0.2624140E+04  0.7818609E-02  0.8360047E-01
       -2   -1    0    0    0  501  0.00000000000E+00  0.00000000000E+00  0.91075506447E+03  0.91075506448E+03  0.25500000920E-02 0.  1.
        2   -1    0    0  501    0  0.00000000000E+00  0.00000000000E+00 -0.18902205669E+04  0.18902205669E+04  0.25500000920E-02 0. -1.
    10030    2    1    2    0    0  0.00000000000E+00  0.00000000000E+00 -0.97946550238E+03  0.28009756313E+04  0.26241402053E+04 0.  0.
        2    1    3    3  502    0 -0.89316856048E+03  0.71917171160E+03  0.19086407662E+03  0.11624917737E+04  0.25500000920E-02 0.  1.
       -2    1    3    3    0  502  0.89316856048E+03 -0.71917171160E+03 -0.11703295790E+04  0.16384838576E+04  0.25500000920E-02 0. -1.
</event>
<event>
 5   0  0.2528460E-05  0.2389894E+04  0.7818609E-02  0.8443297E-01
       -2   -1    0    0    0  501  0.00000000000E+00  0.00000000000E+00  0.68579464071E+03  0.68579464072E+03  0.25500000920E-02 0. -1.
        2   -1    0    0  501    0  0.00000000000E+00  0.00000000000E+00 -0.20821072481E+04  0.20821072481E+04  0.25500000920E-02 0.  1.
    10030    2    1    2    0    0  0.00000000000E+00  0.00000000000E+00 -0.13963126074E+04  0.27679018888E+04  0.23898937149E+04 0.  0.
        5    1    3    3  502    0 -0.56087584437E+03 -0.10373988225E+04 -0.47508350958E+03  0.12714182871E+04  0.46999998093E+01 0.  1.
       -5    1    3    3    0  502  0.56087584437E+03  0.10373988225E+04 -0.92122909783E+03  0.14964836018E+04  0.46999998093E+01 0. -1.
</event>
<event>
 5   0  0.2555801E-05  0.2640415E+04  0.7818609E-02  0.8354601E-01
        2   -1    0    0  501    0  0.00000000000E+00  0.00000000000E+00  0.20346941409E+04  0.20346941409E+04  0.25500000920E-02 0. -1.
       -2   -1    0    0    0  501  0.00000000000E+00  0.00000000000E+00 -0.85661401716E+03  0.85661401717E+03  0.25500000920E-02 0.  1.
    10030    2    1    2    0    0  0.00000000000E+00  0.00000000000E+00  0.11780801237E+04  0.28913081580E+04  0.26404147566E+04 0.  0.
        1    1    3    3  502    0  0.19102033848E+03  0.91095772843E+02 -0.83791919695E+03  0.86423132909E+03  0.50400001928E-02 0.  1.
       -1    1    3    3    0  502 -0.19102033848E+03 -0.91095772843E+02  0.20159993206E+04  0.20270768289E+04  0.50400001928E-02 0. -1.
</event>
<event>
 5   0  0.2662024E-05  0.2498021E+04  0.7818609E-02  0.8403691E-01
        2   -1    0    0  501    0  0.00000000000E+00  0.00000000000E+00  0.16305128022E+04  0.16305128022E+04  0.25500000920E-02 0. -1.
       -2   -1    0    0    0  501  0.00000000000E+00  0.00000000000E+00 -0.95677109115E+03  0.95677109116E+03  0.25500000920E-02 0.  1.
    10030    2    1    2    0    0  0.00000000000E+00  0.00000000000E+00  0.67374171107E+03  0.25872838934E+04  0.24980212272E+04 0.  0.
        2    1    3    3  502    0 -0.84542030323E+03 -0.32240630014E+02 -0.61479427079E+03  0.10458235715E+04  0.25500000920E-02 0.  1.
       -2    1    3    3    0  502  0.84542030323E+03  0.32240630014E+02  0.12885359819E+04  0.15414603219E+04  0.25500000920E-02 0. -1.
</event>
<event>
 5   0  0.2555801E-05  0.2579411E+04  0.7818609E-02  0.8375229E-01
        2   -1    0    0  501    0  0.00000000000E+00  0.00000000000E+00  0.17255390424E+04  0.17255390424E+04  0.25500000920E-02 0. -1.
       -2   -1    0    0    0  501  0.00000000000E+00  0.00000000000E+00 -0.96395367697E+03  0.96395367697E+03  0.25500000920E-02 0.  1.
    10030    2    1    2    0    0  0.00000000000E+00  0.00000000000E+00  0.76158536539E+03  0.26894927193E+04  0.25794105564E+04 0.  0.
        1    1    3    3  502    0 -0.29290645246E+03 -0.45015125813E+03 -0.84181447567E+03  0.99853991235E+03  0.50400001928E-02 0.  1.
       -1    1    3    3    0  502  0.29290645246E+03  0.45015125813E+03  0.16033998411E+04  0.16909528070E+04  0.50400001928E-02 0. -1.
</event>
<event>
 5   0  0.1005492E-05  0.2630567E+04  0.7818609E-02  0.8357892E-01
       -1   -1    0    0    0  501  0.00000000000E+00  0.00000000000E+00  0.21724414269E+04  0.21724414269E+04  0.50400001928E-02 0. -1.
        1   -1    0    0  501    0  0.00000000000E+00  0.00000000000E+00 -0.79632557503E+03  0.79632557504E+03  0.50400001928E-02 0.  1.
    10030    2    1    2    0    0  0.00000000000E+00  0.00000000000E+00  0.13761158519E+04  0.29687670019E+04  0.26305669872E+04 0.  0.
        4    1    3    3  502    0 -0.11707750084E+04  0.57958436847E+03  0.51565354983E+03  0.14044687098E+04  0.12699999809E+01 0.  1.
       -4    1    3    3    0  502  0.11707750084E+04 -0.57958436847E+03  0.86046230204E+03  0.15642982921E+04  0.12699999809E+01 0. -1.
</event>
<event>
 5   0  0.1005492E-05  0.2414255E+04  0.7818609E-02  0.8434186E-01
        1   -1    0    0  501    0  0.00000000000E+00  0.00000000000E+00  0.14724834765E+04  0.14724834765E+04  0.50400001928E-02 0. -1.
       -1   -1    0    0    0  501  0.00000000000E+00  0.00000000000E+00 -0.98959096099E+03  0.98959096100E+03  0.50400001928E-02 0.  1.
    10030    2    1    2    0    0  0.00000000000E+00  0.00000000000E+00  0.48289251555E+03  0.24620744375E+04  0.24142546167E+04 0.  0.
        4    1    3    3  502    0 -0.24834926829E+03  0.13549103932E+03 -0.95530510195E+03  0.99631552808E+03  0.12699999809E+01 0.  1.
       -4    1    3    3    0  502  0.24834926829E+03 -0.13549103932E+03  0.14381976175E+04  0.14657589095E+04  0.12699999809E+01 0. -1.
</event>
<event>
 5   0  0.1005492E-05  0.2629555E+04  0.7818609E-02  0.8358231E-01
        1   -1    0    0  501    0  0.00000000000E+00  0.00000000000E+00  0.20798480856E+04  0.20798480856E+04  0.50400001928E-02 0. -1.
       -1   -1    0    0    0  501  0.00000000000E+00  0.00000000000E+00 -0.83113734140E+03  0.83113734141E+03  0.50400001928E-02 0.  1.
    10030    2    1    2    0    0  0.00000000000E+00  0.00000000000E+00  0.12487107442E+04  0.29109854270E+04  0.26295546455E+04 0.  0.
        4    1    3    3  502    0  0.18819686575E+03 -0.35000201974E+03 -0.76306154486E+03  0.86033947268E+03  0.12699999809E+01 0.  1.
       -4    1    3    3    0  502 -0.18819686575E+03  0.35000201974E+03  0.20117722891E+04  0.20506459544E+04  0.12699999809E+01 0. -1.
</event>
<event>
 5   0  0.2517854E-05  0.2601998E+04  0.7818609E-02  0.8367523E-01
       -2   -1    0    0    0  501  0.00000000000E+00  0.00000000000E+00  0.92588435918E+03  0.92588435919E+03  0.25500000920E-02 0.  1.
        2   -1    0    0  501    0  0.00000000000E+00  0.00000000000E+00 -0.18280876592E+04  0.18280876592E+04  0.25500000920E-02 0. -1.
    10030    2    1    2    0    0  0.00000000000E+00  0.00000000000E+00 -0.90220329998E+03  0.27539720184E+04  0.26019975179E+04 0.  0.
        4    1    3    3  502    0  0.54682889090E+03 -0.96786532272E+03  0.26425223572E+03  0.11426355394E+04  0.12699999809E+01 0.  1.
       -4    1    3    3    0  502 -0.54682889090E+03  0.96786532272E+03 -0.11664555357E+04  0.16113364790E+04  0.12699999809E+01 0. -1.
</event>
<event>
 5   0  0.1034714E-05  0.2579425E+04  0.7818609E-02  0.8375224E-01
       -1   -1    0    0    0  501  0.00000000000E+00  0.00000000000E+00  0.99362517486E+03  0.99362517487E+03  0.50400001928E-02 0.  1.
        1   -1    0    0  501    0  0.00000000000E+00  0.00000000000E+00 -0.16740304962E+04  0.16740304962E+04  0.50400001928E-02 0. -1.
    10030    2    1    2    0    0  0.00000000000E+00  0.00000000000E+00 -0.68040532134E+03  0.26676556711E+04  0.25794253969E+04 0.  0.
        5    1    3    3  502    0  0.58656464390E+03 -0.17502487835E+03 -0.15142171075E+04  0.16332689087E+04  0.46999998093E+01 0. -1.
       -5    1    3    3    0  502 -0.58656464390E+03  0.17502487835E+03  0.83381178613E+03  0.10343867624E+04  0.46999998093E+01 0.  1.
</event>
<event>
 5   0  0.9855352E-06  0.2545834E+04  0.7818609E-02  0.8386836E-01
       -1   -1    0    0    0  501  0.00000000000E+00  0.00000000000E+00  0.84118368696E+03  0.84118368697E+03  0.50400001928E-02 0.  1.
        1   -1    0    0  501    0  0.00000000000E+00  0.00000000000E+00 -0.19262353955E+04  0.19262353955E+04  0.50400001928E-02 0. -1.
    10030    2    1    2    0    0  0.00000000000E+00  0.00000000000E+00 -0.10850517085E+04  0.27674190825E+04  0.25458340810E+04 0.  0.
        2    1    3    3  502    0 -0.29349593734E+03 -0.84893780153E+03  0.43790947438E+03  0.99929973674E+03  0.25500000920E-02 0.  1.
       -2    1    3    3    0  502  0.29349593734E+03  0.84893780153E+03 -0.15229611829E+04  0.17681193457E+04  0.25500000920E-02 0. -1.
</event>
<event>
 5   0  0.1005492E-05  0.2501696E+04  0.7818609E-02  0.8402381E-01
       -1   -1    0    0    0  501  0.00000000000E+00  0.00000000000E+00  0.74841439904E+03  0.74841439906E+03  0.50400001928E-02 0. -1.
        1   -1    0    0  501    0  0.00000000000E+00  0.00000000000E+00 -0.20905814452E+04  0.20905814452E+04  0.50400001928E-02 0.  1.
    10030    2    1    2    0    0  0.00000000000E+00  0.00000000000E+00 -0.13421670462E+04  0.28389958443E+04  0.25016964292E+04 0.  0.
        4    1    3    3  502    0 -0.52053381079E+00 -0.12102943414E+04 -0.10296012251E+04  0.15889911766E+04  0.12699999809E+01 0.  1.
       -4    1    3    3    0  502  0.52053381079E+00  0.12102943414E+04 -0.31256582110E+03  0.12500046677E+04  0.12699999809E+01 0. -1.
</event>
<event>
 5   0  0.1005492E-05  0.2599436E+04  0.7818609E-02  0.8368393E-01
        1   -1    0    0  501    0  0.00000000000E+00  0.00000000000E+00  0.16459807822E+04  0.16459807822E+04  0.50400001928E-02 0. -1.
       -1   -1    0    0    0  501  0.00000000000E+00  0.00000000000E+00 -0.10262983839E+04  0.10262983839E+04  0.50400001928E-02 0.  1.
    10030    2    1    2    0    0  0.00000000000E+00  0.00000000000E+00  0.61968239830E+03  0.26722791660E+04  0.25994364132E+04 0.  0.
        4    1    3    3  502    0  0.65417596361E+03  0.76177778478E+03  0.11582022421E+04  0.15328684325E+04  0.12699999809E+01 0. -1.
       -4    1    3    3    0  502 -0.65417596361E+03 -0.76177778478E+03 -0.53851984378E+03  0.11394107336E+04  0.12699999809E+01 0.  1.
</event>
<event>
 5   0  0.2484618E-05  0.2613146E+04  0.7818609E-02  0.8363749E-01
       -2   -1    0    0    0  501  0.00000000000E+00  0.00000000000E+00  0.72039297487E+03  0.72039297488E+03  0.25500000920E-02 0.  1.
        2   -1    0    0  501    0  0.00000000000E+00  0.00000000000E+00 -0.23697253946E+04  0.23697253946E+04  0.25500000920E-02 0. -1.
    10030    2    1    2    0    0  0.00000000000E+00  0.00000000000E+00 -0.16493324198E+04  0.30901183695E+04  0.26131463998E+04 0.  0.
        3    1    3    3  502    0  0.88054341112E+03  0.95994659992E+03 -0.94455927167E+03  0.16090513980E+04  0.10100000352E+00 0. -1.
       -3    1    3    3    0  502 -0.88054341112E+03 -0.95994659992E+03 -0.70477314809E+03  0.14810669715E+04  0.10100000352E+00 0.  1.
</event>
<event>
 5   0  0.9855352E-06  0.2582996E+04  0.7818609E-02  0.8374000E-01
       -1   -1    0    0    0  501  0.00000000000E+00  0.00000000000E+00  0.72212631463E+03  0.72212631465E+03  0.50400001928E-02 0.  1.
        1   -1    0    0  501    0  0.00000000000E+00  0.00000000000E+00 -0.23097998765E+04  0.23097998765E+04  0.50400001928E-02 0. -1.
    10030    2    1    2    0    0  0.00000000000E+00  0.00000000000E+00 -0.15876735618E+04  0.30319261911E+04  0.25829961458E+04 0.  0.
        2    1    3    3  502    0 -0.15822390962E+03  0.12817398580E+04 -0.80402948639E+03  0.15213005240E+04  0.25500000920E-02 0. -1.
       -2    1    3    3    0  502  0.15822390962E+03 -0.12817398580E+04 -0.78364407543E+03  0.15106256671E+04  0.25500000920E-02 0.  1.
</event>
<event>
 5   0  0.2484618E-05  0.2438885E+04  0.7818609E-02  0.8425087E-01
        2   -1    0    0  501    0  0.00000000000E+00  0.00000000000E+00  0.19217704371E+04  0.19217704371E+04  0.25500000920E-02 0.  1.
       -2   -1    0    0    0  501  0.00000000000E+00  0.00000000000E+00 -0.77378643653E+03  0.77378643654E+03  0.25500000920E-02 0. -1.
    10030    2    1    2    0    0  0.00000000000E+00  0.00000000000E+00  0.11479840006E+04  0.26955568736E+04  0.24388849078E+04 0.  0.
        3    1    3    3  502    0  0.17162439062E+02  0.75339981501E+03  0.16336034016E+04  0.17990458344E+04  0.10100000352E+00 0.  1.
       -3    1    3    3    0  502 -0.17162439062E+02 -0.75339981501E+03 -0.48561940101E+03  0.89651103920E+03  0.10100000352E+00 0. -1.
</event>
<event>
 5   0  0.1034714E-05  0.2642713E+04  0.7818609E-02  0.8353835E-01
        1   -1    0    0  501    0  0.00000000000E+00  0.00000000000E+00  0.14346808896E+04  0.14346808896E+04  0.50400001928E-02 0. -1.
       -1   -1    0    0    0  501  0.00000000000E+00  0.00000000000E+00 -0.12169839388E+04  0.12169839388E+04  0.50400001928E-02 0.  1.
    10030    2    1    2    0    0  0.00000000000E+00  0.00000000000E+00  0.21769695083E+03  0.26516648284E+04  0.26427134539E+04 0.  0.
        5    1    3    3  502    0 -0.88655151991E+03  0.78027095999E+03 -0.48575063071E+03  0.12770168886E+04  0.46999998093E+01 0.  1.
       -5    1    3    3    0  502  0.88655151991E+03 -0.78027095999E+03  0.70344758154E+03  0.13746479398E+04  0.46999998093E+01 0. -1.
</event>
<event>
 5   0  0.2484618E-05  0.2587066E+04  0.7818609E-02  0.8372608E-01
       -2   -1    0    0    0  501  0.00000000000E+00  0.00000000000E+00  0.97918343785E+03  0.97918343785E+03  0.25500000920E-02 0.  1.
        2   -1    0    0  501    0  0.00000000000E+00  0.00000000000E+00 -0.17087987772E+04  0.17087987772E+04  0.25500000920E-02 0. -1.
    10030    2    1    2    0    0  0.00000000000E+00  0.00000000000E+00 -0.72961533939E+03  0.26879822151E+04  0.25870658757E+04 0.  0.
        3    1    3    3  502    0  0.51583623745E+02 -0.12212311545E+02 -0.17076697526E+04  0.17084923192E+04  0.10100000352E+00 0. -1.
       -3    1    3    3    0  502 -0.51583623745E+02  0.12212311545E+02  0.97805441318E+03  0.97948989588E+03  0.10100000352E+00 0.  1.
</event>
<event>
 5   0  0.1000421E-05  0.2621539E+04  0.7818609E-02  0.8360921E-01
        1   -1    0    0  501    0  0.00000000000E+00  0.00000000000E+00  0.25637244896E+04  0.25637244896E+04  0.50400001928E-02 0. -1.
       -1   -1    0    0    0  501  0.00000000000E+00  0.00000000000E+00 -0.67016436044E+03  0.67016436046E+03  0.50400001928E-02 0.  1.
    10030    2    1    2    0    0  0.00000000000E+00  0.00000000000E+00  0.18935601292E+04  0.32338888501E+04  0.26215390770E+04 0.  0.
        3    1    3    3  502    0 -0.67130417377E+03 -0.61396479304E+03  0.21108774200E+04  0.22985659776E+04  0.10100000352E+00 0. -1.
       -3    1    3    3    0  502  0.67130417377E+03  0.61396479304E+03 -0.21731729079E+03  0.93532287254E+03  0.10100000352E+00 0.  1.
</event>
<event>
 5   0  0.1034714E-05  0.2243481E+04  0.7818609E-02  0.8500545E-01
       -1   -1    0    0    0  501  0.00000000000E+00  0.00000000000E+00  0.11522528029E+04  0.11522528029E+04  0.50400001928E-02 0. -1.
        1   -1    0    0  501    0  0.00000000000E+00  0.00000000000E+00 -0.10920365383E+04  0.10920365383E+04  0.50400001928E-02 0.  1.
    10030    2    1    2    0    0  0.00000000000E+00  0.00000000000E+00  0.60216264579E+02  0.22442893412E+04  0.22434813680E+04 0.  0.
        5    1    3    3  502    0 -0.37181627181E+03  0.35819066948E+03 -0.96610802653E+03  0.10954153115E+04  0.46999998093E+01 0.  1.
       -5    1    3    3    0  502  0.37181627181E+03 -0.35819066948E+03  0.10263242911E+04  0.11488740297E+04  0.46999998093E+01 0. -1.
</event>
<event>
 5   0  0.2528460E-05  0.2721385E+04  0.7818609E-02  0.8328100E-01
        2   -1    0    0  501    0  0.00000000000E+00  0.00000000000E+00  0.21530583685E+04  0.21530583685E+04  0.25500000920E-02 0.  1.
       -2   -1    0    0    0  501  0.00000000000E+00  0.00000000000E+00 -0.85993192353E+03  0.85993192354E+03  0.25500000920E-02 0. -1.
    10030    2    1    2    0    0  0.00000000000E+00  0.00000000000E+00  0.12931264450E+04  0.30129902920E+04  0.27213846654E+04 0.  0.
        5    1    3    3  502    0 -0.44398466697E+03  0.17024604892E+03 -0.76494032077E+03  0.90070077496E+03  0.46999998093E+01 0. -1.
       -5    1    3    3    0  502  0.44398466697E+03 -0.17024604892E+03  0.20580667657E+04  0.21122895171E+04  0.46999998093E+01 0.  1.
</event>
<event>
 5   0  0.1000421E-05  0.2692625E+04  0.7818609E-02  0.8337402E-01
        1   -1    0    0  501    0  0.00000000000E+00  0.00000000000E+00  0.14530510792E+04  0.14530510792E+04  0.50400001928E-02 0.  1.
       -1   -1    0    0    0  501  0.00000000000E+00  0.00000000000E+00 -0.12474147088E+04  0.12474147088E+04  0.50400001928E-02 0. -1.
    10030    2    1    2    0    0  0.00000000000E+00  0.00000000000E+00  0.20563637037E+03  0.27004657880E+04  0.26926249563E+04 0.  0.
        3    1    3    3  502    0 -0.71167023253E+03  0.19475989857E+03  0.12322196730E+04  0.14362351028E+04  0.10100000352E+00 0.  1.
       -3    1    3    3    0  502  0.71167023253E+03 -0.19475989857E+03 -0.10265833026E+04  0.12642306852E+04  0.10100000352E+00 0. -1.
</event>
<event>
 5   0  0.9855352E-06  0.2624330E+04  0.7818609E-02  0.8359983E-01
       -1   -1    0    0    0  501  0.00000000000E+00  0.00000000000E+00  0.10105482380E+04  0.10105482380E+04  0.50400001928E-02 0. -1.
        1   -1    0    0  501    0  0.00000000000E+00  0.00000000000E+00 -0.17038051006E+04  0.17038051006E+04  0.50400001928E-02 0.  1.
    10030    2    1    2    0    0  0.00000000000E+00  0.00000000000E+00 -0.69325686259E+03  0.27143533387E+04  0.26243301945E+04 0.  0.
        2    1    3    3  502    0 -0.10403122014E+04  0.85429369204E+02 -0.11690326175E+04  0.15672220373E+04  0.25500000920E-02 0.  1.
       -2    1    3    3    0  502  0.10403122014E+04 -0.85429369204E+02  0.47577575492E+03  0.11471313013E+04  0.25500000920E-02 0. -1.
</event>
<event>
 5   0  0.2662024E-05  0.2577541E+04  0.7818609E-02  0.8375870E-01
       -2   -1    0    0    0  501  0.00000000000E+00  0.00000000000E+00  0.13845157261E+04  0.13845157261E+04  0.25500000920E-02 0.  1.
        2   -1    0    0  501    0  0.00000000000E+00  0.00000000000E+00 -0.11996462624E+04  0.11996462624E+04  0.25500000920E-02 0. -1.
    10030    2    1    2    0    0  0.00000000000E+00  0.00000000000E+00  0.18486946374E+03  0.25841619885E+04  0.25775407784E+04 0.  0.
        2    1    3    3  502    0  0.50610246628E+03  0.76108829332E+03 -0.81848828657E+03  0.12269140850E+04  0.25500000920E-02 0. -1.
       -2    1    3    3    0  502 -0.50610246628E+03 -0.76108829332E+03  0.10033577503E+04  0.13572479036E+04  0.25500000920E-02 0.  1.
</event>
<event>
 5   0  0.2662024E-05  0.2573245E+04  0.7818609E-02  0.8377347E-01
        2   -1    0    0  501    0  0.00000000000E+00  0.00000000000E+00  0.13485237889E+04  0.13485237889E+04  0.25500000920E-02 0. -1.
       -2   -1    0    0    0  501  0.00000000000E+00  0.00000000000E+00 -0.12275624968E+04  0.12275624968E+04  0.25500000920E-02 0.  1.
    10030    2    1    2    0    0  0.00000000000E+00  0.00000000000E+00  0.12096129215E+03  0.25760862857E+04  0.25732448226E+04 0.  0.
        2    1    3    3  502    0  0.44254735476E+02  0.80044181117E+03  0.10679375801E+04  0.13353487371E+04  0.25500000920E-02 0. -1.
       -2    1    3    3    0  502 -0.44254735476E+02 -0.80044181117E+03 -0.94697628792E+03  0.12407375486E+04  0.25500000920E-02 0.  1.
</event>
<event>
 5   0  0.2517854E-05  0.2040239E+04  0.7818609E-02  0.8588035E-01
        2   -1    0    0  501    0  0.00000000000E+00  0.00000000000E+00  0.12166853827E+04  0.12166853827E+04  0.25500000920E-02 0. -1.
       -2   -1    0    0    0  501  0.00000000000E+00  0.00000000000E+00 -0.85531045246E+03  0.85531045246E+03  0.25500000920E-02 0.  1.
    10030    2    1    2    0    0  0.00000000000E+00  0.00000000000E+00  0.36137493024E+03  0.20719958352E+04  0.20402389323E+04 0.  0.
        4    1    3    3  502    0 -0.42042205840E+03  0.85502763003E+03 -0.18942325757E+03  0.97144723929E+03  0.12699999809E+01 0.  1.
       -4    1    3    3    0  502  0.42042205840E+03 -0.85502763003E+03  0.55079818781E+03  0.11005485959E+04  0.12699999809E+01 0. -1.
</event>
<event>
 5   0  0.2555801E-05  0.2601520E+04  0.7818609E-02  0.8367685E-01
        2   -1    0    0  501    0  0.00000000000E+00  0.00000000000E+00  0.15194025476E+04  0.15194025476E+04  0.25500000920E-02 0.  1.
       -2   -1    0    0    0  501  0.00000000000E+00  0.00000000000E+00 -0.11135800655E+04  0.11135800655E+04  0.25500000920E-02 0. -1.
    10030    2    1    2    0    0  0.00000000000E+00  0.00000000000E+00  0.40582248209E+03  0.26329826131E+04  0.26015198547E+04 0.  0.
        1    1    3    3  502    0  0.56777368742E+03  0.98666604415E+03  0.83988716679E+03  0.14146686169E+04  0.50400001928E-02 0.  1.
       -1    1    3    3    0  502 -0.56777368742E+03 -0.98666604415E+03 -0.43406468470E+03  0.12183139962E+04  0.50400001928E-02 0. -1.
</event>
<event>
 5   0  0.8605000E-06  0.2659599E+04  0.7818609E-02  0.8348234E-01
       -4   -1    0    0    0  501  0.00000000000E+00  0.00000000000E+00  0.13796853537E+04  0.13796859382E+04  0.12699999809E+01 0.  1.
        4   -1    0    0  501    0  0.00000000000E+00  0.00000000000E+00 -0.12817162790E+04  0.12817169082E+04  0.12699999809E+01 0. -1.
    10030    2    1    2    0    0  0.00000000000E+00  0.00000000000E+00  0.97969074651E+02  0.26614028464E+04  0.26595990622E+04 0.  0.
        5    1    3    3  502    0 -0.35758208350E+03 -0.12356672274E+04  0.38626841048E+03  0.13431172020E+04  0.46999998093E+01 0.  1.
       -5    1    3    3    0  502  0.35758208350E+03  0.12356672274E+04 -0.28829933583E+03  0.13182856445E+04  0.46999998093E+01 0. -1.
</event>
<event>
 5   0  0.2517854E-05  0.2585163E+04  0.7818609E-02  0.8373259E-01
       -2   -1    0    0    0  501  0.00000000000E+00  0.00000000000E+00  0.11460961213E+04  0.11460961213E+04  0.25500000920E-02 0.  1.
        2   -1    0    0  501    0  0.00000000000E+00  0.00000000000E+00 -0.14577891667E+04  0.14577891667E+04  0.25500000920E-02 0. -1.
    10030    2    1    2    0    0  0.00000000000E+00  0.00000000000E+00 -0.31169304544E+03  0.26038852880E+04  0.25851626716E+04 0.  0.
        4    1    3    3  502    0  0.33911442254E+03  0.26196257986E+03 -0.13841627186E+04  0.14489758554E+04  0.12699999809E+01 0. -1.
       -4    1    3    3    0  502 -0.33911442254E+03 -0.26196257986E+03  0.10724696732E+04  0.11549094327E+04  0.12699999809E+01 0.  1.
</event>
<event>
 5   0  0.2484618E-05  0.2534865E+04  0.7818609E-02  0.8390669E-01
        2   -1    0    0  501    0  0.00000000000E+00  0.00000000000E+00  0.13168509654E+04  0.13168509654E+04  0.25500000920E-02 0. -1.
       -2   -1    0    0    0  501  0.00000000000E+00  0.00000000000E+00 -0.12198687129E+04  0.12198687129E+04  0.25500000920E-02 0.  1.
    10030    2    1    2    0    0  0.00000000000E+00  0.00000000000E+00  0.96982252468E+02  0.25367196784E+04  0.25348651186E+04 0.  0.
        3    1    3    3  502    0 -0.73041139550E+03 -0.26645618815E+03  0.10501657800E+04  0.13066552271E+04  0.10100000352E+00 0. -1.
       -3    1    3    3    0  502  0.73041139550E+03  0.26645618815E+03 -0.95318352752E+03  0.12300644512E+04  0.10100000352E+00 0.  1.
</event>
<event>
 5   0  0.8605000E-06  0.2679403E+04  0.7818609E-02  0.8341719E-01
        3   -1    0    0  501    0  0.00000000000E+00  0.00000000000E+00  0.18391910658E+04  0.18391910686E+04  0.10100000352E+00 0.  1.
       -3   -1    0    0    0  501  0.00000000000E+00  0.00000000000E+00 -0.97586358720E+03  0.97586359243E+03  0.10100000352E+00 0. -1.
    10030    2    1    2    0    0  0.00000000000E+00  0.00000000000E+00  0.86332747858E+03  0.28150546610E+04  0.26794026217E+04 0.  0.
        3    1    3    3  502    0 -0.54633455709E+02  0.11084557947E+04 -0.35675555948E+03  0.11657330752E+04  0.10100000352E+00 0. -1.
       -3    1    3    3    0  502  0.54633455709E+02 -0.11084557947E+04  0.12200830381E+04  0.16493215858E+04  0.10100000352E+00 0.  1.
</event>
<event>
 5   0  0.8605000E-06  0.2059128E+04  0.7818609E-02  0.8579465E-01
        3   -1    0    0  501    0  0.00000000000E+00  0.00000000000E+00  0.16309163280E+04  0.16309163311E+04  0.10100000352E+00 0. -1.
       -3   -1    0    0    0  501  0.00000000000E+00  0.00000000000E+00 -0.64994278069E+03  0.64994278853E+03  0.10100000352E+00 0.  1.
    10030    2    1    2    0    0  0.00000000000E+00  0.00000000000E+00  0.98097354733E+03  0.22808591197E+04  0.20591282678E+04 0.  0.
        3    1    3    3  502    0  0.20186620539E+03  0.43950761296E+03 -0.51627688665E+03  0.70743108542E+03  0.10100000352E+00 0.  1.
       -3    1    3    3    0  502 -0.20186620539E+03 -0.43950761296E+03  0.14972504340E+04  0.15734280343E+04  0.10100000352E+00 0. -1.
</event>
<event>
 5   0  0.1000421E-05  0.2596685E+04  0.7818609E-02  0.8369328E-01
       -1   -1    0    0    0  501  0.00000000000E+00  0.00000000000E+00  0.99521950221E+03  0.99521950223E+03  0.50400001928E-02 0. -1.
        1   -1    0    0  501    0  0.00000000000E+00  0.00000000000E+00 -0.16937906629E+04  0.16937906629E+04  0.50400001928E-02 0.  1.
    10030    2    1    2    0    0  0.00000000000E+00  0.00000000000E+00 -0.69857116070E+03  0.26890101652E+04  0.25966851950E+04 0.  0.
        3    1    3    3  502    0 -0.34206019145E+03 -0.12255536313E+04 -0.61674480767E+03  0.14139876399E+04  0.10100000352E+00 0.  1.
       -3    1    3    3    0  502  0.34206019145E+03  0.12255536313E+04 -0.81826353034E+02  0.12750225253E+04  0.10100000352E+00 0. -1.
</event>
<event>
 5   0  0.2528460E-05  0.2615324E+04  0.7818609E-02  0.8363015E-01
       -2   -1    0    0    0  501  0.00000000000E+00  0.00000000000E+00  0.11980687277E+04  0.11980687277E+04  0.25500000920E-02 0. -1.
        2   -1    0    0  501    0  0.00000000000E+00  0.00000000000E+00 -0.14272803056E+04  0.14272803056E+04  0.25500000920E-02 0.  1.
    10030    2    1    2    0    0  0.00000000000E+00  0.00000000000E+00 -0.22921157788E+03  0.26253490334E+04  0.26153239952E+04 0.  0.
        5    1    3    3  502    0 -0.92013688598E+03  0.73904765446E+03 -0.67989356177E+03  0.13620281458E+04  0.46999998093E+01 0.  1.
       -5    1    3    3    0  502  0.92013688598E+03 -0.73904765446E+03  0.45068198388E+03  0.12633208876E+04  0.46999998093E+01 0. -1.
</event>
<event>
 5   0  0.1005492E-05  0.2599159E+04  0.7818609E-02  0.8368487E-01
       -1   -1    0    0    0  501  0.00000000000E+00  0.00000000000E+00  0.10715687775E+04  0.10715687775E+04  0.50400001928E-02 0.  1.
        1   -1    0    0  501    0  0.00000000000E+00  0.00000000000E+00 -0.15761068001E+04  0.15761068001E+04  0.50400001928E-02 0. -1.
    10030    2    1    2    0    0  0.00000000000E+00  0.00000000000E+00 -0.50453802266E+03  0.26476755776E+04  0.25991589694E+04 0.  0.
        4    1    3    3  502    0  0.64838645138E+03  0.49986671800E+03 -0.12803821374E+04  0.15197538474E+04  0.12699999809E+01 0. -1.
       -4    1    3    3    0  502 -0.64838645138E+03 -0.49986671800E+03  0.77584411476E+03  0.11279217302E+04  0.12699999809E+01 0.  1.
</event>
<event>
 5   0  0.2555801E-05  0.2614123E+04  0.7818609E-02  0.8363420E-01
        2   -1    0    0  501    0  0.00000000000E+00  0.00000000000E+00  0.96958266111E+03  0.96958266112E+03  0.25500000920E-02 0. -1.
       -2   -1    0    0    0  501  0.00000000000E+00  0.00000000000E+00 -0.17620056696E+04  0.17620056696E+04  0.25500000920E-02 0.  1.
    10030    2    1    2    0    0  0.00000000000E+00  0.00000000000E+00 -0.79242300850E+03  0.27315883307E+04  0.26141232917E+04 0.  0.
        1    1    3    3  502    0 -0.12748527230E+04  0.26719364784E+02 -0.96173706705E+02  0.12787543829E+04  0.50400001928E-02 0. -1.
       -1    1    3    3    0  502  0.12748527230E+04 -0.26719364784E+02 -0.69624930180E+03  0.14528339479E+04  0.50400001928E-02 0.  1.
</event>
<event>
 5   0  0.2662024E-05  0.2601255E+04  0.7818609E-02  0.8367775E-01
        2   -1    0    0  501    0  0.00000000000E+00  0.00000000000E+00  0.16778898942E+04  0.16778898942E+04  0.25500000920E-02 0. -1.
       -2   -1    0    0    0  501  0.00000000000E+00  0.00000000000E+00 -0.10081898878E+04  0.10081898878E+04  0.25500000920E-02 0.  1.
    10030    2    1    2    0    0  0.00000000000E+00  0.00000000000E+00  0.66970000640E+03  0.26860797820E+04  0.26012547928E+04 0.  0.
        2    1    3    3  502    0  0.77865372558E+03  0.94263413316E+03  0.79290375055E+03  0.14572429760E+04  0.25500000920E-02 0. -1.
       -2    1    3    3    0  502 -0.77865372558E+03 -0.94263413316E+03 -0.12320374415E+03  0.12288368061E+04  0.25500000920E-02 0.  1.
</event>
<event>
 5   0  0.1034714E-05  0.2509346E+04  0.7818609E-02  0.8399664E-01
        1   -1    0    0  501    0  0.00000000000E+00  0.00000000000E+00  0.12400165384E+04  0.12400165385E+04  0.50400001928E-02 0. -1.
       -1   -1    0    0    0  501  0.00000000000E+00  0.00000000000E+00 -0.12695022617E+04  0.12695022617E+04  0.50400001928E-02 0.  1.
    10030    2    1    2    0    0  0.00000000000E+00  0.00000000000E+00 -0.29485723269E+02  0.25095188002E+04  0.25093455722E+04 0.  0.
        5    1    3    3  502    0  0.30476429122E+02  0.12291505400E+04 -0.26464377955E+03  0.12576956241E+04  0.46999998093E+01 0.  1.
       -5    1    3    3    0  502 -0.30476429122E+02 -0.12291505400E+04  0.23515805628E+03  0.12518231761E+04  0.46999998093E+01 0. -1.
</event>
<event>
 5   0  0.2517854E-05  0.2584144E+04  0.7818609E-02  0.8373607E-01
        2   -1    0    0  501    0  0.00000000000E+00  0.00000000000E+00  0.13761765190E+04  0.13761765190E+04  0.25500000920E-02 0. -1.
       -2   -1    0    0    0  501  0.00000000000E+00  0.00000000000E+00 -0.12131073236E+04  0.12131073236E+04  0.25500000920E-02 0.  1.
    10030    2    1    2    0    0  0.00000000000E+00  0.00000000000E+00  0.16306919547E+03  0.25892838426E+04  0.25841438147E+04 0.  0.
        4    1    3    3  502    0  0.39588208079E+03 -0.83634918509E+03  0.98512965776E+03  0.13515489768E+04  0.12699999809E+01 0. -1.
       -4    1    3    3    0  502 -0.39588208079E+03  0.83634918509E+03 -0.82206046230E+03  0.12377348657E+04  0.12699999809E+01 0.  1.
</event>
<event>
 5   0  0.2528460E-05  0.2676976E+04  0.7818609E-02  0.8342514E-01
       -2   -1    0    0    0  501  0.00000000000E+00  0.00000000000E+00  0.11945896966E+04  0.11945896966E+04  0.25500000920E-02 0. -1.
        2   -1    0    0  501    0  0.00000000000E+00  0.00000000000E+00 -0.14997202458E+04  0.14997202458E+04  0.25500000920E-02 0.  1.
    10030    2    1    2    0    0  0.00000000000E+00  0.00000000000E+00 -0.30513054921E+03  0.26943099424E+04  0.26769761698E+04 0.  0.
        5    1    3    3  502    0  0.11208127455E+04 -0.90847272585E+02  0.57812030038E+03  0.12644048439E+04  0.46999998093E+01 0. -1.
       -5    1    3    3    0  502 -0.11208127455E+04  0.90847272585E+02 -0.88325084959E+03  0.14299050985E+04  0.46999998093E+01 0.  1.
</event>
<event>
 5   0  0.1005492E-05  0.2475136E+04  0.7818609E-02  0.8411897E-01
       -1   -1    0    0    0  501  0.00000000000E+00  0.00000000000E+00  0.66820181207E+03  0.66820181209E+03  0.50400001928E-02 0.  1.
        1   -1    0    0  501    0  0.00000000000E+00  0.00000000000E+00 -0.22920831508E+04  0.22920831508E+04  0.50400001928E-02 0. -1.
    10030    2    1    2    0    0  0.00000000000E+00  0.00000000000E+00 -0.16238813388E+04  0.29602849629E+04  0.24751356446E+04 0.  0.
        4    1    3    3  502    0 -0.38968433566E+03 -0.80995334973E+03 -0.18293882845E+04  0.20382692213E+04  0.12699999809E+01 0. -1.
       -4    1    3    3    0  502  0.38968433566E+03  0.80995334973E+03  0.20550694572E+03  0.92201574164E+03  0.12699999809E+01 0.  1.
</event>
<event>
 5   0  0.2484618E-05  0.2583053E+04  0.7818609E-02  0.8373980E-01
        2   -1    0    0  501    0  0.00000000000E+00  0.00000000000E+00  0.14489414212E+04  0.14489414213E+04  0.25500000920E-02 0.  1.
       -2   -1    0    0    0  501  0.00000000000E+00  0.00000000000E+00 -0.11512137250E+04  0.11512137250E+04  0.25500000920E-02 0. -1.
    10030    2    1    2    0    0  0.00000000000E+00  0.00000000000E+00  0.29772769628E+03  0.26001551462E+04  0.25830534263E+04 0.  0.
        3    1    3    3  502    0  0.91243821098E+03 -0.29296017007E+03  0.10204323863E+04  0.13998754999E+04  0.10100000352E+00 0.  1.
       -3    1    3    3    0  502 -0.91243821098E+03  0.29296017007E+03 -0.72270469002E+03  0.12002796463E+04  0.10100000352E+00 0. -1.
</event>
<event>
 5   0  0.1034714E-05  0.2529877E+04  0.7818609E-02  0.8392418E-01
       -1   -1    0    0    0  501  0.00000000000E+00  0.00000000000E+00  0.89894666611E+03  0.89894666612E+03  0.50400001928E-02 0. -1.
        1   -1    0    0  501    0  0.00000000000E+00  0.00000000000E+00 -0.17799383780E+04  0.17799383780E+04  0.50400001928E-02 0.  1.
    10030    2    1    2    0    0  0.00000000000E+00  0.00000000000E+00 -0.88099171188E+03  0.26788850441E+04  0.25298772071E+04 0.  0.
        5    1    3    3  502    0  0.15578356865E+03 -0.11381220492E+04 -0.10012699986E+04  0.15238615486E+04  0.46999998093E+01 0.  1.
       -5    1    3    3    0  502 -0.15578356865E+03  0.11381220492E+04  0.12027828674E+03  0.11550234956E+04  0.46999998093E+01 0. -1.
</event>
<event>
 5   0  0.1000421E-05  0.2600230E+04  0.7818609E-02  0.8368123E-01
        1   -1    0    0  501    0  0.00000000000E+00  0.00000000000E+00  0.25341711792E+04  0.25341711792E+04  0.50400001928E-02 0.  1.
       -1   -1    0    0    0  501  0.00000000000E+00  0.00000000000E+00 -0.66700244802E+03  0.66700244804E+03  0.50400001928E-02 0. -1.
    10030    2    1    2    0    0  0.00000000000E+00  0.00000000000E+00  0.18671687312E+04  0.32011736273E+04  0.26002295132E+04 0.  0.
        3    1    3    3  502    0  0.89937832596E+03  0.90073776815E+03  0.60765699233E+03  0.14104810990E+04  0.10100000352E+00 0. -1.
       -3    1    3    3    0  502 -0.89937832596E+03 -0.90073776815E+03  0.12595117389E+04  0.17906925283E+04  0.10100000352E+00 0.  1.
</event>
<event>
 5   0  0.1000421E-05  0.2591402E+04  0.7818609E-02  0.8371128E-01
       -1   -1    0    0    0  501  0.00000000000E+00  0.00000000000E+00  0.17261048653E+04  0.17261048653E+04  0.50400001928E-02 0.  1.
        1   -1    0    0  501    0  0.00000000000E+00  0.00000000000E+00 -0.97261800137E+03  0.97261800138E+03  0.50400001928E-02 0. -1.
    10030    2    1    2    0    0  0.00000000000E+00  0.00000000000E+00  0.75348686394E+03  0.26987228667E+04  0.25914016781E+04 0.  0.
        3    1    3    3  502    0  0.40021934962E+03  0.61715999314E+02 -0.90502410014E+03  0.99149030476E+03  0.10100000352E+00 0. -1.
       -3    1    3    3    0  502 -0.40021934962E+03 -0.61715999314E+02  0.16585109641E+04  0.17072325619E+04  0.10100000352E+00 0.  1.
</event>
<event>
 5   0  0.1025153E-05  0.2293350E+04  0.7818609E-02  0.8480548E-01
        1   -1    0    0  501    0  0.00000000000E+00  0.00000000000E+00  0.94374822578E+03  0.94374822579E+03  0.50400001928E-02 0. -1.
       -1   -1    0    0    0  501  0.00000000000E+00  0.00000000000E+00 -0.13932353527E+04  0.13932353527E+04  0.50400001928E-02 0.  1.
    10030    2    1    2    0    0  0.00000000000E+00  0.00000000000E+00 -0.44948712689E+03  0.23369835785E+04  0.22933498575E+04 0.  0.
        1    1    3    3  502    0 -0.58011936770E+03  0.14666176092E+03 -0.12215237342E+04  0.13602089494E+04  0.50400001928E-02 0.  1.
       -1    1    3    3    0  502  0.58011936770E+03 -0.14666176092E+03  0.77203660730E+03  0.97677462904E+03  0.50400001928E-02 0. -1.
</event>
<event>
 5   0  0.2484618E-05  0.1946302E+04  0.7818609E-02  0.8632146E-01
       -2   -1    0    0    0  501  0.00000000000E+00  0.00000000000E+00  0.41965955264E+03  0.41965955265E+03  0.25500000920E-02 0. -1.
        2   -1    0    0  501    0  0.00000000000E+00  0.00000000000E+00 -0.22566466921E+04  0.22566466921E+04  0.25500000920E-02 0.  1.
    10030    2    1    2    0    0  0.00000000000E+00  0.00000000000E+00 -0.18369871394E+04  0.26763062447E+04  0.19463024855E+04 0.  0.
        3    1    3    3  502    0  0.66290303491E+03  0.59190902780E+03 -0.14637345400E+04  0.17124005211E+04  0.10100000352E+00 0.  1.
       -3    1    3    3    0  502 -0.66290303491E+03 -0.59190902780E+03 -0.37325259947E+03  0.96390572366E+03  0.10100000352E+00 0. -1.
</event>
<event>
 5   0  0.8605000E-06  0.2562151E+04  0.7818609E-02  0.8381172E-01
        3   -1    0    0  501    0  0.00000000000E+00  0.00000000000E+00  0.11386703284E+04  0.11386703329E+04  0.10100000352E+00 0.  1.
       -3   -1    0    0    0  501  0.00000000000E+00  0.00000000000E+00 -0.14412906106E+04  0.14412906142E+04  0.10100000352E+00 0. -1.
    10030    2    1    2    0    0  0.00000000000E+00  0.00000000000E+00 -0.30262028225E+03  0.25799609470E+04  0.25621513329E+04 0.  0.
        4    1    3    3  502    0  0.10394127920E+04  0.74795878299E+02 -0.90159332325E+03  0.13779860337E+04  0.12699999809E+01 0. -1.
       -4    1    3    3    0  502 -0.10394127920E+04 -0.74795878299E+02  0.59897304100E+03  0.12019749133E+04  0.12699999809E+01 0.  1.
</event>
<event>
 5   0  0.2484618E-05  0.2560217E+04  0.7818609E-02  0.8381842E-01
       -2   -1    0    0    0  501  0.00000000000E+00  0.00000000000E+00  0.12036232849E+04  0.12036232849E+04  0.25500000920E-02 0.  1.
        2   -1    0    0  501    0  0.00000000000E+00  0.00000000000E+00 -0.13614538665E+04  0.13614538665E+04  0.25500000920E-02 0. -1.
    10030    2    1    2    0    0  0.00000000000E+00  0.00000000000E+00 -0.15783058154E+03  0.25650771514E+04  0.25602168464E+04 0.  0.
        3    1    3    3  502    0 -0.41339469023E+03 -0.11607133212E+03 -0.12871523510E+04  0.13568820541E+04  0.10100000352E+00 0. -1.
       -3    1    3    3    0  502  0.41339469023E+03  0.11607133212E+03  0.11293217694E+04  0.12081950973E+04  0.10100000352E+00 0.  1.
</event>
<event>
 5   0  0.2528460E-05  0.2604004E+04  0.7818609E-02  0.8366842E-01
        2   -1    0    0  501    0  0.00000000000E+00  0.00000000000E+00  0.18191638616E+04  0.18191638616E+04  0.25500000920E-02 0. -1.
       -2   -1    0    0    0  501  0.00000000000E+00  0.00000000000E+00 -0.93186162351E+03  0.93186162352E+03  0.25500000920E-02 0.  1.
    10030    2    1    2    0    0  0.00000000000E+00  0.00000000000E+00  0.88730223813E+03  0.27510254852E+04  0.26040038322E+04 0.  0.
        5    1    3    3  502    0  0.11104215935E+04  0.10535623011E+03 -0.26587068626E+03  0.11466670669E+04  0.46999998093E+01 0.  1.
       -5    1    3    3    0  502 -0.11104215935E+04 -0.10535623011E+03  0.11531729244E+04  0.16043584182E+04  0.46999998093E+01 0. -1.
</event>
<event>
 5   0  0.9855352E-06  0.2602962E+04  0.7818609E-02  0.8367196E-01
        1   -1    0    0  501    0  0.00000000000E+00  0.00000000000E+00  0.17533147510E+04  0.17533147510E+04  0.50400001928E-02 0. -1.
       -1   -1    0    0    0  501  0.00000000000E+00  0.00000000000E+00 -0.96608615459E+03  0.96608615460E+03  0.50400001928E-02 0.  1.
    10030    2    1    2    0    0  0.00000000000E+00  0.00000000000E+00  0.78722859638E+03  0.27194009056E+04  0.26029622399E+04 0.  0.
        2    1    3    3  502    0  0.11815612944E+04  0.14375174545E+03  0.94356627576E+03  0.15189038724E+04  0.25500000920E-02 0. -1.
       -2    1    3    3    0  502 -0.11815612944E+04 -0.14375174545E+03 -0.15633767938E+03  0.12004970332E+04  0.25500000920E-02 0.  1.
</event>
<event>
 5   0  0.1005492E-05  0.2612367E+04  0.7818609E-02  0.8364012E-01
       -1   -1    0    0    0  501  0.00000000000E+00  0.00000000000E+00  0.10465498552E+04  0.10465498552E+04  0.50400001928E-02 0.  1.
        1   -1    0    0  501    0  0.00000000000E+00  0.00000000000E+00 -0.16302289571E+04  0.16302289571E+04  0.50400001928E-02 0. -1.
    10030    2    1    2    0    0  0.00000000000E+00  0.00000000000E+00 -0.58367910188E+03  0.26767788122E+04  0.26123674159E+04 0.  0.
        4    1    3    3  502    0  0.80626352446E+03 -0.77901536091E+03 -0.97857983584E+03  0.14881350448E+04  0.12699999809E+01 0. -1.
       -4    1    3    3    0  502 -0.80626352446E+03  0.77901536091E+03  0.39490073395E+03  0.11886437675E+04  0.12699999809E+01 0.  1.
</event>
<event>
 5   0  0.2662024E-05  0.2607280E+04  0.7818609E-02  0.8365733E-01
        2   -1    0    0  501    0  0.00000000000E+00  0.00000000000E+00  0.18701127264E+04  0.18701127264E+04  0.25500000920E-02 0. -1.
       -2   -1    0    0    0  501  0.00000000000E+00  0.00000000000E+00 -0.90875655086E+03  0.90875655086E+03  0.25500000920E-02 0.  1.
    10030    2    1    2    0    0  0.00000000000E+00  0.00000000000E+00  0.96135617555E+03  0.27788692773E+04  0.26072799550E+04 0.  0.
        2    1    3    3  502    0  0.19574166050E+03 -0.18341491527E+03 -0.87902411262E+03  0.91904255581E+03  0.25500000920E-02 0.  1.
       -2    1    3    3    0  502 -0.19574166050E+03  0.18341491527E+03  0.18403802882E+04  0.18598267215E+04  0.25500000920E-02 0. -1.
</event>
<event>
 5   0  0.2484618E-05  0.2563607E+04  0.7818609E-02  0.8380669E-01
       -2   -1    0    0    0  501  0.00000000000E+00  0.00000000000E+00  0.61770458858E+03  0.61770458858E+03  0.25500000920E-02 0.  1.
        2   -1    0    0  501    0  0.00000000000E+00  0.00000000000E+00 -0.26598811236E+04  0.26598811236E+04  0.25500000920E-02 0. -1.
    10030    2    1    2    0    0  0.00000000000E+00  0.00000000000E+00 -0.20421765350E+04  0.32775857121E+04  0.25636074388E+04 0.  0.
        3    1    3    3  502    0 -0.30546258016E+03 -0.60176332411E+03  0.37218589361E+03  0.77068076123E+03  0.10100000352E+00 0.  1.
       -3    1    3    3    0  502  0.30546258016E+03  0.60176332411E+03 -0.24143624286E+04  0.25069049509E+04  0.10100000352E+00 0. -1.
</event>
<event>
 5   0  0.1025153E-05  0.2581897E+04  0.7818609E-02  0.8374376E-01
       -1   -1    0    0    0  501  0.00000000000E+00  0.00000000000E+00  0.11493760276E+04  0.11493760277E+04  0.50400001928E-02 0. -1.
        1   -1    0    0  501    0  0.00000000000E+00  0.00000000000E+00 -0.14499588889E+04  0.14499588889E+04  0.50400001928E-02 0.  1.
    10030    2    1    2    0    0  0.00000000000E+00  0.00000000000E+00 -0.30058286124E+03  0.25993349166E+04  0.25818969677E+04 0.  0.
        1    1    3    3  502    0  0.30725276711E+03 -0.50046311071E+03  0.10071167775E+04  0.11658266559E+04  0.50400001928E-02 0. -1.
       -1    1    3    3    0  502 -0.30725276711E+03  0.50046311071E+03 -0.13076996388E+04  0.14335082606E+04  0.50400001928E-02 0.  1.
</event>
<event>
 5   0  0.2528460E-05  0.2586915E+04  0.7818609E-02  0.8372659E-01
       -2   -1    0    0    0  501  0.00000000000E+00  0.00000000000E+00  0.20984512801E+04  0.20984512801E+04  0.25500000920E-02 0.  1.
        2   -1    0    0  501    0  0.00000000000E+00  0.00000000000E+00 -0.79727017020E+03  0.79727017020E+03  0.25500000920E-02 0. -1.
    10030    2    1    2    0    0  0.00000000000E+00  0.00000000000E+00  0.13011811099E+04  0.28957214503E+04  0.25869152358E+04 0.  0.
        5    1    3    3  502    0  0.73677084810E+03 -0.11456305898E+03 -0.53248307422E+03  0.91625121632E+03  0.46999998093E+01 0. -1.
       -5    1    3    3    0  502 -0.73677084810E+03  0.11456305898E+03  0.18336641841E+04  0.19794702340E+04  0.46999998093E+01 0.  1.
</event>
<event>
 5   0  0.1005492E-05  0.2575160E+04  0.7818609E-02  0.8376688E-01
        1   -1    0    0  501    0  0.00000000000E+00  0.00000000000E+00  0.16141560961E+04  0.16141560961E+04  0.50400001928E-02 0.  1.
       -1   -1    0    0    0  501  0.00000000000E+00  0.00000000000E+00 -0.10270766129E+04  0.10270766129E+04  0.50400001928E-02 0. -1.
    10030    2    1    2    0    0  0.00000000000E+00  0.00000000000E+00  0.58707948314E+03  0.26412327090E+04  0.25751597821E+04 0.  0.
        4    1    3    3  502    0  0.87224549339E+03 -0.83145244493E+03  0.75875780600E+03  0.14240226087E+04  0.12699999809E+01 0. -1.
       -4    1    3    3    0  502 -0.87224549339E+03  0.83145244493E+03 -0.17167832285E+03  0.12172101003E+04  0.12699999809E+01 0.  1.
</event>
<event>
 5   0  0.1034714E-05  0.2573364E+04  0.7818609E-02  0.8377305E-01
       -1   -1    0    0    0  501  0.00000000000E+00  0.00000000000E+00  0.10071935014E+04  0.10071935014E+04  0.50400001928E-02 0.  1.
        1   -1    0    0  501    0  0.00000000000E+00  0.00000000000E+00 -0.16437268703E+04  0.16437268703E+04  0.50400001928E-02 0. -1.
    10030    2    1    2    0    0  0.00000000000E+00  0.00000000000E+00 -0.63653336891E+03  0.26509203717E+04  0.25733643518E+04 0.  0.
        5    1    3    3  502    0 -0.33351431717E+03 -0.85620913113E+00 -0.15984163040E+04  0.16328469934E+04  0.46999998093E+01 0. -1.
       -5    1    3    3    0  502  0.33351431717E+03  0.85620913113E+00  0.96188293509E+03  0.10180733783E+04  0.46999998093E+01 0.  1.
</event>
<event>
 5   0  0.2662024E-05  0.2580499E+04  0.7818609E-02  0.8374856E-01
        2   -1    0    0  501    0  0.00000000000E+00  0.00000000000E+00  0.20944494791E+04  0.20944494791E+04  0.25500000920E-02 0.  1.
       -2   -1    0    0    0  501  0.00000000000E+00  0.00000000000E+00 -0.79483579111E+03  0.79483579111E+03  0.25500000920E-02 0. -1.
    10030    2    1    2    0    0  0.00000000000E+00  0.00000000000E+00  0.12996136880E+04  0.28892852702E+04  0.25804987182E+04 0.  0.
        2    1    3    3  502    0 -0.98138418098E+03 -0.46797247387E+02  0.15862071516E+04  0.18658397629E+04  0.25500000920E-02 0.  1.
       -2    1    3    3    0  502  0.98138418098E+03  0.46797247387E+02 -0.28659346362E+03  0.10234455073E+04  0.25500000920E-02 0. -1.
</event>
<event>
 5   0  0.1025153E-05  0.2566743E+04  0.7818609E-02  0.8379586E-01
       -1   -1    0    0    0  501  0.00000000000E+00  0.00000000000E+00  0.14928563176E+04  0.14928563176E+04  0.50400001928E-02 0.  1.
        1   -1    0    0  501    0  0.00000000000E+00  0.00000000000E+00 -0.11032829846E+04  0.11032829846E+04  0.50400001928E-02 0. -1.
    10030    2    1    2    0    0  0.00000000000E+00  0.00000000000E+00  0.38957333302E+03  0.25961393022E+04  0.25667434415E+04 0.  0.
        1    1    3    3  502    0 -0.63817053888E+03 -0.64298655504E+03 -0.72466191806E+03  0.11600983761E+04  0.50400001928E-02 0. -1.
       -1    1    3    3    0  502  0.63817053888E+03  0.64298655504E+03  0.11142352511E+04  0.14360409261E+04  0.50400001928E-02 0.  1.
</event>
<event>
 5   0  0.9855352E-06  0.2600724E+04  0.7818609E-02  0.8367955E-01
        1   -1    0    0  501    0  0.00000000000E+00  0.00000000000E+00  0.12152705966E+04  0.12152705966E+04  0.50400001928E-02 0.  1.
       -1   -1    0    0    0  501  0.00000000000E+00  0.00000000000E+00 -0.13914117826E+04  0.13914117826E+04  0.50400001928E-02 0. -1.
    10030    2    1    2    0    0  0.00000000000E+00  0.00000000000E+00 -0.17614118601E+03  0.26066823791E+04  0.26007243815E+04 0.  0.
        2    1    3    3  502    0  0.10382244113E+04 -0.39703764705E+03  0.58830350071E+03  0.12576366051E+04  0.25500000920E-02 0.  1.
       -2    1    3    3    0  502 -0.10382244113E+04  0.39703764705E+03 -0.76444468672E+03  0.13490457741E+04  0.25500000920E-02 0. -1.
</event>
<event>
 5   0  0.2528460E-05  0.2600537E+04  0.7818609E-02  0.8368019E-01
        2   -1    0    0  501    0  0.00000000000E+00  0.00000000000E+00  0.14693790840E+04  0.14693790840E+04  0.25500000920E-02 0.  1.
       -2   -1    0    0    0  501  0.00000000000E+00  0.00000000000E+00 -0.11506205960E+04  0.11506205960E+04  0.25500000920E-02 0. -1.
    10030    2    1    2    0    0  0.00000000000E+00  0.00000000000E+00  0.31875848796E+03  0.26199996800E+04  0.26005367426E+04 0.  0.
        5    1    3    3  502    0  0.12986226804E+04  0.29399252592E+02  0.21804359786E+03  0.13171371541E+04  0.46999998093E+01 0. -1.
       -5    1    3    3    0  502 -0.12986226804E+04 -0.29399252592E+02  0.10071489010E+03  0.13028625259E+04  0.46999998093E+01 0.  1.
</event>
<event>
 5   0  0.2517854E-05  0.2594636E+04  0.7818609E-02  0.8370026E-01
       -2   -1    0    0    0  501  0.00000000000E+00  0.00000000000E+00  0.78592031757E+03  0.78592031758E+03  0.25500000920E-02 0.  1.
        2   -1    0    0  501    0  0.00000000000E+00  0.00000000000E+00 -0.21414815380E+04  0.21414815380E+04  0.25500000920E-02 0. -1.
    10030    2    1    2    0    0  0.00000000000E+00  0.00000000000E+00 -0.13555612205E+04  0.29274018556E+04  0.25946358900E+04 0.  0.
        4    1    3    3  502    0 -0.63891333848E+03 -0.35368237294E+03  0.53199269864E+03  0.90350391218E+03  0.12699999809E+01 0.  1.
       -4    1    3    3    0  502  0.63891333848E+03  0.35368237294E+03 -0.18875539191E+04  0.20238979434E+04  0.12699999809E+01 0. -1.
</event>
<event>
 5   0  0.9855352E-06  0.2637680E+04  0.7818609E-02  0.8355514E-01
       -1   -1    0    0    0  501  0.00000000000E+00  0.00000000000E+00  0.84984442801E+03  0.84984442803E+03  0.50400001928E-02 0. -1.
        1   -1    0    0  501    0  0.00000000000E+00  0.00000000000E+00 -0.20466564117E+04  0.20466564117E+04  0.50400001928E-02 0.  1.
    10030    2    1    2    0    0  0.00000000000E+00  0.00000000000E+00 -0.11968119836E+04  0.28965008397E+04  0.26376804564E+04 0.  0.
        2    1    3    3  502    0  0.11750948152E+04  0.27762132850E+03 -0.15863637634E+02  0.12075483766E+04  0.25500000920E-02 0.  1.
       -2    1    3    3    0  502 -0.11750948152E+04 -0.27762132850E+03 -0.11809483460E+04  0.16889524631E+04  0.25500000920E-02 0. -1.
</event>
<event>
 5   0  0.1000421E-05  0.2577824E+04  0.7818609E-02  0.8375773E-01
        1   -1    0    0  501    0  0.00000000000E+00  0.00000000000E+00  0.14599473756E+04  0.14599473756E+04  0.50400001928E-02 0. -1.
       -1   -1    0    0    0  501  0.00000000000E+00  0.00000000000E+00 -0.11379139297E+04  0.11379139297E+04  0.50400001928E-02 0.  1.
    10030    2    1    2    0    0  0.00000000000E+00  0.00000000000E+00  0.32203344588E+03  0.25978613053E+04  0.25778242418E+04 0.  0.
        3    1    3    3  502    0 -0.54258874499E+03  0.11078026665E+04 -0.21560614432E+03  0.12522441111E+04  0.10100000352E+00 0.  1.
       -3    1    3    3    0  502  0.54258874499E+03 -0.11078026665E+04  0.53763959019E+03  0.13456171942E+04  0.10100000352E+00 0. -1.
</event>
<event>
 5   0  0.9855352E-06  0.2598199E+04  0.7818609E-02  0.8368813E-01
       -1   -1    0    0    0  501  0.00000000000E+00  0.00000000000E+00  0.86692962407E+03  0.86692962409E+03  0.50400001928E-02 0. -1.
        1   -1    0    0  501    0  0.00000000000E+00  0.00000000000E+00 -0.19467093272E+04  0.19467093272E+04  0.50400001928E-02 0.  1.
    10030    2    1    2    0    0  0.00000000000E+00  0.00000000000E+00 -0.10797797031E+04  0.28136389513E+04  0.25981993651E+04 0.  0.
        2    1    3    3  502    0 -0.85936592039E+03 -0.72145672194E+03 -0.12488919347E+04  0.16789105549E+04  0.25500000920E-02 0.  1.
       -2    1    3    3    0  502  0.85936592039E+03  0.72145672194E+03  0.16911223157E+03  0.11347283964E+04  0.25500000920E-02 0. -1.
</event>
<event>
 5   0  0.2484618E-05  0.2518555E+04  0.7818609E-02  0.8396405E-01
        2   -1    0    0  501    0  0.00000000000E+00  0.00000000000E+00  0.89066665248E+03  0.89066665248E+03  0.25500000920E-02 0. -1.
       -2   -1    0    0    0  501  0.00000000000E+00  0.00000000000E+00 -0.17804409890E+04  0.17804409890E+04  0.25500000920E-02 0.  1.
    10030    2    1    2    0    0  0.00000000000E+00  0.00000000000E+00 -0.88977433649E+03  0.26711076414E+04  0.25185546773E+04 0.  0.
        3    1    3    3  502    0  0.10749387603E+03 -0.68184675869E+03  0.67214676477E+03  0.96345794890E+03  0.10100000352E+00 0. -1.
       -3    1    3    3    0  502 -0.10749387603E+03  0.68184675869E+03 -0.15619211013E+04  0.17076496925E+04  0.10100000352E+00 0.  1.
</event>
<event>
 5   0  0.1034714E-05  0.2586726E+04  0.7818609E-02  0.8372724E-01
       -1   -1    0    0    0  501  0.00000000000E+00  0.00000000000E+00  0.58629826771E+03  0.58629826773E+03  0.50400001928E-02 0.  1.
        1   -1    0    0  501    0  0.00000000000E+00  0.00000000000E+00 -0.28531343500E+04  0.28531343500E+04  0.50400001928E-02 0. -1.
    10030    2    1    2    0    0  0.00000000000E+00  0.00000000000E+00 -0.22668360823E+04  0.34394326177E+04  0.25867259051E+04 0.  0.
        5    1    3    3  502    0 -0.10844222238E+04  0.70258041194E+03 -0.12083379898E+04  0.17690940004E+04  0.46999998093E+01 0.  1.
       -5    1    3    3    0  502  0.10844222238E+04 -0.70258041194E+03 -0.10584980924E+04  0.16703386173E+04  0.46999998093E+01 0. -1.
</event>
<event>
 5   0  0.1005492E-05  0.2645818E+04  0.7818609E-02  0.8352802E-01
       -1   -1    0    0    0  501  0.00000000000E+00  0.00000000000E+00  0.13515156181E+04  0.13515156181E+04  0.50400001928E-02 0.  1.
        1   -1    0    0  501    0  0.00000000000E+00  0.00000000000E+00 -0.12949075576E+04  0.12949075576E+04  0.50400001928E-02 0. -1.
    10030    2    1    2    0    0  0.00000000000E+00  0.00000000000E+00  0.56608060453E+02  0.26464231757E+04  0.26458176718E+04 0.  0.
        4    1    3    3  502    0  0.72601730718E+03  0.11023320280E+04 -0.60311645683E+02  0.13213160628E+04  0.12699999809E+01 0. -1.
       -4    1    3    3    0  502 -0.72601730718E+03 -0.11023320280E+04  0.11691970614E+03  0.13251071129E+04  0.12699999809E+01 0.  1.
</event>
<event>
 5   0  0.1000421E-05  0.2597942E+04  0.7818609E-02  0.8368901E-01
       -1   -1    0    0    0  501  0.00000000000E+00  0.00000000000E+00  0.16839536011E+04  0.16839536011E+04  0.50400001928E-02 0. -1.
        1   -1    0    0  501    0  0.00000000000E+00  0.00000000000E+00 -0.10020023167E+04  0.10020023167E+04  0.50400001928E-02 0.  1.
    10030    2    1    2    0    0  0.00000000000E+00  0.00000000000E+00  0.68195128434E+03  0.26859559178E+04  0.25979418081E+04 0.  0.
        3    1    3    3  502    0 -0.11834861306E+04  0.13164723194E+02 -0.21242718840E+03  0.12024716429E+04  0.10100000352E+00 0.  1.
       -3    1    3    3    0  502  0.11834861306E+04 -0.13164723194E+02  0.89437847274E+03  0.14834842750E+04  0.10100000352E+00 0. -1.
</event>
<event>
 5   0  0.2555801E-05  0.2594307E+04  0.7818609E-02  0.8370138E-01
        2   -1    0    0  501    0  0.00000000000E+00  0.00000000000E+00  0.25545692591E+04  0.25545692591E+04  0.25500000920E-02 0. -1.
       -2   -1    0    0    0  501  0.00000000000E+00  0.00000000000E+00 -0.65866567563E+03  0.65866567564E+03  0.25500000920E-02 0.  1.
    10030    2    1    2    0    0  0.00000000000E+00  0.00000000000E+00  0.18959035835E+04  0.32132349348E+04  0.25943069109E+04 0.  0.
        1    1    3    3  502    0 -0.12258390619E+04  0.40962602764E+03  0.81152775753E+03  0.15261232550E+04  0.50400001928E-02 0.  1.
       -1    1    3    3    0  502  0.12258390619E+04 -0.40962602764E+03  0.10843758260E+04  0.16871116798E+04  0.50400001928E-02 0. -1.
</event>
<event>
 5   0  0.1025153E-05  0.2639451E+04  0.7818609E-02  0.8354923E-01
       -1   -1    0    0    0  501  0.00000000000E+00  0.00000000000E+00  0.15009563092E+04  0.15009563092E+04  0.50400001928E-02 0. -1.
        1   -1    0    0  501    0  0.00000000000E+00  0.00000000000E+00 -0.11603775822E+04  0.11603775822E+04  0.50400001928E-02 0.  1.
    10030    2    1    2    0    0  0.00000000000E+00  0.00000000000E+00  0.34057872698E+03  0.26613338915E+04  0.26394514984E+04 0.  0.
        1    1    3    3  502    0 -0.46461187163E+03 -0.50941499200E+02 -0.10741293770E+04  0.11714150188E+04  0.50400001928E-02 0.  1.
       -1    1    3    3    0  502  0.46461187163E+03  0.50941499200E+02  0.14147081040E+04  0.14899188727E+04  0.50400001928E-02 0. -1.
</event>
<event>
 5   0  0.2484618E-05  0.2635813E+04  0.7818609E-02  0.8356137E-01
       -2   -1    0    0    0  501  0.00000000000E+00  0.00000000000E+00  0.91462347144E+03  0.91462347144E+03  0.25500000920E-02 0.  1.
        2   -1    0    0  501    0  0.00000000000E+00  0.00000000000E+00 -0.18990076865E+04  0.18990076865E+04  0.25500000920E-02 0. -1.
    10030    2    1    2    0    0  0.00000000000E+00  0.00000000000E+00 -0.98438421508E+03  0.28136311580E+04  0.26358125901E+04 0.  0.
        3    1    3    3  502    0 -0.12181039705E+04 -0.46240799425E+03 -0.28063364848E+03  0.13327991938E+04  0.10100000352E+00 0. -1.
       -3    1    3    3    0  502  0.12181039705E+04  0.46240799425E+03 -0.70375056661E+03  0.14808319642E+04  0.10100000352E+00 0.  1.
</event>
<event>
 5   0  0.2484618E-05  0.2630883E+04  0.7818609E-02  0.8357786E-01
       -2   -1    0    0    0  501  0.00000000000E+00  0.00000000000E+00  0.81208298701E+03  0.81208298701E+03  0.25500000920E-02 0.  1.
        2   -1    0    0  501    0  0.00000000000E+00  0.00000000000E+00 -0.21307999462E+04  0.21307999462E+04  0.25500000920E-02 0. -1.
    10030    2    1    2    0    0  0.00000000000E+00  0.00000000000E+00 -0.13187169592E+04  0.29428829332E+04  0.26308830343E+04 0.  0.
        3    1    3    3  502    0 -0.35736117619E+03  0.89939992204E+03  0.33722989545E+03  0.10248664511E+04  0.10100000352E+00 0.  1.
       -3    1    3    3    0  502  0.35736117619E+03 -0.89939992204E+03 -0.16559468546E+04  0.19180164821E+04  0.10100000352E+00 0. -1.
</event>
<event>
 5   0  0.2517854E-05  0.2558468E+04  0.7818609E-02  0.8382447E-01
        2   -1    0    0  501    0  0.00000000000E+00  0.00000000000E+00  0.17993592506E+04  0.17993592506E+04  0.25500000920E-02 0. -1.
       -2   -1    0    0    0  501  0.00000000000E+00  0.00000000000E+00 -0.90945657479E+03  0.90945657479E+03  0.25500000920E-02 0.  1.
    10030    2    1    2    0    0  0.00000000000E+00  0.00000000000E+00  0.88990267582E+03  0.27088158254E+04  0.25584675889E+04 0.  0.
        4    1    3    3  502    0  0.58080779271E+01 -0.34970880818E+03  0.17477518310E+04  0.17824051335E+04  0.12699999809E+01 0. -1.
       -4    1    3    3    0  502 -0.58080779271E+01  0.34970880818E+03 -0.85784915513E+03  0.92641069194E+03  0.12699999809E+01 0.  1.
</event>
<event>
 5   0  0.1000421E-05  0.2685788E+04  0.7818609E-02  0.8339631E-01
       -1   -1    0    0    0  501  0.00000000000E+00  0.00000000000E+00  0.83993921093E+03  0.83993921095E+03  0.50400001928E-02 0.  1.
        1   -1    0    0  501    0  0.00000000000E+00  0.00000000000E+00 -0.21470178823E+04  0.21470178823E+04  0.50400001928E-02 0. -1.
    10030    2    1    2    0    0  0.00000000000E+00  0.00000000000E+00 -0.13070786714E+04  0.29869570933E+04  0.26857881569E+04 0.  0.
        3    1    3    3  502    0 -0.19983890636E+03 -0.94065387151E+03 -0.16959830902E+04  0.19496471340E+04  0.10100000352E+00 0. -1.
       -3    1    3    3    0  502  0.19983890636E+03  0.94065387151E+03  0.38890441883E+03  0.10373099593E+04  0.10100000352E+00 0.  1.
</event>
<event>
 5   0  0.2517854E-05  0.2634717E+04  0.7818609E-02  0.8356503E-01
        2   -1    0    0  501    0  0.00000000000E+00  0.00000000000E+00  0.18929186227E+04  0.18929186227E+04  0.25500000920E-02 0. -1.
       -2   -1    0    0    0  501  0.00000000000E+00  0.00000000000E+00 -0.91680293335E+03  0.91680293336E+03  0.25500000920E-02 0.  1.
    10030    2    1    2    0    0  0.00000000000E+00  0.00000000000E+00  0.97611568934E+03  0.28097215561E+04  0.26347169456E+04 0.  0.
        4    1    3    3  502    0  0.22170080245E+03  0.57147512190E+03  0.17315708623E+04  0.18368653529E+04  0.12699999809E+01 0. -1.
       -4    1    3    3    0  502 -0.22170080245E+03 -0.57147512190E+03 -0.75545517294E+03  0.97285620313E+03  0.12699999809E+01 0.  1.
</event>
<event>
 5   0  0.1034714E-05  0.2630231E+04  0.7818609E-02  0.8358004E-01
        1   -1    0    0  501    0  0.00000000000E+00  0.00000000000E+00  0.12881871657E+04  0.12881871658E+04  0.50400001928E-02 0.  1.
       -1   -1    0    0    0  501  0.00000000000E+00  0.00000000000E+00 -0.13426065386E+04  0.13426065386E+04  0.50400001928E-02 0. -1.
    10030    2    1    2    0    0  0.00000000000E+00  0.00000000000E+00 -0.54419372844E+02  0.26307937044E+04  0.26302307972E+04 0.  0.
        5    1    3    3  502    0 -0.97451211697E+03 -0.71931648387E+03 -0.53958521799E+03  0.13259956137E+04  0.46999998093E+01 0. -1.
       -5    1    3    3    0  502  0.97451211697E+03  0.71931648387E+03  0.48516584514E+03  0.13047980907E+04  0.46999998093E+01 0.  1.
</event>
<event>
 5   0  0.2555801E-05  0.2543975E+04  0.7818609E-02  0.8387485E-01
        2   -1    0    0  501    0  0.00000000000E+00  0.00000000000E+00  0.15164004138E+04  0.15164004138E+04  0.25500000920E-02 0. -1.
       -2   -1    0    0    0  501  0.00000000000E+00  0.00000000000E+00 -0.10669691785E+04  0.10669691785E+04  0.25500000920E-02 0.  1.
    10030    2    1    2    0    0  0.00000000000E+00  0.00000000000E+00  0.44943123532E+03  0.25833695923E+04  0.25439752387E+04 0.  0.
        1    1    3    3  502    0  0.11472530163E+04 -0.35449259534E+03  0.65085424272E+03  0.13658205332E+04  0.50400001928E-02 0. -1.
       -1    1    3    3    0  502 -0.11472530163E+04  0.35449259534E+03 -0.20142300739E+03  0.12175490592E+04  0.50400001928E-02 0.  1.
</event>
<event>
 5   0  0.9855352E-06  0.2472913E+04  0.7818609E-02  0.8412700E-01
       -1   -1    0    0    0  501  0.00000000000E+00  0.00000000000E+00  0.89438200610E+03  0.89438200611E+03  0.50400001928E-02 0. -1.
        1   -1    0    0  501    0  0.00000000000E+00  0.00000000000E+00 -0.17093636934E+04  0.17093636934E+04  0.50400001928E-02 0.  1.
    10030    2    1    2    0    0  0.00000000000E+00  0.00000000000E+00 -0.81498168726E+03  0.26037456995E+04  0.24729125575E+04 0.  0.
        2    1    3    3  502    0  0.98700090833E+03  0.15535654824E+03  0.35941091952E+03  0.10618298636E+04  0.25500000920E-02 0. -1.
       -2    1    3    3    0  502 -0.98700090833E+03 -0.15535654824E+03 -0.11743926068E+04  0.15419158359E+04  0.25500000920E-02 0.  1.
</event>
<event>
 5   0  0.2528460E-05  0.2051548E+04  0.7818609E-02  0.8582893E-01
        2   -1    0    0  501    0  0.00000000000E+00  0.00000000000E+00  0.13947344630E+04  0.13947344630E+04  0.25500000920E-02 0.  1.
       -2   -1    0    0    0  501  0.00000000000E+00  0.00000000000E+00 -0.75441740526E+03  0.75441740527E+03  0.25500000920E-02 0. -1.
    10030    2    1    2    0    0  0.00000000000E+00  0.00000000000E+00  0.64031705776E+03  0.21491518683E+04  0.20515476642E+04 0.  0.
        5    1    3    3  502    0 -0.46233905381E+03  0.74972413065E+03  0.87085492746E+03  0.12386500989E+04  0.46999998093E+01 0.  1.
       -5    1    3    3    0  502  0.46233905381E+03 -0.74972413065E+03 -0.23053786970E+03  0.91050176942E+03  0.46999998093E+01 0. -1.
</event>
<event>
 5   0  0.1000421E-05  0.2608043E+04  0.7818609E-02  0.8365474E-01
       -1   -1    0    0    0  501  0.00000000000E+00  0.00000000000E+00  0.15775873325E+04  0.15775873325E+04  0.50400001928E-02 0. -1.
        1   -1    0    0  501    0  0.00000000000E+00  0.00000000000E+00 -0.10778940043E+04  0.10778940043E+04  0.50400001928E-02 0.  1.
    10030    2    1    2    0    0  0.00000000000E+00  0.00000000000E+00  0.49969332827E+03  0.26554813368E+04  0.26080428884E+04 0.  0.
        3    1    3    3  502    0 -0.12384240296E+04  0.28125429265E+03  0.55133019626E+03  0.13844721195E+04  0.10100000352E+00 0. -1.
       -3    1    3    3    0  502  0.12384240296E+04 -0.28125429265E+03 -0.51636867987E+02  0.12710092173E+04  0.10100000352E+00 0.  1.
</event>
<event>
 5   0  0.1000421E-05  0.2610068E+04  0.7818609E-02  0.8364789E-01
        1   -1    0    0  501    0  0.00000000000E+00  0.00000000000E+00  0.18065901593E+04  0.18065901593E+04  0.50400001928E-02 0.  1.
       -1   -1    0    0    0  501  0.00000000000E+00  0.00000000000E+00 -0.94272289058E+03  0.94272289060E+03  0.50400001928E-02 0. -1.
    10030    2    1    2    0    0  0.00000000000E+00  0.00000000000E+00  0.86386726870E+03  0.27493130499E+04  0.26100681195E+04 0.  0.
        3    1    3    3  502    0  0.32182577046E+02  0.28374474298E+03 -0.90940925777E+03  0.95319043520E+03  0.10100000352E+00 0. -1.
       -3    1    3    3    0  502 -0.32182577046E+02 -0.28374474298E+03  0.17732765265E+04  0.17961226147E+04  0.10100000352E+00 0.  1.
</event>
<event>
 5   0  0.8605000E-06  0.2666175E+04  0.7818609E-02  0.8346064E-01
        3   -1    0    0  501    0  0.00000000000E+00  0.00000000000E+00  0.94840979582E+03  0.94840980120E+03  0.10100000352E+00 0. -1.
       -3   -1    0    0    0  501  0.00000000000E+00  0.00000000000E+00 -0.18737914670E+04  0.18737914697E+04  0.10100000352E+00 0.  1.
    10030    2    1    2    0    0  0.00000000000E+00  0.00000000000E+00 -0.92538167114E+03  0.28222012709E+04  0.26661749335E+04 0.  0.
        1    1    3    3  502    0  0.50269960968E+03 -0.56586999266E+03 -0.16242726823E+04  0.17919758627E+04  0.50400001928E-02 0.  1.
       -1    1    3    3    0  502 -0.50269960968E+03  0.56586999266E+03  0.69889101113E+03  0.10302254082E+04  0.50400001928E-02 0. -1.
</event>
<event>
 5   0  0.1025153E-05  0.2603364E+04  0.7818609E-02  0.8367060E-01
       -1   -1    0    0    0  501  0.00000000000E+00  0.00000000000E+00  0.91343697963E+03  0.91343697965E+03  0.50400001928E-02 0.  1.
        1   -1    0    0  501    0  0.00000000000E+00  0.00000000000E+00 -0.18549451597E+04  0.18549451597E+04  0.50400001928E-02 0. -1.
    10030    2    1    2    0    0  0.00000000000E+00  0.00000000000E+00 -0.94150818004E+03  0.27683821393E+04  0.26033635966E+04 0.  0.
        1    1    3    3  502    0  0.17501306655E+03  0.21100790344E+03  0.88239096439E+03  0.92399552101E+03  0.50400001928E-02 0.  1.
       -1    1    3    3    0  502 -0.17501306655E+03 -0.21100790344E+03 -0.18238991444E+04  0.18443866183E+04  0.50400001928E-02 0. -1.
</event>
<event>
 5   0  0.9855352E-06  0.1945301E+04  0.7818609E-02  0.8632630E-01
       -1   -1    0    0    0  501  0.00000000000E+00  0.00000000000E+00  0.14747264906E+04  0.14747264906E+04  0.50400001928E-02 0.  1.
        1   -1    0    0  501    0  0.00000000000E+00  0.00000000000E+00 -0.64150840373E+03  0.64150840375E+03  0.50400001928E-02 0. -1.
    10030    2    1    2    0    0  0.00000000000E+00  0.00000000000E+00  0.83321808685E+03  0.21162348943E+04  0.19453014542E+04 0.  0.
        2    1    3    3  502    0  0.70902186463E+02  0.79569905013E+03  0.10202399442E+04  0.12957830228E+04  0.25500000920E-02 0.  1.
       -2    1    3    3    0  502 -0.70902186463E+02 -0.79569905013E+03 -0.18702185732E+03  0.82045187156E+03  0.25500000920E-02 0. -1.
</event>
<event>
 5   0  0.1034714E-05  0.2614234E+04  0.7818609E-02  0.8363382E-01
        1   -1    0    0  501    0  0.00000000000E+00  0.00000000000E+00  0.97987691116E+03  0.97987691117E+03  0.50400001928E-02 0.  1.
       -1   -1    0    0    0  501  0.00000000000E+00  0.00000000000E+00 -0.17436429271E+04  0.17436429271E+04  0.50400001928E-02 0. -1.
    10030    2    1    2    0    0  0.00000000000E+00  0.00000000000E+00 -0.76376601590E+03  0.27235198382E+04  0.26142344543E+04 0.  0.
        5    1    3    3  502    0  0.49766930457E+03 -0.32823962602E+03 -0.15937466133E+04  0.17016069893E+04  0.46999998093E+01 0. -1.
       -5    1    3    3    0  502 -0.49766930457E+03  0.32823962602E+03  0.82998059736E+03  0.10219128489E+04  0.46999998093E+01 0.  1.
</event>
<event>
 5   0  0.2528460E-05  0.2557199E+04  0.7818609E-02  0.8382887E-01
        2   -1    0    0  501    0  0.00000000000E+00  0.00000000000E+00  0.22987081753E+04  0.22987081753E+04  0.25500000920E-02 0. -1.
       -2   -1    0    0    0  501  0.00000000000E+00  0.00000000000E+00 -0.71118908629E+03  0.71118908629E+03  0.25500000920E-02 0.  1.
    10030    2    1    2    0    0  0.00000000000E+00  0.00000000000E+00  0.15875190890E+04  0.30098972616E+04  0.25571985975E+04 0.  0.
        5    1    3    3  502    0  0.10396305340E+04  0.67442246158E+03  0.11643214673E+04  0.17003952108E+04  0.46999998093E+01 0. -1.
       -5    1    3    3    0  502 -0.10396305340E+04 -0.67442246158E+03  0.42319762172E+03  0.13095020507E+04  0.46999998093E+01 0.  1.
</event>
<event>
 5   0  0.1034714E-05  0.2777979E+04  0.7818609E-02  0.8310138E-01
        1   -1    0    0  501    0  0.00000000000E+00  0.00000000000E+00  0.11430110913E+04  0.11430110914E+04  0.50400001928E-02 0.  1.
       -1   -1    0    0    0  501  0.00000000000E+00  0.00000000000E+00 -0.16879035028E+04  0.16879035029E+04  0.50400001928E-02 0. -1.
    10030    2    1    2    0    0  0.00000000000E+00  0.00000000000E+00 -0.54489241150E+03  0.28309145942E+04  0.27779794275E+04 0.  0.
        5    1    3    3  502    0 -0.81800867311E+03 -0.33008331859E+03 -0.13658204066E+04  0.16259091794E+04  0.46999998093E+01 0. -1.
       -5    1    3    3    0  502  0.81800867311E+03  0.33008331859E+03  0.82092799513E+03  0.12050054148E+04  0.46999998093E+01 0.  1.
</event>
<event>
 5   0  0.2555801E-05  0.2623454E+04  0.7818609E-02  0.8360278E-01
       -2   -1    0    0    0  501  0.00000000000E+00  0.00000000000E+00  0.11942258692E+04  0.11942258692E+04  0.25500000920E-02 0.  1.
        2   -1    0    0  501    0  0.00000000000E+00  0.00000000000E+00 -0.14407893399E+04  0.14407893399E+04  0.25500000920E-02 0. -1.
    10030    2    1    2    0    0  0.00000000000E+00  0.00000000000E+00 -0.24656347068E+03  0.26350152092E+04  0.26234541367E+04 0.  0.
        1    1    3    3  502    0 -0.32176353711E+03  0.63678638470E+02 -0.13989342063E+04  0.14368728741E+04  0.50400001928E-02 0. -1.
       -1    1    3    3    0  502  0.32176353711E+03 -0.63678638470E+02  0.11523707356E+04  0.11981423351E+04  0.50400001928E-02 0.  1.
</event>
<event>
 5   0  0.1025153E-05  0.2532029E+04  0.7818609E-02  0.8391663E-01
       -1   -1    0    0    0  501  0.00000000000E+00  0.00000000000E+00  0.15204716464E+04  0.15204716464E+04  0.50400001928E-02 0. -1.
        1   -1    0    0  501    0  0.00000000000E+00  0.00000000000E+00 -0.10541419478E+04  0.10541419478E+04  0.50400001928E-02 0.  1.
    10030    2    1    2    0    0  0.00000000000E+00  0.00000000000E+00  0.46632969866E+03  0.25746135942E+04  0.25320291806E+04 0.  0.
        1    1    3    3  502    0 -0.11600595377E+04 -0.49420978057E+03  0.34825639485E+03  0.13081528790E+04  0.50400001928E-02 0.  1.
       -1    1    3    3    0  502  0.11600595377E+04  0.49420978057E+03  0.11807330381E+03  0.12664607152E+04  0.50400001928E-02 0. -1.
</event>
<event>
 5   0  0.2517854E-05  0.2593223E+04  0.7818609E-02  0.8370507E-01
        2   -1    0    0  501    0  0.00000000000E+00  0.00000000000E+00  0.18051633043E+04  0.18051633043E+04  0.25500000920E-02 0.  1.
       -2   -1    0    0    0  501  0.00000000000E+00  0.00000000000E+00 -0.93132929941E+03  0.93132929941E+03  0.25500000920E-02 0. -1.
    10030    2    1    2    0    0  0.00000000000E+00  0.00000000000E+00  0.87383400489E+03  0.27364926037E+04  0.25932230722E+04 0.  0.
        4    1    3    3  502    0  0.52446831945E+03  0.40827018607E+02  0.16874927917E+04  0.17675880172E+04  0.12699999809E+01 0.  1.
       -4    1    3    3    0  502 -0.52446831945E+03 -0.40827018607E+02 -0.81365878680E+03  0.96890458653E+03  0.12699999809E+01 0. -1.
</event>
<event>
 5   0  0.2484618E-05  0.2607736E+04  0.7818609E-02  0.8365578E-01
       -2   -1    0    0    0  501  0.00000000000E+00  0.00000000000E+00  0.11227742023E+04  0.11227742023E+04  0.25500000920E-02 0. -1.
        2   -1    0    0  501    0  0.00000000000E+00  0.00000000000E+00 -0.15141702597E+04  0.15141702597E+04  0.25500000920E-02 0.  1.
    10030    2    1    2    0    0  0.00000000000E+00  0.00000000000E+00 -0.39139605736E+03  0.26369444620E+04  0.26077356503E+04 0.  0.
        3    1    3    3  502    0 -0.11963142718E+04  0.49430934089E+03 -0.37220777324E+02  0.12949497897E+04  0.10100000352E+00 0. -1.
       -3    1    3    3    0  502  0.11963142718E+04 -0.49430934089E+03 -0.35417528004E+03  0.13419946723E+04  0.10100000352E+00 0.  1.
</event>
<event>
 5   0  0.1000421E-05  0.2610113E+04  0.7818609E-02  0.8364774E-01
       -1   -1    0    0    0  501  0.00000000000E+00  0.00000000000E+00  0.10570754811E+04  0.10570754811E+04  0.50400001928E-02 0. -1.
        1   -1    0    0  501    0  0.00000000000E+00  0.00000000000E+00 -0.16112122628E+04  0.16112122628E+04  0.50400001928E-02 0.  1.
    10030    2    1    2    0    0  0.00000000000E+00  0.00000000000E+00 -0.55413678175E+03  0.26682877439E+04  0.26101133906E+04 0.  0.
        3    1    3    3  502    0 -0.73394934090E+03  0.73509197258E+03 -0.10846960930E+04  0.15018679927E+04  0.10100000352E+00 0.  1.
       -3    1    3    3    0  502  0.73394934090E+03 -0.73509197258E+03  0.53055931124E+03  0.11664197512E+04  0.10100000352E+00 0. -1.
</event>
<event>
 5   0  0.1034714E-05  0.2594129E+04  0.7818609E-02  0.8370198E-01
       -1   -1    0    0    0  501  0.00000000000E+00  0.00000000000E+00  0.83251448143E+03  0.83251448145E+03  0.50400001928E-02 0. -1.
        1   -1    0    0  501    0  0.00000000000E+00  0.00000000000E+00 -0.20208374964E+04  0.20208374964E+04  0.50400001928E-02 0.  1.
    10030    2    1    2    0    0  0.00000000000E+00  0.00000000000E+00 -0.11883230149E+04  0.28533519778E+04  0.25941291258E+04 0.  0.
        5    1    3    3  502    0  0.69152183598E+02 -0.12817317726E+04 -0.79916149885E+03  0.15120514385E+04  0.46999998093E+01 0.  1.
       -5    1    3    3    0  502 -0.69152183598E+02  0.12817317726E+04 -0.38916151607E+03  0.13413005394E+04  0.46999998093E+01 0. -1.
</event>
<event>
 5   0  0.8605000E-06  0.2547525E+04  0.7818609E-02  0.8386248E-01
        3   -1    0    0  501    0  0.00000000000E+00  0.00000000000E+00  0.21583826113E+04  0.21583826137E+04  0.10100000352E+00 0. -1.
       -3   -1    0    0    0  501  0.00000000000E+00  0.00000000000E+00 -0.75170666764E+03  0.75170667442E+03  0.10100000352E+00 0.  1.
    10030    2    1    2    0    0  0.00000000000E+00  0.00000000000E+00  0.14066759437E+04  0.29100892881E+04  0.25475247701E+04 0.  0.
        5    1    3    3  502    0 -0.10794688304E+04  0.25988379350E+03 -0.97261293521E+01  0.11103644579E+04  0.46999998093E+01 0.  1.
       -5    1    3    3    0  502  0.10794688304E+04 -0.25988379350E+03  0.14164020730E+04  0.17997248302E+04  0.46999998093E+01 0. -1.
</event>
<event>
 5   0  0.1005492E-05  0.2615322E+04  0.7818609E-02  0.8363015E-01
       -1   -1    0    0    0  501  0.00000000000E+00  0.00000000000E+00  0.10099353410E+04  0.10099353410E+04  0.50400001928E-02 0.  1.
        1   -1    0    0  501    0  0.00000000000E+00  0.00000000000E+00 -0.16931557411E+04  0.16931557411E+04  0.50400001928E-02 0. -1.
    10030    2    1    2    0    0  0.00000000000E+00  0.00000000000E+00 -0.68322040013E+03  0.27030910822E+04  0.26153224052E+04 0.  0.
        4    1    3    3  502    0  0.35925537954E+03  0.49923525595E+03  0.85109941919E+03  0.10500819505E+04  0.12699999809E+01 0.  1.
       -4    1    3    3    0  502 -0.35925537954E+03 -0.49923525595E+03 -0.15343198193E+04  0.16530091317E+04  0.12699999809E+01 0. -1.
</event>
<event>
 5   0  0.2528460E-05  0.2590784E+04  0.7818609E-02  0.8371339E-01
       -2   -1    0    0    0  501  0.00000000000E+00  0.00000000000E+00  0.12796428985E+04  0.12796428985E+04  0.25500000920E-02 0.  1.
        2   -1    0    0  501    0  0.00000000000E+00  0.00000000000E+00 -0.13113346290E+04  0.13113346290E+04  0.25500000920E-02 0. -1.
    10030    2    1    2    0    0  0.00000000000E+00  0.00000000000E+00 -0.31691730538E+02  0.25909775275E+04  0.25907837004E+04 0.  0.
        5    1    3    3  502    0  0.84536442190E+03  0.52308069460E+03 -0.84642803974E+03  0.13056480902E+04  0.46999998093E+01 0. -1.
       -5    1    3    3    0  502 -0.84536442190E+03 -0.52308069460E+03  0.81473630921E+03  0.12853294373E+04  0.46999998093E+01 0.  1.
</event>
<event>
 5   0  0.2662024E-05  0.2402480E+04  0.7818609E-02  0.8438576E-01
        2   -1    0    0  501    0  0.00000000000E+00  0.00000000000E+00  0.18709233935E+04  0.18709233936E+04  0.25500000920E-02 0. -1.
       -2   -1    0    0    0  501  0.00000000000E+00  0.00000000000E+00 -0.77126467140E+03  0.77126467141E+03  0.25500000920E-02 0.  1.
    10030    2    1    2    0    0  0.00000000000E+00  0.00000000000E+00  0.10996587221E+04  0.26421880650E+04  0.24024796493E+04 0.  0.
        2    1    3    3  502    0  0.67594796896E+03  0.62692516510E+03 -0.29709504170E+03  0.96861049095E+03  0.25500000920E-02 0.  1.
       -2    1    3    3    0  502 -0.67594796896E+03 -0.62692516510E+03  0.13967537638E+04  0.16735775740E+04  0.25500000920E-02 0. -1.
</event>
<event>
 5   0  0.2484618E-05  0.2564913E+04  0.7818609E-02  0.8380218E-01
        2   -1    0    0  501    0  0.00000000000E+00  0.00000000000E+00  0.18146526697E+04  0.18146526697E+04  0.25500000920E-02 0. -1.
       -2   -1    0    0    0  501  0.00000000000E+00  0.00000000000E+00 -0.90634161632E+03  0.90634161632E+03  0.25500000920E-02 0.  1.
    10030    2    1    2    0    0  0.00000000000E+00  0.00000000000E+00  0.90831105335E+03  0.27209942860E+04  0.25649134361E+04 0.  0.
        3    1    3    3  502    0 -0.78473409060E+02 -0.54179453990E+03  0.16844678813E+04  0.17711949223E+04  0.10100000352E+00 0. -1.
       -3    1    3    3    0  502  0.78473409060E+02  0.54179453990E+03 -0.77615682799E+03  0.94979936367E+03  0.10100000352E+00 0.  1.
</event>
<event>
 5   0  0.2662024E-05  0.2544832E+04  0.7818609E-02  0.8387186E-01
       -2   -1    0    0    0  501  0.00000000000E+00  0.00000000000E+00  0.10448126941E+04  0.10448126941E+04  0.25500000920E-02 0.  1.
        2   -1    0    0  501    0  0.00000000000E+00  0.00000000000E+00 -0.15496002674E+04  0.15496002674E+04  0.25500000920E-02 0. -1.
    10030    2    1    2    0    0  0.00000000000E+00  0.00000000000E+00 -0.50478757332E+03  0.25944129615E+04  0.25448316487E+04 0.  0.
        2    1    3    3  502    0 -0.18893973151E+03  0.90167709681E+03 -0.11471737719E+04  0.14713012853E+04  0.25500000920E-02 0. -1.
       -2    1    3    3    0  502  0.18893973151E+03 -0.90167709681E+03  0.64238619860E+03  0.11231116762E+04  0.25500000920E-02 0.  1.
</event>
<event>
 5   0  0.2484618E-05  0.2587678E+04  0.7818609E-02  0.8372399E-01
        2   -1    0    0  501    0  0.00000000000E+00  0.00000000000E+00  0.13157133356E+04  0.13157133356E+04  0.25500000920E-02 0. -1.
       -2   -1    0    0    0  501  0.00000000000E+00  0.00000000000E+00 -0.12723285374E+04  0.12723285374E+04  0.25500000920E-02 0.  1.
    10030    2    1    2    0    0  0.00000000000E+00  0.00000000000E+00  0.43384798205E+02  0.25880418731E+04  0.25876782057E+04 0.  0.
        3    1    3    3  502    0  0.98232635535E+03 -0.48385044123E+03  0.71095055146E+03  0.13055753577E+04  0.10100000352E+00 0. -1.
       -3    1    3    3    0  502 -0.98232635535E+03  0.48385044123E+03 -0.66756575326E+03  0.12824665154E+04  0.10100000352E+00 0.  1.
</event>
<event>
 5   0  0.2528460E-05  0.2584501E+04  0.7818609E-02  0.8373485E-01
       -2   -1    0    0    0  501  0.00000000000E+00  0.00000000000E+00  0.13807539040E+04  0.13807539040E+04  0.25500000920E-02 0. -1.
        2   -1    0    0  501    0  0.00000000000E+00  0.00000000000E+00 -0.12094203620E+04  0.12094203620E+04  0.25500000920E-02 0.  1.
    10030    2    1    2    0    0  0.00000000000E+00  0.00000000000E+00  0.17133354200E+03  0.25901742659E+04  0.25845014113E+04 0.  0.
        5    1    3    3  502    0 -0.39321805075E+02 -0.11880713910E+04 -0.42222953512E+03  0.12614910641E+04  0.46999998093E+01 0.  1.
       -5    1    3    3    0  502  0.39321805075E+02  0.11880713910E+04  0.59356307712E+03  0.13286832019E+04  0.46999998093E+01 0. -1.
</event>
<event>
 5   0  0.2517854E-05  0.2603503E+04  0.7818609E-02  0.8367012E-01
       -2   -1    0    0    0  501  0.00000000000E+00  0.00000000000E+00  0.12441051536E+04  0.12441051536E+04  0.25500000920E-02 0.  1.
        2   -1    0    0  501    0  0.00000000000E+00  0.00000000000E+00 -0.13620689353E+04  0.13620689353E+04  0.25500000920E-02 0. -1.
    10030    2    1    2    0    0  0.00000000000E+00  0.00000000000E+00 -0.11796378173E+03  0.26061740889E+04  0.26035030109E+04 0.  0.
        4    1    3    3  502    0 -0.10072410659E+04  0.79407987292E+03 -0.28160151057E+03  0.13131635210E+04  0.12699999809E+01 0. -1.
       -4    1    3    3    0  502  0.10072410659E+04 -0.79407987292E+03  0.16363772884E+03  0.12930105678E+04  0.12699999809E+01 0.  1.
</event>
<event>
 5   0  0.2517854E-05  0.2600020E+04  0.7818609E-02  0.8368195E-01
       -2   -1    0    0    0  501  0.00000000000E+00  0.00000000000E+00  0.10484465645E+04  0.10484465645E+04  0.25500000920E-02 0. -1.
        2   -1    0    0  501    0  0.00000000000E+00  0.00000000000E+00 -0.16119328039E+04  0.16119328039E+04  0.25500000920E-02 0.  1.
    10030    2    1    2    0    0  0.00000000000E+00  0.00000000000E+00 -0.56348623940E+03  0.26603793683E+04  0.26000195464E+04 0.  0.
        4    1    3    3  502    0  0.80529891749E+03 -0.65963221875E+03 -0.10785398670E+04  0.14989565931E+04  0.12699999809E+01 0.  1.
       -4    1    3    3    0  502 -0.80529891749E+03  0.65963221875E+03  0.51505362759E+03  0.11614227752E+04  0.12699999809E+01 0. -1.
</event>
<event>
 5   0  0.1025153E-05  0.2612825E+04  0.7818609E-02  0.8363858E-01
        1   -1    0    0  501    0  0.00000000000E+00  0.00000000000E+00  0.23006685129E+04  0.23006685129E+04  0.50400001928E-02 0. -1.
       -1   -1    0    0    0  501  0.00000000000E+00  0.00000000000E+00 -0.74183364435E+03  0.74183364437E+03  0.50400001928E-02 0.  1.
    10030    2    1    2    0    0  0.00000000000E+00  0.00000000000E+00  0.15588348685E+04  0.30425021573E+04  0.26128247606E+04 0.  0.
        1    1    3    3  502    0 -0.11665651048E+04 -0.48921313152E+03  0.11594450377E+04  0.17159593315E+04  0.50400001928E-02 0.  1.
       -1    1    3    3    0  502  0.11665651048E+04  0.48921313152E+03  0.39938983082E+03  0.13265428258E+04  0.50400001928E-02 0. -1.
</event>
<event>
 5   0  0.2662024E-05  0.2631427E+04  0.7818609E-02  0.8357604E-01
        2   -1    0    0  501    0  0.00000000000E+00  0.00000000000E+00  0.17561921448E+04  0.17561921448E+04  0.25500000920E-02 0. -1.
       -2   -1    0    0    0  501  0.00000000000E+00  0.00000000000E+00 -0.98571370183E+03  0.98571370183E+03  0.25500000920E-02 0.  1.
    10030    2    1    2    0    0  0.00000000000E+00  0.00000000000E+00  0.77047844300E+03  0.27419058467E+04  0.26314274911E+04 0.  0.
        2    1    3    3  502    0  0.81720963251E+03 -0.41325766380E+03  0.13696188329E+04  0.16475646353E+04  0.25500000920E-02 0. -1.
       -2    1    3    3    0  502 -0.81720963251E+03  0.41325766380E+03 -0.59914038985E+03  0.10943412114E+04  0.25500000920E-02 0.  1.
</event>
<event>
 5   0  0.1034714E-05  0.2636792E+04  0.7818609E-02  0.8355810E-01
        1   -1    0    0  501    0  0.00000000000E+00  0.00000000000E+00  0.13793896321E+04  0.13793896322E+04  0.50400001928E-02 0. -1.
       -1   -1    0    0    0  501  0.00000000000E+00  0.00000000000E+00 -0.12600995240E+04  0.12600995241E+04  0.50400001928E-02 0.  1.
    10030    2    1    2    0    0  0.00000000000E+00  0.00000000000E+00  0.11929010810E+03  0.26394891562E+04  0.26367921564E+04 0.  0.
        5    1    3    3  502    0  0.54575712773E+02  0.82762784857E+02  0.13756447933E+04  0.13792203864E+04  0.46999998093E+01 0. -1.
       -5    1    3    3    0  502 -0.54575712773E+02 -0.82762784857E+02 -0.12563546852E+04  0.12602687698E+04  0.46999998093E+01 0.  1.
</event>
<event>
 5   0  0.1005492E-05  0.2614047E+04  0.7818609E-02  0.8363446E-01
        1   -1    0    0  501    0  0.00000000000E+00  0.00000000000E+00  0.95596207447E+03  0.95596207448E+03  0.50400001928E-02 0. -1.
       -1   -1    0    0    0  501  0.00000000000E+00  0.00000000000E+00 -0.17870058729E+04  0.17870058729E+04  0.50400001928E-02 0.  1.
    10030    2    1    2    0    0  0.00000000000E+00  0.00000000000E+00 -0.83104379840E+03  0.27429679474E+04  0.26140465500E+04 0.  0.
        4    1    3    3  502    0 -0.65201915904E+03  0.27990589083E+03  0.73626106635E+03  0.10225254335E+04  0.12699999809E+01 0. -1.
       -4    1    3    3    0  502  0.65201915904E+03 -0.27990589083E+03 -0.15673048647E+04  0.17204425138E+04  0.12699999809E+01 0.  1.
</event>
<event>
 5   0  0.1034714E-05  0.2515627E+04  0.7818609E-02  0.8397440E-01
       -1   -1    0    0    0  501  0.00000000000E+00  0.00000000000E+00  0.11760032376E+04  0.11760032376E+04  0.50400001928E-02 0. -1.
        1   -1    0    0  501    0  0.00000000000E+00  0.00000000000E+00 -0.13453145352E+04  0.13453145352E+04  0.50400001928E-02 0.  1.
    10030    2    1    2    0    0  0.00000000000E+00  0.00000000000E+00 -0.16931129755E+03  0.25213177728E+04  0.25156265613E+04 0.  0.
        5    1    3    3  502    0  0.67768829823E+03 -0.10012510687E+04  0.26298208542E+03  0.12373143495E+04  0.46999998093E+01 0. -1.
       -5    1    3    3    0  502 -0.67768829823E+03  0.10012510687E+04 -0.43229338297E+03  0.12840034233E+04  0.46999998093E+01 0.  1.
</event>
<event>
 5   0  0.2555801E-05  0.2480108E+04  0.7818609E-02  0.8410107E-01
       -2   -1    0    0    0  501  0.00000000000E+00  0.00000000000E+00  0.73432309959E+03  0.73432309959E+03  0.25500000920E-02 0. -1.
        2   -1    0    0  501    0  0.00000000000E+00  0.00000000000E+00 -0.20940831393E+04  0.20940831393E+04  0.25500000920E-02 0.  1.
    10030    2    1    2    0    0  0.00000000000E+00  0.00000000000E+00 -0.13597600397E+04  0.28284062389E+04  0.24801077571E+04 0.  0.
        1    1    3    3  502    0  0.11893434347E+04  0.58729133253E+02 -0.28523827594E+03  0.12244785792E+04  0.50400001928E-02 0. -1.
       -1    1    3    3    0  502 -0.11893434347E+04 -0.58729133253E+02 -0.10745217638E+04  0.16039276597E+04  0.50400001928E-02 0.  1.
</event>
<event>
 5   0  0.2484618E-05  0.2619906E+04  0.7818609E-02  0.8361471E-01
       -2   -1    0    0    0  501  0.00000000000E+00  0.00000000000E+00  0.81070924478E+03  0.81070924479E+03  0.25500000920E-02 0. -1.
        2   -1    0    0  501    0  0.00000000000E+00  0.00000000000E+00 -0.21166365868E+04  0.21166365868E+04  0.25500000920E-02 0.  1.
    10030    2    1    2    0    0  0.00000000000E+00  0.00000000000E+00 -0.13059273420E+04  0.29273458316E+04  0.26199059897E+04 0.  0.
        3    1    3    3  502    0 -0.83031324341E+03 -0.30864774894E+03 -0.17312437188E+04  0.19447077773E+04  0.10100000352E+00 0.  1.
       -3    1    3    3    0  502  0.83031324341E+03  0.30864774894E+03  0.42531637679E+03  0.98263805425E+03  0.10100000352E+00 0. -1.
</event>
<event>
 5   0  0.2528460E-05  0.2780381E+04  0.7818609E-02  0.8309385E-01
       -2   -1    0    0    0  501  0.00000000000E+00  0.00000000000E+00  0.85379878824E+03  0.85379878825E+03  0.25500000920E-02 0. -1.
        2   -1    0    0  501    0  0.00000000000E+00  0.00000000000E+00 -0.22635650664E+04  0.22635650664E+04  0.25500000920E-02 0.  1.
    10030    2    1    2    0    0  0.00000000000E+00  0.00000000000E+00 -0.14097662781E+04  0.31173638546E+04  0.27803806292E+04 0.  0.
        5    1    3    3  502    0  0.26432133326E+03  0.13617242188E+04 -0.60182777218E+03  0.15120771716E+04  0.46999998093E+01 0. -1.
       -5    1    3    3    0  502 -0.26432133326E+03 -0.13617242188E+04 -0.80793850595E+03  0.16052866831E+04  0.46999998093E+01 0.  1.
</event>
<event>
 5   0  0.1034714E-05  0.2289734E+04  0.7818609E-02  0.8481980E-01
       -1   -1    0    0    0  501  0.00000000000E+00  0.00000000000E+00  0.69953638120E+03  0.69953638121E+03  0.50400001928E-02 0.  1.
        1   -1    0    0  501    0  0.00000000000E+00  0.00000000000E+00 -0.18736994756E+04  0.18736994756E+04  0.50400001928E-02 0. -1.
    10030    2    1    2    0    0  0.00000000000E+00  0.00000000000E+00 -0.11741630944E+04  0.25732358569E+04  0.22897344393E+04 0.  0.
        5    1    3    3  502    0  0.11172663071E+04 -0.18885814397E+03 -0.40328567171E+03  0.12027521866E+04  0.46999998093E+01 0.  1.
       -5    1    3    3    0  502 -0.11172663071E+04  0.18885814397E+03 -0.77087742272E+03  0.13704836702E+04  0.46999998093E+01 0. -1.
</event>
<event>
 5   0  0.2484618E-05  0.2580464E+04  0.7818609E-02  0.8374868E-01
        2   -1    0    0  501    0  0.00000000000E+00  0.00000000000E+00  0.12093312538E+04  0.12093312538E+04  0.25500000920E-02 0.  1.
       -2   -1    0    0    0  501  0.00000000000E+00  0.00000000000E+00 -0.13765444903E+04  0.13765444903E+04  0.25500000920E-02 0. -1.
    10030    2    1    2    0    0  0.00000000000E+00  0.00000000000E+00 -0.16721323648E+03  0.25858757441E+04  0.25804637369E+04 0.  0.
        3    1    3    3  502    0 -0.28190051292E+03  0.57430124211E+03 -0.12064066482E+04  0.13655426859E+04  0.10100000352E+00 0. -1.
       -3    1    3    3    0  502  0.28190051292E+03 -0.57430124211E+03  0.10391934117E+04  0.12203330582E+04  0.10100000352E+00 0.  1.
</event>
<event>
 5   0  0.2517854E-05  0.2392384E+04  0.7818609E-02  0.8442360E-01
        2   -1    0    0  501    0  0.00000000000E+00  0.00000000000E+00  0.11604791484E+04  0.11604791484E+04  0.25500000920E-02 0.  1.
       -2   -1    0    0    0  501  0.00000000000E+00  0.00000000000E+00 -0.12330037774E+04  0.12330037774E+04  0.25500000920E-02 0. -1.
    10030    2    1    2    0    0  0.00000000000E+00  0.00000000000E+00 -0.72524628966E+02  0.23934829258E+04  0.23923838936E+04 0.  0.
        4    1    3    3  502    0  0.83938819677E+03 -0.27785538303E+03 -0.84229824041E+03  0.12211650574E+04  0.12699999809E+01 0. -1.
       -4    1    3    3    0  502 -0.83938819677E+03  0.27785538303E+03  0.76977361145E+03  0.11723178684E+04  0.12699999809E+01 0.  1.
</event>
<event>
 5   0  0.2528460E-05  0.2595492E+04  0.7818609E-02  0.8369734E-01
        2   -1    0    0  501    0  0.00000000000E+00  0.00000000000E+00  0.13396100237E+04  0.13396100237E+04  0.25500000920E-02 0. -1.
       -2   -1    0    0    0  501  0.00000000000E+00  0.00000000000E+00 -0.12571898240E+04  0.12571898240E+04  0.25500000920E-02 0.  1.
    10030    2    1    2    0    0  0.00000000000E+00  0.00000000000E+00  0.82420199640E+02  0.25967998477E+04  0.25954915449E+04 0.  0.
        5    1    3    3  502    0  0.35492120290E+03 -0.70382296184E+03  0.10726449644E+04  0.13311367817E+04  0.46999998093E+01 0. -1.
       -5    1    3    3    0  502 -0.35492120290E+03  0.70382296184E+03 -0.99022476476E+03  0.12656630660E+04  0.46999998093E+01 0.  1.
</event>
<event>
 5   0  0.1034714E-05  0.2579346E+04  0.7818609E-02  0.8375251E-01
        1   -1    0    0  501    0  0.00000000000E+00  0.00000000000E+00  0.13294560722E+04  0.13294560722E+04  0.50400001928E-02 0. -1.
       -1   -1    0    0    0  501  0.00000000000E+00  0.00000000000E+00 -0.12510802976E+04  0.12510802976E+04  0.50400001928E-02 0.  1.
    10030    2    1    2    0    0  0.00000000000E+00  0.00000000000E+00  0.78375774571E+02  0.25805363698E+04  0.25793458849E+04 0.  0.
        5    1    3    3  502    0 -0.69358424870E+02  0.11087836217E+04  0.69448828837E+03  0.13101708986E+04  0.46999998093E+01 0. -1.
       -5    1    3    3    0  502  0.69358424870E+02 -0.11087836217E+04 -0.61611251379E+03  0.12703654712E+04  0.46999998093E+01 0.  1.
</event>
<event>
 5   0  0.2484618E-05  0.2610623E+04  0.7818609E-02  0.8364602E-01
       -2   -1    0    0    0  501  0.00000000000E+00  0.00000000000E+00  0.10404553206E+04  0.10404553206E+04  0.25500000920E-02 0.  1.
        2   -1    0    0  501    0  0.00000000000E+00  0.00000000000E+00 -0.16375895171E+04  0.16375895171E+04  0.25500000920E-02 0. -1.
    10030    2    1    2    0    0  0.00000000000E+00  0.00000000000E+00 -0.59713419649E+03  0.26780448378E+04  0.26106234704E+04 0.  0.
        3    1    3    3  502    0  0.12918420377E+04  0.18558951214E+03 -0.32239185353E+03  0.13443347183E+04  0.10100000352E+00 0. -1.
       -3    1    3    3    0  502 -0.12918420377E+04 -0.18558951214E+03 -0.27474234296E+03  0.13337101194E+04  0.10100000352E+00 0.  1.
</event>
<event>
 5   0  0.2555801E-05  0.2616557E+04  0.7818609E-02  0.8362599E-01
       -2   -1    0    0    0  501  0.00000000000E+00  0.00000000000E+00  0.14351875283E+04  0.14351875283E+04  0.25500000920E-02 0. -1.
        2   -1    0    0  501    0  0.00000000000E+00  0.00000000000E+00 -0.11925915257E+04  0.11925915257E+04  0.25500000920E-02 0.  1.
    10030    2    1    2    0    0  0.00000000000E+00  0.00000000000E+00  0.24259600254E+03  0.26277790540E+04  0.26165568857E+04 0.  0.
        1    1    3    3  502    0 -0.87416959723E+03  0.32808193105E+03  0.10416246763E+04  0.13988538896E+04  0.50400001928E-02 0. -1.
       -1    1    3    3    0  502  0.87416959723E+03 -0.32808193105E+03 -0.79902867376E+03  0.12289251644E+04  0.50400001928E-02 0.  1.
</event>
<event>
 5   0  0.2517854E-05  0.2521084E+04  0.7818609E-02  0.8395513E-01
       -2   -1    0    0    0  501  0.00000000000E+00  0.00000000000E+00  0.15647302815E+04  0.15647302815E+04  0.25500000920E-02 0. -1.
        2   -1    0    0  501    0  0.00000000000E+00  0.00000000000E+00 -0.10154886487E+04  0.10154886487E+04  0.25500000920E-02 0.  1.
    10030    2    1    2    0    0  0.00000000000E+00  0.00000000000E+00  0.54924163283E+03  0.25802189302E+04  0.25210837662E+04 0.  0.
        4    1    3    3  502    0 -0.22511332578E+03 -0.66786208759E+03 -0.79500037732E+03  0.10624231691E+04  0.12699999809E+01 0.  1.
       -4    1    3    3    0  502  0.22511332578E+03  0.66786208759E+03  0.13442420101E+04  0.15177957610E+04  0.12699999809E+01 0. -1.
</event>
<event>
 5   0  0.2555801E-05  0.2582062E+04  0.7818609E-02  0.8374320E-01
        2   -1    0    0  501    0  0.00000000000E+00  0.00000000000E+00  0.21905362912E+04  0.21905362912E+04  0.25500000920E-02 0.  1.
       -2   -1    0    0    0  501  0.00000000000E+00  0.00000000000E+00 -0.76089179174E+03  0.76089179175E+03  0.25500000920E-02 0. -1.
    10030    2    1    2    0    0  0.00000000000E+00  0.00000000000E+00  0.14296444995E+04  0.29514280830E+04  0.25820620314E+04 0.  0.
        1    1    3    3  502    0  0.89259736554E+03  0.41185475328E+03  0.16714449365E+04  0.19390932341E+04  0.50400001928E-02 0.  1.
       -1    1    3    3    0  502 -0.89259736554E+03 -0.41185475328E+03 -0.24180043706E+03  0.10123348488E+04  0.50400001928E-02 0. -1.
</event>
<event>
 5   0  0.2484618E-05  0.2499603E+04  0.7818609E-02  0.8403127E-01
       -2   -1    0    0    0  501  0.00000000000E+00  0.00000000000E+00  0.13100982244E+04  0.13100982244E+04  0.25500000920E-02 0.  1.
        2   -1    0    0  501    0  0.00000000000E+00  0.00000000000E+00 -0.11922801740E+04  0.11922801740E+04  0.25500000920E-02 0. -1.
    10030    2    1    2    0    0  0.00000000000E+00  0.00000000000E+00  0.11781805038E+03  0.25023783984E+04  0.24996032797E+04 0.  0.
        3    1    3    3  502    0  0.70735710803E+03 -0.60123003808E+03  0.89660112314E+03  0.12906297770E+04  0.10100000352E+00 0.  1.
       -3    1    3    3    0  502 -0.70735710803E+03  0.60123003808E+03 -0.77878307276E+03  0.12117486214E+04  0.10100000352E+00 0. -1.
</event>
<event>
 5   0  0.2662024E-05  0.2604163E+04  0.7818609E-02  0.8366788E-01
        2   -1    0    0  501    0  0.00000000000E+00  0.00000000000E+00  0.25830239187E+04  0.25830239187E+04  0.25500000920E-02 0.  1.
       -2   -1    0    0    0  501  0.00000000000E+00  0.00000000000E+00 -0.65636887320E+03  0.65636887321E+03  0.25500000920E-02 0. -1.
    10030    2    1    2    0    0  0.00000000000E+00  0.00000000000E+00  0.19266550455E+04  0.32393927919E+04  0.26041632046E+04 0.  0.
        2    1    3    3  502    0  0.69991742053E+03  0.37202033892E+03 -0.32167707748E+03  0.85542952387E+03  0.25500000920E-02 0. -1.
       -2    1    3    3    0  502 -0.69991742053E+03 -0.37202033892E+03  0.22483321230E+04  0.23839632680E+04  0.25500000920E-02 0.  1.
</event>
<event>
 5   0  0.2555801E-05  0.2602090E+04  0.7818609E-02  0.8367492E-01
        2   -1    0    0  501    0  0.00000000000E+00  0.00000000000E+00  0.21535422015E+04  0.21535422015E+04  0.25500000920E-02 0. -1.
       -2   -1    0    0    0  501  0.00000000000E+00  0.00000000000E+00 -0.78601559319E+03  0.78601559319E+03  0.25500000920E-02 0.  1.
    10030    2    1    2    0    0  0.00000000000E+00  0.00000000000E+00  0.13675266083E+04  0.29395577947E+04  0.26020897379E+04 0.  0.
        1    1    3    3  502    0  0.25727899165E+02 -0.39065173547E+03  0.20854214681E+04  0.21218514092E+04  0.50400001928E-02 0. -1.
       -1    1    3    3    0  502 -0.25727899165E+02  0.39065173547E+03 -0.71789485975E+03  0.81770638550E+03  0.50400001928E-02 0.  1.
</event>
<event>
 5   0  0.2662024E-05  0.2606375E+04  0.7818609E-02  0.8366039E-01
        2   -1    0    0  501    0  0.00000000000E+00  0.00000000000E+00  0.91645112956E+03  0.91645112957E+03  0.25500000920E-02 0.  1.
       -2   -1    0    0    0  501  0.00000000000E+00  0.00000000000E+00 -0.18531247085E+04  0.18531247085E+04  0.25500000920E-02 0. -1.
    10030    2    1    2    0    0  0.00000000000E+00  0.00000000000E+00 -0.93667357895E+03  0.27695758381E+04  0.26063754391E+04 0.  0.
        2    1    3    3  502    0  0.10833893093E+03  0.71884609715E+03  0.68097015410E+03  0.99609105313E+03  0.25500000920E-02 0.  1.
       -2    1    3    3    0  502 -0.10833893093E+03 -0.71884609715E+03 -0.16176437331E+04  0.17734847850E+04  0.25500000920E-02 0. -1.
</event>
<event>
 5   0  0.1025153E-05  0.2603230E+04  0.7818609E-02  0.8367105E-01
        1   -1    0    0  501    0  0.00000000000E+00  0.00000000000E+00  0.13460705878E+04  0.13460705878E+04  0.50400001928E-02 0. -1.
       -1   -1    0    0    0  501  0.00000000000E+00  0.00000000000E+00 -0.12586278808E+04  0.12586278808E+04  0.50400001928E-02 0.  1.
    10030    2    1    2    0    0  0.00000000000E+00  0.00000000000E+00  0.87442706989E+02  0.26046984686E+04  0.26032302790E+04 0.  0.
        1    1    3    3  502    0  0.99787511858E+02  0.73704891297E+03  0.11125013636E+04  0.13382294018E+04  0.50400001928E-02 0. -1.
       -1    1    3    3    0  502 -0.99787511858E+02 -0.73704891297E+03 -0.10250586566E+04  0.12664690668E+04  0.50400001928E-02 0.  1.
</event>
<event>
 5   0  0.9855352E-06  0.2640926E+04  0.7818609E-02  0.8354431E-01
       -1   -1    0    0    0  501  0.00000000000E+00  0.00000000000E+00  0.13766754026E+04  0.13766754026E+04  0.50400001928E-02 0. -1.
        1   -1    0    0  501    0  0.00000000000E+00  0.00000000000E+00 -0.12665461443E+04  0.12665461443E+04  0.50400001928E-02 0.  1.
    10030    2    1    2    0    0  0.00000000000E+00  0.00000000000E+00  0.11012925833E+03  0.26432215469E+04  0.26409262944E+04 0.  0.
        2    1    3    3  502    0  0.10879947503E+04  0.74725626975E+03  0.93807622123E+02  0.13232249919E+04  0.25500000920E-02 0.  1.
       -2    1    3    3    0  502 -0.10879947503E+04 -0.74725626975E+03  0.16321636208E+02  0.13199965550E+04  0.25500000920E-02 0. -1.
</event>
<event>
 5   0  0.1005492E-05  0.2606051E+04  0.7818609E-02  0.8366149E-01
        1   -1    0    0  501    0  0.00000000000E+00  0.00000000000E+00  0.15763855642E+04  0.15763855642E+04  0.50400001928E-02 0.  1.
       -1   -1    0    0    0  501  0.00000000000E+00  0.00000000000E+00 -0.10770689455E+04  0.10770689455E+04  0.50400001928E-02 0. -1.
    10030    2    1    2    0    0  0.00000000000E+00  0.00000000000E+00  0.49931661876E+03  0.26534545097E+04  0.26060513712E+04 0.  0.
        4    1    3    3  502    0  0.72793364039E+03 -0.79925043243E+03  0.99034189164E+03  0.14661061741E+04  0.12699999809E+01 0.  1.
       -4    1    3    3    0  502 -0.72793364039E+03  0.79925043243E+03 -0.49102527288E+03  0.11873483356E+04  0.12699999809E+01 0. -1.
</event>
<event>
 5   0  0.1034714E-05  0.2569288E+04  0.7818609E-02  0.8378709E-01
       -1   -1    0    0    0  501  0.00000000000E+00  0.00000000000E+00  0.11056818140E+04  0.11056818140E+04  0.50400001928E-02 0.  1.
        1   -1    0    0  501    0  0.00000000000E+00  0.00000000000E+00 -0.14925718635E+04  0.14925718635E+04  0.50400001928E-02 0. -1.
    10030    2    1    2    0    0  0.00000000000E+00  0.00000000000E+00 -0.38689004954E+03  0.25982536775E+04  0.25692875009E+04 0.  0.
        5    1    3    3  502    0 -0.55255233105E+02 -0.14252819923E+03 -0.14833328744E+04  0.14911961422E+04  0.46999998093E+01 0. -1.
       -5    1    3    3    0  502  0.55255233105E+02  0.14252819923E+03  0.10964428248E+04  0.11070575353E+04  0.46999998093E+01 0.  1.
</event>
<event>
 5   0  0.2484618E-05  0.2585124E+04  0.7818609E-02  0.8373272E-01
       -2   -1    0    0    0  501  0.00000000000E+00  0.00000000000E+00  0.10751578678E+04  0.10751578678E+04  0.25500000920E-02 0. -1.
        2   -1    0    0  501    0  0.00000000000E+00  0.00000000000E+00 -0.15539267874E+04  0.15539267874E+04  0.25500000920E-02 0.  1.
    10030    2    1    2    0    0  0.00000000000E+00  0.00000000000E+00 -0.47876891957E+03  0.26290846552E+04  0.25851240678E+04 0.  0.
        3    1    3    3  502    0  0.12894992150E+04  0.34349000347E+02 -0.15596199488E+03  0.12993506968E+04  0.10100000352E+00 0. -1.
       -3    1    3    3    0  502 -0.12894992150E+04 -0.34349000347E+02 -0.32280692468E+03  0.13297339584E+04  0.10100000352E+00 0.  1.
</event>
<event>
 5   0  0.2484618E-05  0.2593784E+04  0.7818609E-02  0.8370316E-01
        2   -1    0    0  501    0  0.00000000000E+00  0.00000000000E+00  0.11272868934E+04  0.11272868934E+04  0.25500000920E-02 0.  1.
       -2   -1    0    0    0  501  0.00000000000E+00  0.00000000000E+00 -0.14920149462E+04  0.14920149462E+04  0.25500000920E-02 0. -1.
    10030    2    1    2    0    0  0.00000000000E+00  0.00000000000E+00 -0.36472805278E+03  0.26193018395E+04  0.25937840261E+04 0.  0.
        3    1    3    3  502    0 -0.87517854775E+03 -0.77807554223E+03  0.38042466418E+03  0.12312846849E+04  0.10100000352E+00 0.  1.
       -3    1    3    3    0  502  0.87517854775E+03  0.77807554223E+03 -0.74515271696E+03  0.13880171547E+04  0.10100000352E+00 0. -1.
</event>
<event>
 5   0  0.1000421E-05  0.2583419E+04  0.7818609E-02  0.8373855E-01
       -1   -1    0    0    0  501  0.00000000000E+00  0.00000000000E+00  0.12617616803E+04  0.12617616803E+04  0.50400001928E-02 0.  1.
        1   -1    0    0  501    0  0.00000000000E+00  0.00000000000E+00 -0.13223679097E+04  0.13223679097E+04  0.50400001928E-02 0. -1.
    10030    2    1    2    0    0  0.00000000000E+00  0.00000000000E+00 -0.60606229352E+02  0.25841295901E+04  0.25834187859E+04 0.  0.
        3    1    3    3  502    0 -0.66980636190E+03  0.93958079831E+03  0.55042574665E+03  0.12784448176E+04  0.10100000352E+00 0. -1.
       -3    1    3    3    0  502  0.66980636190E+03 -0.93958079831E+03 -0.61103197600E+03  0.13056847724E+04  0.10100000352E+00 0.  1.
</event>
<event>
 5   0  0.1005492E-05  0.2623404E+04  0.7818609E-02  0.8360295E-01
       -1   -1    0    0    0  501  0.00000000000E+00  0.00000000000E+00  0.93624527433E+03  0.93624527435E+03  0.50400001928E-02 0. -1.
        1   -1    0    0  501    0  0.00000000000E+00  0.00000000000E+00 -0.18377262084E+04  0.18377262084E+04  0.50400001928E-02 0.  1.
    10030    2    1    2    0    0  0.00000000000E+00  0.00000000000E+00 -0.90148093403E+03  0.27739714827E+04  0.26234042602E+04 0.  0.
        4    1    3    3  502    0 -0.85343698330E+03 -0.63782929348E+03  0.35827291016E+03  0.11240738335E+04  0.12699999809E+01 0. -1.
       -4    1    3    3    0  502  0.85343698330E+03  0.63782929348E+03 -0.12597538442E+04  0.16498976492E+04  0.12699999809E+01 0.  1.
</event>
<event>
 5   0  0.1034714E-05  0.2586252E+04  0.7818609E-02  0.8372886E-01
       -1   -1    0    0    0  501  0.00000000000E+00  0.00000000000E+00  0.53901819405E+03  0.53901819408E+03  0.50400001928E-02 0.  1.
        1   -1    0    0  501    0  0.00000000000E+00  0.00000000000E+00 -0.31022605771E+04  0.31022605771E+04  0.50400001928E-02 0. -1.
    10030    2    1    2    0    0  0.00000000000E+00  0.00000000000E+00 -0.25632423831E+04  0.36412787712E+04  0.25862520324E+04 0.  0.
        5    1    3    3  502    0 -0.97956954685E+03  0.66355710555E+03 -0.54694231363E+03  0.13034694142E+04  0.46999998093E+01 0.  1.
       -5    1    3    3    0  502  0.97956954685E+03 -0.66355710555E+03 -0.20163000694E+04  0.23378093570E+04  0.46999998093E+01 0. -1.
</event>
<event>
 5   0  0.2517854E-05  0.2551142E+04  0.7818609E-02  0.8384989E-01
       -2   -1    0    0    0  501  0.00000000000E+00  0.00000000000E+00  0.99748135812E+03  0.99748135812E+03  0.25500000920E-02 0.  1.
        2   -1    0    0  501    0  0.00000000000E+00  0.00000000000E+00 -0.16311896616E+04  0.16311896616E+04  0.25500000920E-02 0. -1.
    10030    2    1    2    0    0  0.00000000000E+00  0.00000000000E+00 -0.63370830351E+03  0.26286710197E+04  0.25511419239E+04 0.  0.
        4    1    3    3  502    0  0.61337231978E+02  0.11696913090E+03  0.99041618339E+03  0.99918459898E+03  0.12699999809E+01 0.  1.
       -4    1    3    3    0  502 -0.61337231978E+02 -0.11696913090E+03 -0.16241244869E+04  0.16294864208E+04  0.12699999809E+01 0. -1.
</event>
<event>
 5   0  0.2517854E-05  0.2302408E+04  0.7818609E-02  0.8476972E-01
        2   -1    0    0  501    0  0.00000000000E+00  0.00000000000E+00  0.14326727834E+04  0.14326727834E+04  0.25500000920E-02 0. -1.
       -2   -1    0    0    0  501  0.00000000000E+00  0.00000000000E+00 -0.92503412575E+03  0.92503412575E+03  0.25500000920E-02 0.  1.
    10030    2    1    2    0    0  0.00000000000E+00  0.00000000000E+00  0.50763865767E+03  0.23577069092E+04  0.23024084917E+04 0.  0.
        4    1    3    3  502    0 -0.10041094471E+04  0.56286824591E+03  0.23886871487E+03  0.11756344329E+04  0.12699999809E+01 0.  1.
       -4    1    3    3    0  502  0.10041094471E+04 -0.56286824591E+03  0.26876994280E+03  0.11820724762E+04  0.12699999809E+01 0. -1.
</event>
<event>
 5   0  0.2484618E-05  0.2547923E+04  0.7818609E-02  0.8386109E-01
       -2   -1    0    0    0  501  0.00000000000E+00  0.00000000000E+00  0.11992535497E+04  0.11992535497E+04  0.25500000920E-02 0.  1.
        2   -1    0    0  501    0  0.00000000000E+00  0.00000000000E+00 -0.13533233845E+04  0.13533233845E+04  0.25500000920E-02 0. -1.
    10030    2    1    2    0    0  0.00000000000E+00  0.00000000000E+00 -0.15406983477E+03  0.25525769342E+04  0.25479229758E+04 0.  0.
        3    1    3    3  502    0  0.97840407805E+03  0.61639882259E+03  0.45850282465E+03  0.12439641871E+04  0.10100000352E+00 0.  1.
       -3    1    3    3    0  502 -0.97840407805E+03 -0.61639882259E+03 -0.61257265941E+03  0.13086127470E+04  0.10100000352E+00 0. -1.
</event>
<event>
 5   0  0.1025153E-05  0.2310041E+04  0.7818609E-02  0.8473973E-01
        1   -1    0    0  501    0  0.00000000000E+00  0.00000000000E+00  0.23152198377E+04  0.23152198377E+04  0.50400001928E-02 0. -1.
       -1   -1    0    0    0  501  0.00000000000E+00  0.00000000000E+00 -0.57621822769E+03  0.57621822772E+03  0.50400001928E-02 0.  1.
    10030    2    1    2    0    0  0.00000000000E+00  0.00000000000E+00  0.17390016100E+04  0.28914380654E+04  0.23100405811E+04 0.  0.
        1    1    3    3  502    0 -0.20302285520E+03 -0.30420706454E+03 -0.50182704518E+03  0.62095941989E+03  0.50400001928E-02 0.  1.
       -1    1    3    3    0  502  0.20302285520E+03  0.30420706454E+03  0.22408286551E+04  0.22704786455E+04  0.50400001928E-02 0. -1.
</event>
<event>
 5   0  0.2517854E-05  0.2591719E+04  0.7818609E-02  0.8371019E-01
       -2   -1    0    0    0  501  0.00000000000E+00  0.00000000000E+00  0.87365729504E+03  0.87365729504E+03  0.25500000920E-02 0. -1.
        2   -1    0    0  501    0  0.00000000000E+00  0.00000000000E+00 -0.19220951699E+04  0.19220951699E+04  0.25500000920E-02 0.  1.
    10030    2    1    2    0    0  0.00000000000E+00  0.00000000000E+00 -0.10484378748E+04  0.27957524649E+04  0.25917194809E+04 0.  0.
        4    1    3    3  502    0  0.52550600398E+03  0.10696299601E+04 -0.10731893052E+04  0.16037461487E+04  0.12699999809E+01 0.  1.
       -4    1    3    3    0  502 -0.52550600398E+03 -0.10696299601E+04  0.24751430330E+02  0.11920063162E+04  0.12699999809E+01 0. -1.
</event>
<event>
 5   0  0.1005492E-05  0.2584467E+04  0.7818609E-02  0.8373497E-01
        1   -1    0    0  501    0  0.00000000000E+00  0.00000000000E+00  0.12851186331E+04  0.12851186332E+04  0.50400001928E-02 0.  1.
       -1   -1    0    0    0  501  0.00000000000E+00  0.00000000000E+00 -0.12993873390E+04  0.12993873390E+04  0.50400001928E-02 0. -1.
    10030    2    1    2    0    0  0.00000000000E+00  0.00000000000E+00 -0.14268705874E+02  0.25845059722E+04  0.25844665841E+04 0.  0.
        4    1    3    3  502    0  0.20711448110E+03 -0.65632115777E+03  0.10865968112E+04  0.12862146451E+04  0.12699999809E+01 0.  1.
       -4    1    3    3    0  502 -0.20711448110E+03  0.65632115777E+03 -0.11008655170E+04  0.12982913271E+04  0.12699999809E+01 0. -1.
</event>
<event>
 5   0  0.2555801E-05  0.2737829E+04  0.7818609E-02  0.8322834E-01
       -2   -1    0    0    0  501  0.00000000000E+00  0.00000000000E+00  0.10405687869E+04  0.10405687869E+04  0.25500000920E-02 0.  1.
        2   -1    0    0  501    0  0.00000000000E+00  0.00000000000E+00 -0.18008678768E+04  0.18008678768E+04  0.25500000920E-02 0. -1.
    10030    2    1    2    0    0  0.00000000000E+00  0.00000000000E+00 -0.76029908986E+03  0.28414366637E+04  0.27378289954E+04 0.  0.
        1    1    3    3  502    0 -0.91879732381E+03 -0.10137753337E+04 -0.42653953131E+03  0.14331311598E+04  0.50400001928E-02 0.  1.
       -1    1    3    3    0  502  0.91879732381E+03  0.10137753337E+04 -0.33375955856E+03  0.14083055039E+04  0.50400001928E-02 0. -1.
</event>
<event>
 5   0  0.2528460E-05  0.2591024E+04  0.7818609E-02  0.8371257E-01
       -2   -1    0    0    0  501  0.00000000000E+00  0.00000000000E+00  0.10329376046E+04  0.10329376046E+04  0.25500000920E-02 0.  1.
        2   -1    0    0  501    0  0.00000000000E+00  0.00000000000E+00 -0.16248326420E+04  0.16248326420E+04  0.25500000920E-02 0. -1.
    10030    2    1    2    0    0  0.00000000000E+00  0.00000000000E+00 -0.59189503742E+03  0.26577702466E+04  0.25910235330E+04 0.  0.
        5    1    3    3  502    0  0.61693761994E+03 -0.97152324875E+03 -0.90613222997E+03  0.14647754633E+04  0.46999998093E+01 0. -1.
       -5    1    3    3    0  502 -0.61693761994E+03  0.97152324875E+03  0.31423719254E+03  0.11929947833E+04  0.46999998093E+01 0.  1.
</event>
<event>
 5   0  0.1025153E-05  0.2573979E+04  0.7818609E-02  0.8377094E-01
        1   -1    0    0  501    0  0.00000000000E+00  0.00000000000E+00  0.14097189638E+04  0.14097189638E+04  0.50400001928E-02 0.  1.
       -1   -1    0    0    0  501  0.00000000000E+00  0.00000000000E+00 -0.11749447470E+04  0.11749447470E+04  0.50400001928E-02 0. -1.
    10030    2    1    2    0    0  0.00000000000E+00  0.00000000000E+00  0.23477421681E+03  0.25846637108E+04  0.25739789364E+04 0.  0.
        1    1    3    3  502    0  0.19089757732E+03  0.11145469327E+04 -0.49972491239E+03  0.12362773711E+04  0.50400001928E-02 0.  1.
       -1    1    3    3    0  502 -0.19089757732E+03 -0.11145469327E+04  0.73449912920E+03  0.13483863397E+04  0.50400001928E-02 0. -1.
</event>
<event>
 5   0  0.1025153E-05  0.2530520E+04  0.7818609E-02  0.8392193E-01
        1   -1    0    0  501    0  0.00000000000E+00  0.00000000000E+00  0.17498595298E+04  0.17498595298E+04  0.50400001928E-02 0. -1.
       -1   -1    0    0    0  501  0.00000000000E+00  0.00000000000E+00 -0.91486334004E+03  0.91486334005E+03  0.50400001928E-02 0.  1.
    10030    2    1    2    0    0  0.00000000000E+00  0.00000000000E+00  0.83499618975E+03  0.26647228698E+04  0.25305195783E+04 0.  0.
        1    1    3    3  502    0 -0.41291961565E+02  0.90970220740E+03  0.13425026274E+04  0.16222134375E+04  0.50400001928E-02 0. -1.
       -1    1    3    3    0  502  0.41291961565E+02 -0.90970220740E+03 -0.50750643765E+03  0.10425094323E+04  0.50400001928E-02 0.  1.
</event>
<event>
 5   0  0.1005492E-05  0.2629921E+04  0.7818609E-02  0.8358108E-01
       -1   -1    0    0    0  501  0.00000000000E+00  0.00000000000E+00  0.12452578996E+04  0.12452578996E+04  0.50400001928E-02 0.  1.
        1   -1    0    0  501    0  0.00000000000E+00  0.00000000000E+00 -0.13885648100E+04  0.13885648101E+04  0.50400001928E-02 0. -1.
    10030    2    1    2    0    0  0.00000000000E+00  0.00000000000E+00 -0.14330691047E+03  0.26338227096E+04  0.26299211386E+04 0.  0.
        4    1    3    3  502    0  0.41676797120E+03  0.67941267948E+03  0.97575783122E+03  0.12599214614E+04  0.12699999809E+01 0.  1.
       -4    1    3    3    0  502 -0.41676797120E+03 -0.67941267948E+03 -0.11190647417E+04  0.13739012482E+04  0.12699999809E+01 0. -1.
</event>
<event>
 5   0  0.2517854E-05  0.2565825E+04  0.7818609E-02  0.8379903E-01
        2   -1    0    0  501    0  0.00000000000E+00  0.00000000000E+00  0.25411646788E+04  0.25411646788E+04  0.25500000920E-02 0.  1.
       -2   -1    0    0    0  501  0.00000000000E+00  0.00000000000E+00 -0.64768126299E+03  0.64768126299E+03  0.25500000920E-02 0. -1.
    10030    2    1    2    0    0  0.00000000000E+00  0.00000000000E+00  0.18934834158E+04  0.31888459418E+04  0.25658252073E+04 0.  0.
        4    1    3    3  502    0 -0.41288300215E+02  0.43898079397E+03  0.24440393829E+04  0.24834933016E+04  0.12699999809E+01 0.  1.
       -4    1    3    3    0  502  0.41288300215E+02 -0.43898079397E+03 -0.55055596708E+03  0.70535264017E+03  0.12699999809E+01 0. -1.
</event>
<event>
 5   0  0.1025153E-05  0.2492226E+04  0.7818609E-02  0.8405760E-01
        1   -1    0    0  501    0  0.00000000000E+00  0.00000000000E+00  0.23707430566E+04  0.23707430566E+04  0.50400001928E-02 0.  1.
       -1   -1    0    0    0  501  0.00000000000E+00  0.00000000000E+00 -0.65498337717E+03  0.65498337719E+03  0.50400001928E-02 0. -1.
    10030    2    1    2    0    0  0.00000000000E+00  0.00000000000E+00  0.17157596794E+04  0.30257264338E+04  0.24922257471E+04 0.  0.
        1    1    3    3  502    0 -0.11130034315E+03 -0.59482584133E+03  0.21803715014E+04  0.22627915132E+04  0.50400001928E-02 0.  1.
       -1    1    3    3    0  502  0.11130034315E+03  0.59482584133E+03 -0.46461182201E+03  0.76293492060E+03  0.50400001928E-02 0. -1.
</event>
<event>
 5   0  0.2555801E-05  0.2616692E+04  0.7818609E-02  0.8362553E-01
       -2   -1    0    0    0  501  0.00000000000E+00  0.00000000000E+00  0.98224680571E+03  0.98224680571E+03  0.25500000920E-02 0. -1.
        2   -1    0    0  501    0  0.00000000000E+00  0.00000000000E+00 -0.17427079652E+04  0.17427079652E+04  0.25500000920E-02 0.  1.
    10030    2    1    2    0    0  0.00000000000E+00  0.00000000000E+00 -0.76046115952E+03  0.27249547709E+04  0.26166920584E+04 0.  0.
        1    1    3    3  502    0  0.59024631270E+03 -0.53674805161E+03  0.69962952497E+03  0.10611176432E+04  0.50400001928E-02 0. -1.
       -1    1    3    3    0  502 -0.59024631270E+03  0.53674805161E+03 -0.14600906845E+04  0.16638371277E+04  0.50400001928E-02 0.  1.
</event>
<event>
 5   0  0.8605000E-06  0.2527880E+04  0.7818609E-02  0.8393120E-01
        3   -1    0    0  501    0  0.00000000000E+00  0.00000000000E+00  0.19092788205E+04  0.19092788231E+04  0.10100000352E+00 0. -1.
       -3   -1    0    0    0  501  0.00000000000E+00  0.00000000000E+00 -0.83672658250E+03  0.83672658860E+03  0.10100000352E+00 0.  1.
    10030    2    1    2    0    0  0.00000000000E+00  0.00000000000E+00  0.10725522380E+04  0.27460054117E+04  0.25278800245E+04 0.  0.
        3    1    3    3  502    0  0.12349511768E+04 -0.25367927380E+03  0.43859013810E+03  0.13348478949E+04  0.10100000352E+00 0. -1.
       -3    1    3    3    0  502 -0.12349511768E+04  0.25367927380E+03  0.63396209986E+03  0.14111575168E+04  0.10100000352E+00 0.  1.
</event>
<event>
 5   0  0.1034714E-05  0.2603116E+04  0.7818609E-02  0.8367144E-01
        1   -1    0    0  501    0  0.00000000000E+00  0.00000000000E+00  0.86991408042E+03  0.86991408044E+03  0.50400001928E-02 0.  1.
       -1   -1    0    0    0  501  0.00000000000E+00  0.00000000000E+00 -0.19473794559E+04  0.19473794559E+04  0.50400001928E-02 0. -1.
    10030    2    1    2    0    0  0.00000000000E+00  0.00000000000E+00 -0.10774653754E+04  0.28172935363E+04  0.26031156783E+04 0.  0.
        5    1    3    3  502    0  0.29620365000E+03  0.36102692228E+02  0.83238550312E+03  0.88426677110E+03  0.46999998093E+01 0.  1.
       -5    1    3    3    0  502 -0.29620365000E+03 -0.36102692228E+02 -0.19098508786E+04  0.19330267652E+04  0.46999998093E+01 0. -1.
</event>
<event>
 5   0  0.2484618E-05  0.1912031E+04  0.7818609E-02  0.8648891E-01
        2   -1    0    0  501    0  0.00000000000E+00  0.00000000000E+00  0.17900212372E+04  0.17900212372E+04  0.25500000920E-02 0.  1.
       -2   -1    0    0    0  501  0.00000000000E+00  0.00000000000E+00 -0.51058919698E+03  0.51058919699E+03  0.25500000920E-02 0. -1.
    10030    2    1    2    0    0  0.00000000000E+00  0.00000000000E+00  0.12794320402E+04  0.23006104342E+04  0.19120308639E+04 0.  0.
        3    1    3    3  502    0  0.55830307862E+03 -0.54467196937E+03  0.13048693128E+04  0.15202150556E+04  0.10100000352E+00 0.  1.
       -3    1    3    3    0  502 -0.55830307862E+03  0.54467196937E+03 -0.25437272551E+02  0.78039537854E+03  0.10100000352E+00 0. -1.
</event>
<event>
 5   0  0.1025153E-05  0.2618445E+04  0.7818609E-02  0.8361963E-01
       -1   -1    0    0    0  501  0.00000000000E+00  0.00000000000E+00  0.16074974440E+04  0.16074974440E+04  0.50400001928E-02 0. -1.
        1   -1    0    0  501    0  0.00000000000E+00  0.00000000000E+00 -0.10662934330E+04  0.10662934330E+04  0.50400001928E-02 0.  1.
    10030    2    1    2    0    0  0.00000000000E+00  0.00000000000E+00  0.54120401094E+03  0.26737908770E+04  0.26184453159E+04 0.  0.
        1    1    3    3  502    0  0.71494085463E+03  0.57503223190E+03  0.12242921055E+04  0.15299325648E+04  0.50400001928E-02 0. -1.
       -1    1    3    3    0  502 -0.71494085463E+03 -0.57503223190E+03 -0.68308809456E+03  0.11438583122E+04  0.50400001928E-02 0.  1.
</event>
<event>
 5   0  0.1034714E-05  0.2608342E+04  0.7818609E-02  0.8365373E-01
       -1   -1    0    0    0  501  0.00000000000E+00  0.00000000000E+00  0.77506290714E+03  0.77506290716E+03  0.50400001928E-02 0.  1.
        1   -1    0    0  501    0  0.00000000000E+00  0.00000000000E+00 -0.21944829832E+04  0.21944829832E+04  0.50400001928E-02 0. -1.
    10030    2    1    2    0    0  0.00000000000E+00  0.00000000000E+00 -0.14194200760E+04  0.29695458903E+04  0.26083422786E+04 0.  0.
        5    1    3    3  502    0 -0.66201537079E+02 -0.43787528625E+03 -0.21062511326E+04  0.21523088378E+04  0.46999998093E+01 0. -1.
       -5    1    3    3    0  502  0.66201537079E+02  0.43787528625E+03  0.68683105654E+03  0.81723705254E+03  0.46999998093E+01 0.  1.
</event>
<event>
 5   0  0.2528460E-05  0.2387092E+04  0.7818609E-02  0.8444352E-01
       -2   -1    0    0    0  501  0.00000000000E+00  0.00000000000E+00  0.49827357865E+03  0.49827357866E+03  0.25500000920E-02 0.  1.
        2   -1    0    0  501    0  0.00000000000E+00  0.00000000000E+00 -0.28589764109E+04  0.28589764109E+04  0.25500000920E-02 0. -1.
    10030    2    1    2    0    0  0.00000000000E+00  0.00000000000E+00 -0.23607028323E+04  0.33572499896E+04  0.23870922961E+04 0.  0.
        5    1    3    3  502    0  0.19380463895E+03  0.11770408348E+04 -0.12356319297E+04  0.17174963524E+04  0.46999998093E+01 0.  1.
       -5    1    3    3    0  502 -0.19380463895E+03 -0.11770408348E+04 -0.11250709026E+04  0.16397536372E+04  0.46999998093E+01 0. -1.
</event>
<event>
 5   0  0.1025153E-05  0.2607271E+04  0.7818609E-02  0.8365736E-01
        1   -1    0    0  501    0  0.00000000000E+00  0.00000000000E+00  0.12793277102E+04  0.12793277103E+04  0.50400001928E-02 0.  1.
       -1   -1    0    0    0  501  0.00000000000E+00  0.00000000000E+00 -0.13284051783E+04  0.13284051783E+04  0.50400001928E-02 0. -1.
    10030    2    1    2    0    0  0.00000000000E+00  0.00000000000E+00 -0.49077468045E+02  0.26077328885E+04  0.26072710293E+04 0.  0.
        1    1    3    3  502    0 -0.46134216671E+03 -0.70675176025E+03  0.96918188408E+03  0.12851646470E+04  0.50400001928E-02 0.  1.
       -1    1    3    3    0  502  0.46134216671E+03  0.70675176025E+03 -0.10182593521E+04  0.13225682416E+04  0.50400001928E-02 0. -1.
</event>
<event>
 5   0  0.1034714E-05  0.2407361E+04  0.7818609E-02  0.8436753E-01
       -1   -1    0    0    0  501  0.00000000000E+00  0.00000000000E+00  0.12040731498E+04  0.12040731498E+04  0.50400001928E-02 0.  1.
        1   -1    0    0  501    0  0.00000000000E+00  0.00000000000E+00 -0.12032880436E+04  0.12032880436E+04  0.50400001928E-02 0. -1.
    10030    2    1    2    0    0  0.00000000000E+00  0.00000000000E+00  0.78510612685E+00  0.24073611934E+04  0.24073610654E+04 0.  0.
        5    1    3    3  502    0  0.87016008350E+03 -0.11851856881E+03 -0.82277181981E+03  0.12034121404E+04  0.46999998093E+01 0. -1.
       -5    1    3    3    0  502 -0.87016008350E+03  0.11851856881E+03  0.82355692593E+03  0.12039490530E+04  0.46999998093E+01 0.  1.
</event>
<event>
 5   0  0.1000421E-05  0.2622957E+04  0.7818609E-02  0.8360445E-01
       -1   -1    0    0    0  501  0.00000000000E+00  0.00000000000E+00  0.12365760266E+04  0.12365760266E+04  0.50400001928E-02 0. -1.
        1   -1    0    0  501    0  0.00000000000E+00  0.00000000000E+00 -0.13909183853E+04  0.13909183853E+04  0.50400001928E-02 0.  1.
    10030    2    1    2    0    0  0.00000000000E+00  0.00000000000E+00 -0.15434235873E+03  0.26274944119E+04  0.26229573616E+04 0.  0.
        3    1    3    3  502    0  0.11667765907E+04  0.37611048407E+03  0.38962801561E+03  0.12863268284E+04  0.10100000352E+00 0. -1.
       -3    1    3    3    0  502 -0.11667765907E+04 -0.37611048407E+03 -0.54397037434E+03  0.13411675835E+04  0.10100000352E+00 0.  1.
</event>
<event>
 5   0  0.2517854E-05  0.2507915E+04  0.7818609E-02  0.8400171E-01
       -2   -1    0    0    0  501  0.00000000000E+00  0.00000000000E+00  0.99252030728E+03  0.99252030728E+03  0.25500000920E-02 0. -1.
        2   -1    0    0  501    0  0.00000000000E+00  0.00000000000E+00 -0.15842594010E+04  0.15842594010E+04  0.25500000920E-02 0.  1.
    10030    2    1    2    0    0  0.00000000000E+00  0.00000000000E+00 -0.59173909373E+03  0.25767797083E+04  0.25079151720E+04 0.  0.
        4    1    3    3  502    0 -0.49277214520E+03 -0.11357188078E+04 -0.50065737866E+03  0.13354179201E+04  0.12699999809E+01 0.  1.
       -4    1    3    3    0  502  0.49277214520E+03  0.11357188078E+04 -0.91081715063E+02  0.12413617882E+04  0.12699999809E+01 0. -1.
</event>
<event>
 5   0  0.9855352E-06  0.2045793E+04  0.7818609E-02  0.8585505E-01
       -1   -1    0    0    0  501  0.00000000000E+00  0.00000000000E+00  0.50879148235E+03  0.50879148237E+03  0.50400001928E-02 0. -1.
        1   -1    0    0  501    0  0.00000000000E+00  0.00000000000E+00 -0.20564761975E+04  0.20564761975E+04  0.50400001928E-02 0.  1.
    10030    2    1    2    0    0  0.00000000000E+00  0.00000000000E+00 -0.15476847152E+04  0.25652676799E+04  0.20457933161E+04 0.  0.
        2    1    3    3  502    0  0.59517199729E+03  0.80926552143E+03 -0.53206859429E+03  0.11367661939E+04  0.25500000920E-02 0.  1.
       -2    1    3    3    0  502 -0.59517199729E+03 -0.80926552143E+03 -0.10156161209E+04  0.14285014860E+04  0.25500000920E-02 0. -1.
</event>
<event>
 5   0  0.8605000E-06  0.2575743E+04  0.7818609E-02  0.8376488E-01
       -3   -1    0    0    0  501  0.00000000000E+00  0.00000000000E+00  0.23878066408E+04  0.23878066429E+04  0.10100000352E+00 0.  1.
        3   -1    0    0  501    0  0.00000000000E+00  0.00000000000E+00 -0.69461791858E+03  0.69461792593E+03  0.10100000352E+00 0. -1.
    10030    2    1    2    0    0  0.00000000000E+00  0.00000000000E+00  0.16931887222E+04  0.30824245688E+04  0.25757432274E+04 0.  0.
        4    1    3    3  502    0 -0.16651393574E+03 -0.11630581083E+04  0.14777745099E+04  0.18879221830E+04  0.12699999809E+01 0.  1.
       -4    1    3    3    0  502  0.16651393574E+03  0.11630581083E+04  0.21541421232E+03  0.11945023859E+04  0.12699999809E+01 0. -1.
</event>
<event>
 5   0  0.2555801E-05  0.2596288E+04  0.7818609E-02  0.8369463E-01
        2   -1    0    0  501    0  0.00000000000E+00  0.00000000000E+00  0.17211119993E+04  0.17211119993E+04  0.25500000920E-02 0. -1.
       -2   -1    0    0    0  501  0.00000000000E+00  0.00000000000E+00 -0.97912182550E+03  0.97912182551E+03  0.25500000920E-02 0.  1.
    10030    2    1    2    0    0  0.00000000000E+00  0.00000000000E+00  0.74199017377E+03  0.27002338248E+04  0.25962883681E+04 0.  0.
        1    1    3    3  502    0  0.11947899611E+04 -0.45547917870E+03  0.60400494870E+03  0.14141450815E+04  0.50400001928E-02 0. -1.
       -1    1    3    3    0  502 -0.11947899611E+04  0.45547917870E+03  0.13798522507E+03  0.12860887433E+04  0.50400001928E-02 0.  1.
</event>
<event>
 5   0  0.2517854E-05  0.2730860E+04  0.7818609E-02  0.8325061E-01
       -2   -1    0    0    0  501  0.00000000000E+00  0.00000000000E+00  0.14759910583E+04  0.14759910583E+04  0.25500000920E-02 0. -1.
        2   -1    0    0  501    0  0.00000000000E+00  0.00000000000E+00 -0.12631504841E+04  0.12631504841E+04  0.25500000920E-02 0.  1.
    10030    2    1    2    0    0  0.00000000000E+00  0.00000000000E+00  0.21284057425E+03  0.27391415424E+04  0.27308598058E+04 0.  0.
        4    1    3    3  502    0 -0.59942833098E+03  0.68238080368E+03  0.11290411301E+04  0.14490318739E+04  0.12699999809E+01 0. -1.
       -4    1    3    3    0  502  0.59942833098E+03 -0.68238080368E+03 -0.91620055585E+03  0.12901096685E+04  0.12699999809E+01 0.  1.
</event>
<event>
 5   0  0.2517854E-05  0.2565903E+04  0.7818609E-02  0.8379876E-01
       -2   -1    0    0    0  501  0.00000000000E+00  0.00000000000E+00  0.99540347234E+03  0.99540347234E+03  0.25500000920E-02 0. -1.
        2   -1    0    0  501    0  0.00000000000E+00  0.00000000000E+00 -0.16535653413E+04  0.16535653413E+04  0.25500000920E-02 0.  1.
    10030    2    1    2    0    0  0.00000000000E+00  0.00000000000E+00 -0.65816186899E+03  0.26489688137E+04  0.25659031022E+04 0.  0.
        4    1    3    3  502    0  0.36676426227E+02  0.10049658124E+03 -0.16489519547E+04  0.16524191009E+04  0.12699999809E+01 0.  1.
       -4    1    3    3    0  502 -0.36676426227E+02 -0.10049658124E+03  0.99079008575E+03  0.99654971276E+03  0.12699999809E+01 0. -1.
</event>
<event>
 5   0  0.2517854E-05  0.2696952E+04  0.7818609E-02  0.8335995E-01
        2   -1    0    0  501    0  0.00000000000E+00  0.00000000000E+00  0.21147013643E+04  0.21147013643E+04  0.25500000920E-02 0.  1.
       -2   -1    0    0    0  501  0.00000000000E+00  0.00000000000E+00 -0.85987918079E+03  0.85987918079E+03  0.25500000920E-02 0. -1.
    10030    2    1    2    0    0  0.00000000000E+00  0.00000000000E+00  0.12548221835E+04  0.29745805451E+04  0.26969521143E+04 0.  0.
        4    1    3    3  502    0  0.85626725121E+02  0.11418156459E+04 -0.15816761850E+03  0.11558951136E+04  0.12699999809E+01 0. -1.
       -4    1    3    3    0  502 -0.85626725121E+02 -0.11418156459E+04  0.14129898020E+04  0.18186854315E+04  0.12699999809E+01 0.  1.
</event>
<event>
 5   0  0.2484618E-05  0.2572703E+04  0.7818609E-02  0.8377533E-01
        2   -1    0    0  501    0  0.00000000000E+00  0.00000000000E+00  0.16443456071E+04  0.16443456071E+04  0.25500000920E-02 0. -1.
       -2   -1    0    0    0  501  0.00000000000E+00  0.00000000000E+00 -0.10062973162E+04  0.10062973162E+04  0.25500000920E-02 0.  1.
    10030    2    1    2    0    0  0.00000000000E+00  0.00000000000E+00  0.63804829088E+03  0.26506429232E+04  0.25727033029E+04 0.  0.
        3    1    3    3  502    0 -0.10672385030E+04 -0.69903848091E+03  0.48846846797E+03  0.13661091737E+04  0.10100000352E+00 0. -1.
       -3    1    3    3    0  502  0.10672385030E+04  0.69903848091E+03  0.14957982291E+03  0.12845337495E+04  0.10100000352E+00 0.  1.
</event>
<event>
 5   0  0.1000421E-05  0.2563474E+04  0.7818609E-02  0.8380715E-01
        1   -1    0    0  501    0  0.00000000000E+00  0.00000000000E+00  0.23246549613E+04  0.23246549613E+04  0.50400001928E-02 0. -1.
       -1   -1    0    0    0  501  0.00000000000E+00  0.00000000000E+00 -0.70670690842E+03  0.70670690844E+03  0.50400001928E-02 0.  1.
    10030    2    1    2    0    0  0.00000000000E+00  0.00000000000E+00  0.16179480529E+04  0.30313618698E+04  0.25634739873E+04 0.  0.
        3    1    3    3  502    0  0.93700809384E+03 -0.51902071199E+03 -0.23409098079E+02  0.10714077951E+04  0.10100000352E+00 0.  1.
       -3    1    3    3    0  502 -0.93700809384E+03  0.51902071199E+03  0.16413571510E+04  0.19599540746E+04  0.10100000352E+00 0. -1.
</event>
<event>
 5   0  0.1005492E-05  0.2149859E+04  0.7818609E-02  0.8539592E-01
       -1   -1    0    0    0  501  0.00000000000E+00  0.00000000000E+00  0.69003610445E+03  0.69003610447E+03  0.50400001928E-02 0.  1.
        1   -1    0    0  501    0  0.00000000000E+00  0.00000000000E+00 -0.16745122725E+04  0.16745122725E+04  0.50400001928E-02 0. -1.
    10030    2    1    2    0    0  0.00000000000E+00  0.00000000000E+00 -0.98447616809E+03  0.23645483770E+04  0.21498594609E+04 0.  0.
        4    1    3    3  502    0  0.88008138345E+03  0.96990679154E+02 -0.11626324113E+04  0.14613918605E+04  0.12699999809E+01 0. -1.
       -4    1    3    3    0  502 -0.88008138345E+03 -0.96990679154E+02  0.17815624321E+03  0.90315651647E+03  0.12699999809E+01 0.  1.
</event>
<event>
 5   0  0.2484618E-05  0.2600905E+04  0.7818609E-02  0.8367894E-01
        2   -1    0    0  501    0  0.00000000000E+00  0.00000000000E+00  0.15789912305E+04  0.15789912305E+04  0.25500000920E-02 0. -1.
       -2   -1    0    0    0  501  0.00000000000E+00  0.00000000000E+00 -0.10710485685E+04  0.10710485685E+04  0.25500000920E-02 0.  1.
    10030    2    1    2    0    0  0.00000000000E+00  0.00000000000E+00  0.50794266196E+03  0.26500397990E+04  0.26009046865E+04 0.  0.
        3    1    3    3  502    0 -0.76452732292E+03  0.61914986026E+03 -0.61258242802E+03  0.11589244230E+04  0.10100000352E+00 0.  1.
       -3    1    3    3    0  502  0.76452732292E+03 -0.61914986026E+03  0.11205250900E+04  0.14911153760E+04  0.10100000352E+00 0. -1.
</event>
<event>
 5   0  0.2662024E-05  0.2568602E+04  0.7818609E-02  0.8378945E-01
       -2   -1    0    0    0  501  0.00000000000E+00  0.00000000000E+00  0.14977565419E+04  0.14977565419E+04  0.25500000920E-02 0.  1.
        2   -1    0    0  501    0  0.00000000000E+00  0.00000000000E+00 -0.11012665712E+04  0.11012665712E+04  0.25500000920E-02 0. -1.
    10030    2    1    2    0    0  0.00000000000E+00  0.00000000000E+00  0.39648997073E+03  0.25990231131E+04  0.25686021190E+04 0.  0.
        2    1    3    3  502    0  0.10602909042E+03 -0.94401240061E+02  0.14897930171E+04  0.14965416786E+04  0.25500000920E-02 0.  1.
       -2    1    3    3    0  502 -0.10602909042E+03  0.94401240061E+02 -0.10933030464E+04  0.11024814345E+04  0.25500000920E-02 0. -1.
</event>
<event>
 5   0  0.1025153E-05  0.2607220E+04  0.7818609E-02  0.8365753E-01
        1   -1    0    0  501    0  0.00000000000E+00  0.00000000000E+00  0.94552150286E+03  0.94552150288E+03  0.50400001928E-02 0.  1.
       -1   -1    0    0    0  501  0.00000000000E+00  0.00000000000E+00 -0.17973133417E+04  0.17973133417E+04  0.50400001928E-02 0. -1.
    10030    2    1    2    0    0  0.00000000000E+00  0.00000000000E+00 -0.85179183883E+03  0.27428348446E+04  0.26072195243E+04 0.  0.
        1    1    3    3  502    0 -0.41460408906E+03  0.65793678455E+03  0.67476603754E+03  0.10296050547E+04  0.50400001928E-02 0.  1.
       -1    1    3    3    0  502  0.41460408906E+03 -0.65793678455E+03 -0.15265578764E+04  0.17132297899E+04  0.50400001928E-02 0. -1.
</event>
<event>
 5   0  0.2555801E-05  0.2634558E+04  0.7818609E-02  0.8356556E-01
        2   -1    0    0  501    0  0.00000000000E+00  0.00000000000E+00  0.14169310773E+04  0.14169310773E+04  0.25500000920E-02 0.  1.
       -2   -1    0    0    0  501  0.00000000000E+00  0.00000000000E+00 -0.12246357607E+04  0.12246357607E+04  0.25500000920E-02 0. -1.
    10030    2    1    2    0    0  0.00000000000E+00  0.00000000000E+00  0.19229531661E+03  0.26415668379E+04  0.26345583824E+04 0.  0.
        1    1    3    3  502    0 -0.89141360336E+03 -0.25337759946E+03 -0.84250833960E+03  0.12524530819E+04  0.50400001928E-02 0. -1.
       -1    1    3    3    0  502  0.89141360336E+03  0.25337759946E+03  0.10348036562E+04  0.13891137560E+04  0.50400001928E-02 0.  1.
</event>
<event>
 5   0  0.9855352E-06  0.2663013E+04  0.7818609E-02  0.8347107E-01
       -1   -1    0    0    0  501  0.00000000000E+00  0.00000000000E+00  0.10449393580E+04  0.10449393580E+04  0.50400001928E-02 0.  1.
        1   -1    0    0  501    0  0.00000000000E+00  0.00000000000E+00 -0.16966624369E+04  0.16966624369E+04  0.50400001928E-02 0. -1.
    10030    2    1    2    0    0  0.00000000000E+00  0.00000000000E+00 -0.65172307891E+03  0.27416017950E+04  0.26630128484E+04 0.  0.
        2    1    3    3  502    0  0.12510917277E+04  0.20446263094E+03 -0.74515695563E+03  0.14704741980E+04  0.25500000920E-02 0. -1.
       -2    1    3    3    0  502 -0.12510917277E+04 -0.20446263094E+03  0.93433876723E+02  0.12711275970E+04  0.25500000920E-02 0.  1.
</event>
<event>
 5   0  0.2528460E-05  0.2343476E+04  0.7818609E-02  0.8460974E-01
        2   -1    0    0  501    0  0.00000000000E+00  0.00000000000E+00  0.12832009641E+04  0.12832009641E+04  0.25500000920E-02 0.  1.
       -2   -1    0    0    0  501  0.00000000000E+00  0.00000000000E+00 -0.10699573809E+04  0.10699573809E+04  0.25500000920E-02 0. -1.
    10030    2    1    2    0    0  0.00000000000E+00  0.00000000000E+00  0.21324358328E+03  0.23531583450E+04  0.23434763431E+04 0.  0.
        5    1    3    3  502    0 -0.11653332611E+04  0.12042351478E+03  0.12779969151E+03  0.11784983172E+04  0.46999998093E+01 0. -1.
       -5    1    3    3    0  502  0.11653332611E+04 -0.12042351478E+03  0.85443891773E+02  0.11746600279E+04  0.46999998093E+01 0.  1.
</event>
<event>
 5   0  0.9855352E-06  0.2538170E+04  0.7818609E-02  0.8389512E-01
        1   -1    0    0  501    0  0.00000000000E+00  0.00000000000E+00  0.12296039071E+04  0.12296039071E+04  0.50400001928E-02 0.  1.
       -1   -1    0    0    0  501  0.00000000000E+00  0.00000000000E+00 -0.13098341438E+04  0.13098341438E+04  0.50400001928E-02 0. -1.
    10030    2    1    2    0    0  0.00000000000E+00  0.00000000000E+00 -0.80230236716E+02  0.25394380510E+04  0.25381703496E+04 0.  0.
        2    1    3    3  502    0  0.74695344999E+03 -0.29341242276E+03  0.94350706962E+03  0.12386427640E+04  0.25500000920E-02 0.  1.
       -2    1    3    3    0  502 -0.74695344999E+03  0.29341242276E+03 -0.10237373063E+04  0.13007952870E+04  0.25500000920E-02 0. -1.
</event>
<event>
 5   0  0.1000421E-05  0.2623488E+04  0.7818609E-02  0.8360266E-01
       -1   -1    0    0    0  501  0.00000000000E+00  0.00000000000E+00  0.15366283721E+04  0.15366283721E+04  0.50400001928E-02 0. -1.
        1   -1    0    0  501    0  0.00000000000E+00  0.00000000000E+00 -0.11197712181E+04  0.11197712181E+04  0.50400001928E-02 0.  1.
    10030    2    1    2    0    0  0.00000000000E+00  0.00000000000E+00  0.41685715403E+03  0.26563995902E+04  0.26234879256E+04 0.  0.
        3    1    3    3  502    0 -0.40876955807E+03 -0.74065324654E+03 -0.80665091000E+03  0.11689078167E+04  0.10100000352E+00 0.  1.
       -3    1    3    3    0  502  0.40876955807E+03  0.74065324654E+03  0.12235080640E+04  0.14874917735E+04  0.10100000352E+00 0. -1.
</event>
<event>
 5   0  0.1034714E-05  0.2584220E+04  0.7818609E-02  0.8373581E-01
        1   -1    0    0  501    0  0.00000000000E+00  0.00000000000E+00  0.14687579317E+04  0.14687579317E+04  0.50400001928E-02 0. -1.
       -1   -1    0    0    0  501  0.00000000000E+00  0.00000000000E+00 -0.11367074059E+04  0.11367074059E+04  0.50400001928E-02 0.  1.
    10030    2    1    2    0    0  0.00000000000E+00  0.00000000000E+00  0.33205052579E+03  0.26054653376E+04  0.25842198192E+04 0.  0.
        5    1    3    3  502    0 -0.16055024706E+03  0.58904734137E+03  0.13141466029E+04  0.14490536692E+04  0.46999998093E+01 0. -1.
       -5    1    3    3    0  502  0.16055024706E+03 -0.58904734137E+03 -0.98209607714E+03  0.11564116685E+04  0.46999998093E+01 0.  1.
</event>
<event>
 5   0  0.2555801E-05  0.2600317E+04  0.7818609E-02  0.8368093E-01
       -2   -1    0    0    0  501  0.00000000000E+00  0.00000000000E+00  0.16546336490E+04  0.16546336490E+04  0.25500000920E-02 0.  1.
        2   -1    0    0  501    0  0.00000000000E+00  0.00000000000E+00 -0.10216234215E+04  0.10216234216E+04  0.25500000920E-02 0. -1.
    10030    2    1    2    0    0  0.00000000000E+00  0.00000000000E+00  0.63301022746E+03  0.26762570706E+04  0.26003172806E+04 0.  0.
        1    1    3    3  502    0  0.16550025762E+03  0.41684743543E+02 -0.10100444982E+04  0.10243621633E+04  0.50400001928E-02 0. -1.
       -1    1    3    3    0  502 -0.16550025762E+03 -0.41684743543E+02  0.16430547257E+04  0.16518949073E+04  0.50400001928E-02 0.  1.
</event>
<event>
 5   0  0.1000421E-05  0.2071931E+04  0.7818609E-02  0.8573710E-01
        1   -1    0    0  501    0  0.00000000000E+00  0.00000000000E+00  0.18908742659E+04  0.18908742659E+04  0.50400001928E-02 0.  1.
       -1   -1    0    0    0  501  0.00000000000E+00  0.00000000000E+00 -0.56758100239E+03  0.56758100241E+03  0.50400001928E-02 0. -1.
    10030    2    1    2    0    0  0.00000000000E+00  0.00000000000E+00  0.13232932635E+04  0.24584552683E+04  0.20719308012E+04 0.  0.
        3    1    3    3  502    0 -0.10027182626E+04  0.25654285991E+03  0.71425988501E+03  0.12575473537E+04  0.10100000352E+00 0.  1.
       -3    1    3    3    0  502  0.10027182626E+04 -0.25654285991E+03  0.60903337848E+03  0.12009079146E+04  0.10100000352E+00 0. -1.
</event>
<event>
 5   0  0.2662024E-05  0.2601163E+04  0.7818609E-02  0.8367806E-01
        2   -1    0    0  501    0  0.00000000000E+00  0.00000000000E+00  0.19079452993E+04  0.19079452993E+04  0.25500000920E-02 0. -1.
       -2   -1    0    0    0  501  0.00000000000E+00  0.00000000000E+00 -0.88656239266E+03  0.88656239267E+03  0.25500000920E-02 0.  1.
    10030    2    1    2    0    0  0.00000000000E+00  0.00000000000E+00  0.10213829067E+04  0.27945076920E+04  0.26011632395E+04 0.  0.
        2    1    3    3  502    0  0.32499450599E+03  0.82711639292E+03 -0.50950896015E+03  0.10243741196E+04  0.25500000920E-02 0.  1.
       -2    1    3    3    0  502 -0.32499450599E+03 -0.82711639292E+03  0.15308918668E+04  0.17701335724E+04  0.25500000920E-02 0. -1.
</event>
<event>
 5   0  0.1005492E-05  0.2233802E+04  0.7818609E-02  0.8504489E-01
       -1   -1    0    0    0  501  0.00000000000E+00  0.00000000000E+00  0.12169097982E+04  0.12169097982E+04  0.50400001928E-02 0.  1.
        1   -1    0    0  501    0  0.00000000000E+00  0.00000000000E+00 -0.10251111412E+04  0.10251111412E+04  0.50400001928E-02 0. -1.
    10030    2    1    2    0    0  0.00000000000E+00  0.00000000000E+00  0.19179865700E+03  0.22420209395E+04  0.22338019537E+04 0.  0.
        4    1    3    3  502    0  0.38259958722E+03 -0.87188873184E+03  0.68190866159E+03  0.11711419387E+04  0.12699999809E+01 0.  1.
       -4    1    3    3    0  502 -0.38259958722E+03  0.87188873184E+03 -0.49011000459E+03  0.10708790008E+04  0.12699999809E+01 0. -1.
</event>
<event>
 5   0  0.1034714E-05  0.2535457E+04  0.7818609E-02  0.8390462E-01
       -1   -1    0    0    0  501  0.00000000000E+00  0.00000000000E+00  0.12017886207E+04  0.12017886207E+04  0.50400001928E-02 0. -1.
        1   -1    0    0  501    0  0.00000000000E+00  0.00000000000E+00 -0.13372861060E+04  0.13372861060E+04  0.50400001928E-02 0.  1.
    10030    2    1    2    0    0  0.00000000000E+00  0.00000000000E+00 -0.13549748524E+03  0.25390747267E+04  0.25354567437E+04 0.  0.
        5    1    3    3  502    0  0.33345150273E+03  0.30494926734E+03  0.11183945308E+04  0.12062389385E+04  0.46999998093E+01 0. -1.
       -5    1    3    3    0  502 -0.33345150273E+03 -0.30494926734E+03 -0.12538920160E+04  0.13328357882E+04  0.46999998093E+01 0.  1.
</event>
<event>
 5   0  0.2528460E-05  0.2307638E+04  0.7818609E-02  0.8474916E-01
       -2   -1    0    0    0  501  0.00000000000E+00  0.00000000000E+00  0.72242332296E+03  0.72242332296E+03  0.25500000920E-02 0. -1.
        2   -1    0    0  501    0  0.00000000000E+00  0.00000000000E+00 -0.18428231273E+04  0.18428231273E+04  0.25500000920E-02 0.  1.
    10030    2    1    2    0    0  0.00000000000E+00  0.00000000000E+00 -0.11203998044E+04  0.25652464503E+04  0.23076381062E+04 0.  0.
        5    1    3    3  502    0  0.17876686518E+03 -0.71343880331E+03  0.42804349989E+03  0.85099697176E+03  0.46999998093E+01 0. -1.
       -5    1    3    3    0  502 -0.17876686518E+03  0.71343880331E+03 -0.15484433042E+04  0.17142494785E+04  0.46999998093E+01 0.  1.
</event>
<event>
 5   0  0.1034714E-05  0.2631641E+04  0.7818609E-02  0.8357532E-01
       -1   -1    0    0    0  501  0.00000000000E+00  0.00000000000E+00  0.97725504595E+03  0.97725504596E+03  0.50400001928E-02 0.  1.
        1   -1    0    0  501    0  0.00000000000E+00  0.00000000000E+00 -0.17716801444E+04  0.17716801444E+04  0.50400001928E-02 0. -1.
    10030    2    1    2    0    0  0.00000000000E+00  0.00000000000E+00 -0.79442509842E+03  0.27489351903E+04  0.26316408273E+04 0.  0.
        5    1    3    3  502    0 -0.55914430330E+03  0.86666847690E+03  0.45627574400E+03  0.11278148099E+04  0.46999998093E+01 0.  1.
       -5    1    3    3    0  502  0.55914430330E+03 -0.86666847690E+03 -0.12507008424E+04  0.16211203805E+04  0.46999998093E+01 0. -1.
</event>
<event>
 5   0  0.9855352E-06  0.2495471E+04  0.7818609E-02  0.8404601E-01
        1   -1    0    0  501    0  0.00000000000E+00  0.00000000000E+00  0.81872460455E+03  0.81872460457E+03  0.50400001928E-02 0. -1.
       -1   -1    0    0    0  501  0.00000000000E+00  0.00000000000E+00 -0.19015477611E+04  0.19015477611E+04  0.50400001928E-02 0.  1.
    10030    2    1    2    0    0  0.00000000000E+00  0.00000000000E+00 -0.10828231566E+04  0.27202723657E+04  0.24954710488E+04 0.  0.
        2    1    3    3  502    0 -0.43379754497E+03 -0.98557688292E+03  0.14568872506E+03  0.10866311733E+04  0.25500000920E-02 0. -1.
       -2    1    3    3    0  502  0.43379754497E+03  0.98557688292E+03 -0.12285118816E+04  0.16336411924E+04  0.25500000920E-02 0.  1.
</event>
<event>
 5   0  0.2555801E-05  0.2599614E+04  0.7818609E-02  0.8368332E-01
       -2   -1    0    0    0  501  0.00000000000E+00  0.00000000000E+00  0.10506707767E+04  0.10506707767E+04  0.25500000920E-02 0.  1.
        2   -1    0    0  501    0  0.00000000000E+00  0.00000000000E+00 -0.16080185238E+04  0.16080185238E+04  0.25500000920E-02 0. -1.
    10030    2    1    2    0    0  0.00000000000E+00  0.00000000000E+00 -0.55734774710E+03  0.26586893006E+04  0.25996138724E+04 0.  0.
        1    1    3    3  502    0  0.16394245788E+03 -0.72152486754E+03  0.81426564792E+03  0.11002289804E+04  0.50400001928E-02 0.  1.
       -1    1    3    3    0  502 -0.16394245788E+03  0.72152486754E+03 -0.13716133950E+04  0.15584603201E+04  0.50400001928E-02 0. -1.
</event>
<event>
 5   0  0.1005492E-05  0.2664382E+04  0.7818609E-02  0.8346655E-01
        1   -1    0    0  501    0  0.00000000000E+00  0.00000000000E+00  0.59154486223E+03  0.59154486225E+03  0.50400001928E-02 0. -1.
       -1   -1    0    0    0  501  0.00000000000E+00  0.00000000000E+00 -0.30001672332E+04  0.30001672332E+04  0.50400001928E-02 0.  1.
    10030    2    1    2    0    0  0.00000000000E+00  0.00000000000E+00 -0.24086223710E+04  0.35917120955E+04  0.26643824896E+04 0.  0.
        4    1    3    3  502    0 -0.46562224131E+03  0.11049447646E+04 -0.19869041472E+04  0.23206672979E+04  0.12699999809E+01 0.  1.
       -4    1    3    3    0  502  0.46562224131E+03 -0.11049447646E+04 -0.42171822378E+03  0.12710447976E+04  0.12699999809E+01 0. -1.
</event>
<event>
 5   0  0.2555801E-05  0.2627205E+04  0.7818609E-02  0.8359019E-01
       -2   -1    0    0    0  501  0.00000000000E+00  0.00000000000E+00  0.12148022561E+04  0.12148022561E+04  0.25500000920E-02 0. -1.
        2   -1    0    0  501    0  0.00000000000E+00  0.00000000000E+00 -0.14204384389E+04  0.14204384389E+04  0.25500000920E-02 0.  1.
    10030    2    1    2    0    0  0.00000000000E+00  0.00000000000E+00 -0.20563618280E+03  0.26352406950E+04  0.26272052225E+04 0.  0.
        1    1    3    3  502    0 -0.12905642498E+04  0.11534224743E+03 -0.31956208889E+03  0.13345335685E+04  0.50400001928E-02 0. -1.
       -1    1    3    3    0  502  0.12905642498E+04 -0.11534224743E+03  0.11392590609E+03  0.13007071265E+04  0.50400001928E-02 0.  1.
</event>
<event>
 5   0  0.2555801E-05  0.2609041E+04  0.7818609E-02  0.8365137E-01
       -2   -1    0    0    0  501  0.00000000000E+00  0.00000000000E+00  0.95723698604E+03  0.95723698604E+03  0.25500000920E-02 0. -1.
        2   -1    0    0  501    0  0.00000000000E+00  0.00000000000E+00 -0.17777981054E+04  0.17777981054E+04  0.25500000920E-02 0.  1.
    10030    2    1    2    0    0  0.00000000000E+00  0.00000000000E+00 -0.82056111935E+03  0.27350350914E+04  0.26090412800E+04 0.  0.
        1    1    3    3  502    0  0.13806583384E+03 -0.11437858603E+04 -0.10517678415E+04  0.15599755963E+04  0.50400001928E-02 0.  1.
       -1    1    3    3    0  502 -0.13806583384E+03  0.11437858603E+04  0.23120672217E+03  0.11750594951E+04  0.50400001928E-02 0. -1.
</event>
<event>
 5   0  0.1005492E-05  0.2180555E+04  0.7818609E-02  0.8526565E-01
        1   -1    0    0  501    0  0.00000000000E+00  0.00000000000E+00  0.16557067422E+04  0.16557067422E+04  0.50400001928E-02 0. -1.
       -1   -1    0    0    0  501  0.00000000000E+00  0.00000000000E+00 -0.71794414308E+03  0.71794414309E+03  0.50400001928E-02 0.  1.
    10030    2    1    2    0    0  0.00000000000E+00  0.00000000000E+00  0.93776259914E+03  0.23736508853E+04  0.21805549369E+04 0.  0.
        4    1    3    3  502    0 -0.36802858015E+03 -0.32090474756E+03  0.15300275694E+04  0.16060544414E+04  0.12699999809E+01 0. -1.
       -4    1    3    3    0  502  0.36802858015E+03  0.32090474756E+03 -0.59226497025E+03  0.76759644390E+03  0.12699999809E+01 0.  1.
</event>
<event>
 5   0  0.1000421E-05  0.2585533E+04  0.7818609E-02  0.8373132E-01
        1   -1    0    0  501    0  0.00000000000E+00  0.00000000000E+00  0.15660934788E+04  0.15660934788E+04  0.50400001928E-02 0. -1.
       -1   -1    0    0    0  501  0.00000000000E+00  0.00000000000E+00 -0.10671424883E+04  0.10671424884E+04  0.50400001928E-02 0.  1.
    10030    2    1    2    0    0  0.00000000000E+00  0.00000000000E+00  0.49895099047E+03  0.26332359672E+04  0.25855327435E+04 0.  0.
        3    1    3    3  502    0 -0.10094018858E+04 -0.30909927213E+03  0.10094401391E+04  0.14606176541E+04  0.10100000352E+00 0. -1.
       -3    1    3    3    0  502  0.10094018858E+04  0.30909927213E+03 -0.51048914859E+03  0.11726183130E+04  0.10100000352E+00 0.  1.
</event>
<event>
 5   0  0.2517854E-05  0.2556194E+04  0.7818609E-02  0.8383235E-01
        2   -1    0    0  501    0  0.00000000000E+00  0.00000000000E+00  0.17670066696E+04  0.17670066697E+04  0.25500000920E-02 0.  1.
       -2   -1    0    0    0  501  0.00000000000E+00  0.00000000000E+00 -0.92446253132E+03  0.92446253133E+03  0.25500000920E-02 0. -1.
    10030    2    1    2    0    0  0.00000000000E+00  0.00000000000E+00  0.84254413832E+03  0.26914692010E+04  0.25561936223E+04 0.  0.
        4    1    3    3  502    0 -0.72868969562E+03  0.82506222460E+03 -0.26257014151E+03  0.11316629530E+04  0.12699999809E+01 0. -1.
       -4    1    3    3    0  502  0.72868969562E+03 -0.82506222460E+03  0.11051142798E+04  0.15598062480E+04  0.12699999809E+01 0.  1.
</event>
<event>
 5   0  0.1005492E-05  0.2619869E+04  0.7818609E-02  0.8361483E-01
        1   -1    0    0  501    0  0.00000000000E+00  0.00000000000E+00  0.19174377180E+04  0.19174377181E+04  0.50400001928E-02 0. -1.
       -1   -1    0    0    0  501  0.00000000000E+00  0.00000000000E+00 -0.89490676553E+03  0.89490676554E+03  0.50400001928E-02 0.  1.
    10030    2    1    2    0    0  0.00000000000E+00  0.00000000000E+00  0.10225309525E+04  0.28123444836E+04  0.26198686886E+04 0.  0.
        4    1    3    3  502    0 -0.78987161630E+02  0.67008369224E+03 -0.69402189098E+03  0.96794582719E+03  0.12699999809E+01 0.  1.
       -4    1    3    3    0  502  0.78987161630E+02 -0.67008369224E+03  0.17165528435E+04  0.18443986564E+04  0.12699999809E+01 0. -1.
</event>
<event>
 5   0  0.1025153E-05  0.2569053E+04  0.7818609E-02  0.8378790E-01
        1   -1    0    0  501    0  0.00000000000E+00  0.00000000000E+00  0.18636770751E+04  0.18636770751E+04  0.50400001928E-02 0. -1.
       -1   -1    0    0    0  501  0.00000000000E+00  0.00000000000E+00 -0.88535101597E+03  0.88535101599E+03  0.50400001928E-02 0.  1.
    10030    2    1    2    0    0  0.00000000000E+00  0.00000000000E+00  0.97832605910E+03  0.27490280911E+04  0.25690530488E+04 0.  0.
        1    1    3    3  502    0 -0.41278709456E+03  0.92737223115E+03 -0.35312453949E+03  0.10747601504E+04  0.50400001928E-02 0.  1.
       -1    1    3    3    0  502  0.41278709456E+03 -0.92737223115E+03  0.13314505986E+04  0.16742679406E+04  0.50400001928E-02 0. -1.
</event>
<event>
 5   0  0.1034714E-05  0.2513992E+04  0.7818609E-02  0.8398018E-01
        1   -1    0    0  501    0  0.00000000000E+00  0.00000000000E+00  0.19658678607E+04  0.19658678607E+04  0.50400001928E-02 0. -1.
       -1   -1    0    0    0  501  0.00000000000E+00  0.00000000000E+00 -0.80373622064E+03  0.80373622066E+03  0.50400001928E-02 0.  1.
    10030    2    1    2    0    0  0.00000000000E+00  0.00000000000E+00  0.11621316400E+04  0.27696040813E+04  0.25139922073E+04 0.  0.
        5    1    3    3  502    0  0.12036103063E+03 -0.11757236551E+03 -0.79126442084E+03  0.80896941383E+03  0.46999998093E+01 0.  1.
       -5    1    3    3    0  502 -0.12036103063E+03  0.11757236551E+03  0.19533960609E+04  0.19606346675E+04  0.46999998093E+01 0. -1.
</event>
<event>
 5   0  0.2517854E-05  0.2452861E+04  0.7818609E-02  0.8419974E-01
        2   -1    0    0  501    0  0.00000000000E+00  0.00000000000E+00  0.14494111555E+04  0.14494111555E+04  0.25500000920E-02 0.  1.
       -2   -1    0    0    0  501  0.00000000000E+00  0.00000000000E+00 -0.10377538454E+04  0.10377538454E+04  0.25500000920E-02 0. -1.
    10030    2    1    2    0    0  0.00000000000E+00  0.00000000000E+00  0.41165731006E+03  0.24871650010E+04  0.24528611867E+04 0.  0.
        4    1    3    3  502    0 -0.10567737891E+04  0.40776905259E+03  0.68260009286E+03  0.13224942122E+04  0.12699999809E+01 0.  1.
       -4    1    3    3    0  502  0.10567737891E+04 -0.40776905259E+03 -0.27094278280E+03  0.11646707887E+04  0.12699999809E+01 0. -1.
</event>
<event>
 5   0  0.2662024E-05  0.2614525E+04  0.7818609E-02  0.8363284E-01
       -2   -1    0    0    0  501  0.00000000000E+00  0.00000000000E+00  0.16127360688E+04  0.16127360688E+04  0.25500000920E-02 0. -1.
        2   -1    0    0  501    0  0.00000000000E+00  0.00000000000E+00 -0.10596499824E+04  0.10596499824E+04  0.25500000920E-02 0.  1.
    10030    2    1    2    0    0  0.00000000000E+00  0.00000000000E+00  0.55308608635E+03  0.26723860512E+04  0.26145253848E+04 0.  0.
        2    1    3    3  502    0  0.41586129464E+03  0.77283775754E+03 -0.71377264484E+03  0.11312339300E+04  0.25500000920E-02 0.  1.
       -2    1    3    3    0  502 -0.41586129464E+03 -0.77283775754E+03  0.12668587312E+04  0.15411521212E+04  0.25500000920E-02 0. -1.
</event>
<event>
 5   0  0.1034714E-05  0.2595247E+04  0.7818609E-02  0.8369817E-01
        1   -1    0    0  501    0  0.00000000000E+00  0.00000000000E+00  0.16813142280E+04  0.16813142280E+04  0.50400001928E-02 0. -1.
       -1   -1    0    0    0  501  0.00000000000E+00  0.00000000000E+00 -0.10014947567E+04  0.10014947567E+04  0.50400001928E-02 0.  1.
    10030    2    1    2    0    0  0.00000000000E+00  0.00000000000E+00  0.67981947133E+03  0.26828089847E+04  0.25952474901E+04 0.  0.
        5    1    3    3  502    0 -0.18188001752E+03  0.91272324906E+03  0.12746644704E+04  0.15782698351E+04  0.46999998093E+01 0. -1.
       -5    1    3    3    0  502  0.18188001752E+03 -0.91272324906E+03 -0.59484499908E+03  0.11045391496E+04  0.46999998093E+01 0.  1.
</event>
<event>
 5   0  0.1025153E-05  0.2416236E+04  0.7818609E-02  0.8433450E-01
       -1   -1    0    0    0  501  0.00000000000E+00  0.00000000000E+00  0.62309324349E+03  0.62309324351E+03  0.50400001928E-02 0.  1.
        1   -1    0    0  501    0  0.00000000000E+00  0.00000000000E+00 -0.23424256396E+04  0.23424256397E+04  0.50400001928E-02 0. -1.
    10030    2    1    2    0    0  0.00000000000E+00  0.00000000000E+00 -0.17193323962E+04  0.29655188832E+04  0.24162364036E+04 0.  0.
        1    1    3    3  502    0 -0.11577024096E+04  0.29472227187E+03 -0.10806315872E+04  0.16108695521E+04  0.50400001928E-02 0. -1.
       -1    1    3    3    0  502  0.11577024096E+04 -0.29472227187E+03 -0.63870080899E+03  0.13546493311E+04  0.50400001928E-02 0.  1.
</event>
<event>
 5   0  0.2484618E-05  0.2616559E+04  0.7818609E-02  0.8362598E-01
        2   -1    0    0  501    0  0.00000000000E+00  0.00000000000E+00  0.14414032225E+04  0.14414032225E+04  0.25500000920E-02 0.  1.
       -2   -1    0    0    0  501  0.00000000000E+00  0.00000000000E+00 -0.11874509390E+04  0.11874509390E+04  0.25500000920E-02 0. -1.
    10030    2    1    2    0    0  0.00000000000E+00  0.00000000000E+00  0.25395228354E+03  0.26288541615E+04  0.26165592751E+04 0.  0.
        3    1    3    3  502    0 -0.23873942133E+03 -0.66066160212E+03 -0.98189710178E+03  0.12073078284E+04  0.10100000352E+00 0. -1.
       -3    1    3    3    0  502  0.23873942133E+03  0.66066160212E+03  0.12358493853E+04  0.14215463331E+04  0.10100000352E+00 0.  1.
</event>
<event>
 5   0  0.2517854E-05  0.2736572E+04  0.7818609E-02  0.8323235E-01
       -2   -1    0    0    0  501  0.00000000000E+00  0.00000000000E+00  0.73733042953E+03  0.73733042953E+03  0.25500000920E-02 0. -1.
        2   -1    0    0  501    0  0.00000000000E+00  0.00000000000E+00 -0.25391697109E+04  0.25391697109E+04  0.25500000920E-02 0.  1.
    10030    2    1    2    0    0  0.00000000000E+00  0.00000000000E+00 -0.18018392814E+04  0.32765001404E+04  0.27365723770E+04 0.  0.
        4    1    3    3  502    0 -0.36984878821E+03  0.30311582262E+02 -0.24777690660E+04  0.25054037750E+04  0.12699999809E+01 0.  1.
       -4    1    3    3    0  502  0.36984878821E+03 -0.30311582262E+02  0.67592978465E+03  0.77109636547E+03  0.12699999809E+01 0. -1.
</event>
<event>
 5   0  0.2517854E-05  0.2779291E+04  0.7818609E-02  0.8309726E-01
       -2   -1    0    0    0  501  0.00000000000E+00  0.00000000000E+00  0.84742385181E+03  0.84742385181E+03  0.25500000920E-02 0.  1.
        2   -1    0    0  501    0  0.00000000000E+00  0.00000000000E+00 -0.22788068362E+04  0.22788068362E+04  0.25500000920E-02 0. -1.
    10030    2    1    2    0    0  0.00000000000E+00  0.00000000000E+00 -0.14313829844E+04  0.31262306880E+04  0.27792914685E+04 0.  0.
        4    1    3    3  502    0 -0.35708978727E+02 -0.13662790764E+04 -0.99829038134E+03  0.16925067043E+04  0.12699999809E+01 0. -1.
       -4    1    3    3    0  502  0.35708978727E+02  0.13662790764E+04 -0.43309260308E+03  0.14337239837E+04  0.12699999809E+01 0.  1.
</event>
<event>
 5   0  0.1000421E-05  0.2606148E+04  0.7818609E-02  0.8366116E-01
       -1   -1    0    0    0  501  0.00000000000E+00  0.00000000000E+00  0.96042742406E+03  0.96042742407E+03  0.50400001928E-02 0.  1.
        1   -1    0    0  501    0  0.00000000000E+00  0.00000000000E+00 -0.17679644495E+04  0.17679644495E+04  0.50400001928E-02 0. -1.
    10030    2    1    2    0    0  0.00000000000E+00  0.00000000000E+00 -0.80753702543E+03  0.27283918736E+04  0.26061477641E+04 0.  0.
        3    1    3    3  502    0  0.77083125638E+03 -0.26062248244E+03 -0.14692990999E+04  0.16795668368E+04  0.10100000352E+00 0. -1.
       -3    1    3    3    0  502 -0.77083125638E+03  0.26062248244E+03  0.66176207451E+03  0.10488250367E+04  0.10100000352E+00 0.  1.
</event>
<event>
 5   0  0.1000421E-05  0.2579665E+04  0.7818609E-02  0.8375141E-01
       -1   -1    0    0    0  501  0.00000000000E+00  0.00000000000E+00  0.70796954505E+03  0.70796954506E+03  0.50400001928E-02 0.  1.
        1   -1    0    0  501    0  0.00000000000E+00  0.00000000000E+00 -0.23499150591E+04  0.23499150591E+04  0.50400001928E-02 0. -1.
    10030    2    1    2    0    0  0.00000000000E+00  0.00000000000E+00 -0.16419455140E+04  0.30578846041E+04  0.25796653235E+04 0.  0.
        3    1    3    3  502    0 -0.38541290877E+03  0.12108416661E+04 -0.55861074034E+03  0.13880657838E+04  0.10100000352E+00 0. -1.
       -3    1    3    3    0  502  0.38541290877E+03 -0.12108416661E+04 -0.10833347737E+04  0.16698188203E+04  0.10100000352E+00 0.  1.
</event>
<event>
 5   0  0.1025153E-05  0.2614189E+04  0.7818609E-02  0.8363398E-01
       -1   -1    0    0    0  501  0.00000000000E+00  0.00000000000E+00  0.91696377810E+03  0.91696377811E+03  0.50400001928E-02 0.  1.
        1   -1    0    0  501    0  0.00000000000E+00  0.00000000000E+00 -0.18632093291E+04  0.18632093291E+04  0.50400001928E-02 0. -1.
    10030    2    1    2    0    0  0.00000000000E+00  0.00000000000E+00 -0.94624555098E+03  0.27801731072E+04  0.26141885669E+04 0.  0.
        1    1    3    3  502    0  0.92873323077E+03 -0.36391749283E+03 -0.13714534101E+04  0.16958377905E+04  0.50400001928E-02 0. -1.
       -1    1    3    3    0  502 -0.92873323077E+03  0.36391749283E+03  0.42520785914E+03  0.10843353167E+04  0.50400001928E-02 0.  1.
</event>
<event>
 5   0  0.9855352E-06  0.2667789E+04  0.7818609E-02  0.8345533E-01
       -1   -1    0    0    0  501  0.00000000000E+00  0.00000000000E+00  0.14055964876E+04  0.14055964876E+04  0.50400001928E-02 0. -1.
        1   -1    0    0  501    0  0.00000000000E+00  0.00000000000E+00 -0.12658501378E+04  0.12658501378E+04  0.50400001928E-02 0.  1.
    10030    2    1    2    0    0  0.00000000000E+00  0.00000000000E+00  0.13974634982E+03  0.26714466255E+04  0.26677889779E+04 0.  0.
        2    1    3    3  502    0  0.47842133830E+03  0.11707134505E+04  0.49450355514E+03  0.13579362011E+04  0.25500000920E-02 0. -1.
       -2    1    3    3    0  502 -0.47842133830E+03 -0.11707134505E+04 -0.35475720532E+03  0.13135104244E+04  0.25500000920E-02 0.  1.
</event>
<event>
 5   0  0.2484618E-05  0.2601264E+04  0.7818609E-02  0.8367772E-01
       -2   -1    0    0    0  501  0.00000000000E+00  0.00000000000E+00  0.65263448610E+03  0.65263448610E+03  0.25500000920E-02 0.  1.
        2   -1    0    0  501    0  0.00000000000E+00  0.00000000000E+00 -0.25920236885E+04  0.25920236885E+04  0.25500000920E-02 0. -1.
    10030    2    1    2    0    0  0.00000000000E+00  0.00000000000E+00 -0.19393892024E+04  0.32446581746E+04  0.26012643448E+04 0.  0.
        3    1    3    3  502    0 -0.12198661288E+03 -0.12320035602E+04 -0.14669598738E+04  0.19195532781E+04  0.10100000352E+00 0. -1.
       -3    1    3    3    0  502  0.12198661288E+03  0.12320035602E+04 -0.47242932864E+03  0.13251048965E+04  0.10100000352E+00 0.  1.
</event>
<event>
 5   0  0.2484618E-05  0.2407789E+04  0.7818609E-02  0.8436593E-01
        2   -1    0    0  501    0  0.00000000000E+00  0.00000000000E+00  0.12403241878E+04  0.12403241878E+04  0.25500000920E-02 0.  1.
       -2   -1    0    0    0  501  0.00000000000E+00  0.00000000000E+00 -0.11685347096E+04  0.11685347096E+04  0.25500000920E-02 0. -1.
    10030    2    1    2    0    0  0.00000000000E+00  0.00000000000E+00  0.71789478272E+02  0.24088588974E+04  0.24077889148E+04 0.  0.
        3    1    3    3  502    0 -0.53140947547E+03  0.25272309560E+03  0.10866456494E+04  0.12357442176E+04  0.10100000352E+00 0.  1.
       -3    1    3    3    0  502  0.53140947547E+03 -0.25272309560E+03 -0.10148561711E+04  0.11731146798E+04  0.10100000352E+00 0. -1.
</event>
<event>
 5   0  0.1000421E-05  0.2618367E+04  0.7818609E-02  0.8361989E-01
        1   -1    0    0  501    0  0.00000000000E+00  0.00000000000E+00  0.11446778349E+04  0.11446778349E+04  0.50400001928E-02 0.  1.
       -1   -1    0    0    0  501  0.00000000000E+00  0.00000000000E+00 -0.14973310973E+04  0.14973310974E+04  0.50400001928E-02 0. -1.
    10030    2    1    2    0    0  0.00000000000E+00  0.00000000000E+00 -0.35265326242E+03  0.26420089323E+04  0.26183672154E+04 0.  0.
        3    1    3    3  502    0  0.20441137848E+03  0.10898249224E+04  0.52598909233E+03  0.12272599189E+04  0.10100000352E+00 0.  1.
       -3    1    3    3    0  502 -0.20441137848E+03 -0.10898249224E+04 -0.87864235475E+03  0.14147490134E+04  0.10100000352E+00 0. -1.
</event>
<event>
 5   0  0.2517854E-05  0.2655930E+04  0.7818609E-02  0.8349448E-01
       -2   -1    0    0    0  501  0.00000000000E+00  0.00000000000E+00  0.10235457469E+04  0.10235457469E+04  0.25500000920E-02 0.  1.
        2   -1    0    0  501    0  0.00000000000E+00  0.00000000000E+00 -0.17229229141E+04  0.17229229141E+04  0.25500000920E-02 0. -1.
    10030    2    1    2    0    0  0.00000000000E+00  0.00000000000E+00 -0.69937716720E+03  0.27464686610E+04  0.26559295329E+04 0.  0.
        4    1    3    3  502    0 -0.31825920962E+03 -0.85655963170E+03 -0.13461267078E+04  0.16269732799E+04  0.12699999809E+01 0. -1.
       -4    1    3    3    0  502  0.31825920962E+03  0.85655963170E+03  0.64674954060E+03  0.11194953811E+04  0.12699999809E+01 0.  1.
</event>
<event>
 5   0  0.2555801E-05  0.2144328E+04  0.7818609E-02  0.8541964E-01
        2   -1    0    0  501    0  0.00000000000E+00  0.00000000000E+00  0.10496488256E+04  0.10496488256E+04  0.25500000920E-02 0. -1.
       -2   -1    0    0    0  501  0.00000000000E+00  0.00000000000E+00 -0.10951620906E+04  0.10951620906E+04  0.25500000920E-02 0.  1.
    10030    2    1    2    0    0  0.00000000000E+00  0.00000000000E+00 -0.45513265006E+02  0.21448109161E+04  0.21443279620E+04 0.  0.
        1    1    3    3  502    0  0.27018425583E+03 -0.59936826846E+03  0.82436607923E+03  0.10544293651E+04  0.50400001928E-02 0. -1.
       -1    1    3    3    0  502 -0.27018425583E+03  0.59936826846E+03 -0.86987934423E+03  0.10903815511E+04  0.50400001928E-02 0.  1.
</event>
<event>
 5   0  0.2517854E-05  0.2480359E+04  0.7818609E-02  0.8410016E-01
       -2   -1    0    0    0  501  0.00000000000E+00  0.00000000000E+00  0.72201915574E+03  0.72201915574E+03  0.25500000920E-02 0. -1.
        2   -1    0    0  501    0  0.00000000000E+00  0.00000000000E+00 -0.21302000831E+04  0.21302000831E+04  0.25500000920E-02 0.  1.
    10030    2    1    2    0    0  0.00000000000E+00  0.00000000000E+00 -0.14081809274E+04  0.28522192388E+04  0.24803590591E+04 0.  0.
        4    1    3    3  502    0 -0.11999347065E+04  0.78714761386E+02 -0.35529365241E+03  0.12539037067E+04  0.12699999809E+01 0. -1.
       -4    1    3    3    0  502  0.11999347065E+04 -0.78714761386E+02 -0.10528872750E+04  0.15983155321E+04  0.12699999809E+01 0.  1.
</event>
<event>
 5   0  0.1034714E-05  0.2493216E+04  0.7818609E-02  0.8405406E-01
        1   -1    0    0  501    0  0.00000000000E+00  0.00000000000E+00  0.10789667377E+04  0.10789667377E+04  0.50400001928E-02 0. -1.
       -1   -1    0    0    0  501  0.00000000000E+00  0.00000000000E+00 -0.14402960566E+04  0.14402960566E+04  0.50400001928E-02 0.  1.
    10030    2    1    2    0    0  0.00000000000E+00  0.00000000000E+00 -0.36132931890E+03  0.25192627943E+04  0.24932160255E+04 0.  0.
        5    1    3    3  502    0  0.37059508651E+03 -0.93731332656E+02  0.10182737436E+04  0.10876717280E+04  0.46999998093E+01 0. -1.
       -5    1    3    3    0  502 -0.37059508651E+03  0.93731332656E+02 -0.13796030625E+04  0.14315910663E+04  0.46999998093E+01 0.  1.
</event>
<event>
 5   0  0.2555801E-05  0.2575628E+04  0.7818609E-02  0.8376527E-01
        2   -1    0    0  501    0  0.00000000000E+00  0.00000000000E+00  0.14982819757E+04  0.14982819757E+04  0.25500000920E-02 0.  1.
       -2   -1    0    0    0  501  0.00000000000E+00  0.00000000000E+00 -0.11069112675E+04  0.11069112675E+04  0.25500000920E-02 0. -1.
    10030    2    1    2    0    0  0.00000000000E+00  0.00000000000E+00  0.39137070823E+03  0.26051932433E+04  0.25756282347E+04 0.  0.
        1    1    3    3  502    0  0.44330003293E+03 -0.73563974258E+03 -0.77490451574E+03  0.11567876895E+04  0.50400001928E-02 0. -1.
       -1    1    3    3    0  502 -0.44330003293E+03  0.73563974258E+03  0.11662752240E+04  0.14484055537E+04  0.50400001928E-02 0.  1.
</event>
<event>
 5   0  0.2484618E-05  0.2534252E+04  0.7818609E-02  0.8390884E-01
        2   -1    0    0  501    0  0.00000000000E+00  0.00000000000E+00  0.59799217036E+03  0.59799217037E+03  0.25500000920E-02 0.  1.
       -2   -1    0    0    0  501  0.00000000000E+00  0.00000000000E+00 -0.26849989375E+04  0.26849989375E+04  0.25500000920E-02 0. -1.
    10030    2    1    2    0    0  0.00000000000E+00  0.00000000000E+00 -0.20870067671E+04  0.32829911079E+04  0.25342520333E+04 0.  0.
        3    1    3    3  502    0  0.12240700468E+04 -0.31158680658E+03 -0.11741736410E+04  0.17245630076E+04  0.10100000352E+00 0.  1.
       -3    1    3    3    0  502 -0.12240700468E+04  0.31158680658E+03 -0.91283312611E+03  0.15584281003E+04  0.10100000352E+00 0. -1.
</event>
<event>
 5   0  0.1005492E-05  0.2482207E+04  0.7818609E-02  0.8409352E-01
       -1   -1    0    0    0  501  0.00000000000E+00  0.00000000000E+00  0.98085788835E+03  0.98085788836E+03  0.50400001928E-02 0. -1.
        1   -1    0    0  501    0  0.00000000000E+00  0.00000000000E+00 -0.15703989717E+04  0.15703989717E+04  0.50400001928E-02 0.  1.
    10030    2    1    2    0    0  0.00000000000E+00  0.00000000000E+00 -0.58954108333E+03  0.25512568600E+04  0.24822072591E+04 0.  0.
        4    1    3    3  502    0  0.14412561323E+03  0.61740780399E+03 -0.13913958135E+04  0.15290351571E+04  0.12699999809E+01 0.  1.
       -4    1    3    3    0  502 -0.14412561323E+03 -0.61740780399E+03  0.80185473018E+03  0.10222217030E+04  0.12699999809E+01 0. -1.
</event>
<event>
 5   0  0.2528460E-05  0.2639934E+04  0.7818609E-02  0.8354762E-01
       -2   -1    0    0    0  501  0.00000000000E+00  0.00000000000E+00  0.76890358953E+03  0.76890358953E+03  0.25500000920E-02 0.  1.
        2   -1    0    0  501    0  0.00000000000E+00  0.00000000000E+00 -0.22659712872E+04  0.22659712872E+04  0.25500000920E-02 0. -1.
    10030    2    1    2    0    0  0.00000000000E+00  0.00000000000E+00 -0.14970676977E+04  0.30348748768E+04  0.26399344359E+04 0.  0.
        5    1    3    3  502    0  0.91804058011E+03  0.20870551878E+03  0.31504087631E+03  0.99278867038E+03  0.46999998093E+01 0.  1.
       -5    1    3    3    0  502 -0.91804058011E+03 -0.20870551878E+03 -0.18121085740E+04  0.20420862064E+04  0.46999998093E+01 0. -1.
</event>
<event>
 5   0  0.2662024E-05  0.2551263E+04  0.7818609E-02  0.8384947E-01
        2   -1    0    0  501    0  0.00000000000E+00  0.00000000000E+00  0.17447231583E+04  0.17447231583E+04  0.25500000920E-02 0. -1.
       -2   -1    0    0    0  501  0.00000000000E+00  0.00000000000E+00 -0.93266095815E+03  0.93266095815E+03  0.25500000920E-02 0.  1.
    10030    2    1    2    0    0  0.00000000000E+00  0.00000000000E+00  0.81206220016E+03  0.26773841165E+04  0.25512625679E+04 0.  0.
        2    1    3    3  502    0 -0.15547723844E+03 -0.55302759127E+03 -0.78922992754E+03  0.97616421103E+03  0.25500000920E-02 0.  1.
       -2    1    3    3    0  502  0.15547723844E+03  0.55302759127E+03  0.16012921277E+04  0.17012199054E+04  0.25500000920E-02 0. -1.
</event>
<event>
 5   0  0.2662024E-05  0.2502450E+04  0.7818609E-02  0.8402113E-01
       -2   -1    0    0    0  501  0.00000000000E+00  0.00000000000E+00  0.67475011235E+03  0.67475011235E+03  0.25500000920E-02 0. -1.
        2   -1    0    0  501    0  0.00000000000E+00  0.00000000000E+00 -0.23202122551E+04  0.23202122551E+04  0.25500000920E-02 0.  1.
    10030    2    1    2    0    0  0.00000000000E+00  0.00000000000E+00 -0.16454621428E+04  0.29949623675E+04  0.25024495838E+04 0.  0.
        2    1    3    3  502    0  0.27083753258E+03  0.21255220560E+02  0.63902641457E+03  0.69437706758E+03  0.25500000920E-02 0. -1.
       -2    1    3    3    0  502 -0.27083753258E+03 -0.21255220560E+02 -0.22844885573E+04  0.23005852999E+04  0.25500000920E-02 0.  1.
</event>
<event>
 5   0  0.1000421E-05  0.2591390E+04  0.7818609E-02  0.8371132E-01
       -1   -1    0    0    0  501  0.00000000000E+00  0.00000000000E+00  0.72721120324E+03  0.72721120325E+03  0.50400001928E-02 0.  1.
        1   -1    0    0  501    0  0.00000000000E+00  0.00000000000E+00 -0.23085795556E+04  0.23085795556E+04  0.50400001928E-02 0. -1.
    10030    2    1    2    0    0  0.00000000000E+00  0.00000000000E+00 -0.15813683523E+04  0.30357907588E+04  0.25913895241E+04 0.  0.
        3    1    3    3  502    0 -0.22684865533E+03 -0.96630939878E+03  0.18497254418E+03  0.10096677765E+04  0.10100000352E+00 0.  1.
       -3    1    3    3    0  502  0.22684865533E+03  0.96630939878E+03 -0.17663408965E+04  0.20261229823E+04  0.10100000352E+00 0. -1.
</event>
<event>
 5   0  0.9855352E-06  0.2596590E+04  0.7818609E-02  0.8369360E-01
       -1   -1    0    0    0  501  0.00000000000E+00  0.00000000000E+00  0.92785466245E+03  0.92785466247E+03  0.50400001928E-02 0.  1.
        1   -1    0    0  501    0  0.00000000000E+00  0.00000000000E+00 -0.18166315988E+04  0.18166315988E+04  0.50400001928E-02 0. -1.
    10030    2    1    2    0    0  0.00000000000E+00  0.00000000000E+00 -0.88877693632E+03  0.27444862612E+04  0.25965901478E+04 0.  0.
        2    1    3    3  502    0 -0.12090179904E+04  0.24869193169E+03 -0.86980305443E+03  0.15100097786E+04  0.25500000920E-02 0. -1.
       -2    1    3    3    0  502  0.12090179904E+04 -0.24869193169E+03 -0.18973881895E+02  0.12344764826E+04  0.25500000920E-02 0.  1.
</event>
<event>
 5   0  0.2555801E-05  0.2585911E+04  0.7818609E-02  0.8373003E-01
       -2   -1    0    0    0  501  0.00000000000E+00  0.00000000000E+00  0.11036881743E+04  0.11036881743E+04  0.25500000920E-02 0.  1.
        2   -1    0    0  501    0  0.00000000000E+00  0.00000000000E+00 -0.15146794415E+04  0.15146794415E+04  0.25500000920E-02 0. -1.
    10030    2    1    2    0    0  0.00000000000E+00  0.00000000000E+00 -0.41099126718E+03  0.26183676158E+04  0.25859108937E+04 0.  0.
        1    1    3    3  502    0 -0.27742916271E+03 -0.38338503055E+03  0.10128451055E+04  0.11179473287E+04  0.50400001928E-02 0.  1.
       -1    1    3    3    0  502  0.27742916271E+03  0.38338503055E+03 -0.14238363727E+04  0.15004202872E+04  0.50400001928E-02 0. -1.
</event>
<event>
 5   0  0.9855352E-06  0.2567777E+04  0.7818609E-02  0.8379230E-01
       -1   -1    0    0    0  501  0.00000000000E+00  0.00000000000E+00  0.53160896501E+03  0.53160896503E+03  0.50400001928E-02 0. -1.
        1   -1    0    0  501    0  0.00000000000E+00  0.00000000000E+00 -0.31007183738E+04  0.31007183738E+04  0.50400001928E-02 0.  1.
    10030    2    1    2    0    0  0.00000000000E+00  0.00000000000E+00 -0.25691094088E+04  0.36323273389E+04  0.25677770040E+04 0.  0.
        2    1    3    3  502    0 -0.35929478511E+03 -0.46301790094E+03  0.33134668038E+03  0.67325250969E+03  0.25500000920E-02 0. -1.
       -2    1    3    3    0  502  0.35929478511E+03  0.46301790094E+03 -0.29004560892E+04  0.29590748292E+04  0.25500000920E-02 0.  1.
</event>
<event>
 5   0  0.1034714E-05  0.2628816E+04  0.7818609E-02  0.8358479E-01
        1   -1    0    0  501    0  0.00000000000E+00  0.00000000000E+00  0.97697728134E+03  0.97697728136E+03  0.50400001928E-02 0. -1.
       -1   -1    0    0    0  501  0.00000000000E+00  0.00000000000E+00 -0.17683807606E+04  0.17683807606E+04  0.50400001928E-02 0.  1.
    10030    2    1    2    0    0  0.00000000000E+00  0.00000000000E+00 -0.79140347928E+03  0.27453580420E+04  0.26288155720E+04 0.  0.
        5    1    3    3  502    0  0.66769747227E+03 -0.43519569093E+03 -0.14872320211E+04  0.16873341040E+04  0.46999998093E+01 0.  1.
       -5    1    3    3    0  502 -0.66769747227E+03  0.43519569093E+03  0.69582854179E+03  0.10580239380E+04  0.46999998093E+01 0. -1.
</event>
<event>
 5   0  0.2528460E-05  0.2579698E+04  0.7818609E-02  0.8375130E-01
       -2   -1    0    0    0  501  0.00000000000E+00  0.00000000000E+00  0.16011084578E+04  0.16011084578E+04  0.25500000920E-02 0.  1.
        2   -1    0    0  501    0  0.00000000000E+00  0.00000000000E+00 -0.10390990847E+04  0.10390990847E+04  0.25500000920E-02 0. -1.
    10030    2    1    2    0    0  0.00000000000E+00  0.00000000000E+00  0.56200937304E+03  0.26402075425E+04  0.25796979149E+04 0.  0.
        5    1    3    3  502    0  0.10505144666E+04 -0.59998913357E+03 -0.17683681185E+03  0.12226450642E+04  0.46999998093E+01 0. -1.
       -5    1    3    3    0  502 -0.10505144666E+04  0.59998913357E+03  0.73884618489E+03  0.14175624783E+04  0.46999998093E+01 0.  1.
</event>
<event>
 5   0  0.9855352E-06  0.1998847E+04  0.7818609E-02  0.8607160E-01
        1   -1    0    0  501    0  0.00000000000E+00  0.00000000000E+00  0.18279013142E+04  0.18279013142E+04  0.50400001928E-02 0.  1.
       -1   -1    0    0    0  501  0.00000000000E+00  0.00000000000E+00 -0.54644505365E+03  0.54644505367E+03  0.50400001928E-02 0. -1.
    10030    2    1    2    0    0  0.00000000000E+00  0.00000000000E+00  0.12814562605E+04  0.23743463679E+04  0.19988472995E+04 0.  0.
        2    1    3    3  502    0  0.94270834764E+03  0.32033349773E+03  0.74383975222E+03  0.12428234611E+04  0.25500000920E-02 0. -1.
       -2    1    3    3    0  502 -0.94270834764E+03 -0.32033349773E+03  0.53761650831E+03  0.11315229067E+04  0.25500000920E-02 0.  1.
</event>
<event>
 5   0  0.1000421E-05  0.2593663E+04  0.7818609E-02  0.8370357E-01
        1   -1    0    0  501    0  0.00000000000E+00  0.00000000000E+00  0.69135016586E+03  0.69135016588E+03  0.50400001928E-02 0.  1.
       -1   -1    0    0    0  501  0.00000000000E+00  0.00000000000E+00 -0.24325899164E+04  0.24325899164E+04  0.50400001928E-02 0. -1.
    10030    2    1    2    0    0  0.00000000000E+00  0.00000000000E+00 -0.17412397506E+04  0.31239400823E+04  0.25936626166E+04 0.  0.
        3    1    3    3  502    0 -0.43636251932E+03  0.89758545522E+03 -0.18679895064E+04  0.21178896817E+04  0.10100000352E+00 0.  1.
       -3    1    3    3    0  502  0.43636251932E+03 -0.89758545522E+03  0.12674975586E+03  0.10060504006E+04  0.10100000352E+00 0. -1.
</event>
<event>
 5   0  0.1034714E-05  0.2563536E+04  0.7818609E-02  0.8380694E-01
       -1   -1    0    0    0  501  0.00000000000E+00  0.00000000000E+00  0.13199703504E+04  0.13199703504E+04  0.50400001928E-02 0.  1.
        1   -1    0    0  501    0  0.00000000000E+00  0.00000000000E+00 -0.12446713464E+04  0.12446713465E+04  0.50400001928E-02 0. -1.
    10030    2    1    2    0    0  0.00000000000E+00  0.00000000000E+00  0.75299003908E+02  0.25646416968E+04  0.25635360526E+04 0.  0.
        5    1    3    3  502    0  0.86828611386E+03  0.27437962898E+03 -0.86479399889E+03  0.12558247118E+04  0.46999998093E+01 0.  1.
       -5    1    3    3    0  502 -0.86828611386E+03 -0.27437962898E+03  0.94009300280E+03  0.13088169850E+04  0.46999998093E+01 0. -1.
</event>
<event>
 5   0  0.2662024E-05  0.2536901E+04  0.7818609E-02  0.8389956E-01
       -2   -1    0    0    0  501  0.00000000000E+00  0.00000000000E+00  0.63090523572E+03  0.63090523572E+03  0.25500000920E-02 0.  1.
        2   -1    0    0  501    0  0.00000000000E+00  0.00000000000E+00 -0.25502519262E+04  0.25502519262E+04  0.25500000920E-02 0. -1.
    10030    2    1    2    0    0  0.00000000000E+00  0.00000000000E+00 -0.19193466905E+04  0.31811571619E+04  0.25369014901E+04 0.  0.
        2    1    3    3  502    0 -0.45403664360E+03 -0.68416961545E+03  0.25266712382E+03  0.85911466749E+03  0.25500000920E-02 0.  1.
       -2    1    3    3    0  502  0.45403664360E+03  0.68416961545E+03 -0.21720138143E+04  0.23220424945E+04  0.25500000920E-02 0. -1.
</event>
<event>
 5   0  0.2484618E-05  0.2859935E+04  0.7818609E-02  0.8284899E-01
       -2   -1    0    0    0  501  0.00000000000E+00  0.00000000000E+00  0.11884395653E+04  0.11884395653E+04  0.25500000920E-02 0. -1.
        2   -1    0    0  501    0  0.00000000000E+00  0.00000000000E+00 -0.17205810762E+04  0.17205810762E+04  0.25500000920E-02 0.  1.
    10030    2    1    2    0    0  0.00000000000E+00  0.00000000000E+00 -0.53214151099E+03  0.29090206415E+04  0.28599347029E+04 0.  0.
        3    1    3    3  502    0 -0.71418839635E+03  0.94984786326E+03 -0.10750389572E+04  0.16024933069E+04  0.10100000352E+00 0.  1.
       -3    1    3    3    0  502  0.71418839635E+03 -0.94984786326E+03  0.54289744622E+03  0.13065273346E+04  0.10100000352E+00 0. -1.
</event>
<event>
 5   0  0.1000421E-05  0.2576479E+04  0.7818609E-02  0.8376235E-01
       -1   -1    0    0    0  501  0.00000000000E+00  0.00000000000E+00  0.21455134817E+04  0.21455134817E+04  0.50400001928E-02 0.  1.
        1   -1    0    0  501    0  0.00000000000E+00  0.00000000000E+00 -0.77350276035E+03  0.77350276036E+03  0.50400001928E-02 0. -1.
    10030    2    1    2    0    0  0.00000000000E+00  0.00000000000E+00  0.13720107213E+04  0.29190162420E+04  0.25764786826E+04 0.  0.
        3    1    3    3  502    0  0.46125894532E+01  0.16412061057E+03 -0.76160056249E+03  0.77909709137E+03  0.10100000352E+00 0. -1.
       -3    1    3    3    0  502 -0.46125894532E+01 -0.16412061057E+03  0.21336112838E+04  0.21399191507E+04  0.10100000352E+00 0.  1.
</event>
<event>
 5   0  0.2555801E-05  0.2597159E+04  0.7818609E-02  0.8369167E-01
        2   -1    0    0  501    0  0.00000000000E+00  0.00000000000E+00  0.20069278959E+04  0.20069278959E+04  0.25500000920E-02 0.  1.
       -2   -1    0    0    0  501  0.00000000000E+00  0.00000000000E+00 -0.84024374594E+03  0.84024374594E+03  0.25500000920E-02 0. -1.
    10030    2    1    2    0    0  0.00000000000E+00  0.00000000000E+00  0.11666841499E+04  0.28471716418E+04  0.25971589193E+04 0.  0.
        1    1    3    3  502    0 -0.73820232474E+02  0.10288975348E+04 -0.28140731817E+03  0.10692378793E+04  0.50400001928E-02 0. -1.
       -1    1    3    3    0  502  0.73820232474E+02 -0.10288975348E+04  0.14480914681E+04  0.17779337625E+04  0.50400001928E-02 0.  1.
</event>
<event>
 5   0  0.2555801E-05  0.2597507E+04  0.7818609E-02  0.8369048E-01
       -2   -1    0    0    0  501  0.00000000000E+00  0.00000000000E+00  0.16133938328E+04  0.16133938328E+04  0.25500000920E-02 0.  1.
        2   -1    0    0  501    0  0.00000000000E+00  0.00000000000E+00 -0.10454738781E+04  0.10454738781E+04  0.25500000920E-02 0. -1.
    10030    2    1    2    0    0  0.00000000000E+00  0.00000000000E+00  0.56791995466E+03  0.26588677109E+04  0.25975073492E+04 0.  0.
        1    1    3    3  502    0  0.21757887357E+03 -0.10251893771E+04 -0.50123762446E+03  0.11617198377E+04  0.50400001928E-02 0. -1.
       -1    1    3    3    0  502 -0.21757887357E+03  0.10251893771E+04  0.10691575791E+04  0.14971478732E+04  0.50400001928E-02 0.  1.
</event>
<event>
 5   0  0.2528460E-05  0.2530609E+04  0.7818609E-02  0.8392161E-01
        2   -1    0    0  501    0  0.00000000000E+00  0.00000000000E+00  0.13967870947E+04  0.13967870947E+04  0.25500000920E-02 0. -1.
       -2   -1    0    0    0  501  0.00000000000E+00  0.00000000000E+00 -0.11461989021E+04  0.11461989021E+04  0.25500000920E-02 0.  1.
    10030    2    1    2    0    0  0.00000000000E+00  0.00000000000E+00  0.25058819257E+03  0.25429859968E+04  0.25306092819E+04 0.  0.
        5    1    3    3  502    0  0.56964636015E+03 -0.12657323505E+03 -0.10028971208E+04  0.11603199922E+04  0.46999998093E+01 0.  1.
       -5    1    3    3    0  502 -0.56964636015E+03  0.12657323505E+03  0.12534853133E+04  0.13826660046E+04  0.46999998093E+01 0. -1.
</event>
<event>
 5   0  0.2484618E-05  0.2544093E+04  0.7818609E-02  0.8387443E-01
        2   -1    0    0  501    0  0.00000000000E+00  0.00000000000E+00  0.17495309143E+04  0.17495309143E+04  0.25500000920E-02 0. -1.
       -2   -1    0    0    0  501  0.00000000000E+00  0.00000000000E+00 -0.92487790105E+03  0.92487790105E+03  0.25500000920E-02 0.  1.
    10030    2    1    2    0    0  0.00000000000E+00  0.00000000000E+00  0.82465301325E+03  0.26744088153E+04  0.25440931428E+04 0.  0.
        3    1    3    3  502    0  0.22834527236E+03 -0.10373611788E+04 -0.32341135168E+03  0.11103398990E+04  0.10100000352E+00 0.  1.
       -3    1    3    3    0  502 -0.22834527236E+03  0.10373611788E+04  0.11480643649E+04  0.15640689163E+04  0.10100000352E+00 0. -1.
</event>
<event>
 5   0  0.1025153E-05  0.2565422E+04  0.7818609E-02  0.8380042E-01
        1   -1    0    0  501    0  0.00000000000E+00  0.00000000000E+00  0.20415981751E+04  0.20415981751E+04  0.50400001928E-02 0.  1.
       -1   -1    0    0    0  501  0.00000000000E+00  0.00000000000E+00 -0.80591156525E+03  0.80591156527E+03  0.50400001928E-02 0. -1.
    10030    2    1    2    0    0  0.00000000000E+00  0.00000000000E+00  0.12356866098E+04  0.28475097403E+04  0.25654220557E+04 0.  0.
        1    1    3    3  502    0  0.66954092990E+03 -0.65656164690E+03 -0.35360065784E+03  0.10021934335E+04  0.50400001928E-02 0. -1.
       -1    1    3    3    0  502 -0.66954092990E+03  0.65656164690E+03  0.15892872677E+04  0.18453163068E+04  0.50400001928E-02 0.  1.
</event>
<event>
 5   0  0.1025153E-05  0.2647519E+04  0.7818609E-02  0.8352237E-01
        1   -1    0    0  501    0  0.00000000000E+00  0.00000000000E+00  0.15421878610E+04  0.15421878610E+04  0.50400001928E-02 0. -1.
       -1   -1    0    0    0  501  0.00000000000E+00  0.00000000000E+00 -0.11362685524E+04  0.11362685524E+04  0.50400001928E-02 0.  1.
    10030    2    1    2    0    0  0.00000000000E+00  0.00000000000E+00  0.40591930858E+03  0.26784564134E+04  0.26475192678E+04 0.  0.
        1    1    3    3  502    0  0.55930383465E+02  0.69329191218E+03 -0.93650422930E+03  0.11665427788E+04  0.50400001928E-02 0.  1.
       -1    1    3    3    0  502 -0.55930383465E+02 -0.69329191218E+03  0.13424235379E+04  0.15119136346E+04  0.50400001928E-02 0. -1.
</event>
<event>
 5   0  0.1025153E-05  0.2584093E+04  0.7818609E-02  0.8373624E-01
       -1   -1    0    0    0  501  0.00000000000E+00  0.00000000000E+00  0.80520261618E+03  0.80520261619E+03  0.50400001928E-02 0.  1.
        1   -1    0    0  501    0  0.00000000000E+00  0.00000000000E+00 -0.20732479748E+04  0.20732479748E+04  0.50400001928E-02 0. -1.
    10030    2    1    2    0    0  0.00000000000E+00  0.00000000000E+00 -0.12680453587E+04  0.28784505910E+04  0.25840934142E+04 0.  0.
        1    1    3    3  502    0  0.42964983968E+03 -0.46375096579E+03 -0.18891988292E+04  0.19921687075E+04  0.50400001928E-02 0. -1.
       -1    1    3    3    0  502 -0.42964983968E+03  0.46375096579E+03  0.62115347055E+03  0.88628188349E+03  0.50400001928E-02 0.  1.
</event>
<event>
 5   0  0.2528460E-05  0.2583658E+04  0.7818609E-02  0.8373773E-01
        2   -1    0    0  501    0  0.00000000000E+00  0.00000000000E+00  0.20151799087E+04  0.20151799087E+04  0.25500000920E-02 0.  1.
       -2   -1    0    0    0  501  0.00000000000E+00  0.00000000000E+00 -0.82812585060E+03  0.82812585060E+03  0.25500000920E-02 0. -1.
    10030    2    1    2    0    0  0.00000000000E+00  0.00000000000E+00  0.11870540581E+04  0.28433057593E+04  0.25836583180E+04 0.  0.
        5    1    3    3  502    0  0.49156280595E+03 -0.10414150681E+04  0.12376897238E+04  0.16905848924E+04  0.46999998093E+01 0. -1.
       -5    1    3    3    0  502 -0.49156280595E+03  0.10414150681E+04 -0.50635665675E+02  0.11527208668E+04  0.46999998093E+01 0.  1.
</event>
<event>
 5   0  0.2555801E-05  0.2647448E+04  0.7818609E-02  0.8352261E-01
       -2   -1    0    0    0  501  0.00000000000E+00  0.00000000000E+00  0.74729053073E+03  0.74729053074E+03  0.25500000920E-02 0. -1.
        2   -1    0    0  501    0  0.00000000000E+00  0.00000000000E+00 -0.23447972952E+04  0.23447972952E+04  0.25500000920E-02 0.  1.
    10030    2    1    2    0    0  0.00000000000E+00  0.00000000000E+00 -0.15975067644E+04  0.30920878259E+04  0.26474476880E+04 0.  0.
        1    1    3    3  502    0  0.13059026642E+04  0.18114426380E+03 -0.66031403443E+03  0.14745201378E+04  0.50400001928E-02 0. -1.
       -1    1    3    3    0  502 -0.13059026642E+04 -0.18114426380E+03 -0.93719273002E+03  0.16175676882E+04  0.50400001928E-02 0.  1.
</event>
<event>
 5   0  0.1034714E-05  0.2276617E+04  0.7818609E-02  0.8487198E-01
       -1   -1    0    0    0  501  0.00000000000E+00  0.00000000000E+00  0.12606006941E+04  0.12606006941E+04  0.50400001928E-02 0.  1.
        1   -1    0    0  501    0  0.00000000000E+00  0.00000000000E+00 -0.10278802288E+04  0.10278802288E+04  0.50400001928E-02 0. -1.
    10030    2    1    2    0    0  0.00000000000E+00  0.00000000000E+00  0.23272046529E+03  0.22884809229E+04  0.22766172537E+04 0.  0.
        5    1    3    3  502    0  0.53128179226E+03 -0.99071385448E+03 -0.63317294962E+02  0.11259686737E+04  0.46999998093E+01 0. -1.
       -5    1    3    3    0  502 -0.53128179226E+03  0.99071385448E+03  0.29603776025E+03  0.11625122493E+04  0.46999998093E+01 0.  1.
</event>
<event>
 5   0  0.1000421E-05  0.2617083E+04  0.7818609E-02  0.8362421E-01
        1   -1    0    0  501    0  0.00000000000E+00  0.00000000000E+00  0.14406519200E+04  0.14406519200E+04  0.50400001928E-02 0. -1.
       -1   -1    0    0    0  501  0.00000000000E+00  0.00000000000E+00 -0.11885462566E+04  0.11885462566E+04  0.50400001928E-02 0.  1.
    10030    2    1    2    0    0  0.00000000000E+00  0.00000000000E+00  0.25210566332E+03  0.26291981766E+04  0.26170834504E+04 0.  0.
        3    1    3    3  502    0  0.91373375906E+02  0.61938933510E+02 -0.11838601999E+04  0.11889955881E+04  0.10100000352E+00 0.  1.
       -3    1    3    3    0  502 -0.91373375906E+02 -0.61938933510E+02  0.14359658633E+04  0.14402025885E+04  0.10100000352E+00 0. -1.
</event>
<event>
 5   0  0.2555801E-05  0.2619780E+04  0.7818609E-02  0.8361513E-01
       -2   -1    0    0    0  501  0.00000000000E+00  0.00000000000E+00  0.15163429815E+04  0.15163429815E+04  0.25500000920E-02 0.  1.
        2   -1    0    0  501    0  0.00000000000E+00  0.00000000000E+00 -0.11315459063E+04  0.11315459063E+04  0.25500000920E-02 0. -1.
    10030    2    1    2    0    0  0.00000000000E+00  0.00000000000E+00  0.38479707522E+03  0.26478888877E+04  0.26197799092E+04 0.  0.
        1    1    3    3  502    0 -0.32458172939E+03 -0.11928388664E+04  0.63016675538E+03  0.13875618904E+04  0.50400001928E-02 0.  1.
       -1    1    3    3    0  502  0.32458172939E+03  0.11928388664E+04 -0.24536968016E+03  0.12603269973E+04  0.50400001928E-02 0. -1.
</event>
<event>
 5   0  0.1025153E-05  0.2606420E+04  0.7818609E-02  0.8366024E-01
       -1   -1    0    0    0  501  0.00000000000E+00  0.00000000000E+00  0.12654576053E+04  0.12654576053E+04  0.50400001928E-02 0.  1.
        1   -1    0    0  501    0  0.00000000000E+00  0.00000000000E+00 -0.13420887285E+04  0.13420887285E+04  0.50400001928E-02 0. -1.
    10030    2    1    2    0    0  0.00000000000E+00  0.00000000000E+00 -0.76631123198E+02  0.26075463337E+04  0.26064200647E+04 0.  0.
        1    1    3    3  502    0  0.14837778045E+03 -0.11081376293E+04 -0.70821032603E+03  0.13234601759E+04  0.50400001928E-02 0. -1.
       -1    1    3    3    0  502 -0.14837778045E+03  0.11081376293E+04  0.63157920283E+03  0.12840861578E+04  0.50400001928E-02 0.  1.
</event>
<event>
 5   0  0.9855352E-06  0.2580808E+04  0.7818609E-02  0.8374750E-01
        1   -1    0    0  501    0  0.00000000000E+00  0.00000000000E+00  0.17801986146E+04  0.17801986146E+04  0.50400001928E-02 0. -1.
       -1   -1    0    0    0  501  0.00000000000E+00  0.00000000000E+00 -0.93536907289E+03  0.93536907291E+03  0.50400001928E-02 0.  1.
    10030    2    1    2    0    0  0.00000000000E+00  0.00000000000E+00  0.84482954171E+03  0.27155676875E+04  0.25808081895E+04 0.  0.
        2    1    3    3  502    0 -0.38508984973E+03 -0.87690066859E+03 -0.48755058245E+03  0.10746881154E+04  0.25500000920E-02 0.  1.
       -2    1    3    3    0  502  0.38508984973E+03  0.87690066859E+03  0.13323801242E+04  0.16408795721E+04  0.25500000920E-02 0. -1.
</event>
<event>
 5   0  0.1005492E-05  0.2559344E+04  0.7818609E-02  0.8382144E-01
        1   -1    0    0  501    0  0.00000000000E+00  0.00000000000E+00  0.83797027674E+03  0.83797027676E+03  0.50400001928E-02 0.  1.
       -1   -1    0    0    0  501  0.00000000000E+00  0.00000000000E+00 -0.19541990975E+04  0.19541990975E+04  0.50400001928E-02 0. -1.
    10030    2    1    2    0    0  0.00000000000E+00  0.00000000000E+00 -0.11162288208E+04  0.27921693743E+04  0.25593442587E+04 0.  0.
        4    1    3    3  502    0  0.11647033557E+04 -0.35762788598E+03 -0.13120109870E+03  0.12254170526E+04  0.12699999809E+01 0. -1.
       -4    1    3    3    0  502 -0.11647033557E+04  0.35762788598E+03 -0.98502772209E+03  0.15667523217E+04  0.12699999809E+01 0.  1.
</event>
<event>
 5   0  0.1005492E-05  0.2624515E+04  0.7818609E-02  0.8359921E-01
       -1   -1    0    0    0  501  0.00000000000E+00  0.00000000000E+00  0.14332007111E+04  0.14332007111E+04  0.50400001928E-02 0. -1.
        1   -1    0    0  501    0  0.00000000000E+00  0.00000000000E+00 -0.12015201412E+04  0.12015201412E+04  0.50400001928E-02 0.  1.
    10030    2    1    2    0    0  0.00000000000E+00  0.00000000000E+00  0.23168056986E+03  0.26347208523E+04  0.26245148282E+04 0.  0.
        4    1    3    3  502    0 -0.91447525118E+02  0.28171374300E+03  0.13992061634E+04  0.14302114471E+04  0.12699999809E+01 0. -1.
       -4    1    3    3    0  502  0.91447525118E+02 -0.28171374300E+03 -0.11675255935E+04  0.12045094052E+04  0.12699999809E+01 0.  1.
</event>
<event>
 5   0  0.1025153E-05  0.2586863E+04  0.7818609E-02  0.8372677E-01
       -1   -1    0    0    0  501  0.00000000000E+00  0.00000000000E+00  0.19340123429E+04  0.19340123429E+04  0.50400001928E-02 0. -1.
        1   -1    0    0  501    0  0.00000000000E+00  0.00000000000E+00 -0.86502307823E+03  0.86502307824E+03  0.50400001928E-02 0.  1.
    10030    2    1    2    0    0  0.00000000000E+00  0.00000000000E+00  0.10689892647E+04  0.27990354211E+04  0.25868632049E+04 0.  0.
        1    1    3    3  502    0 -0.85403374165E+03 -0.94879524580E+03  0.75985419941E+03  0.14855855595E+04  0.50400001928E-02 0. -1.
       -1    1    3    3    0  502  0.85403374165E+03  0.94879524580E+03  0.30913506525E+03  0.13134498616E+04  0.50400001928E-02 0.  1.
</event>
<event>
 5   0  0.1000421E-05  0.2726946E+04  0.7818609E-02  0.8326315E-01
        1   -1    0    0  501    0  0.00000000000E+00  0.00000000000E+00  0.14082222018E+04  0.14082222018E+04  0.50400001928E-02 0.  1.
       -1   -1    0    0    0  501  0.00000000000E+00  0.00000000000E+00 -0.13201458963E+04  0.13201458963E+04  0.50400001928E-02 0. -1.
    10030    2    1    2    0    0  0.00000000000E+00  0.00000000000E+00  0.88076305519E+02  0.27283680981E+04  0.27269461019E+04 0.  0.
        3    1    3    3  502    0  0.20380435645E+03  0.13341798264E+04  0.23775400563E+03  0.13704375222E+04  0.10100000352E+00 0.  1.
       -3    1    3    3    0  502 -0.20380435645E+03 -0.13341798264E+04 -0.14967770011E+03  0.13579305759E+04  0.10100000352E+00 0. -1.
</event>
<event>
 5   0  0.1005492E-05  0.2578893E+04  0.7818609E-02  0.8375406E-01
       -1   -1    0    0    0  501  0.00000000000E+00  0.00000000000E+00  0.14723987739E+04  0.14723987739E+04  0.50400001928E-02 0.  1.
        1   -1    0    0  501    0  0.00000000000E+00  0.00000000000E+00 -0.11292268201E+04  0.11292268201E+04  0.50400001928E-02 0. -1.
    10030    2    1    2    0    0  0.00000000000E+00  0.00000000000E+00  0.34317195376E+03  0.26016255940E+04  0.25788929294E+04 0.  0.
        4    1    3    3  502    0  0.75072907218E+03  0.51104747396E+03 -0.75185548766E+03  0.11790046428E+04  0.12699999809E+01 0. -1.
       -4    1    3    3    0  502 -0.75072907218E+03 -0.51104747396E+03  0.10950274414E+04  0.14226209512E+04  0.12699999809E+01 0.  1.
</event>
<event>
 5   0  0.2484618E-05  0.2699716E+04  0.7818609E-02  0.8335097E-01
       -2   -1    0    0    0  501  0.00000000000E+00  0.00000000000E+00  0.85091002029E+03  0.85091002029E+03  0.25500000920E-02 0. -1.
        2   -1    0    0  501    0  0.00000000000E+00  0.00000000000E+00 -0.21413740448E+04  0.21413740448E+04  0.25500000920E-02 0.  1.
    10030    2    1    2    0    0  0.00000000000E+00  0.00000000000E+00 -0.12904640245E+04  0.29922840651E+04  0.26997160087E+04 0.  0.
        3    1    3    3  502    0 -0.49774611799E+03  0.50470261572E+03 -0.19184787956E+04  0.20452473756E+04  0.10100000352E+00 0.  1.
       -3    1    3    3    0  502  0.49774611799E+03 -0.50470261572E+03  0.62801477106E+03  0.94703668945E+03  0.10100000352E+00 0. -1.
</event>
<event>
 5   0  0.9855352E-06  0.2580095E+04  0.7818609E-02  0.8374994E-01
       -1   -1    0    0    0  501  0.00000000000E+00  0.00000000000E+00  0.12301416374E+04  0.12301416375E+04  0.50400001928E-02 0. -1.
        1   -1    0    0  501    0  0.00000000000E+00  0.00000000000E+00 -0.13528702597E+04  0.13528702597E+04  0.50400001928E-02 0.  1.
    10030    2    1    2    0    0  0.00000000000E+00  0.00000000000E+00 -0.12272862222E+03  0.25830118971E+04  0.25800946002E+04 0.  0.
        2    1    3    3  502    0 -0.12375626411E+04 -0.23044970923E+03 -0.34373584075E+03  0.13049224833E+04  0.25500000920E-02 0. -1.
       -2    1    3    3    0  502  0.12375626411E+04  0.23044970923E+03  0.22100721852E+03  0.12780894139E+04  0.25500000920E-02 0.  1.
</event>
<event>
 5   0  0.1000421E-05  0.2572465E+04  0.7818609E-02  0.8377615E-01
        1   -1    0    0  501    0  0.00000000000E+00  0.00000000000E+00  0.10564925197E+04  0.10564925197E+04  0.50400001928E-02 0. -1.
       -1   -1    0    0    0  501  0.00000000000E+00  0.00000000000E+00 -0.15659302746E+04  0.15659302746E+04  0.50400001928E-02 0.  1.
    10030    2    1    2    0    0  0.00000000000E+00  0.00000000000E+00 -0.50943775487E+03  0.26224227944E+04  0.25724646715E+04 0.  0.
        3    1    3    3  502    0  0.10806587998E+04  0.23166383121E+03 -0.92544945832E+03  0.14415090296E+04  0.10100000352E+00 0.  1.
       -3    1    3    3    0  502 -0.10806587998E+04 -0.23166383121E+03  0.41601170345E+03  0.11809137648E+04  0.10100000352E+00 0. -1.
</event>
<event>
 5   0  0.9855352E-06  0.2624452E+04  0.7818609E-02  0.8359943E-01
       -1   -1    0    0    0  501  0.00000000000E+00  0.00000000000E+00  0.11955743445E+04  0.11955743445E+04  0.50400001928E-02 0. -1.
        1   -1    0    0  501    0  0.00000000000E+00  0.00000000000E+00 -0.14402593519E+04  0.14402593519E+04  0.50400001928E-02 0.  1.
    10030    2    1    2    0    0  0.00000000000E+00  0.00000000000E+00 -0.24468500746E+03  0.26358336964E+04  0.26244520423E+04 0.  0.
        2    1    3    3  502    0 -0.12600051121E+04 -0.13028227775E+03 -0.46639312599E+03  0.13498551413E+04  0.25500000920E-02 0.  1.
       -2    1    3    3    0  502  0.12600051121E+04  0.13028227775E+03  0.22170811853E+03  0.12859785551E+04  0.25500000920E-02 0. -1.
</event>
<event>
 5   0  0.2555801E-05  0.2649365E+04  0.7818609E-02  0.8351624E-01
        2   -1    0    0  501    0  0.00000000000E+00  0.00000000000E+00  0.10715410561E+04  0.10715410561E+04  0.25500000920E-02 0.  1.
       -2   -1    0    0    0  501  0.00000000000E+00  0.00000000000E+00 -0.16376257935E+04  0.16376257935E+04  0.25500000920E-02 0. -1.
    10030    2    1    2    0    0  0.00000000000E+00  0.00000000000E+00 -0.56608473744E+03  0.27091668496E+04  0.26493646576E+04 0.  0.
        1    1    3    3  502    0  0.73232985333E+03 -0.27274004556E+03 -0.13768071700E+04  0.15831273258E+04  0.50400001928E-02 0. -1.
       -1    1    3    3    0  502 -0.73232985333E+03  0.27274004556E+03  0.81072243252E+03  0.11260395238E+04  0.50400001928E-02 0.  1.
</event>
<event>
 5   0  0.1025153E-05  0.2585601E+04  0.7818609E-02  0.8373109E-01
       -1   -1    0    0    0  501  0.00000000000E+00  0.00000000000E+00  0.14693072215E+04  0.14693072215E+04  0.50400001928E-02 0. -1.
        1   -1    0    0  501    0  0.00000000000E+00  0.00000000000E+00 -0.11374972187E+04  0.11374972187E+04  0.50400001928E-02 0.  1.
    10030    2    1    2    0    0  0.00000000000E+00  0.00000000000E+00  0.33181000281E+03  0.26068044402E+04  0.25856008028E+04 0.  0.
        1    1    3    3  502    0  0.29319549912E+02 -0.98517505646E+03  0.10093679586E+04  0.14107633408E+04  0.50400001928E-02 0. -1.
       -1    1    3    3    0  502 -0.29319549912E+02  0.98517505646E+03 -0.67755795579E+03  0.11960410994E+04  0.50400001928E-02 0.  1.
</event>
<event>
 5   0  0.2662024E-05  0.2156642E+04  0.7818609E-02  0.8536695E-01
        2   -1    0    0  501    0  0.00000000000E+00  0.00000000000E+00  0.12350899555E+04  0.12350899555E+04  0.25500000920E-02 0.  1.
       -2   -1    0    0    0  501  0.00000000000E+00  0.00000000000E+00 -0.94145025694E+03  0.94145025694E+03  0.25500000920E-02 0. -1.
    10030    2    1    2    0    0  0.00000000000E+00  0.00000000000E+00  0.29363969855E+03  0.21765402124E+04  0.21566416076E+04 0.  0.
        2    1    3    3  502    0 -0.59425938799E+03 -0.89940602286E+03  0.12011170420E+03  0.10846668777E+04  0.25500000920E-02 0. -1.
       -2    1    3    3    0  502  0.59425938799E+03  0.89940602286E+03  0.17352799435E+03  0.10918733347E+04  0.25500000920E-02 0.  1.
</event>
<event>
 5   0  0.1034714E-05  0.2671097E+04  0.7818609E-02  0.8344444E-01
       -1   -1    0    0    0  501  0.00000000000E+00  0.00000000000E+00  0.91538283730E+03  0.91538283731E+03  0.50400001928E-02 0.  1.
        1   -1    0    0  501    0  0.00000000000E+00  0.00000000000E+00 -0.19485731484E+04  0.19485731484E+04  0.50400001928E-02 0. -1.
    10030    2    1    2    0    0  0.00000000000E+00  0.00000000000E+00 -0.10331903111E+04  0.28639559857E+04  0.26710974653E+04 0.  0.
        5    1    3    3  502    0  0.51583719482E+03  0.97497557249E+03 -0.13239589368E+04  0.17232396046E+04  0.46999998093E+01 0. -1.
       -5    1    3    3    0  502 -0.51583719482E+03 -0.97497557249E+03  0.29076862569E+03  0.11407163811E+04  0.46999998093E+01 0.  1.
</event>
<event>
 5   0  0.1025153E-05  0.2528965E+04  0.7818609E-02  0.8392739E-01
       -1   -1    0    0    0  501  0.00000000000E+00  0.00000000000E+00  0.91859581153E+03  0.91859581154E+03  0.50400001928E-02 0. -1.
        1   -1    0    0  501    0  0.00000000000E+00  0.00000000000E+00 -0.17406081859E+04  0.17406081859E+04  0.50400001928E-02 0.  1.
    10030    2    1    2    0    0  0.00000000000E+00  0.00000000000E+00 -0.82201237437E+03  0.26592039974E+04  0.25289645226E+04 0.  0.
        1    1    3    3  502    0 -0.10333805356E+04 -0.70066884666E+03 -0.20043518308E+03  0.12645103505E+04  0.50400001928E-02 0.  1.
       -1    1    3    3    0  502  0.10333805356E+04  0.70066884666E+03 -0.62157719128E+03  0.13946936469E+04  0.50400001928E-02 0. -1.
</event>
<event>
 5   0  0.1000421E-05  0.2745813E+04  0.7818609E-02  0.8320291E-01
        1   -1    0    0  501    0  0.00000000000E+00  0.00000000000E+00  0.24755107261E+04  0.24755107261E+04  0.50400001928E-02 0.  1.
       -1   -1    0    0    0  501  0.00000000000E+00  0.00000000000E+00 -0.76140757888E+03  0.76140757890E+03  0.50400001928E-02 0. -1.
    10030    2    1    2    0    0  0.00000000000E+00  0.00000000000E+00  0.17141031472E+04  0.32369183050E+04  0.27458132700E+04 0.  0.
        3    1    3    3  502    0  0.12981884725E+03  0.47295063913E+03  0.23687188211E+04  0.24189593018E+04  0.10100000352E+00 0.  1.
       -3    1    3    3    0  502 -0.12981884725E+03 -0.47295063913E+03 -0.65461567390E+03  0.81795900317E+03  0.10100000352E+00 0. -1.
</event>
<event>
 5   0  0.2484618E-05  0.2585976E+04  0.7818609E-02  0.8372980E-01
        2   -1    0    0  501    0  0.00000000000E+00  0.00000000000E+00  0.16077022797E+04  0.16077022797E+04  0.25500000920E-02 0. -1.
       -2   -1    0    0    0  501  0.00000000000E+00  0.00000000000E+00 -0.10398806047E+04  0.10398806047E+04  0.25500000920E-02 0.  1.
    10030    2    1    2    0    0  0.00000000000E+00  0.00000000000E+00  0.56782167500E+03  0.26475828845E+04  0.25859763486E+04 0.  0.
        3    1    3    3  502    0  0.64635411582E+03  0.10871024223E+04  0.87077982279E+01  0.12647692104E+04  0.10100000352E+00 0.  1.
       -3    1    3    3    0  502 -0.64635411582E+03 -0.10871024223E+04  0.55911387677E+03  0.13828136740E+04  0.10100000352E+00 0. -1.
</event>
<event>
 5   0  0.2517854E-05  0.2581347E+04  0.7818609E-02  0.8374565E-01
       -2   -1    0    0    0  501  0.00000000000E+00  0.00000000000E+00  0.11144543007E+04  0.11144543007E+04  0.25500000920E-02 0.  1.
        2   -1    0    0  501    0  0.00000000000E+00  0.00000000000E+00 -0.14947570182E+04  0.14947570182E+04  0.25500000920E-02 0. -1.
    10030    2    1    2    0    0  0.00000000000E+00  0.00000000000E+00 -0.38030271757E+03  0.26092113189E+04  0.25813472354E+04 0.  0.
        4    1    3    3  502    0 -0.70972457459E+03 -0.10615500567E+04 -0.37989897927E+03  0.13322621146E+04  0.12699999809E+01 0. -1.
       -4    1    3    3    0  502  0.70972457459E+03  0.10615500567E+04 -0.40373829905E+00  0.12769492044E+04  0.12699999809E+01 0.  1.
</event>
<event>
 5   0  0.1025153E-05  0.2615821E+04  0.7818609E-02  0.8362847E-01
       -1   -1    0    0    0  501  0.00000000000E+00  0.00000000000E+00  0.11947970390E+04  0.11947970391E+04  0.50400001928E-02 0. -1.
        1   -1    0    0  501    0  0.00000000000E+00  0.00000000000E+00 -0.14317323570E+04  0.14317323570E+04  0.50400001928E-02 0.  1.
    10030    2    1    2    0    0  0.00000000000E+00  0.00000000000E+00 -0.23693531791E+03  0.26265293960E+04  0.26158207743E+04 0.  0.
        1    1    3    3  502    0 -0.37726841413E+03  0.12504489521E+04 -0.49809794527E+02  0.13070711740E+04  0.50400001928E-02 0.  1.
       -1    1    3    3    0  502  0.37726841413E+03 -0.12504489521E+04 -0.18712552338E+03  0.13194582220E+04  0.50400001928E-02 0. -1.
</event>
<event>
 5   0  0.1034714E-05  0.2289876E+04  0.7818609E-02  0.8481924E-01
       -1   -1    0    0    0  501  0.00000000000E+00  0.00000000000E+00  0.12409883370E+04  0.12409883370E+04  0.50400001928E-02 0. -1.
        1   -1    0    0  501    0  0.00000000000E+00  0.00000000000E+00 -0.10563219616E+04  0.10563219616E+04  0.50400001928E-02 0.  1.
    10030    2    1    2    0    0  0.00000000000E+00  0.00000000000E+00  0.18466637541E+03  0.22973102986E+04  0.22898761840E+04 0.  0.
        5    1    3    3  502    0  0.40948878031E+03  0.11393050255E+03  0.11588931979E+04  0.12343892234E+04  0.46999998093E+01 0. -1.
       -5    1    3    3    0  502 -0.40948878031E+03 -0.11393050255E+03 -0.97422682250E+03  0.10629210753E+04  0.46999998093E+01 0.  1.
</event>
<event>
 5   0  0.2484618E-05  0.2488858E+04  0.7818609E-02  0.8406966E-01
        2   -1    0    0  501    0  0.00000000000E+00  0.00000000000E+00  0.16914329386E+04  0.16914329386E+04  0.25500000920E-02 0.  1.
       -2   -1    0    0    0  501  0.00000000000E+00  0.00000000000E+00 -0.91555693024E+03  0.91555693024E+03  0.25500000920E-02 0. -1.
    10030    2    1    2    0    0  0.00000000000E+00  0.00000000000E+00  0.77587600840E+03  0.26069898689E+04  0.24888576890E+04 0.  0.
        3    1    3    3  502    0  0.54805991303E+02  0.48797662767E+03 -0.80978534426E+03  0.94703600767E+03  0.10100000352E+00 0. -1.
       -3    1    3    3    0  502 -0.54805991303E+02 -0.48797662767E+03  0.15856613527E+04  0.16599538612E+04  0.10100000352E+00 0.  1.
</event>
<event>
 5   0  0.1005492E-05  0.2630086E+04  0.7818609E-02  0.8358053E-01
       -1   -1    0    0    0  501  0.00000000000E+00  0.00000000000E+00  0.15981039170E+04  0.15981039170E+04  0.50400001928E-02 0.  1.
        1   -1    0    0  501    0  0.00000000000E+00  0.00000000000E+00 -0.10821190415E+04  0.10821190416E+04  0.50400001928E-02 0. -1.
    10030    2    1    2    0    0  0.00000000000E+00  0.00000000000E+00  0.51598487541E+03  0.26802229585E+04  0.26300864464E+04 0.  0.
        4    1    3    3  502    0 -0.27475918834E+03  0.12764908676E+04  0.98759142382E+02  0.13094565773E+04  0.12699999809E+01 0.  1.
       -4    1    3    3    0  502  0.27475918834E+03 -0.12764908676E+04  0.41722573303E+03  0.13707663812E+04  0.12699999809E+01 0. -1.
</event>
<event>
 5   0  0.2484618E-05  0.2192190E+04  0.7818609E-02  0.8521686E-01
        2   -1    0    0  501    0  0.00000000000E+00  0.00000000000E+00  0.10893768924E+04  0.10893768924E+04  0.25500000920E-02 0.  1.
       -2   -1    0    0    0  501  0.00000000000E+00  0.00000000000E+00 -0.11028545244E+04  0.11028545244E+04  0.25500000920E-02 0. -1.
    10030    2    1    2    0    0  0.00000000000E+00  0.00000000000E+00 -0.13477632001E+02  0.21922314169E+04  0.21921899869E+04 0.  0.
        3    1    3    3  502    0 -0.79843632306E+03 -0.61609148889E+03 -0.43611267182E+03  0.10987554584E+04  0.10100000352E+00 0. -1.
       -3    1    3    3    0  502  0.79843632306E+03  0.61609148889E+03  0.42263503982E+03  0.10934759585E+04  0.10100000352E+00 0.  1.
</event>
<event>
 5   0  0.1034714E-05  0.2648969E+04  0.7818609E-02  0.8351755E-01
       -1   -1    0    0    0  501  0.00000000000E+00  0.00000000000E+00  0.10063841369E+04  0.10063841369E+04  0.50400001928E-02 0.  1.
        1   -1    0    0  501    0  0.00000000000E+00  0.00000000000E+00 -0.17431305483E+04  0.17431305483E+04  0.50400001928E-02 0. -1.
    10030    2    1    2    0    0  0.00000000000E+00  0.00000000000E+00 -0.73674641138E+03  0.27495146852E+04  0.26489688049E+04 0.  0.
        5    1    3    3  502    0 -0.63001303273E+03 -0.66647334602E+03  0.62347767939E+03  0.11089858651E+04  0.46999998093E+01 0.  1.
       -5    1    3    3    0  502  0.63001303273E+03  0.66647334602E+03 -0.13602240908E+04  0.16405288201E+04  0.46999998093E+01 0. -1.
</event>
<event>
 5   0  0.9855352E-06  0.2587054E+04  0.7818609E-02  0.8372612E-01
        1   -1    0    0  501    0  0.00000000000E+00  0.00000000000E+00  0.12131555622E+04  0.12131555622E+04  0.50400001928E-02 0. -1.
       -1   -1    0    0    0  501  0.00000000000E+00  0.00000000000E+00 -0.13792232943E+04  0.13792232943E+04  0.50400001928E-02 0.  1.
    10030    2    1    2    0    0  0.00000000000E+00  0.00000000000E+00 -0.16606773208E+03  0.25923788565E+04  0.25870542406E+04 0.  0.
        2    1    3    3  502    0 -0.18797586082E+03  0.11030089133E+04  0.56733880994E+03  0.12545265690E+04  0.25500000920E-02 0. -1.
       -2    1    3    3    0  502  0.18797586082E+03 -0.11030089133E+04 -0.73340654201E+03  0.13378522874E+04  0.25500000920E-02 0.  1.
</event>
<event>
 5   0  0.2528460E-05  0.2546356E+04  0.7818609E-02  0.8386655E-01
        2   -1    0    0  501    0  0.00000000000E+00  0.00000000000E+00  0.14607718943E+04  0.14607718943E+04  0.25500000920E-02 0. -1.
       -2   -1    0    0    0  501  0.00000000000E+00  0.00000000000E+00 -0.11096750716E+04  0.11096750716E+04  0.25500000920E-02 0.  1.
    10030    2    1    2    0    0  0.00000000000E+00  0.00000000000E+00  0.35109682272E+03  0.25704469658E+04  0.25463559502E+04 0.  0.
        5    1    3    3  502    0 -0.83937691393E+03 -0.87568461481E+03 -0.21487022090E+03  0.12318962822E+04  0.46999998093E+01 0.  1.
       -5    1    3    3    0  502  0.83937691393E+03  0.87568461481E+03  0.56596704362E+03  0.13385506837E+04  0.46999998093E+01 0. -1.
</event>
<event>
 5   0  0.1025153E-05  0.2662532E+04  0.7818609E-02  0.8347266E-01
        1   -1    0    0  501    0  0.00000000000E+00  0.00000000000E+00  0.22320099070E+04  0.22320099070E+04  0.50400001928E-02 0. -1.
       -1   -1    0    0    0  501  0.00000000000E+00  0.00000000000E+00 -0.79402363043E+03  0.79402363045E+03  0.50400001928E-02 0.  1.
    10030    2    1    2    0    0  0.00000000000E+00  0.00000000000E+00  0.14379862766E+04  0.30260335375E+04  0.26625315845E+04 0.  0.
        1    1    3    3  502    0 -0.11668234050E+03 -0.11301607525E+04  0.15075404089E+04  0.18877383769E+04  0.50400001928E-02 0. -1.
       -1    1    3    3    0  502  0.11668234050E+03  0.11301607525E+04 -0.69554132346E+02  0.11382951605E+04  0.50400001928E-02 0.  1.
</event>
<event>
 5   0  0.1025153E-05  0.2579744E+04  0.7818609E-02  0.8375114E-01
        1   -1    0    0  501    0  0.00000000000E+00  0.00000000000E+00  0.17998371276E+04  0.17998371276E+04  0.50400001928E-02 0. -1.
       -1   -1    0    0    0  501  0.00000000000E+00  0.00000000000E+00 -0.92440003071E+03  0.92440003073E+03  0.50400001928E-02 0.  1.
    10030    2    1    2    0    0  0.00000000000E+00  0.00000000000E+00  0.87543709690E+03  0.27242371583E+04  0.25797437827E+04 0.  0.
        1    1    3    3  502    0 -0.87779851679E+03  0.89195012831E+02  0.14313138410E+04  0.16814116979E+04  0.50400001928E-02 0. -1.
       -1    1    3    3    0  502  0.87779851679E+03 -0.89195012831E+02 -0.55587674406E+03  0.10428254605E+04  0.50400001928E-02 0.  1.
</event>
<event>
 5   0  0.2484618E-05  0.2600686E+04  0.7818609E-02  0.8367968E-01
        2   -1    0    0  501    0  0.00000000000E+00  0.00000000000E+00  0.19429200547E+04  0.19429200547E+04  0.25500000920E-02 0. -1.
       -2   -1    0    0    0  501  0.00000000000E+00  0.00000000000E+00 -0.87028394107E+03  0.87028394107E+03  0.25500000920E-02 0.  1.
    10030    2    1    2    0    0  0.00000000000E+00  0.00000000000E+00  0.10726361136E+04  0.28132039958E+04  0.26006861575E+04 0.  0.
        3    1    3    3  502    0  0.12964852547E+03 -0.21021806323E+03  0.19173148136E+04  0.19331571273E+04  0.10100000352E+00 0. -1.
       -3    1    3    3    0  502 -0.12964852547E+03  0.21021806323E+03 -0.84467869998E+03  0.88004686844E+03  0.10100000352E+00 0.  1.
</event>
<event>
 5   0  0.1005492E-05  0.2610872E+04  0.7818609E-02  0.8364517E-01
        1   -1    0    0  501    0  0.00000000000E+00  0.00000000000E+00  0.28007054591E+04  0.28007054591E+04  0.50400001928E-02 0. -1.
       -1   -1    0    0    0  501  0.00000000000E+00  0.00000000000E+00 -0.60847655449E+03  0.60847655452E+03  0.50400001928E-02 0.  1.
    10030    2    1    2    0    0  0.00000000000E+00  0.00000000000E+00  0.21922289046E+04  0.34091820137E+04  0.26108723507E+04 0.  0.
        4    1    3    3  502    0  0.79761662460E+02  0.39811805221E+03 -0.52392831202E+03  0.66284417122E+03  0.12699999809E+01 0.  1.
       -4    1    3    3    0  502 -0.79761662460E+02 -0.39811805221E+03  0.27161572167E+04  0.27463378424E+04  0.12699999809E+01 0. -1.
</event>
<event>
 5   0  0.1025153E-05  0.2615754E+04  0.7818609E-02  0.8362869E-01
       -1   -1    0    0    0  501  0.00000000000E+00  0.00000000000E+00  0.16072857881E+04  0.16072857881E+04  0.50400001928E-02 0.  1.
        1   -1    0    0  501    0  0.00000000000E+00  0.00000000000E+00 -0.10642430252E+04  0.10642430252E+04  0.50400001928E-02 0. -1.
    10030    2    1    2    0    0  0.00000000000E+00  0.00000000000E+00  0.54304276293E+03  0.26715288134E+04  0.26157543383E+04 0.  0.
        1    1    3    3  502    0 -0.96881739461E+03  0.63188808037E+03 -0.35194812723E+03  0.12090315027E+04  0.50400001928E-02 0. -1.
       -1    1    3    3    0  502  0.96881739461E+03 -0.63188808037E+03  0.89499089016E+03  0.14624973107E+04  0.50400001928E-02 0.  1.
</event>
<event>
 5   0  0.2528460E-05  0.2605719E+04  0.7818609E-02  0.8366261E-01
       -2   -1    0    0    0  501  0.00000000000E+00  0.00000000000E+00  0.82599181872E+03  0.82599181873E+03  0.25500000920E-02 0.  1.
        2   -1    0    0  501    0  0.00000000000E+00  0.00000000000E+00 -0.20550354456E+04  0.20550354456E+04  0.25500000920E-02 0. -1.
    10030    2    1    2    0    0  0.00000000000E+00  0.00000000000E+00 -0.12290436269E+04  0.28810272643E+04  0.26057186842E+04 0.  0.
        5    1    3    3  502    0 -0.43350150205E+02  0.12637950310E+04 -0.96128764387E+03  0.15884436220E+04  0.46999998093E+01 0. -1.
       -5    1    3    3    0  502  0.43350150205E+02 -0.12637950310E+04 -0.26775598300E+03  0.12925836423E+04  0.46999998093E+01 0.  1.
</event>
<event>
 5   0  0.1034714E-05  0.2639039E+04  0.7818609E-02  0.8355060E-01
       -1   -1    0    0    0  501  0.00000000000E+00  0.00000000000E+00  0.18068174244E+04  0.18068174244E+04  0.50400001928E-02 0.  1.
        1   -1    0    0  501    0  0.00000000000E+00  0.00000000000E+00 -0.96364561225E+03  0.96364561226E+03  0.50400001928E-02 0. -1.
    10030    2    1    2    0    0  0.00000000000E+00  0.00000000000E+00  0.84317181218E+03  0.27704630367E+04  0.26390389790E+04 0.  0.
        5    1    3    3  502    0 -0.10171700872E+03 -0.55349915706E+03  0.16745044340E+04  0.17665488547E+04  0.46999998093E+01 0.  1.
       -5    1    3    3    0  502  0.10171700872E+03  0.55349915706E+03 -0.83133262179E+03  0.10039141820E+04  0.46999998093E+01 0. -1.
</event>
<event>
 5   0  0.2484618E-05  0.2567090E+04  0.7818609E-02  0.8379467E-01
       -2   -1    0    0    0  501  0.00000000000E+00  0.00000000000E+00  0.11628296961E+04  0.11628296961E+04  0.25500000920E-02 0.  1.
        2   -1    0    0  501    0  0.00000000000E+00  0.00000000000E+00 -0.14167921899E+04  0.14167921899E+04  0.25500000920E-02 0. -1.
    10030    2    1    2    0    0  0.00000000000E+00  0.00000000000E+00 -0.25396249384E+03  0.25796218860E+04  0.25670902061E+04 0.  0.
        3    1    3    3  502    0 -0.42107964677E+03  0.26296855122E+02  0.10911610081E+04  0.11698854428E+04  0.10100000352E+00 0.  1.
       -3    1    3    3    0  502  0.42107964677E+03 -0.26296855122E+02 -0.13451235019E+04  0.14097364432E+04  0.10100000352E+00 0. -1.
</event>
<event>
 5   0  0.9855352E-06  0.2655915E+04  0.7818609E-02  0.8349452E-01
        1   -1    0    0  501    0  0.00000000000E+00  0.00000000000E+00  0.13696084190E+04  0.13696084190E+04  0.50400001928E-02 0.  1.
       -1   -1    0    0    0  501  0.00000000000E+00  0.00000000000E+00 -0.12875735023E+04  0.12875735023E+04  0.50400001928E-02 0. -1.
    10030    2    1    2    0    0  0.00000000000E+00  0.00000000000E+00  0.82034916725E+02  0.26571819213E+04  0.26559152915E+04 0.  0.
        2    1    3    3  502    0 -0.49646341997E+03  0.74373174615E+03  0.10232487123E+04  0.13589152898E+04  0.25500000920E-02 0.  1.
       -2    1    3    3    0  502  0.49646341997E+03 -0.74373174615E+03 -0.94121379556E+03  0.12982666315E+04  0.25500000920E-02 0. -1.
</event>
<event>
 5   0  0.1005492E-05  0.2620000E+04  0.7818609E-02  0.8361439E-01
       -1   -1    0    0    0  501  0.00000000000E+00  0.00000000000E+00  0.94299473737E+03  0.94299473739E+03  0.50400001928E-02 0. -1.
        1   -1    0    0  501    0  0.00000000000E+00  0.00000000000E+00 -0.18198400787E+04  0.18198400787E+04  0.50400001928E-02 0.  1.
    10030    2    1    2    0    0  0.00000000000E+00  0.00000000000E+00 -0.87684534132E+03  0.27628348161E+04  0.26199997077E+04 0.  0.
        4    1    3    3  502    0 -0.53426930244E+02 -0.81687908421E+03  0.64005108576E+03  0.10391404527E+04  0.12699999809E+01 0. -1.
       -4    1    3    3    0  502  0.53426930244E+02  0.81687908421E+03 -0.15168964271E+04  0.17236943634E+04  0.12699999809E+01 0.  1.
</event>
<event>
 5   0  0.1025153E-05  0.2600044E+04  0.7818609E-02  0.8368186E-01
        1   -1    0    0  501    0  0.00000000000E+00  0.00000000000E+00  0.16669750478E+04  0.16669750478E+04  0.50400001928E-02 0. -1.
       -1   -1    0    0    0  501  0.00000000000E+00  0.00000000000E+00 -0.10138467756E+04  0.10138467756E+04  0.50400001928E-02 0.  1.
    10030    2    1    2    0    0  0.00000000000E+00  0.00000000000E+00  0.65312827221E+03  0.26808218234E+04  0.26000440590E+04 0.  0.
        1    1    3    3  502    0 -0.90206712712E+03  0.91218829792E+03  0.10968499038E+03  0.12875726736E+04  0.50400001928E-02 0. -1.
       -1    1    3    3    0  502  0.90206712712E+03 -0.91218829792E+03  0.54344328183E+03  0.13932491498E+04  0.50400001928E-02 0.  1.
</event>
<event>
 5   0  0.1005492E-05  0.2637273E+04  0.7818609E-02  0.8355649E-01
       -1   -1    0    0    0  501  0.00000000000E+00  0.00000000000E+00  0.67105999683E+03  0.67105999685E+03  0.50400001928E-02 0. -1.
        1   -1    0    0  501    0  0.00000000000E+00  0.00000000000E+00 -0.25911287438E+04  0.25911287438E+04  0.50400001928E-02 0.  1.
    10030    2    1    2    0    0  0.00000000000E+00  0.00000000000E+00 -0.19200687470E+04  0.32621887406E+04  0.26372734759E+04 0.  0.
        4    1    3    3  502    0 -0.10152932998E+04 -0.26053627322E+03  0.29608208585E+02  0.10486075973E+04  0.12699999809E+01 0. -1.
       -4    1    3    3    0  502  0.10152932998E+04  0.26053627322E+03 -0.19496769555E+04  0.22135811433E+04  0.12699999809E+01 0.  1.
</event>
<event>
 5   0  0.2662024E-05  0.2602467E+04  0.7818609E-02  0.8367364E-01
       -2   -1    0    0    0  501  0.00000000000E+00  0.00000000000E+00  0.80937812921E+03  0.80937812921E+03  0.25500000920E-02 0. -1.
        2   -1    0    0  501    0  0.00000000000E+00  0.00000000000E+00 -0.20919872054E+04  0.20919872054E+04  0.25500000920E-02 0.  1.
    10030    2    1    2    0    0  0.00000000000E+00  0.00000000000E+00 -0.12826090762E+04  0.29013653347E+04  0.26024670531E+04 0.  0.
        2    1    3    3  502    0  0.19272253792E+02  0.13779073663E+03  0.80106178461E+03  0.81305454284E+03  0.25500000920E-02 0. -1.
       -2    1    3    3    0  502 -0.19272253792E+02 -0.13779073663E+03 -0.20836708608E+04  0.20883107918E+04  0.25500000920E-02 0.  1.
</event>
<event>
 5   0  0.2555801E-05  0.2610707E+04  0.7818609E-02  0.8364573E-01
        2   -1    0    0  501    0  0.00000000000E+00  0.00000000000E+00  0.21389887311E+04  0.21389887311E+04  0.25500000920E-02 0. -1.
       -2   -1    0    0    0  501  0.00000000000E+00  0.00000000000E+00 -0.79661367223E+03  0.79661367223E+03  0.25500000920E-02 0.  1.
    10030    2    1    2    0    0  0.00000000000E+00  0.00000000000E+00  0.13423750589E+04  0.29356024034E+04  0.26107069295E+04 0.  0.
        1    1    3    3  502    0  0.48647778806E+03 -0.54070224663E+03  0.18900220888E+04  0.20251427243E+04  0.50400001928E-02 0. -1.
       -1    1    3    3    0  502 -0.48647778806E+03  0.54070224663E+03 -0.54764702988E+03  0.91045967904E+03  0.50400001928E-02 0.  1.
</event>
<event>
 5   0  0.2484618E-05  0.2459660E+04  0.7818609E-02  0.8417499E-01
       -2   -1    0    0    0  501  0.00000000000E+00  0.00000000000E+00  0.72414681207E+03  0.72414681207E+03  0.25500000920E-02 0. -1.
        2   -1    0    0  501    0  0.00000000000E+00  0.00000000000E+00 -0.20886400923E+04  0.20886400923E+04  0.25500000920E-02 0.  1.
    10030    2    1    2    0    0  0.00000000000E+00  0.00000000000E+00 -0.13644932803E+04  0.28127869044E+04  0.24596601915E+04 0.  0.
        3    1    3    3  502    0 -0.14337002223E+03 -0.26757395120E+03 -0.20451232674E+04  0.20675299204E+04  0.10100000352E+00 0.  1.
       -3    1    3    3    0  502  0.14337002223E+03  0.26757395120E+03  0.68062998714E+03  0.74525698402E+03  0.10100000352E+00 0. -1.
</event>
<event>
 5   0  0.2555801E-05  0.2592954E+04  0.7818609E-02  0.8370599E-01
       -2   -1    0    0    0  501  0.00000000000E+00  0.00000000000E+00  0.15993334073E+04  0.15993334073E+04  0.25500000920E-02 0.  1.
        2   -1    0    0  501    0  0.00000000000E+00  0.00000000000E+00 -0.10509706618E+04  0.10509706618E+04  0.25500000920E-02 0. -1.
    10030    2    1    2    0    0  0.00000000000E+00  0.00000000000E+00  0.54836274556E+03  0.26503040691E+04  0.25929539059E+04 0.  0.
        1    1    3    3  502    0  0.27769262771E+03  0.98627317362E+03 -0.53774592352E+03  0.11571597326E+04  0.50400001928E-02 0. -1.
       -1    1    3    3    0  502 -0.27769262771E+03 -0.98627317362E+03  0.10861086691E+04  0.14931443365E+04  0.50400001928E-02 0.  1.
</event>
<event>
 5   0  0.2517854E-05  0.2614515E+04  0.7818609E-02  0.8363288E-01
        2   -1    0    0  501    0  0.00000000000E+00  0.00000000000E+00  0.19652952125E+04  0.19652952125E+04  0.25500000920E-02 0. -1.
       -2   -1    0    0    0  501  0.00000000000E+00  0.00000000000E+00 -0.86954964893E+03  0.86954964893E+03  0.25500000920E-02 0.  1.
    10030    2    1    2    0    0  0.00000000000E+00  0.00000000000E+00  0.10957455636E+04  0.28348448615E+04  0.26145146870E+04 0.  0.
        4    1    3    3  502    0 -0.69863152440E+03  0.20055036502E+03 -0.63025424519E+03  0.96204390871E+03  0.12699999809E+01 0.  1.
       -4    1    3    3    0  502  0.69863152440E+03 -0.20055036502E+03  0.17259998088E+04  0.18728009528E+04  0.12699999809E+01 0. -1.
</event>
<event>
 5   0  0.1000421E-05  0.2595429E+04  0.7818609E-02  0.8369755E-01
        1   -1    0    0  501    0  0.00000000000E+00  0.00000000000E+00  0.25482188633E+04  0.25482188634E+04  0.50400001928E-02 0.  1.
       -1   -1    0    0    0  501  0.00000000000E+00  0.00000000000E+00 -0.66087863505E+03  0.66087863507E+03  0.50400001928E-02 0. -1.
    10030    2    1    2    0    0  0.00000000000E+00  0.00000000000E+00  0.18873402283E+04  0.32090974984E+04  0.25954293704E+04 0.  0.
        3    1    3    3  502    0 -0.57910995088E+03 -0.10908897299E+04  0.14361631662E+04  0.18941946542E+04  0.10100000352E+00 0.  1.
       -3    1    3    3    0  502  0.57910995088E+03  0.10908897299E+04  0.45117706214E+03  0.13149028442E+04  0.10100000352E+00 0. -1.
</event>
<event>
 5   0  0.1025153E-05  0.2652056E+04  0.7818609E-02  0.8350731E-01
        1   -1    0    0  501    0  0.00000000000E+00  0.00000000000E+00  0.22858618280E+04  0.22858618280E+04  0.50400001928E-02 0.  1.
       -1   -1    0    0    0  501  0.00000000000E+00  0.00000000000E+00 -0.76922861428E+03  0.76922861430E+03  0.50400001928E-02 0. -1.
    10030    2    1    2    0    0  0.00000000000E+00  0.00000000000E+00  0.15166332137E+04  0.30550904423E+04  0.26520560525E+04 0.  0.
        1    1    3    3  502    0 -0.64336691348E+03  0.47792231406E+03  0.19752793542E+04  0.21316799129E+04  0.50400001928E-02 0.  1.
       -1    1    3    3    0  502  0.64336691348E+03 -0.47792231406E+03 -0.45864614052E+03  0.92341052944E+03  0.50400001928E-02 0. -1.
</event>
<event>
 5   0  0.1034714E-05  0.2626731E+04  0.7818609E-02  0.8359178E-01
       -1   -1    0    0    0  501  0.00000000000E+00  0.00000000000E+00  0.11884530661E+04  0.11884530661E+04  0.50400001928E-02 0.  1.
        1   -1    0    0  501    0  0.00000000000E+00  0.00000000000E+00 -0.14514069096E+04  0.14514069096E+04  0.50400001928E-02 0. -1.
    10030    2    1    2    0    0  0.00000000000E+00  0.00000000000E+00 -0.26295384352E+03  0.26398599758E+04  0.26267310422E+04 0.  0.
        5    1    3    3  502    0  0.15564802615E+03  0.91273839391E+03  0.80462332154E+03  0.12266859677E+04  0.46999998093E+01 0.  1.
       -5    1    3    3    0  502 -0.15564802615E+03 -0.91273839391E+03 -0.10675771651E+04  0.14131740081E+04  0.46999998093E+01 0. -1.
</event>
<event>
 5   0  0.1025153E-05  0.2621795E+04  0.7818609E-02  0.8360835E-01
       -1   -1    0    0    0  501  0.00000000000E+00  0.00000000000E+00  0.63180449192E+03  0.63180449194E+03  0.50400001928E-02 0.  1.
        1   -1    0    0  501    0  0.00000000000E+00  0.00000000000E+00 -0.27199115728E+04  0.27199115728E+04  0.50400001928E-02 0. -1.
    10030    2    1    2    0    0  0.00000000000E+00  0.00000000000E+00 -0.20881070808E+04  0.33517160647E+04  0.26217950716E+04 0.  0.
        1    1    3    3  502    0  0.12096410161E+04 -0.49198070375E+03 -0.11907972265E+04  0.17672788222E+04  0.50400001928E-02 0. -1.
       -1    1    3    3    0  502 -0.12096410161E+04  0.49198070375E+03 -0.89730985434E+03  0.15844372425E+04  0.50400001928E-02 0.  1.
</event>
<event>
 5   0  0.1005492E-05  0.2594996E+04  0.7818609E-02  0.8369903E-01
       -1   -1    0    0    0  501  0.00000000000E+00  0.00000000000E+00  0.96631445674E+03  0.96631445676E+03  0.50400001928E-02 0.  1.
        1   -1    0    0  501    0  0.00000000000E+00  0.00000000000E+00 -0.17421876927E+04  0.17421876927E+04  0.50400001928E-02 0. -1.
    10030    2    1    2    0    0  0.00000000000E+00  0.00000000000E+00 -0.77587323591E+03  0.27085021494E+04  0.25949960723E+04 0.  0.
        4    1    3    3  502    0  0.11404440453E+04 -0.24337946278E+03  0.20585291540E+03  0.11841550654E+04  0.12699999809E+01 0.  1.
       -4    1    3    3    0  502 -0.11404440453E+04  0.24337946278E+03 -0.98172615131E+03  0.15243470840E+04  0.12699999809E+01 0. -1.
</event>
<event>
 5   0  0.1000421E-05  0.2536907E+04  0.7818609E-02  0.8389954E-01
        1   -1    0    0  501    0  0.00000000000E+00  0.00000000000E+00  0.18884961971E+04  0.18884961971E+04  0.50400001928E-02 0. -1.
       -1   -1    0    0    0  501  0.00000000000E+00  0.00000000000E+00 -0.85198691595E+03  0.85198691596E+03  0.50400001928E-02 0.  1.
    10030    2    1    2    0    0  0.00000000000E+00  0.00000000000E+00  0.10365092812E+04  0.27404831131E+04  0.25369068180E+04 0.  0.
        3    1    3    3  502    0 -0.44724462726E+03  0.65752489032E+03 -0.54928152879E+03  0.96647656261E+03  0.10100000352E+00 0.  1.
       -3    1    3    3    0  502  0.44724462726E+03 -0.65752489032E+03  0.15857908100E+04  0.17740065505E+04  0.10100000352E+00 0. -1.
</event>
<event>
 5   0  0.2517854E-05  0.2624152E+04  0.7818609E-02  0.8360043E-01
        2   -1    0    0  501    0  0.00000000000E+00  0.00000000000E+00  0.15870573628E+04  0.15870573628E+04  0.25500000920E-02 0.  1.
       -2   -1    0    0    0  501  0.00000000000E+00  0.00000000000E+00 -0.10847392319E+04  0.10847392319E+04  0.25500000920E-02 0. -1.
    10030    2    1    2    0    0  0.00000000000E+00  0.00000000000E+00  0.50231813089E+03  0.26717965946E+04  0.26241519656E+04 0.  0.
        4    1    3    3  502    0 -0.10122340458E+04 -0.54750299701E+03  0.89281114918E+03  0.14565337813E+04  0.12699999809E+01 0.  1.
       -4    1    3    3    0  502  0.10122340458E+04  0.54750299701E+03 -0.39049301829E+03  0.12152628133E+04  0.12699999809E+01 0. -1.
</event>
<event>
 5   0  0.9855352E-06  0.2366235E+04  0.7818609E-02  0.8452254E-01
       -1   -1    0    0    0  501  0.00000000000E+00  0.00000000000E+00  0.96595927238E+03  0.96595927239E+03  0.50400001928E-02 0. -1.
        1   -1    0    0  501    0  0.00000000000E+00  0.00000000000E+00 -0.14490952560E+04  0.14490952560E+04  0.50400001928E-02 0.  1.
    10030    2    1    2    0    0  0.00000000000E+00  0.00000000000E+00 -0.48313598364E+03  0.24150545284E+04  0.23662349834E+04 0.  0.
        2    1    3    3  502    0  0.78179166679E+03  0.62439632224E+03  0.40288480147E+03  0.10786033287E+04  0.25500000920E-02 0.  1.
       -2    1    3    3    0  502 -0.78179166679E+03 -0.62439632224E+03 -0.88602078511E+03  0.13364511997E+04  0.25500000920E-02 0. -1.
</event>
<event>
 5   0  0.1000421E-05  0.2581358E+04  0.7818609E-02  0.8374561E-01
        1   -1    0    0  501    0  0.00000000000E+00  0.00000000000E+00  0.24998466761E+04  0.24998466761E+04  0.50400001928E-02 0.  1.
       -1   -1    0    0    0  501  0.00000000000E+00  0.00000000000E+00 -0.66638177250E+03  0.66638177252E+03  0.50400001928E-02 0. -1.
    10030    2    1    2    0    0  0.00000000000E+00  0.00000000000E+00  0.18334649035E+04  0.31662284486E+04  0.25813579829E+04 0.  0.
        3    1    3    3  502    0 -0.17328766103E+03  0.33394315104E+03  0.24310956035E+04  0.24600350577E+04  0.10100000352E+00 0.  1.
       -3    1    3    3    0  502  0.17328766103E+03 -0.33394315104E+03 -0.59763069995E+03  0.70619339087E+03  0.10100000352E+00 0. -1.
</event>
<event>
 5   0  0.2528460E-05  0.2459057E+04  0.7818609E-02  0.8417719E-01
        2   -1    0    0  501    0  0.00000000000E+00  0.00000000000E+00  0.98661396502E+03  0.98661396502E+03  0.25500000920E-02 0.  1.
       -2   -1    0    0    0  501  0.00000000000E+00  0.00000000000E+00 -0.15322513108E+04  0.15322513108E+04  0.25500000920E-02 0. -1.
    10030    2    1    2    0    0  0.00000000000E+00  0.00000000000E+00 -0.54563734574E+03  0.25188652758E+04  0.24590571698E+04 0.  0.
        5    1    3    3  502    0  0.21456233910E+03 -0.10015990115E+04 -0.96941824335E+03  0.14103302442E+04  0.46999998093E+01 0. -1.
       -5    1    3    3    0  502 -0.21456233910E+03  0.10015990115E+04  0.42378089761E+03  0.11085350316E+04  0.46999998093E+01 0.  1.
</event>
<event>
 5   0  0.9855352E-06  0.2340476E+04  0.7818609E-02  0.8462131E-01
        1   -1    0    0  501    0  0.00000000000E+00  0.00000000000E+00  0.11009552224E+04  0.11009552225E+04  0.50400001928E-02 0.  1.
       -1   -1    0    0    0  501  0.00000000000E+00  0.00000000000E+00 -0.12438810190E+04  0.12438810190E+04  0.50400001928E-02 0. -1.
    10030    2    1    2    0    0  0.00000000000E+00  0.00000000000E+00 -0.14292579654E+03  0.23448362415E+04  0.23404762797E+04 0.  0.
        2    1    3    3  502    0 -0.92926836312E+03 -0.54062621534E+03  0.39161119179E+03  0.11441921696E+04  0.25500000920E-02 0. -1.
       -2    1    3    3    0  502  0.92926836312E+03  0.54062621534E+03 -0.53453698833E+03  0.12006440719E+04  0.25500000920E-02 0.  1.
</event>
<event>
 5   0  0.1034714E-05  0.2480433E+04  0.7818609E-02  0.8409990E-01
       -1   -1    0    0    0  501  0.00000000000E+00  0.00000000000E+00  0.77629481464E+03  0.77629481466E+03  0.50400001928E-02 0. -1.
        1   -1    0    0  501    0  0.00000000000E+00  0.00000000000E+00 -0.19813819697E+04  0.19813819697E+04  0.50400001928E-02 0.  1.
    10030    2    1    2    0    0  0.00000000000E+00  0.00000000000E+00 -0.12050871550E+04  0.27576767843E+04  0.24804326630E+04 0.  0.
        5    1    3    3  502    0 -0.82933735537E+03 -0.68069336025E+03 -0.12941434172E+04  0.16810631083E+04  0.46999998093E+01 0.  1.
       -5    1    3    3    0  502  0.82933735537E+03  0.68069336025E+03  0.89056262160E+02  0.10766136761E+04  0.46999998093E+01 0. -1.
</event>
<event>
 5   0  0.1034714E-05  0.2587407E+04  0.7818609E-02  0.8372491E-01
        1   -1    0    0  501    0  0.00000000000E+00  0.00000000000E+00  0.16217737543E+04  0.16217737543E+04  0.50400001928E-02 0.  1.
       -1   -1    0    0    0  501  0.00000000000E+00  0.00000000000E+00 -0.10319991050E+04  0.10319991050E+04  0.50400001928E-02 0. -1.
    10030    2    1    2    0    0  0.00000000000E+00  0.00000000000E+00  0.58977464928E+03  0.26537728593E+04  0.25874072450E+04 0.  0.
        5    1    3    3  502    0 -0.83356680345E+03 -0.56125473734E+03 -0.54075360023E+03  0.11411735373E+04  0.46999998093E+01 0. -1.
       -5    1    3    3    0  502  0.83356680345E+03  0.56125473734E+03  0.11305282495E+04  0.15125993220E+04  0.46999998093E+01 0.  1.
</event>
<event>
 5   0  0.2662024E-05  0.2572793E+04  0.7818609E-02  0.8377502E-01
       -2   -1    0    0    0  501  0.00000000000E+00  0.00000000000E+00  0.73401819055E+03  0.73401819055E+03  0.25500000920E-02 0.  1.
        2   -1    0    0  501    0  0.00000000000E+00  0.00000000000E+00 -0.22544618985E+04  0.22544618985E+04  0.25500000920E-02 0. -1.
    10030    2    1    2    0    0  0.00000000000E+00  0.00000000000E+00 -0.15204437079E+04  0.29884800890E+04  0.25727930685E+04 0.  0.
        2    1    3    3  502    0 -0.18068695833E+03  0.12276445143E+04 -0.11542274903E+04  0.16946975924E+04  0.25500000920E-02 0. -1.
       -2    1    3    3    0  502  0.18068695833E+03 -0.12276445143E+04 -0.36621621758E+03  0.12937824966E+04  0.25500000920E-02 0.  1.
</event>
<event>
 5   0  0.2662024E-05  0.2611667E+04  0.7818609E-02  0.8364249E-01
       -2   -1    0    0    0  501  0.00000000000E+00  0.00000000000E+00  0.98787433955E+03  0.98787433955E+03  0.25500000920E-02 0.  1.
        2   -1    0    0  501    0  0.00000000000E+00  0.00000000000E+00 -0.17261312601E+04  0.17261312601E+04  0.25500000920E-02 0. -1.
    10030    2    1    2    0    0  0.00000000000E+00  0.00000000000E+00 -0.73825692055E+03  0.27140055996E+04  0.26116667311E+04 0.  0.
        2    1    3    3  502    0 -0.36037320971E+03 -0.61591261808E+03  0.76733529696E+03  0.10478648106E+04  0.25500000920E-02 0.  1.
       -2    1    3    3    0  502  0.36037320971E+03  0.61591261808E+03 -0.15055922175E+04  0.16661407890E+04  0.25500000920E-02 0. -1.
</event>
<event>
 5   0  0.2528460E-05  0.2609250E+04  0.7818609E-02  0.8365066E-01
        2   -1    0    0  501    0  0.00000000000E+00  0.00000000000E+00  0.72044771766E+03  0.72044771767E+03  0.25500000920E-02 0.  1.
       -2   -1    0    0    0  501  0.00000000000E+00  0.00000000000E+00 -0.23624836862E+04  0.23624836862E+04  0.25500000920E-02 0. -1.
    10030    2    1    2    0    0  0.00000000000E+00  0.00000000000E+00 -0.16420359685E+04  0.30829314039E+04  0.26092496851E+04 0.  0.
        5    1    3    3  502    0 -0.10807193320E+04  0.66601788471E+03 -0.46559294669E+03  0.13521586369E+04  0.46999998093E+01 0.  1.
       -5    1    3    3    0  502  0.10807193320E+04 -0.66601788471E+03 -0.11764430218E+04  0.17307727670E+04  0.46999998093E+01 0. -1.
</event>
<event>
 5   0  0.2517854E-05  0.2490317E+04  0.7818609E-02  0.8406443E-01
       -2   -1    0    0    0  501  0.00000000000E+00  0.00000000000E+00  0.91597716811E+03  0.91597716811E+03  0.25500000920E-02 0. -1.
        2   -1    0    0  501    0  0.00000000000E+00  0.00000000000E+00 -0.16926404322E+04  0.16926404322E+04  0.25500000920E-02 0.  1.
    10030    2    1    2    0    0  0.00000000000E+00  0.00000000000E+00 -0.77666326406E+03  0.26086176003E+04  0.24903172406E+04 0.  0.
        4    1    3    3  502    0  0.88231599228E+03  0.65170636311E+03  0.22891028489E+03  0.11205374717E+04  0.12699999809E+01 0. -1.
       -4    1    3    3    0  502 -0.88231599228E+03 -0.65170636311E+03 -0.10055735490E+04  0.14880801286E+04  0.12699999809E+01 0.  1.
</event>
<event>
 5   0  0.1025153E-05  0.2564887E+04  0.7818609E-02  0.8380227E-01
        1   -1    0    0  501    0  0.00000000000E+00  0.00000000000E+00  0.18704107770E+04  0.18704107770E+04  0.50400001928E-02 0.  1.
       -1   -1    0    0    0  501  0.00000000000E+00  0.00000000000E+00 -0.87930508434E+03  0.87930508436E+03  0.50400001928E-02 0. -1.
    10030    2    1    2    0    0  0.00000000000E+00  0.00000000000E+00  0.99110569262E+03  0.27497158613E+04  0.25648872927E+04 0.  0.
        1    1    3    3  502    0  0.87758794922E+03 -0.91471535149E+03  0.28712883180E+03  0.12997337223E+04  0.50400001928E-02 0.  1.
       -1    1    3    3    0  502 -0.87758794922E+03  0.91471535149E+03  0.70397686082E+03  0.14499821390E+04  0.50400001928E-02 0. -1.
</event>
<event>
 5   0  0.2517854E-05  0.2557992E+04  0.7818609E-02  0.8382612E-01
       -2   -1    0    0    0  501  0.00000000000E+00  0.00000000000E+00  0.10320947807E+04  0.10320947807E+04  0.25500000920E-02 0. -1.
        2   -1    0    0  501    0  0.00000000000E+00  0.00000000000E+00 -0.15849615107E+04  0.15849615107E+04  0.25500000920E-02 0.  1.
    10030    2    1    2    0    0  0.00000000000E+00  0.00000000000E+00 -0.55286673003E+03  0.26170562914E+04  0.25579917927E+04 0.  0.
        4    1    3    3  502    0  0.31597812719E+03 -0.49260239585E+03  0.88707236076E+03  0.10627315199E+04  0.12699999809E+01 0. -1.
       -4    1    3    3    0  502 -0.31597812719E+03  0.49260239585E+03 -0.14399390908E+04  0.15543247715E+04  0.12699999809E+01 0.  1.
</event>
<event>
 5   0  0.1005492E-05  0.2565452E+04  0.7818609E-02  0.8380032E-01
       -1   -1    0    0    0  501  0.00000000000E+00  0.00000000000E+00  0.10508479086E+04  0.10508479087E+04  0.50400001928E-02 0. -1.
        1   -1    0    0  501    0  0.00000000000E+00  0.00000000000E+00 -0.15657696412E+04  0.15657696412E+04  0.50400001928E-02 0.  1.
    10030    2    1    2    0    0  0.00000000000E+00  0.00000000000E+00 -0.51492173252E+03  0.26166175498E+04  0.25654518143E+04 0.  0.
        4    1    3    3  502    0 -0.23786716369E+03  0.84782894042E+00 -0.15430771468E+04  0.15613040063E+04  0.12699999809E+01 0.  1.
       -4    1    3    3    0  502  0.23786716369E+03 -0.84782894042E+00  0.10281554142E+04  0.10553135435E+04  0.12699999809E+01 0. -1.
</event>
<event>
 5   0  0.2555801E-05  0.2595351E+04  0.7818609E-02  0.8369782E-01
       -2   -1    0    0    0  501  0.00000000000E+00  0.00000000000E+00  0.60553151551E+03  0.60553151552E+03  0.25500000920E-02 0. -1.
        2   -1    0    0  501    0  0.00000000000E+00  0.00000000000E+00 -0.27809644643E+04  0.27809644643E+04  0.25500000920E-02 0.  1.
    10030    2    1    2    0    0  0.00000000000E+00  0.00000000000E+00 -0.21754329488E+04  0.33864959798E+04  0.25953509409E+04 0.  0.
        1    1    3    3  502    0 -0.36921202409E+03 -0.10527008651E+02 -0.27109255918E+04  0.27359725695E+04  0.50400001928E-02 0.  1.
       -1    1    3    3    0  502  0.36921202409E+03  0.10527008651E+02  0.53549264302E+03  0.65052341034E+03  0.50400001928E-02 0. -1.
</event>
<event>
 5   0  0.1000421E-05  0.2594072E+04  0.7818609E-02  0.8370218E-01
       -1   -1    0    0    0  501  0.00000000000E+00  0.00000000000E+00  0.15677236334E+04  0.15677236334E+04  0.50400001928E-02 0. -1.
        1   -1    0    0  501    0  0.00000000000E+00  0.00000000000E+00 -0.10730861375E+04  0.10730861375E+04  0.50400001928E-02 0.  1.
    10030    2    1    2    0    0  0.00000000000E+00  0.00000000000E+00  0.49463749589E+03  0.26408097709E+04  0.25940720872E+04 0.  0.
        3    1    3    3  502    0 -0.72272241179E+03 -0.40260068705E+03 -0.76962250875E+03  0.11299264639E+04  0.10100000352E+00 0.  1.
       -3    1    3    3    0  502  0.72272241179E+03  0.40260068705E+03  0.12642600046E+04  0.15108833070E+04  0.10100000352E+00 0. -1.
</event>
<event>
 5   0  0.2484618E-05  0.1987972E+04  0.7818609E-02  0.8612265E-01
        2   -1    0    0  501    0  0.00000000000E+00  0.00000000000E+00  0.81677244544E+03  0.81677244544E+03  0.25500000920E-02 0. -1.
       -2   -1    0    0    0  501  0.00000000000E+00  0.00000000000E+00 -0.12096496493E+04  0.12096496493E+04  0.25500000920E-02 0.  1.
    10030    2    1    2    0    0  0.00000000000E+00  0.00000000000E+00 -0.39287720382E+03  0.20264220947E+04  0.19879723360E+04 0.  0.
        3    1    3    3  502    0 -0.84899100086E+03  0.28452749056E+03 -0.63637246773E+03  0.10985042286E+04  0.10100000352E+00 0.  1.
       -3    1    3    3    0  502  0.84899100086E+03 -0.28452749056E+03  0.24349526391E+03  0.92791786607E+03  0.10100000352E+00 0. -1.
</event>
<event>
 5   0  0.1034714E-05  0.2583752E+04  0.7818609E-02  0.8373741E-01
        1   -1    0    0  501    0  0.00000000000E+00  0.00000000000E+00  0.11877004007E+04  0.11877004007E+04  0.50400001928E-02 0.  1.
       -1   -1    0    0    0  501  0.00000000000E+00  0.00000000000E+00 -0.14051893307E+04  0.14051893307E+04  0.50400001928E-02 0. -1.
    10030    2    1    2    0    0  0.00000000000E+00  0.00000000000E+00 -0.21748892996E+03  0.25928897314E+04  0.25837522568E+04 0.  0.
        5    1    3    3  502    0  0.65836566356E+01 -0.79762024905E+02  0.11852015667E+04  0.11879100004E+04  0.46999998093E+01 0.  1.
       -5    1    3    3    0  502 -0.65836566356E+01  0.79762024905E+02 -0.14026904967E+04  0.14049797311E+04  0.46999998093E+01 0. -1.
</event>
<event>
 5   0  0.2555801E-05  0.2594572E+04  0.7818609E-02  0.8370047E-01
       -2   -1    0    0    0  501  0.00000000000E+00  0.00000000000E+00  0.16965289724E+04  0.16965289724E+04  0.25500000920E-02 0. -1.
        2   -1    0    0  501    0  0.00000000000E+00  0.00000000000E+00 -0.99199659223E+03  0.99199659224E+03  0.25500000920E-02 0.  1.
    10030    2    1    2    0    0  0.00000000000E+00  0.00000000000E+00  0.70453238017E+03  0.26885255646E+04  0.25945719950E+04 0.  0.
        1    1    3    3  502    0  0.61861071139E+03 -0.87643789488E+03  0.11081527935E+04  0.15423440633E+04  0.50400001928E-02 0. -1.
       -1    1    3    3    0  502 -0.61861071139E+03  0.87643789488E+03 -0.40362041337E+03  0.11461815013E+04  0.50400001928E-02 0.  1.
</event>
<event>
 5   0  0.2484618E-05  0.2588062E+04  0.7818609E-02  0.8372267E-01
        2   -1    0    0  501    0  0.00000000000E+00  0.00000000000E+00  0.10095543674E+04  0.10095543674E+04  0.25500000920E-02 0.  1.
       -2   -1    0    0    0  501  0.00000000000E+00  0.00000000000E+00 -0.16586692924E+04  0.16586692924E+04  0.25500000920E-02 0. -1.
    10030    2    1    2    0    0  0.00000000000E+00  0.00000000000E+00 -0.64911492496E+03  0.26682236598E+04  0.25880624631E+04 0.  0.
        3    1    3    3  502    0  0.47736671843E+03 -0.97402874254E+03 -0.10520375131E+04  0.15110903065E+04  0.10100000352E+00 0. -1.
       -3    1    3    3    0  502 -0.47736671843E+03  0.97402874254E+03  0.40292258817E+03  0.11571333533E+04  0.10100000352E+00 0.  1.
</event>
<event>
 5   0  0.1034714E-05  0.2259530E+04  0.7818609E-02  0.8494051E-01
       -1   -1    0    0    0  501  0.00000000000E+00  0.00000000000E+00  0.51049802157E+03  0.51049802160E+03  0.50400001928E-02 0. -1.
        1   -1    0    0  501    0  0.00000000000E+00  0.00000000000E+00 -0.25002421809E+04  0.25002421809E+04  0.50400001928E-02 0.  1.
    10030    2    1    2    0    0  0.00000000000E+00  0.00000000000E+00 -0.19897441593E+04  0.30107402025E+04  0.22595297624E+04 0.  0.
        5    1    3    3  502    0  0.85935954742E+03  0.73337794315E+03 -0.99771669157E+03  0.15072500542E+04  0.46999998093E+01 0.  1.
       -5    1    3    3    0  502 -0.85935954742E+03 -0.73337794315E+03 -0.99202746775E+03  0.15034901483E+04  0.46999998093E+01 0. -1.
</event>
<event>
 5   0  0.1005492E-05  0.2610772E+04  0.7818609E-02  0.8364552E-01
       -1   -1    0    0    0  501  0.00000000000E+00  0.00000000000E+00  0.10700167338E+04  0.10700167338E+04  0.50400001928E-02 0. -1.
        1   -1    0    0  501    0  0.00000000000E+00  0.00000000000E+00 -0.15925285081E+04  0.15925285081E+04  0.50400001928E-02 0.  1.
    10030    2    1    2    0    0  0.00000000000E+00  0.00000000000E+00 -0.52251177432E+03  0.26625452419E+04  0.26107716505E+04 0.  0.
        4    1    3    3  502    0  0.18397933504E+03  0.12550775080E+04 -0.57552694731E+03  0.13929468140E+04  0.12699999809E+01 0.  1.
       -4    1    3    3    0  502 -0.18397933504E+03 -0.12550775080E+04  0.53015172990E+02  0.12695984279E+04  0.12699999809E+01 0. -1.
</event>
<event>
 5   0  0.9855352E-06  0.2598666E+04  0.7818609E-02  0.8368654E-01
       -1   -1    0    0    0  501  0.00000000000E+00  0.00000000000E+00  0.12982542703E+04  0.12982542703E+04  0.50400001928E-02 0. -1.
        1   -1    0    0  501    0  0.00000000000E+00  0.00000000000E+00 -0.13004130291E+04  0.13004130291E+04  0.50400001928E-02 0.  1.
    10030    2    1    2    0    0  0.00000000000E+00  0.00000000000E+00 -0.21587587299E+01  0.25986672994E+04  0.25986664028E+04 0.  0.
        2    1    3    3  502    0  0.32651223244E+03  0.67441880822E+02  0.12547507092E+04  0.12982904095E+04  0.25500000920E-02 0. -1.
       -2    1    3    3    0  502 -0.32651223244E+03 -0.67441880822E+02 -0.12569094679E+04  0.13003768899E+04  0.25500000920E-02 0.  1.
</event>
<event>
 5   0  0.2517854E-05  0.2618696E+04  0.7818609E-02  0.8361878E-01
       -2   -1    0    0    0  501  0.00000000000E+00  0.00000000000E+00  0.95544841041E+03  0.95544841041E+03  0.25500000920E-02 0. -1.
        2   -1    0    0  501    0  0.00000000000E+00  0.00000000000E+00 -0.17943323384E+04  0.17943323384E+04  0.25500000920E-02 0.  1.
    10030    2    1    2    0    0  0.00000000000E+00  0.00000000000E+00 -0.83888392801E+03  0.27497807488E+04  0.26186958437E+04 0.  0.
        4    1    3    3  502    0 -0.58375850862E+03 -0.69144668592E+03 -0.14131301628E+04  0.16780378380E+04  0.12699999809E+01 0. -1.
       -4    1    3    3    0  502  0.58375850862E+03  0.69144668592E+03  0.57424623478E+03  0.10717429108E+04  0.12699999809E+01 0.  1.
</event>
<event>
 5   0  0.2555801E-05  0.2618745E+04  0.7818609E-02  0.8361862E-01
        2   -1    0    0  501    0  0.00000000000E+00  0.00000000000E+00  0.19472514806E+04  0.19472514806E+04  0.25500000920E-02 0.  1.
       -2   -1    0    0    0  501  0.00000000000E+00  0.00000000000E+00 -0.88044905516E+03  0.88044905516E+03  0.25500000920E-02 0. -1.
    10030    2    1    2    0    0  0.00000000000E+00  0.00000000000E+00  0.10668024254E+04  0.28277005357E+04  0.26187445284E+04 0.  0.
        1    1    3    3  502    0  0.30919972852E+02  0.94859123350E+03 -0.44061367463E+03  0.10463851028E+04  0.50400001928E-02 0. -1.
       -1    1    3    3    0  502 -0.30919972852E+02 -0.94859123350E+03  0.15074161000E+04  0.17813154330E+04  0.50400001928E-02 0.  1.
</event>
<event>
 5   0  0.1025153E-05  0.2611559E+04  0.7818609E-02  0.8364285E-01
       -1   -1    0    0    0  501  0.00000000000E+00  0.00000000000E+00  0.10490351033E+04  0.10490351033E+04  0.50400001928E-02 0. -1.
        1   -1    0    0  501    0  0.00000000000E+00  0.00000000000E+00 -0.16253604315E+04  0.16253604315E+04  0.50400001928E-02 0.  1.
    10030    2    1    2    0    0  0.00000000000E+00  0.00000000000E+00 -0.57632532817E+03  0.26743955349E+04  0.26115590349E+04 0.  0.
        1    1    3    3  502    0 -0.26542628307E+03 -0.10753582900E+04 -0.99633139295E+03  0.14898062989E+04  0.50400001928E-02 0. -1.
       -1    1    3    3    0  502  0.26542628307E+03  0.10753582900E+04  0.42000606478E+03  0.11845892360E+04  0.50400001928E-02 0.  1.
</event>
<event>
 5   0  0.2528460E-05  0.2585195E+04  0.7818609E-02  0.8373248E-01
        2   -1    0    0  501    0  0.00000000000E+00  0.00000000000E+00  0.12574860805E+04  0.12574860805E+04  0.25500000920E-02 0.  1.
       -2   -1    0    0    0  501  0.00000000000E+00  0.00000000000E+00 -0.13286890622E+04  0.13286890622E+04  0.25500000920E-02 0. -1.
    10030    2    1    2    0    0  0.00000000000E+00  0.00000000000E+00 -0.71202981642E+02  0.25861751427E+04  0.25851947710E+04 0.  0.
        5    1    3    3  502    0  0.33613947180E+03  0.11463793009E+04  0.45815499443E+03  0.12794933900E+04  0.46999998093E+01 0.  1.
       -5    1    3    3    0  502 -0.33613947180E+03 -0.11463793009E+04 -0.52935797607E+03  0.13066817527E+04  0.46999998093E+01 0. -1.
</event>
<event>
 5   0  0.1005492E-05  0.2593423E+04  0.7818609E-02  0.8370439E-01
        1   -1    0    0  501    0  0.00000000000E+00  0.00000000000E+00  0.13499080169E+04  0.13499080169E+04  0.50400001928E-02 0. -1.
       -1   -1    0    0    0  501  0.00000000000E+00  0.00000000000E+00 -0.12456110804E+04  0.12456110804E+04  0.50400001928E-02 0.  1.
    10030    2    1    2    0    0  0.00000000000E+00  0.00000000000E+00  0.10429693657E+03  0.25955190973E+04  0.25934227449E+04 0.  0.
        4    1    3    3  502    0  0.67290854782E+03  0.52608515831E+02  0.11602404554E+04  0.13422865182E+04  0.12699999809E+01 0. -1.
       -4    1    3    3    0  502 -0.67290854782E+03 -0.52608515831E+02 -0.10559435188E+04  0.12532325792E+04  0.12699999809E+01 0.  1.
</event>
<event>
 5   0  0.1000421E-05  0.2618139E+04  0.7818609E-02  0.8362066E-01
       -1   -1    0    0    0  501  0.00000000000E+00  0.00000000000E+00  0.12400764563E+04  0.12400764563E+04  0.50400001928E-02 0.  1.
        1   -1    0    0  501    0  0.00000000000E+00  0.00000000000E+00 -0.13819011825E+04  0.13819011825E+04  0.50400001928E-02 0. -1.
    10030    2    1    2    0    0  0.00000000000E+00  0.00000000000E+00 -0.14182472625E+03  0.26219776388E+04  0.26181391265E+04 0.  0.
        3    1    3    3  502    0 -0.44652553557E+03  0.11846332156E+04  0.26262577756E+03  0.12929474926E+04  0.10100000352E+00 0.  1.
       -3    1    3    3    0  502  0.44652553557E+03 -0.11846332156E+04 -0.40445050380E+03  0.13290301462E+04  0.10100000352E+00 0. -1.
</event>
<event>
 5   0  0.9855352E-06  0.2149368E+04  0.7818609E-02  0.8539803E-01
       -1   -1    0    0    0  501  0.00000000000E+00  0.00000000000E+00  0.95207540992E+03  0.95207540993E+03  0.50400001928E-02 0.  1.
        1   -1    0    0  501    0  0.00000000000E+00  0.00000000000E+00 -0.12130816171E+04  0.12130816171E+04  0.50400001928E-02 0. -1.
    10030    2    1    2    0    0  0.00000000000E+00  0.00000000000E+00 -0.26100620720E+03  0.21651570271E+04  0.21493675143E+04 0.  0.
        2    1    3    3  502    0  0.35327702470E+02 -0.96502731511E+03  0.34457505314E+03  0.10253086037E+04  0.25500000920E-02 0.  1.
       -2    1    3    3    0  502 -0.35327702470E+02  0.96502731511E+03 -0.60558126035E+03  0.11398484234E+04  0.25500000920E-02 0. -1.
</event>
<event>
 5   0  0.2517854E-05  0.2050318E+04  0.7818609E-02  0.8583450E-01
        2   -1    0    0  501    0  0.00000000000E+00  0.00000000000E+00  0.17226609132E+04  0.17226609132E+04  0.25500000920E-02 0. -1.
       -2   -1    0    0    0  501  0.00000000000E+00  0.00000000000E+00 -0.61007405468E+03  0.61007405468E+03  0.25500000920E-02 0.  1.
    10030    2    1    2    0    0  0.00000000000E+00  0.00000000000E+00  0.11125868585E+04  0.23327349678E+04  0.20503177589E+04 0.  0.
        4    1    3    3  502    0 -0.49554925738E+03  0.65849443680E+03 -0.13741752061E+03  0.83550534268E+03  0.12699999809E+01 0.  1.
       -4    1    3    3    0  502  0.49554925738E+03 -0.65849443680E+03  0.12500043791E+04  0.14972296252E+04  0.12699999809E+01 0. -1.
</event>
<event>
 5   0  0.1025153E-05  0.2447559E+04  0.7818609E-02  0.8421910E-01
        1   -1    0    0  501    0  0.00000000000E+00  0.00000000000E+00  0.20819132492E+04  0.20819132492E+04  0.50400001928E-02 0.  1.
       -1   -1    0    0    0  501  0.00000000000E+00  0.00000000000E+00 -0.71935552080E+03  0.71935552082E+03  0.50400001928E-02 0. -1.
    10030    2    1    2    0    0  0.00000000000E+00  0.00000000000E+00  0.13625577284E+04  0.28012687701E+04  0.24475586119E+04 0.  0.
        1    1    3    3  502    0  0.19702384950E+03 -0.17048601545E+03 -0.68724388672E+03  0.73497485576E+03  0.50400001928E-02 0. -1.
       -1    1    3    3    0  502 -0.19702384950E+03  0.17048601545E+03  0.20498016152E+04  0.20662939143E+04  0.50400001928E-02 0.  1.
</event>
<event>
 5   0  0.1000421E-05  0.2467817E+04  0.7818609E-02  0.8414541E-01
        1   -1    0    0  501    0  0.00000000000E+00  0.00000000000E+00  0.27018226054E+04  0.27018226054E+04  0.50400001928E-02 0. -1.
       -1   -1    0    0    0  501  0.00000000000E+00  0.00000000000E+00 -0.56351987673E+03  0.56351987675E+03  0.50400001928E-02 0.  1.
    10030    2    1    2    0    0  0.00000000000E+00  0.00000000000E+00  0.21383027286E+04  0.32653424821E+04  0.24678174499E+04 0.  0.
        3    1    3    3  502    0 -0.23337146472E+03  0.10634012449E+04  0.18375547924E+04  0.21358586268E+04  0.10100000352E+00 0. -1.
       -3    1    3    3    0  502  0.23337146472E+03 -0.10634012449E+04  0.30074793618E+03  0.11294838553E+04  0.10100000352E+00 0.  1.
</event>
<event>
 5   0  0.2662024E-05  0.2593860E+04  0.7818609E-02  0.8370290E-01
        2   -1    0    0  501    0  0.00000000000E+00  0.00000000000E+00  0.13505576734E+04  0.13505576734E+04  0.25500000920E-02 0.  1.
       -2   -1    0    0    0  501  0.00000000000E+00  0.00000000000E+00 -0.12454322317E+04  0.12454322317E+04  0.25500000920E-02 0. -1.
    10030    2    1    2    0    0  0.00000000000E+00  0.00000000000E+00  0.10512544170E+03  0.25959899052E+04  0.25938604876E+04 0.  0.
        2    1    3    3  502    0  0.56037925963E+03  0.62841556706E+03 -0.93470390596E+03  0.12580152747E+04  0.25500000920E-02 0. -1.
       -2    1    3    3    0  502 -0.56037925963E+03 -0.62841556706E+03  0.10398293477E+04  0.13379746305E+04  0.25500000920E-02 0.  1.
</event>
<event>
 5   0  0.2517854E-05  0.1919582E+04  0.7818609E-02  0.8645170E-01
        2   -1    0    0  501    0  0.00000000000E+00  0.00000000000E+00  0.11045070269E+04  0.11045070269E+04  0.25500000920E-02 0. -1.
       -2   -1    0    0    0  501  0.00000000000E+00  0.00000000000E+00 -0.83403630194E+03  0.83403630194E+03  0.25500000920E-02 0.  1.
    10030    2    1    2    0    0  0.00000000000E+00  0.00000000000E+00  0.27047072496E+03  0.19385433288E+04  0.19195822006E+04 0.  0.
        4    1    3    3  502    0 -0.73154435381E+02 -0.90913024657E+03  0.43706544493E+03  0.10113838009E+04  0.12699999809E+01 0. -1.
       -4    1    3    3    0  502  0.73154435381E+02  0.90913024657E+03 -0.16659471997E+03  0.92715952795E+03  0.12699999809E+01 0.  1.
</event>
<event>
 5   0  0.1034714E-05  0.2596903E+04  0.7818609E-02  0.8369254E-01
        1   -1    0    0  501    0  0.00000000000E+00  0.00000000000E+00  0.22982563710E+04  0.22982563710E+04  0.50400001928E-02 0.  1.
       -1   -1    0    0    0  501  0.00000000000E+00  0.00000000000E+00 -0.73358958082E+03  0.73358958083E+03  0.50400001928E-02 0. -1.
    10030    2    1    2    0    0  0.00000000000E+00  0.00000000000E+00  0.15646667902E+04  0.30318459518E+04  0.25969034852E+04 0.  0.
        5    1    3    3  502    0  0.15127707533E+03 -0.25318634691E+03  0.22586212240E+04  0.22778015724E+04  0.46999998093E+01 0.  1.
       -5    1    3    3    0  502 -0.15127707533E+03  0.25318634691E+03 -0.69395443387E+03  0.75404437937E+03  0.46999998093E+01 0. -1.
</event>
<event>
 5   0  0.2517854E-05  0.2608359E+04  0.7818609E-02  0.8365367E-01
       -2   -1    0    0    0  501  0.00000000000E+00  0.00000000000E+00  0.93270206839E+03  0.93270206840E+03  0.25500000920E-02 0. -1.
        2   -1    0    0  501    0  0.00000000000E+00  0.00000000000E+00 -0.18236094245E+04  0.18236094245E+04  0.25500000920E-02 0.  1.
    10030    2    1    2    0    0  0.00000000000E+00  0.00000000000E+00 -0.89090735606E+03  0.27563114929E+04  0.26083590873E+04 0.  0.
        4    1    3    3  502    0 -0.30841615650E+03 -0.13755630539E+03  0.88569799296E+03  0.94789493636E+03  0.12699999809E+01 0. -1.
       -4    1    3    3    0  502  0.30841615650E+03  0.13755630539E+03 -0.17766053490E+04  0.18084165565E+04  0.12699999809E+01 0.  1.
</event>
<event>
 5   0  0.9855352E-06  0.2595457E+04  0.7818609E-02  0.8369746E-01
        1   -1    0    0  501    0  0.00000000000E+00  0.00000000000E+00  0.12807569940E+04  0.12807569940E+04  0.50400001928E-02 0.  1.
       -1   -1    0    0    0  501  0.00000000000E+00  0.00000000000E+00 -0.13149252649E+04  0.13149252649E+04  0.50400001928E-02 0. -1.
    10030    2    1    2    0    0  0.00000000000E+00  0.00000000000E+00 -0.34168270920E+02  0.25956822589E+04  0.25954573621E+04 0.  0.
        2    1    3    3  502    0  0.25330179860E+03 -0.98612130681E+02 -0.12861360015E+04  0.13145462974E+04  0.25500000920E-02 0. -1.
       -2    1    3    3    0  502 -0.25330179860E+03  0.98612130681E+02  0.12519677306E+04  0.12811359615E+04  0.25500000920E-02 0.  1.
</event>
<event>
 5   0  0.2528460E-05  0.2648243E+04  0.7818609E-02  0.8351996E-01
       -2   -1    0    0    0  501  0.00000000000E+00  0.00000000000E+00  0.16039179976E+04  0.16039179976E+04  0.25500000920E-02 0.  1.
        2   -1    0    0  501    0  0.00000000000E+00  0.00000000000E+00 -0.10931344255E+04  0.10931344255E+04  0.25500000920E-02 0. -1.
    10030    2    1    2    0    0  0.00000000000E+00  0.00000000000E+00  0.51078357211E+03  0.26970524231E+04  0.26482431753E+04 0.  0.
        5    1    3    3  502    0 -0.34580502286E+03 -0.12668179257E+03 -0.10399170773E+04  0.11032130384E+04  0.46999998093E+01 0. -1.
       -5    1    3    3    0  502  0.34580502286E+03  0.12668179257E+03  0.15507006494E+04  0.15938393848E+04  0.46999998093E+01 0.  1.
</event>
<event>
 5   0  0.1005492E-05  0.2654959E+04  0.7818609E-02  0.8349769E-01
        1   -1    0    0  501    0  0.00000000000E+00  0.00000000000E+00  0.15052423082E+04  0.15052423082E+04  0.50400001928E-02 0. -1.
       -1   -1    0    0    0  501  0.00000000000E+00  0.00000000000E+00 -0.11707096355E+04  0.11707096356E+04  0.50400001928E-02 0.  1.
    10030    2    1    2    0    0  0.00000000000E+00  0.00000000000E+00  0.33453267263E+03  0.26759519437E+04  0.26549588878E+04 0.  0.
        4    1    3    3  502    0 -0.48844635327E+03 -0.31421294670E+03 -0.10358600361E+04  0.11875677847E+04  0.12699999809E+01 0.  1.
       -4    1    3    3    0  502  0.48844635327E+03  0.31421294670E+03  0.13703927087E+04  0.14883841591E+04  0.12699999809E+01 0. -1.
</event>
<event>
 5   0  0.2484618E-05  0.2209750E+04  0.7818609E-02  0.8514381E-01
        2   -1    0    0  501    0  0.00000000000E+00  0.00000000000E+00  0.12672326102E+04  0.12672326102E+04  0.25500000920E-02 0. -1.
       -2   -1    0    0    0  501  0.00000000000E+00  0.00000000000E+00 -0.96331823571E+03  0.96331823571E+03  0.25500000920E-02 0.  1.
    10030    2    1    2    0    0  0.00000000000E+00  0.00000000000E+00  0.30391437449E+03  0.22305508459E+04  0.22097495625E+04 0.  0.
        3    1    3    3  502    0 -0.68525944857E+03 -0.16070846722E+03  0.10116435731E+04  0.12324083951E+04  0.10100000352E+00 0. -1.
       -3    1    3    3    0  502  0.68525944857E+03  0.16070846722E+03 -0.70772919858E+03  0.99814245076E+03  0.10100000352E+00 0.  1.
</event>
<event>
 5   0  0.9855352E-06  0.2665031E+04  0.7818609E-02  0.8346441E-01
       -1   -1    0    0    0  501  0.00000000000E+00  0.00000000000E+00  0.13399403825E+04  0.13399403825E+04  0.50400001928E-02 0. -1.
        1   -1    0    0  501    0  0.00000000000E+00  0.00000000000E+00 -0.13251315180E+04  0.13251315180E+04  0.50400001928E-02 0.  1.
    10030    2    1    2    0    0  0.00000000000E+00  0.00000000000E+00  0.14808864487E+02  0.26650719005E+04  0.26650307564E+04 0.  0.
        2    1    3    3  502    0  0.65837011806E+03  0.11283939488E+04 -0.25503650149E+03  0.13310776585E+04  0.25500000920E-02 0.  1.
       -2    1    3    3    0  502 -0.65837011806E+03 -0.11283939488E+04  0.26984536597E+03  0.13339942419E+04  0.25500000920E-02 0. -1.
</event>
<event>
 5   0  0.2662024E-05  0.2563035E+04  0.7818609E-02  0.8380867E-01
        2   -1    0    0  501    0  0.00000000000E+00  0.00000000000E+00  0.24588103813E+04  0.24588103813E+04  0.25500000920E-02 0. -1.
       -2   -1    0    0    0  501  0.00000000000E+00  0.00000000000E+00 -0.66791935244E+03  0.66791935245E+03  0.25500000920E-02 0.  1.
    10030    2    1    2    0    0  0.00000000000E+00  0.00000000000E+00  0.17908910289E+04  0.31267297338E+04  0.25630349492E+04 0.  0.
        2    1    3    3  502    0  0.57744583534E+03 -0.18648456723E+03 -0.48154809130E+03  0.77466686440E+03  0.25500000920E-02 0.  1.
       -2    1    3    3    0  502 -0.57744583534E+03  0.18648456723E+03  0.22724391202E+04  0.23520628694E+04  0.25500000920E-02 0. -1.
</event>
<event>
 5   0  0.8605000E-06  0.2319216E+04  0.7818609E-02  0.8470383E-01
        3   -1    0    0  501    0  0.00000000000E+00  0.00000000000E+00  0.10686739351E+04  0.10686739398E+04  0.10100000352E+00 0.  1.
       -3   -1    0    0    0  501  0.00000000000E+00  0.00000000000E+00 -0.12582795434E+04  0.12582795474E+04  0.10100000352E+00 0. -1.
    10030    2    1    2    0    0  0.00000000000E+00  0.00000000000E+00 -0.18960560829E+03  0.23269534873E+04  0.23192158686E+04 0.  0.
        4    1    3    3  502    0 -0.44859566587E+03 -0.36408960087E+03 -0.11035873055E+04  0.12456748624E+04  0.12699999809E+01 0. -1.
       -4    1    3    3    0  502  0.44859566587E+03  0.36408960087E+03  0.91398169723E+03  0.10812786249E+04  0.12699999809E+01 0.  1.
</event>
<event>
 5   0  0.2517854E-05  0.2602554E+04  0.7818609E-02  0.8367334E-01
       -2   -1    0    0    0  501  0.00000000000E+00  0.00000000000E+00  0.66413595838E+03  0.66413595839E+03  0.25500000920E-02 0. -1.
        2   -1    0    0  501    0  0.00000000000E+00  0.00000000000E+00 -0.25496605253E+04  0.25496605253E+04  0.25500000920E-02 0.  1.
    10030    2    1    2    0    0  0.00000000000E+00  0.00000000000E+00 -0.18855245669E+04  0.32137964837E+04  0.26025535434E+04 0.  0.
        4    1    3    3  502    0  0.66921851364E+03 -0.61315841034E+03  0.20871197217E+03  0.93133181809E+03  0.12699999809E+01 0. -1.
       -4    1    3    3    0  502 -0.66921851364E+03  0.61315841034E+03 -0.20942365391E+04  0.22824646656E+04  0.12699999809E+01 0.  1.
</event>
<event>
 5   0  0.2528460E-05  0.2605810E+04  0.7818609E-02  0.8366230E-01
       -2   -1    0    0    0  501  0.00000000000E+00  0.00000000000E+00  0.12088635433E+04  0.12088635433E+04  0.25500000920E-02 0. -1.
        2   -1    0    0  501    0  0.00000000000E+00  0.00000000000E+00 -0.14042622107E+04  0.14042622107E+04  0.25500000920E-02 0.  1.
    10030    2    1    2    0    0  0.00000000000E+00  0.00000000000E+00 -0.19539866740E+03  0.26131257539E+04  0.26058099637E+04 0.  0.
        5    1    3    3  502    0 -0.34233877154E+02  0.84027282018E+03 -0.10956358573E+04  0.13811844166E+04  0.46999998093E+01 0.  1.
       -5    1    3    3    0  502  0.34233877154E+02 -0.84027282018E+03  0.90023718992E+03  0.12319413374E+04  0.46999998093E+01 0. -1.
</event>
<event>
 5   0  0.1005492E-05  0.2614862E+04  0.7818609E-02  0.8363171E-01
        1   -1    0    0  501    0  0.00000000000E+00  0.00000000000E+00  0.87325217795E+03  0.87325217796E+03  0.50400001928E-02 0. -1.
       -1   -1    0    0    0  501  0.00000000000E+00  0.00000000000E+00 -0.19574818062E+04  0.19574818062E+04  0.50400001928E-02 0.  1.
    10030    2    1    2    0    0  0.00000000000E+00  0.00000000000E+00 -0.10842296283E+04  0.28307339842E+04  0.26148615647E+04 0.  0.
        4    1    3    3  502    0 -0.10979315021E+04  0.29979963326E+03 -0.12386958232E+04  0.16821719172E+04  0.12699999809E+01 0.  1.
       -4    1    3    3    0  502  0.10979315021E+04 -0.29979963326E+03  0.15446619496E+03  0.11485620670E+04  0.12699999809E+01 0. -1.
</event>
<event>
 5   0  0.9855352E-06  0.2840495E+04  0.7818609E-02  0.8290806E-01
       -1   -1    0    0    0  501  0.00000000000E+00  0.00000000000E+00  0.80181778690E+03  0.80181778692E+03  0.50400001928E-02 0. -1.
        1   -1    0    0  501    0  0.00000000000E+00  0.00000000000E+00 -0.25156616979E+04  0.25156616979E+04  0.50400001928E-02 0.  1.
    10030    2    1    2    0    0  0.00000000000E+00  0.00000000000E+00 -0.17138439110E+04  0.33174794848E+04  0.28404945310E+04 0.  0.
        2    1    3    3  502    0  0.14148707497E+04  0.51639632335E+02 -0.98789820442E+03  0.17264034153E+04  0.25500000920E-02 0.  1.
       -2    1    3    3    0  502 -0.14148707497E+04 -0.51639632335E+02 -0.72594570654E+03  0.15910760695E+04  0.25500000920E-02 0. -1.
</event>
<event>
 5   0  0.2528460E-05  0.2874379E+04  0.7818609E-02  0.8280542E-01
        2   -1    0    0  501    0  0.00000000000E+00  0.00000000000E+00  0.17759616080E+04  0.17759616080E+04  0.25500000920E-02 0.  1.
       -2   -1    0    0    0  501  0.00000000000E+00  0.00000000000E+00 -0.11630393768E+04  0.11630393768E+04  0.25500000920E-02 0. -1.
    10030    2    1    2    0    0  0.00000000000E+00  0.00000000000E+00  0.61292223118E+03  0.29390009847E+04  0.28743787375E+04 0.  0.
        5    1    3    3  502    0 -0.30367546175E+03  0.14038274747E+04  0.25492125053E+03  0.14587519662E+04  0.46999998093E+01 0. -1.
       -5    1    3    3    0  502  0.30367546175E+03 -0.14038274747E+04  0.35800098065E+03  0.14802490186E+04  0.46999998093E+01 0.  1.
</event>
<event>
 5   0  0.1000421E-05  0.2484445E+04  0.7818609E-02  0.8408548E-01
       -1   -1    0    0    0  501  0.00000000000E+00  0.00000000000E+00  0.10444019327E+04  0.10444019327E+04  0.50400001928E-02 0.  1.
        1   -1    0    0  501    0  0.00000000000E+00  0.00000000000E+00 -0.14775122113E+04  0.14775122113E+04  0.50400001928E-02 0. -1.
    10030    2    1    2    0    0  0.00000000000E+00  0.00000000000E+00 -0.43311027860E+03  0.25219141440E+04  0.24844448950E+04 0.  0.
        3    1    3    3  502    0 -0.22858687372E+02 -0.15197417191E+03  0.10347147255E+04  0.10460656012E+04  0.10100000352E+00 0.  1.
       -3    1    3    3    0  502  0.22858687372E+02  0.15197417191E+03 -0.14678250041E+04  0.14758485429E+04  0.10100000352E+00 0. -1.
</event>
<event>
 5   0  0.2555801E-05  0.2627927E+04  0.7818609E-02  0.8358776E-01
       -2   -1    0    0    0  501  0.00000000000E+00  0.00000000000E+00  0.91661222027E+03  0.91661222028E+03  0.25500000920E-02 0.  1.
        2   -1    0    0  501    0  0.00000000000E+00  0.00000000000E+00 -0.18835665299E+04  0.18835665299E+04  0.25500000920E-02 0. -1.
    10030    2    1    2    0    0  0.00000000000E+00  0.00000000000E+00 -0.96695430959E+03  0.28001787501E+04  0.26279270150E+04 0.  0.
        1    1    3    3  502    0  0.40442128432E+03 -0.12451712584E+04 -0.36438325855E+03  0.13589640161E+04  0.50400001928E-02 0. -1.
       -1    1    3    3    0  502 -0.40442128432E+03  0.12451712584E+04 -0.60257105104E+03  0.14412147340E+04  0.50400001928E-02 0.  1.
</event>
<event>
 5   0  0.1025153E-05  0.2710960E+04  0.7818609E-02  0.8331458E-01
       -1   -1    0    0    0  501  0.00000000000E+00  0.00000000000E+00  0.11552672830E+04  0.11552672830E+04  0.50400001928E-02 0. -1.
        1   -1    0    0  501    0  0.00000000000E+00  0.00000000000E+00 -0.15903900806E+04  0.15903900806E+04  0.50400001928E-02 0.  1.
    10030    2    1    2    0    0  0.00000000000E+00  0.00000000000E+00 -0.43512279762E+03  0.27456573636E+04  0.27109597026E+04 0.  0.
        1    1    3    3  502    0 -0.28671426344E+03  0.11903038930E+04  0.37151616187E+03  0.12794735969E+04  0.50400001928E-02 0. -1.
       -1    1    3    3    0  502  0.28671426344E+03 -0.11903038930E+04 -0.80663895949E+03  0.14661837667E+04  0.50400001928E-02 0.  1.
</event>
<event>
 5   0  0.2555801E-05  0.2695166E+04  0.7818609E-02  0.8336575E-01
        2   -1    0    0  501    0  0.00000000000E+00  0.00000000000E+00  0.13142087924E+04  0.13142087924E+04  0.25500000920E-02 0. -1.
       -2   -1    0    0    0  501  0.00000000000E+00  0.00000000000E+00 -0.13818043125E+04  0.13818043125E+04  0.25500000920E-02 0.  1.
    10030    2    1    2    0    0  0.00000000000E+00  0.00000000000E+00 -0.67595520106E+02  0.26960131049E+04  0.26951655807E+04 0.  0.
        1    1    3    3  502    0  0.72136058983E+03  0.11368199791E+04  0.23304438756E+02  0.13465748633E+04  0.50400001928E-02 0. -1.
       -1    1    3    3    0  502 -0.72136058983E+03 -0.11368199791E+04 -0.90899958862E+02  0.13494382416E+04  0.50400001928E-02 0.  1.
</event>
<event>
 5   0  0.2555801E-05  0.2595790E+04  0.7818609E-02  0.8369632E-01
        2   -1    0    0  501    0  0.00000000000E+00  0.00000000000E+00  0.89159230292E+03  0.89159230292E+03  0.25500000920E-02 0. -1.
       -2   -1    0    0    0  501  0.00000000000E+00  0.00000000000E+00 -0.18893523051E+04  0.18893523051E+04  0.25500000920E-02 0.  1.
    10030    2    1    2    0    0  0.00000000000E+00  0.00000000000E+00 -0.99776000216E+03  0.27809446080E+04  0.25957904174E+04 0.  0.
        1    1    3    3  502    0  0.16611776603E+03  0.11950622541E+03  0.87420021539E+03  0.89783231548E+03  0.50400001928E-02 0. -1.
       -1    1    3    3    0  502 -0.16611776603E+03 -0.11950622541E+03 -0.18719602175E+04  0.18831122925E+04  0.50400001928E-02 0.  1.
</event>
<event>
 5   0  0.2528460E-05  0.2614176E+04  0.7818609E-02  0.8363402E-01
       -2   -1    0    0    0  501  0.00000000000E+00  0.00000000000E+00  0.68171623871E+03  0.68171623871E+03  0.25500000920E-02 0.  1.
        2   -1    0    0  501    0  0.00000000000E+00  0.00000000000E+00 -0.25061445119E+04  0.25061445119E+04  0.25500000920E-02 0. -1.
    10030    2    1    2    0    0  0.00000000000E+00  0.00000000000E+00 -0.18244282732E+04  0.31878607506E+04  0.26141762835E+04 0.  0.
        5    1    3    3  502    0 -0.25406517571E+03  0.30790782200E+03 -0.24299784482E+04  0.24625543017E+04  0.46999998093E+01 0. -1.
       -5    1    3    3    0  502  0.25406517571E+03 -0.30790782200E+03  0.60555017499E+03  0.72530644888E+03  0.46999998093E+01 0.  1.
</event>
<event>
 5   0  0.2484618E-05  0.2616165E+04  0.7818609E-02  0.8362731E-01
        2   -1    0    0  501    0  0.00000000000E+00  0.00000000000E+00  0.15545030860E+04  0.15545030860E+04  0.25500000920E-02 0.  1.
       -2   -1    0    0    0  501  0.00000000000E+00  0.00000000000E+00 -0.11007245319E+04  0.11007245319E+04  0.25500000920E-02 0. -1.
    10030    2    1    2    0    0  0.00000000000E+00  0.00000000000E+00  0.45377855404E+03  0.26552276179E+04  0.26161648891E+04 0.  0.
        3    1    3    3  502    0  0.10588928696E+04  0.51369693344E+02  0.10046119410E+04  0.14605266574E+04  0.10100000352E+00 0.  1.
       -3    1    3    3    0  502 -0.10588928696E+04 -0.51369693344E+02 -0.55083338695E+03  0.11947009605E+04  0.10100000352E+00 0. -1.
</event>
<event>
 5   0  0.9855352E-06  0.2571146E+04  0.7818609E-02  0.8378069E-01
        1   -1    0    0  501    0  0.00000000000E+00  0.00000000000E+00  0.14754199755E+04  0.14754199755E+04  0.50400001928E-02 0. -1.
       -1   -1    0    0    0  501  0.00000000000E+00  0.00000000000E+00 -0.11201546552E+04  0.11201546553E+04  0.50400001928E-02 0.  1.
    10030    2    1    2    0    0  0.00000000000E+00  0.00000000000E+00  0.35526532029E+03  0.25955746308E+04  0.25711464790E+04 0.  0.
        2    1    3    3  502    0 -0.54374660559E+03  0.24355429260E+03  0.13276307394E+04  0.14551915492E+04  0.25500000920E-02 0. -1.
       -2    1    3    3    0  502  0.54374660559E+03 -0.24355429260E+03 -0.97236541913E+03  0.11403830816E+04  0.25500000920E-02 0.  1.
</event>
<event>
 5   0  0.1000421E-05  0.2620024E+04  0.7818609E-02  0.8361431E-01
        1   -1    0    0  501    0  0.00000000000E+00  0.00000000000E+00  0.15390901819E+04  0.15390901819E+04  0.50400001928E-02 0. -1.
       -1   -1    0    0    0  501  0.00000000000E+00  0.00000000000E+00 -0.11150297028E+04  0.11150297028E+04  0.50400001928E-02 0.  1.
    10030    2    1    2    0    0  0.00000000000E+00  0.00000000000E+00  0.42406047907E+03  0.26541198847E+04  0.26200238686E+04 0.  0.
        3    1    3    3  502    0 -0.35860572205E+03 -0.11319433306E+04  0.77261910373E+03  0.14166277059E+04  0.10100000352E+00 0. -1.
       -3    1    3    3    0  502  0.35860572205E+03  0.11319433306E+04 -0.34855862466E+03  0.12374921788E+04  0.10100000352E+00 0.  1.
</event>
<event>
 5   0  0.8605000E-06  0.2598355E+04  0.7818609E-02  0.8368760E-01
        3   -1    0    0  501    0  0.00000000000E+00  0.00000000000E+00  0.13281345735E+04  0.13281345774E+04  0.10100000352E+00 0.  1.
       -3   -1    0    0    0  501  0.00000000000E+00  0.00000000000E+00 -0.12708514273E+04  0.12708514313E+04  0.10100000352E+00 0. -1.
    10030    2    1    2    0    0  0.00000000000E+00  0.00000000000E+00  0.57283146233E+02  0.25989860087E+04  0.25983546553E+04 0.  0.
        3    1    3    3  502    0 -0.10128375221E+04  0.27601084303E+03 -0.73694618700E+03  0.12826190098E+04  0.10100000352E+00 0. -1.
       -3    1    3    3    0  502  0.10128375221E+04 -0.27601084303E+03  0.79422933323E+03  0.13163669988E+04  0.10100000352E+00 0.  1.
</event>
<event>
 5   0  0.9855352E-06  0.2582326E+04  0.7818609E-02  0.8374229E-01
       -1   -1    0    0    0  501  0.00000000000E+00  0.00000000000E+00  0.15818443171E+04  0.15818443171E+04  0.50400001928E-02 0. -1.
        1   -1    0    0  501    0  0.00000000000E+00  0.00000000000E+00 -0.10538977045E+04  0.10538977045E+04  0.50400001928E-02 0.  1.
    10030    2    1    2    0    0  0.00000000000E+00  0.00000000000E+00  0.52794661258E+03  0.26357420216E+04  0.25823261565E+04 0.  0.
        2    1    3    3  502    0 -0.29104623605E+03  0.96996064645E+03  0.10815227151E+04  0.14816284793E+04  0.25500000920E-02 0. -1.
       -2    1    3    3    0  502  0.29104623605E+03 -0.96996064645E+03 -0.55357610256E+03  0.11541135423E+04  0.25500000920E-02 0.  1.
</event>
<event>
 5   0  0.1025153E-05  0.2597715E+04  0.7818609E-02  0.8368978E-01
       -1   -1    0    0    0  501  0.00000000000E+00  0.00000000000E+00  0.96907916715E+03  0.96907916716E+03  0.50400001928E-02 0. -1.
        1   -1    0    0  501    0  0.00000000000E+00  0.00000000000E+00 -0.17408595416E+04  0.17408595416E+04  0.50400001928E-02 0.  1.
    10030    2    1    2    0    0  0.00000000000E+00  0.00000000000E+00 -0.77178037448E+03  0.27099387088E+04  0.25977149303E+04 0.  0.
        1    1    3    3  502    0  0.10441995495E+04 -0.72610680670E+03 -0.11097769471E+03  0.12766753082E+04  0.50400001928E-02 0. -1.
       -1    1    3    3    0  502 -0.10441995495E+04  0.72610680670E+03 -0.66080267976E+03  0.14332634006E+04  0.50400001928E-02 0.  1.
</event>
<event>
 5   0  0.2555801E-05  0.2512393E+04  0.7818609E-02  0.8398584E-01
        2   -1    0    0  501    0  0.00000000000E+00  0.00000000000E+00  0.14377270518E+04  0.14377270518E+04  0.25500000920E-02 0.  1.
       -2   -1    0    0    0  501  0.00000000000E+00  0.00000000000E+00 -0.10975861680E+04  0.10975861680E+04  0.25500000920E-02 0. -1.
    10030    2    1    2    0    0  0.00000000000E+00  0.00000000000E+00  0.34014088385E+03  0.25353132198E+04  0.25123927443E+04 0.  0.
        1    1    3    3  502    0  0.91547732160E+03 -0.79149895004E+03 -0.16984077886E+03  0.12220536831E+04  0.50400001928E-02 0. -1.
       -1    1    3    3    0  502 -0.91547732160E+03  0.79149895004E+03  0.50998166271E+03  0.13132595367E+04  0.50400001928E-02 0.  1.
</event>
<event>
 5   0  0.1000421E-05  0.2576143E+04  0.7818609E-02  0.8376350E-01
       -1   -1    0    0    0  501  0.00000000000E+00  0.00000000000E+00  0.74973935433E+03  0.74973935435E+03  0.50400001928E-02 0.  1.
        1   -1    0    0  501    0  0.00000000000E+00  0.00000000000E+00 -0.22129404988E+04  0.22129404988E+04  0.50400001928E-02 0. -1.
    10030    2    1    2    0    0  0.00000000000E+00  0.00000000000E+00 -0.14632011444E+04  0.29626798531E+04  0.25761433041E+04 0.  0.
        3    1    3    3  502    0 -0.71750598761E+03 -0.10549976345E+04 -0.93504382864E+03  0.15818159889E+04  0.10100000352E+00 0.  1.
       -3    1    3    3    0  502  0.71750598761E+03  0.10549976345E+04 -0.52815731579E+03  0.13808638642E+04  0.10100000352E+00 0. -1.
</event>
<event>
 5   0  0.2662024E-05  0.2601731E+04  0.7818609E-02  0.8367613E-01
        2   -1    0    0  501    0  0.00000000000E+00  0.00000000000E+00  0.90603322984E+03  0.90603322985E+03  0.25500000920E-02 0. -1.
       -2   -1    0    0    0  501  0.00000000000E+00  0.00000000000E+00 -0.18677582848E+04  0.18677582848E+04  0.25500000920E-02 0.  1.
    10030    2    1    2    0    0  0.00000000000E+00  0.00000000000E+00 -0.96172505494E+03  0.27737915146E+04  0.26017310171E+04 0.  0.
        2    1    3    3  502    0 -0.86244540783E+02 -0.74901803640E+03 -0.16110565942E+04  0.17787550392E+04  0.25500000920E-02 0.  1.
       -2    1    3    3    0  502  0.86244540783E+02  0.74901803640E+03  0.64933153924E+03  0.99503647548E+03  0.25500000920E-02 0. -1.
</event>
<event>
 5   0  0.1034714E-05  0.2618772E+04  0.7818609E-02  0.8361852E-01
       -1   -1    0    0    0  501  0.00000000000E+00  0.00000000000E+00  0.13363784941E+04  0.13363784941E+04  0.50400001928E-02 0.  1.
        1   -1    0    0  501    0  0.00000000000E+00  0.00000000000E+00 -0.12829391772E+04  0.12829391772E+04  0.50400001928E-02 0. -1.
    10030    2    1    2    0    0  0.00000000000E+00  0.00000000000E+00  0.53439316901E+02  0.26193176713E+04  0.26187724801E+04 0.  0.
        5    1    3    3  502    0 -0.50850758497E+03  0.11668662067E+04  0.33388866864E+03  0.13159256975E+04  0.46999998093E+01 0. -1.
       -5    1    3    3    0  502  0.50850758497E+03 -0.11668662067E+04 -0.28044935174E+03  0.13033919737E+04  0.46999998093E+01 0.  1.
</event>
<event>
 5   0  0.2517854E-05  0.2595472E+04  0.7818609E-02  0.8369741E-01
       -2   -1    0    0    0  501  0.00000000000E+00  0.00000000000E+00  0.95813948559E+03  0.95813948560E+03  0.25500000920E-02 0. -1.
        2   -1    0    0  501    0  0.00000000000E+00  0.00000000000E+00 -0.17576974067E+04  0.17576974067E+04  0.25500000920E-02 0.  1.
    10030    2    1    2    0    0  0.00000000000E+00  0.00000000000E+00 -0.79955792112E+03  0.27158368923E+04  0.25954724341E+04 0.  0.
        4    1    3    3  502    0 -0.83148916583E+03 -0.30903829349E+03  0.59137536368E+03  0.10661169417E+04  0.12699999809E+01 0. -1.
       -4    1    3    3    0  502  0.83148916583E+03  0.30903829349E+03 -0.13909332848E+04  0.16497199506E+04  0.12699999809E+01 0.  1.
</event>
<event>
 5   0  0.2555801E-05  0.2531701E+04  0.7818609E-02  0.8391778E-01
       -2   -1    0    0    0  501  0.00000000000E+00  0.00000000000E+00  0.61545538604E+03  0.61545538604E+03  0.25500000920E-02 0. -1.
        2   -1    0    0  501    0  0.00000000000E+00  0.00000000000E+00 -0.26035642151E+04  0.26035642152E+04  0.25500000920E-02 0.  1.
    10030    2    1    2    0    0  0.00000000000E+00  0.00000000000E+00 -0.19881088291E+04  0.32190196012E+04  0.25317011033E+04 0.  0.
        1    1    3    3  502    0  0.35674659365E+03 -0.50886599716E+03 -0.23962462046E+04  0.24755218860E+04  0.50400001928E-02 0.  1.
       -1    1    3    3    0  502 -0.35674659365E+03  0.50886599716E+03  0.40813737549E+03  0.74349771516E+03  0.50400001928E-02 0. -1.
</event>
<event>
 5   0  0.2555801E-05  0.1962273E+04  0.7818609E-02  0.8624465E-01
        2   -1    0    0  501    0  0.00000000000E+00  0.00000000000E+00  0.98346186620E+03  0.98346186620E+03  0.25500000920E-02 0. -1.
       -2   -1    0    0    0  501  0.00000000000E+00  0.00000000000E+00 -0.97881636433E+03  0.97881636433E+03  0.25500000920E-02 0.  1.
    10030    2    1    2    0    0  0.00000000000E+00  0.00000000000E+00  0.46455018696E+01  0.19622782305E+04  0.19622727316E+04 0.  0.
        1    1    3    3  502    0 -0.40449195468E+03 -0.43642598730E+03  0.78241928034E+03  0.98298591753E+03  0.50400001928E-02 0. -1.
       -1    1    3    3    0  502  0.40449195468E+03  0.43642598730E+03 -0.77777377847E+03  0.97929231300E+03  0.50400001928E-02 0.  1.
</event>
<event>
 5   0  0.1005492E-05  0.2469251E+04  0.7818609E-02  0.8414023E-01
       -1   -1    0    0    0  501  0.00000000000E+00  0.00000000000E+00  0.14402765266E+04  0.14402765266E+04  0.50400001928E-02 0. -1.
        1   -1    0    0  501    0  0.00000000000E+00  0.00000000000E+00 -0.10583382009E+04  0.10583382009E+04  0.50400001928E-02 0.  1.
    10030    2    1    2    0    0  0.00000000000E+00  0.00000000000E+00  0.38193832569E+03  0.24986147275E+04  0.24692506296E+04 0.  0.
        4    1    3    3  502    0 -0.47558044205E+03 -0.59445308441E+03  0.11745087474E+04  0.13996512555E+04  0.12699999809E+01 0. -1.
       -4    1    3    3    0  502  0.47558044205E+03  0.59445308441E+03 -0.79257042170E+03  0.10989634720E+04  0.12699999809E+01 0.  1.
</event>
<event>
 5   0  0.2517854E-05  0.2609702E+04  0.7818609E-02  0.8364913E-01
        2   -1    0    0  501    0  0.00000000000E+00  0.00000000000E+00  0.10104775513E+04  0.10104775513E+04  0.25500000920E-02 0. -1.
       -2   -1    0    0    0  501  0.00000000000E+00  0.00000000000E+00 -0.16849819570E+04  0.16849819570E+04  0.25500000920E-02 0.  1.
    10030    2    1    2    0    0  0.00000000000E+00  0.00000000000E+00 -0.67450440567E+03  0.26954595083E+04  0.26097022374E+04 0.  0.
        4    1    3    3  502    0  0.33880016609E+03 -0.11475679976E+04  0.20036850330E+03  0.12131970210E+04  0.12699999809E+01 0. -1.
       -4    1    3    3    0  502 -0.33880016609E+03  0.11475679976E+04 -0.87487290897E+03  0.14822624874E+04  0.12699999809E+01 0.  1.
</event>
<event>
 5   0  0.2517854E-05  0.2523790E+04  0.7818609E-02  0.8394559E-01
       -2   -1    0    0    0  501  0.00000000000E+00  0.00000000000E+00  0.64336739070E+03  0.64336739070E+03  0.25500000920E-02 0.  1.
        2   -1    0    0  501    0  0.00000000000E+00  0.00000000000E+00 -0.24750696000E+04  0.24750696000E+04  0.25500000920E-02 0. -1.
    10030    2    1    2    0    0  0.00000000000E+00  0.00000000000E+00 -0.18317022093E+04  0.31184369907E+04  0.25237900629E+04 0.  0.
        4    1    3    3  502    0  0.19071847958E+03  0.10943748348E+04 -0.17618448196E+03  0.11247543741E+04  0.12699999809E+01 0.  1.
       -4    1    3    3    0  502 -0.19071847958E+03 -0.10943748348E+04 -0.16555177274E+04  0.19936826167E+04  0.12699999809E+01 0. -1.
</event>
<event>
 5   0  0.9855352E-06  0.2593779E+04  0.7818609E-02  0.8370318E-01
       -1   -1    0    0    0  501  0.00000000000E+00  0.00000000000E+00  0.90025110729E+03  0.90025110731E+03  0.50400001928E-02 0. -1.
        1   -1    0    0  501    0  0.00000000000E+00  0.00000000000E+00 -0.18682809070E+04  0.18682809070E+04  0.50400001928E-02 0.  1.
    10030    2    1    2    0    0  0.00000000000E+00  0.00000000000E+00 -0.96802979969E+03  0.27685320143E+04  0.25937786762E+04 0.  0.
        2    1    3    3  502    0  0.11475155775E+04  0.59499897310E+03 -0.59650101654E+03  0.14235972890E+04  0.25500000920E-02 0. -1.
       -2    1    3    3    0  502 -0.11475155775E+04 -0.59499897310E+03 -0.37152878315E+03  0.13449347253E+04  0.25500000920E-02 0.  1.
</event>
<event>
 5   0  0.2555801E-05  0.2498696E+04  0.7818609E-02  0.8403450E-01
       -2   -1    0    0    0  501  0.00000000000E+00  0.00000000000E+00  0.91243131298E+03  0.91243131298E+03  0.25500000920E-02 0. -1.
        2   -1    0    0  501    0  0.00000000000E+00  0.00000000000E+00 -0.17106720091E+04  0.17106720091E+04  0.25500000920E-02 0.  1.
    10030    2    1    2    0    0  0.00000000000E+00  0.00000000000E+00 -0.79824069614E+03  0.26231033221E+04  0.24986962259E+04 0.  0.
        1    1    3    3  502    0 -0.63521636974E+02  0.71969382925E+03 -0.14691206446E+04  0.16371651336E+04  0.50400001928E-02 0.  1.
       -1    1    3    3    0  502  0.63521636974E+02 -0.71969382925E+03  0.67087994848E+03  0.98593818849E+03  0.50400001928E-02 0. -1.
</event>
<event>
 5   0  0.1034714E-05  0.2366544E+04  0.7818609E-02  0.8452136E-01
       -1   -1    0    0    0  501  0.00000000000E+00  0.00000000000E+00  0.21587701832E+04  0.21587701832E+04  0.50400001928E-02 0. -1.
        1   -1    0    0  501    0  0.00000000000E+00  0.00000000000E+00 -0.64857878433E+03  0.64857878435E+03  0.50400001928E-02 0.  1.
    10030    2    1    2    0    0  0.00000000000E+00  0.00000000000E+00  0.15101913989E+04  0.28073489676E+04  0.23665439283E+04 0.  0.
        5    1    3    3  502    0  0.11128458678E+04 -0.33284281439E+01  0.12320768094E+04  0.16602627377E+04  0.46999998093E+01 0. -1.
       -5    1    3    3    0  502 -0.11128458678E+04  0.33284281439E+01  0.27811458950E+03  0.11470862299E+04  0.46999998093E+01 0.  1.
</event>
<event>
 5   0  0.1034714E-05  0.2563765E+04  0.7818609E-02  0.8380615E-01
       -1   -1    0    0    0  501  0.00000000000E+00  0.00000000000E+00  0.79987195340E+03  0.79987195341E+03  0.50400001928E-02 0. -1.
        1   -1    0    0  501    0  0.00000000000E+00  0.00000000000E+00 -0.20543568953E+04  0.20543568953E+04  0.50400001928E-02 0.  1.
    10030    2    1    2    0    0  0.00000000000E+00  0.00000000000E+00 -0.12544849419E+04  0.28542288487E+04  0.25637647808E+04 0.  0.
        5    1    3    3  502    0 -0.87854468910E+03 -0.56437127411E+02  0.41008078650E+03  0.97119218570E+03  0.46999998093E+01 0. -1.
       -5    1    3    3    0  502  0.87854468910E+03  0.56437127411E+02 -0.16645657284E+04  0.18830366630E+04  0.46999998093E+01 0.  1.
</event>
<event>
 5   0  0.1034714E-05  0.2590241E+04  0.7818609E-02  0.8371524E-01
        1   -1    0    0  501    0  0.00000000000E+00  0.00000000000E+00  0.14812463856E+04  0.14812463857E+04  0.50400001928E-02 0. -1.
       -1   -1    0    0    0  501  0.00000000000E+00  0.00000000000E+00 -0.11323820820E+04  0.11323820820E+04  0.50400001928E-02 0.  1.
    10030    2    1    2    0    0  0.00000000000E+00  0.00000000000E+00  0.34886430364E+03  0.26136284677E+04  0.25902408121E+04 0.  0.
        5    1    3    3  502    0  0.66928736272E+03 -0.84913389667E+03 -0.54498569263E+03  0.12107871173E+04  0.46999998093E+01 0.  1.
       -5    1    3    3    0  502 -0.66928736272E+03  0.84913389667E+03  0.89384999627E+03  0.14028413503E+04  0.46999998093E+01 0. -1.
</event>
<event>
 5   0  0.9855352E-06  0.2593582E+04  0.7818609E-02  0.8370384E-01
       -1   -1    0    0    0  501  0.00000000000E+00  0.00000000000E+00  0.10972422493E+04  0.10972422493E+04  0.50400001928E-02 0.  1.
        1   -1    0    0  501    0  0.00000000000E+00  0.00000000000E+00 -0.15326305999E+04  0.15326305999E+04  0.50400001928E-02 0. -1.
    10030    2    1    2    0    0  0.00000000000E+00  0.00000000000E+00 -0.43538835058E+03  0.26298728492E+04  0.25935821150E+04 0.  0.
        2    1    3    3  502    0 -0.10279866724E+04  0.70143077129E+03  0.15196878204E+03  0.12537369087E+04  0.25500000920E-02 0.  1.
       -2    1    3    3    0  502  0.10279866724E+04 -0.70143077129E+03 -0.58735713262E+03  0.13761359405E+04  0.25500000920E-02 0. -1.
</event>
<event>
 5   0  0.2484618E-05  0.2585519E+04  0.7818609E-02  0.8373137E-01
        2   -1    0    0  501    0  0.00000000000E+00  0.00000000000E+00  0.19075381597E+04  0.19075381597E+04  0.25500000920E-02 0. -1.
       -2   -1    0    0    0  501  0.00000000000E+00  0.00000000000E+00 -0.87611738767E+03  0.87611738767E+03  0.25500000920E-02 0.  1.
    10030    2    1    2    0    0  0.00000000000E+00  0.00000000000E+00  0.10314207720E+04  0.27836555474E+04  0.25855191737E+04 0.  0.
        3    1    3    3  502    0 -0.40088395544E+03 -0.26176379530E+03  0.18085666008E+04  0.18708664810E+04  0.10100000352E+00 0. -1.
       -3    1    3    3    0  502  0.40088395544E+03  0.26176379530E+03 -0.77714582875E+03  0.91278906633E+03  0.10100000352E+00 0.  1.
</event>
<event>
 5   0  0.2528460E-05  0.2460219E+04  0.7818609E-02  0.8417296E-01
       -2   -1    0    0    0  501  0.00000000000E+00  0.00000000000E+00  0.13991266785E+04  0.13991266785E+04  0.25500000920E-02 0. -1.
        2   -1    0    0  501    0  0.00000000000E+00  0.00000000000E+00 -0.10815098883E+04  0.10815098883E+04  0.25500000920E-02 0.  1.
    10030    2    1    2    0    0  0.00000000000E+00  0.00000000000E+00  0.31761679018E+03  0.24806365669E+04  0.24602189641E+04 0.  0.
        5    1    3    3  502    0  0.70798470902E+03  0.56992892891E+03  0.99459403025E+03  0.13473309568E+04  0.46999998093E+01 0. -1.
       -5    1    3    3    0  502 -0.70798470902E+03 -0.56992892891E+03 -0.67697724007E+03  0.11333056101E+04  0.46999998093E+01 0.  1.
</event>
<event>
 5   0  0.2662024E-05  0.2588455E+04  0.7818609E-02  0.8372133E-01
       -2   -1    0    0    0  501  0.00000000000E+00  0.00000000000E+00  0.14058530007E+04  0.14058530007E+04  0.25500000920E-02 0.  1.
        2   -1    0    0  501    0  0.00000000000E+00  0.00000000000E+00 -0.11914652581E+04  0.11914652581E+04  0.25500000920E-02 0. -1.
    10030    2    1    2    0    0  0.00000000000E+00  0.00000000000E+00  0.21438774262E+03  0.25973182588E+04  0.25884551441E+04 0.  0.
        2    1    3    3  502    0  0.23333997329E+03 -0.11430719031E+04 -0.45504972000E+03  0.12522504408E+04  0.25500000920E-02 0. -1.
       -2    1    3    3    0  502 -0.23333997329E+03  0.11430719031E+04  0.66943746261E+03  0.13450678180E+04  0.25500000920E-02 0.  1.
</event>
<event>
 5   0  0.9855352E-06  0.2597313E+04  0.7818609E-02  0.8369114E-01
        1   -1    0    0  501    0  0.00000000000E+00  0.00000000000E+00  0.66781146683E+03  0.66781146685E+03  0.50400001928E-02 0.  1.
       -1   -1    0    0    0  501  0.00000000000E+00  0.00000000000E+00 -0.25254266183E+04  0.25254266183E+04  0.50400001928E-02 0. -1.
    10030    2    1    2    0    0  0.00000000000E+00  0.00000000000E+00 -0.18576151515E+04  0.31932380852E+04  0.25973131150E+04 0.  0.
        2    1    3    3  502    0 -0.66060177548E+03  0.55668902808E+03 -0.21209270030E+04  0.22901154407E+04  0.25500000920E-02 0. -1.
       -2    1    3    3    0  502  0.66060177548E+03 -0.55668902808E+03  0.26331185151E+03  0.90312264445E+03  0.25500000920E-02 0.  1.
</event>
<event>
 5   0  0.2555801E-05  0.2686523E+04  0.7818609E-02  0.8339391E-01
       -2   -1    0    0    0  501  0.00000000000E+00  0.00000000000E+00  0.11906710259E+04  0.11906710259E+04  0.25500000920E-02 0.  1.
        2   -1    0    0  501    0  0.00000000000E+00  0.00000000000E+00 -0.15154070101E+04  0.15154070101E+04  0.25500000920E-02 0. -1.
    10030    2    1    2    0    0  0.00000000000E+00  0.00000000000E+00 -0.32473598424E+03  0.27060780360E+04  0.26865228228E+04 0.  0.
        1    1    3    3  502    0 -0.11664527842E+03 -0.45452346707E+03  0.11054251984E+04  0.12009007337E+04  0.50400001928E-02 0.  1.
       -1    1    3    3    0  502  0.11664527842E+03  0.45452346707E+03 -0.14301611826E+04  0.15051773023E+04  0.50400001928E-02 0. -1.
</event>
<event>
 5   0  0.8605000E-06  0.2585814E+04  0.7818609E-02  0.8373036E-01
        3   -1    0    0  501    0  0.00000000000E+00  0.00000000000E+00  0.13766078815E+04  0.13766078853E+04  0.10100000352E+00 0. -1.
       -3   -1    0    0    0  501  0.00000000000E+00  0.00000000000E+00 -0.12142952466E+04  0.12142952508E+04  0.10100000352E+00 0.  1.
    10030    2    1    2    0    0  0.00000000000E+00  0.00000000000E+00  0.16231263492E+03  0.25909031361E+04  0.25858139278E+04 0.  0.
        5    1    3    3  502    0  0.45861396904E+03  0.91353327628E+03 -0.71205604368E+03  0.12457590934E+04  0.46999998093E+01 0.  1.
       -5    1    3    3    0  502 -0.45861396904E+03 -0.91353327628E+03  0.87436867860E+03  0.13451440427E+04  0.46999998093E+01 0. -1.
</event>
<event>
 5   0  0.9855352E-06  0.2559329E+04  0.7818609E-02  0.8382149E-01
       -1   -1    0    0    0  501  0.00000000000E+00  0.00000000000E+00  0.12858895199E+04  0.12858895199E+04  0.50400001928E-02 0. -1.
        1   -1    0    0  501    0  0.00000000000E+00  0.00000000000E+00 -0.12734691828E+04  0.12734691828E+04  0.50400001928E-02 0.  1.
    10030    2    1    2    0    0  0.00000000000E+00  0.00000000000E+00  0.12420337084E+02  0.25593587027E+04  0.25593285651E+04 0.  0.
        2    1    3    3  502    0 -0.64492977065E+03  0.59946871202E+02  0.11098592638E+04  0.12850352609E+04  0.25500000920E-02 0. -1.
       -2    1    3    3    0  502  0.64492977065E+03 -0.59946871202E+02 -0.10974389267E+04  0.12743234418E+04  0.25500000920E-02 0.  1.
</event>
<event>
 5   0  0.1025153E-05  0.2595173E+04  0.7818609E-02  0.8369843E-01
        1   -1    0    0  501    0  0.00000000000E+00  0.00000000000E+00  0.17211681796E+04  0.17211681796E+04  0.50400001928E-02 0.  1.
       -1   -1    0    0    0  501  0.00000000000E+00  0.00000000000E+00 -0.97824881720E+03  0.97824881721E+03  0.50400001928E-02 0. -1.
    10030    2    1    2    0    0  0.00000000000E+00  0.00000000000E+00  0.74291936235E+03  0.26994169968E+04  0.25951730084E+04 0.  0.
        1    1    3    3  502    0  0.18960606527E+03  0.35575544267E+03  0.16543792775E+04  0.17027868889E+04  0.50400001928E-02 0.  1.
       -1    1    3    3    0  502 -0.18960606527E+03 -0.35575544267E+03 -0.91145991517E+03  0.99663010790E+03  0.50400001928E-02 0. -1.
</event>
<event>
 5   0  0.1000421E-05  0.2436255E+04  0.7818609E-02  0.8426054E-01
        1   -1    0    0  501    0  0.00000000000E+00  0.00000000000E+00  0.96124412197E+03  0.96124412198E+03  0.50400001928E-02 0. -1.
       -1   -1    0    0    0  501  0.00000000000E+00  0.00000000000E+00 -0.15436600109E+04  0.15436600109E+04  0.50400001928E-02 0.  1.
    10030    2    1    2    0    0  0.00000000000E+00  0.00000000000E+00 -0.58241588897E+03  0.25049041329E+04  0.24362545941E+04 0.  0.
        3    1    3    3  502    0  0.86149944247E+03  0.86118923753E+03 -0.28870850861E+03  0.12518709220E+04  0.10100000352E+00 0. -1.
       -3    1    3    3    0  502 -0.86149944247E+03 -0.86118923753E+03 -0.29370738036E+03  0.12530332109E+04  0.10100000352E+00 0.  1.
</event>
<event>
 5   0  0.9855352E-06  0.2065129E+04  0.7818609E-02  0.8576762E-01
       -1   -1    0    0    0  501  0.00000000000E+00  0.00000000000E+00  0.85598003210E+03  0.85598003211E+03  0.50400001928E-02 0. -1.
        1   -1    0    0  501    0  0.00000000000E+00  0.00000000000E+00 -0.12455780200E+04  0.12455780200E+04  0.50400001928E-02 0.  1.
    10030    2    1    2    0    0  0.00000000000E+00  0.00000000000E+00 -0.38959798793E+03  0.21015580522E+04  0.20651294522E+04 0.  0.
        2    1    3    3  502    0  0.10214793983E+04  0.14681640094E+03 -0.15933170005E+03  0.10442039109E+04  0.25500000920E-02 0. -1.
       -2    1    3    3    0  502 -0.10214793983E+04 -0.14681640094E+03 -0.23026628788E+03  0.10573541413E+04  0.25500000920E-02 0.  1.
</event>
<event>
 5   0  0.1000421E-05  0.2573965E+04  0.7818609E-02  0.8377099E-01
        1   -1    0    0  501    0  0.00000000000E+00  0.00000000000E+00  0.16670874047E+04  0.16670874047E+04  0.50400001928E-02 0. -1.
       -1   -1    0    0    0  501  0.00000000000E+00  0.00000000000E+00 -0.99354394059E+03  0.99354394060E+03  0.50400001928E-02 0.  1.
    10030    2    1    2    0    0  0.00000000000E+00  0.00000000000E+00  0.67354346414E+03  0.26606313453E+04  0.25739654927E+04 0.  0.
        3    1    3    3  502    0  0.10754615649E+04  0.41894263150E+03  0.92532329638E+03  0.14793085274E+04  0.10100000352E+00 0. -1.
       -3    1    3    3    0  502 -0.10754615649E+04 -0.41894263150E+03 -0.25177983224E+03  0.11813228180E+04  0.10100000352E+00 0.  1.
</event>
<event>
 5   0  0.1005492E-05  0.2602785E+04  0.7818609E-02  0.8367256E-01
       -1   -1    0    0    0  501  0.00000000000E+00  0.00000000000E+00  0.85174653757E+03  0.85174653758E+03  0.50400001928E-02 0.  1.
        1   -1    0    0  501    0  0.00000000000E+00  0.00000000000E+00 -0.19884107150E+04  0.19884107150E+04  0.50400001928E-02 0. -1.
    10030    2    1    2    0    0  0.00000000000E+00  0.00000000000E+00 -0.11366641775E+04  0.28401572526E+04  0.26027846179E+04 0.  0.
        4    1    3    3  502    0  0.48062741604E+03  0.20622286939E+03 -0.18686874440E+04  0.19404960606E+04  0.12699999809E+01 0. -1.
       -4    1    3    3    0  502 -0.48062741604E+03 -0.20622286939E+03  0.73202326650E+03  0.89966119206E+03  0.12699999809E+01 0.  1.
</event>
<event>
 5   0  0.9855352E-06  0.2369709E+04  0.7818609E-02  0.8450932E-01
       -1   -1    0    0    0  501  0.00000000000E+00  0.00000000000E+00  0.10719405430E+04  0.10719405430E+04  0.50400001928E-02 0. -1.
        1   -1    0    0  501    0  0.00000000000E+00  0.00000000000E+00 -0.13096625669E+04  0.13096625669E+04  0.50400001928E-02 0.  1.
    10030    2    1    2    0    0  0.00000000000E+00  0.00000000000E+00 -0.23772202384E+03  0.23816031099E+04  0.23697091831E+04 0.  0.
        2    1    3    3  502    0  0.12501927503E+03 -0.10939050981E+04 -0.55880488239E+03  0.12347149790E+04  0.25500000920E-02 0.  1.
       -2    1    3    3    0  502 -0.12501927503E+03  0.10939050981E+04  0.32108285854E+03  0.11468881309E+04  0.25500000920E-02 0. -1.
</event>
<event>
 5   0  0.2662024E-05  0.2575670E+04  0.7818609E-02  0.8376513E-01
       -2   -1    0    0    0  501  0.00000000000E+00  0.00000000000E+00  0.85089363851E+03  0.85089363851E+03  0.25500000920E-02 0.  1.
        2   -1    0    0  501    0  0.00000000000E+00  0.00000000000E+00 -0.19491499458E+04  0.19491499458E+04  0.25500000920E-02 0. -1.
    10030    2    1    2    0    0  0.00000000000E+00  0.00000000000E+00 -0.10982563073E+04  0.28000435843E+04  0.25756702346E+04 0.  0.
        2    1    3    3  502    0 -0.46506809303E+03 -0.72335227295E+03 -0.15912788029E+04  0.18087827593E+04  0.25500000920E-02 0. -1.
       -2    1    3    3    0  502  0.46506809303E+03  0.72335227295E+03  0.49302249561E+03  0.99126082497E+03  0.25500000920E-02 0.  1.
</event>
<event>
 5   0  0.9855352E-06  0.2583887E+04  0.7818609E-02  0.8373695E-01
       -1   -1    0    0    0  501  0.00000000000E+00  0.00000000000E+00  0.12992714311E+04  0.12992714311E+04  0.50400001928E-02 0. -1.
        1   -1    0    0  501    0  0.00000000000E+00  0.00000000000E+00 -0.12846565505E+04  0.12846565505E+04  0.50400001928E-02 0.  1.
    10030    2    1    2    0    0  0.00000000000E+00  0.00000000000E+00  0.14614880593E+02  0.25839279815E+04  0.25838866498E+04 0.  0.
        2    1    3    3  502    0 -0.55627036726E+03 -0.78057516471E+03 -0.85895305858E+03  0.12870643597E+04  0.25500000920E-02 0.  1.
       -2    1    3    3    0  502  0.55627036726E+03  0.78057516471E+03  0.87356793917E+03  0.12968636218E+04  0.25500000920E-02 0. -1.
</event>
<event>
 5   0  0.1034714E-05  0.2671637E+04  0.7818609E-02  0.8344267E-01
       -1   -1    0    0    0  501  0.00000000000E+00  0.00000000000E+00  0.77618248011E+03  0.77618248012E+03  0.50400001928E-02 0.  1.
        1   -1    0    0  501    0  0.00000000000E+00  0.00000000000E+00 -0.22989580023E+04  0.22989580023E+04  0.50400001928E-02 0. -1.
    10030    2    1    2    0    0  0.00000000000E+00  0.00000000000E+00 -0.15227755222E+04  0.30751404825E+04  0.26716368945E+04 0.  0.
        5    1    3    3  502    0  0.87737579296E+03 -0.85092560303E+03 -0.14097580636E+03  0.12303491098E+04  0.46999998093E+01 0.  1.
       -5    1    3    3    0  502 -0.87737579296E+03  0.85092560303E+03 -0.13817997159E+04  0.18447913727E+04  0.46999998093E+01 0. -1.
</event>
<event>
 5   0  0.8605000E-06  0.2615112E+04  0.7818609E-02  0.8363086E-01
       -3   -1    0    0    0  501  0.00000000000E+00  0.00000000000E+00  0.10196772347E+04  0.10196772397E+04  0.10100000352E+00 0.  1.
        3   -1    0    0  501    0  0.00000000000E+00  0.00000000000E+00 -0.16767099612E+04  0.16767099642E+04  0.10100000352E+00 0. -1.
    10030    2    1    2    0    0  0.00000000000E+00  0.00000000000E+00 -0.65703272648E+03  0.26963872039E+04  0.26151122250E+04 0.  0.
        1    1    3    3  502    0  0.25606586091E+03  0.87947561796E+03  0.63357252806E+03  0.11137599544E+04  0.50400001928E-02 0.  1.
       -1    1    3    3    0  502 -0.25606586091E+03 -0.87947561796E+03 -0.12906052545E+04  0.15826272495E+04  0.50400001928E-02 0. -1.
</event>
<event>
 5   0  0.2484618E-05  0.2617198E+04  0.7818609E-02  0.8362383E-01
        2   -1    0    0  501    0  0.00000000000E+00  0.00000000000E+00  0.86960844267E+03  0.86960844267E+03  0.25500000920E-02 0.  1.
       -2   -1    0    0    0  501  0.00000000000E+00  0.00000000000E+00 -0.19691984955E+04  0.19691984955E+04  0.25500000920E-02 0. -1.
    10030    2    1    2    0    0  0.00000000000E+00  0.00000000000E+00 -0.10995900528E+04  0.28388069382E+04  0.26171982248E+04 0.  0.
        3    1    3    3  502    0  0.61111616499E+03 -0.10969951580E+04 -0.94917059367E+03  0.15740985261E+04  0.10100000352E+00 0. -1.
       -3    1    3    3    0  502 -0.61111616499E+03  0.10969951580E+04 -0.15041945914E+03  0.12647084121E+04  0.10100000352E+00 0.  1.
</event>
<event>
 5   0  0.2484618E-05  0.2550070E+04  0.7818609E-02  0.8385362E-01
       -2   -1    0    0    0  501  0.00000000000E+00  0.00000000000E+00  0.12503200535E+04  0.12503200535E+04  0.25500000920E-02 0. -1.
        2   -1    0    0  501    0  0.00000000000E+00  0.00000000000E+00 -0.13002386773E+04  0.13002386773E+04  0.25500000920E-02 0.  1.
    10030    2    1    2    0    0  0.00000000000E+00  0.00000000000E+00 -0.49918623833E+02  0.25505587308E+04  0.25500701893E+04 0.  0.
        3    1    3    3  502    0 -0.31383901731E+03  0.76274899911E+03 -0.99747964808E+03  0.12943131858E+04  0.10100000352E+00 0.  1.
       -3    1    3    3    0  502  0.31383901731E+03 -0.76274899911E+03  0.94756102424E+03  0.12562455450E+04  0.10100000352E+00 0. -1.
</event>
<event>
 5   0  0.2517854E-05  0.2546898E+04  0.7818609E-02  0.8386466E-01
       -2   -1    0    0    0  501  0.00000000000E+00  0.00000000000E+00  0.10257066765E+04  0.10257066765E+04  0.25500000920E-02 0.  1.
        2   -1    0    0  501    0  0.00000000000E+00  0.00000000000E+00 -0.15810292304E+04  0.15810292304E+04  0.25500000920E-02 0. -1.
    10030    2    1    2    0    0  0.00000000000E+00  0.00000000000E+00 -0.55532255396E+03  0.26067359069E+04  0.25468979071E+04 0.  0.
        4    1    3    3  502    0 -0.14848585420E+03 -0.61459468564E+03  0.85370338634E+03  0.10623491711E+04  0.12699999809E+01 0.  1.
       -4    1    3    3    0  502  0.14848585420E+03  0.61459468564E+03 -0.14090259403E+04  0.15443867358E+04  0.12699999809E+01 0. -1.
</event>
<event>
 5   0  0.2484618E-05  0.2588309E+04  0.7818609E-02  0.8372183E-01
        2   -1    0    0  501    0  0.00000000000E+00  0.00000000000E+00  0.15549867275E+04  0.15549867275E+04  0.25500000920E-02 0.  1.
       -2   -1    0    0    0  501  0.00000000000E+00  0.00000000000E+00 -0.10770744760E+04  0.10770744760E+04  0.25500000920E-02 0. -1.
    10030    2    1    2    0    0  0.00000000000E+00  0.00000000000E+00  0.47791225153E+03  0.26320612035E+04  0.25883094982E+04 0.  0.
        3    1    3    3  502    0 -0.72764436676E+03  0.10251313854E+04  0.55152096269E+03  0.13727840559E+04  0.10100000352E+00 0.  1.
       -3    1    3    3    0  502  0.72764436676E+03 -0.10251313854E+04 -0.73608711157E+02  0.12592771475E+04  0.10100000352E+00 0. -1.
</event>
<event>
 5   0  0.2555801E-05  0.2587175E+04  0.7818609E-02  0.8372571E-01
       -2   -1    0    0    0  501  0.00000000000E+00  0.00000000000E+00  0.75302344889E+03  0.75302344890E+03  0.25500000920E-02 0.  1.
        2   -1    0    0  501    0  0.00000000000E+00  0.00000000000E+00 -0.22221996640E+04  0.22221996640E+04  0.25500000920E-02 0. -1.
    10030    2    1    2    0    0  0.00000000000E+00  0.00000000000E+00 -0.14691762151E+04  0.29752231129E+04  0.25871748724E+04 0.  0.
        1    1    3    3  502    0  0.10545006301E+04 -0.52618743130E+03 -0.12117514310E+03  0.11847059580E+04  0.50400001928E-02 0.  1.
       -1    1    3    3    0  502 -0.10545006301E+04  0.52618743130E+03 -0.13480010720E+04  0.17905171548E+04  0.50400001928E-02 0. -1.
</event>
<event>
 5   0  0.2484618E-05  0.2655371E+04  0.7818609E-02  0.8349632E-01
        2   -1    0    0  501    0  0.00000000000E+00  0.00000000000E+00  0.13004541068E+04  0.13004541068E+04  0.25500000920E-02 0.  1.
       -2   -1    0    0    0  501  0.00000000000E+00  0.00000000000E+00 -0.13554875932E+04  0.13554875932E+04  0.25500000920E-02 0. -1.
    10030    2    1    2    0    0  0.00000000000E+00  0.00000000000E+00 -0.55033486388E+02  0.26559417000E+04  0.26553714672E+04 0.  0.
        3    1    3    3  502    0 -0.38691605962E+02 -0.36140095073E+03 -0.13047567892E+04  0.13544364056E+04  0.10100000352E+00 0. -1.
       -3    1    3    3    0  502  0.38691605962E+02  0.36140095073E+03  0.12497233028E+04  0.13015052944E+04  0.10100000352E+00 0.  1.
</event>
<event>
 5   0  0.2528460E-05  0.2594594E+04  0.7818609E-02  0.8370040E-01
        2   -1    0    0  501    0  0.00000000000E+00  0.00000000000E+00  0.22247485411E+04  0.22247485411E+04  0.25500000920E-02 0.  1.
       -2   -1    0    0    0  501  0.00000000000E+00  0.00000000000E+00 -0.75648065591E+03  0.75648065591E+03  0.25500000920E-02 0. -1.
    10030    2    1    2    0    0  0.00000000000E+00  0.00000000000E+00  0.14682678851E+04  0.29812291970E+04  0.25945937914E+04 0.  0.
        5    1    3    3  502    0 -0.22041408074E+03 -0.69845933596E+03  0.19644553388E+04  0.20965530471E+04  0.46999998093E+01 0.  1.
       -5    1    3    3    0  502  0.22041408074E+03  0.69845933596E+03 -0.49618745368E+03  0.88467614988E+03  0.46999998093E+01 0. -1.
</event>
<event>
 5   0  0.1000421E-05  0.2564334E+04  0.7818609E-02  0.8380418E-01
        1   -1    0    0  501    0  0.00000000000E+00  0.00000000000E+00  0.31139932013E+04  0.31139932013E+04  0.50400001928E-02 0. -1.
       -1   -1    0    0    0  501  0.00000000000E+00  0.00000000000E+00 -0.52792426134E+03  0.52792426136E+03  0.50400001928E-02 0.  1.
    10030    2    1    2    0    0  0.00000000000E+00  0.00000000000E+00  0.25860689399E+04  0.36419174627E+04  0.25643342689E+04 0.  0.
        3    1    3    3  502    0  0.10810556046E+04 -0.67938038116E+03  0.14593495551E+04  0.19390564862E+04  0.10100000352E+00 0. -1.
       -3    1    3    3    0  502 -0.10810556046E+04  0.67938038116E+03  0.11267193848E+04  0.17028609764E+04  0.10100000352E+00 0.  1.
</event>
<event>
 5   0  0.1025153E-05  0.2613749E+04  0.7818609E-02  0.8363546E-01
        1   -1    0    0  501    0  0.00000000000E+00  0.00000000000E+00  0.18336553029E+04  0.18336553030E+04  0.50400001928E-02 0.  1.
       -1   -1    0    0    0  501  0.00000000000E+00  0.00000000000E+00 -0.93142994979E+03  0.93142994980E+03  0.50400001928E-02 0. -1.
    10030    2    1    2    0    0  0.00000000000E+00  0.00000000000E+00  0.90222535316E+03  0.27650852528E+04  0.26137493887E+04 0.  0.
        1    1    3    3  502    0  0.38761896117E+03  0.36966904924E+03 -0.80997226820E+03  0.97106062649E+03  0.50400001928E-02 0. -1.
       -1    1    3    3    0  502 -0.38761896117E+03 -0.36966904924E+03  0.17121976214E+04  0.17940246263E+04  0.50400001928E-02 0.  1.
</event>
<event>
 5   0  0.1000421E-05  0.2604226E+04  0.7818609E-02  0.8366767E-01
        1   -1    0    0  501    0  0.00000000000E+00  0.00000000000E+00  0.19154101868E+04  0.19154101868E+04  0.50400001928E-02 0.  1.
       -1   -1    0    0    0  501  0.00000000000E+00  0.00000000000E+00 -0.88518822308E+03  0.88518822309E+03  0.50400001928E-02 0. -1.
    10030    2    1    2    0    0  0.00000000000E+00  0.00000000000E+00  0.10302219637E+04  0.28005984099E+04  0.26042262112E+04 0.  0.
        3    1    3    3  502    0 -0.11202466109E+04  0.66222215863E+03  0.46692283386E+03  0.13825728189E+04  0.10100000352E+00 0.  1.
       -3    1    3    3    0  502  0.11202466109E+04 -0.66222215863E+03  0.56329912985E+03  0.14180255909E+04  0.10100000352E+00 0. -1.
</event>
<event>
 5   0  0.1025153E-05  0.2674723E+04  0.7818609E-02  0.8343253E-01
       -1   -1    0    0    0  501  0.00000000000E+00  0.00000000000E+00  0.81772189846E+03  0.81772189848E+03  0.50400001928E-02 0. -1.
        1   -1    0    0  501    0  0.00000000000E+00  0.00000000000E+00 -0.21872169842E+04  0.21872169842E+04  0.50400001928E-02 0.  1.
    10030    2    1    2    0    0  0.00000000000E+00  0.00000000000E+00 -0.13694950858E+04  0.30049388827E+04  0.26747225835E+04 0.  0.
        1    1    3    3  502    0  0.12175188257E+03 -0.10449476776E+04  0.24290243950E+03  0.10796947555E+04  0.50400001928E-02 0. -1.
       -1    1    3    3    0  502 -0.12175188257E+03  0.10449476776E+04 -0.16123975253E+04  0.19252441272E+04  0.50400001928E-02 0.  1.
</event>
<event>
 5   0  0.1005492E-05  0.2640524E+04  0.7818609E-02  0.8354565E-01
       -1   -1    0    0    0  501  0.00000000000E+00  0.00000000000E+00  0.10626392277E+04  0.10626392277E+04  0.50400001928E-02 0.  1.
        1   -1    0    0  501    0  0.00000000000E+00  0.00000000000E+00 -0.16403421873E+04  0.16403421873E+04  0.50400001928E-02 0. -1.
    10030    2    1    2    0    0  0.00000000000E+00  0.00000000000E+00 -0.57770295962E+03  0.27029814150E+04  0.26405241564E+04 0.  0.
        4    1    3    3  502    0 -0.10647508054E+04 -0.47690096189E+03  0.34379738193E+03  0.12162758970E+04  0.12699999809E+01 0.  1.
       -4    1    3    3    0  502  0.10647508054E+04  0.47690096189E+03 -0.92150034156E+03  0.14867055180E+04  0.12699999809E+01 0. -1.
</event>
<event>
 5   0  0.2517854E-05  0.2598247E+04  0.7818609E-02  0.8368797E-01
        2   -1    0    0  501    0  0.00000000000E+00  0.00000000000E+00  0.12474917606E+04  0.12474917606E+04  0.25500000920E-02 0. -1.
       -2   -1    0    0    0  501  0.00000000000E+00  0.00000000000E+00 -0.13528922619E+04  0.13528922619E+04  0.25500000920E-02 0.  1.
    10030    2    1    2    0    0  0.00000000000E+00  0.00000000000E+00 -0.10540050132E+03  0.26003840225E+04  0.25982470627E+04 0.  0.
        4    1    3    3  502    0  0.11348203298E+04  0.21389850860E+03 -0.64829522578E+03  0.13243330644E+04  0.12699999809E+01 0. -1.
       -4    1    3    3    0  502 -0.11348203298E+04 -0.21389850860E+03  0.54289472446E+03  0.12760509581E+04  0.12699999809E+01 0.  1.
</event>
<event>
 5   0  0.2528460E-05  0.2588484E+04  0.7818609E-02  0.8372123E-01
       -2   -1    0    0    0  501  0.00000000000E+00  0.00000000000E+00  0.84598072965E+03  0.84598072965E+03  0.25500000920E-02 0. -1.
        2   -1    0    0  501    0  0.00000000000E+00  0.00000000000E+00 -0.19800241655E+04  0.19800241655E+04  0.25500000920E-02 0.  1.
    10030    2    1    2    0    0  0.00000000000E+00  0.00000000000E+00 -0.11340434358E+04  0.28260048952E+04  0.25884839488E+04 0.  0.
        5    1    3    3  502    0  0.10923221961E+04 -0.15619410612E+03  0.17141197681E+03  0.11166774533E+04  0.46999998093E+01 0.  1.
       -5    1    3    3    0  502 -0.10923221961E+04  0.15619410612E+03 -0.13054554127E+04  0.17093274418E+04  0.46999998093E+01 0. -1.
</event>
<event>
 5   0  0.1025153E-05  0.2608812E+04  0.7818609E-02  0.8365214E-01
        1   -1    0    0  501    0  0.00000000000E+00  0.00000000000E+00  0.10538613555E+04  0.10538613555E+04  0.50400001928E-02 0. -1.
       -1   -1    0    0    0  501  0.00000000000E+00  0.00000000000E+00 -0.16145149167E+04  0.16145149167E+04  0.50400001928E-02 0.  1.
    10030    2    1    2    0    0  0.00000000000E+00  0.00000000000E+00 -0.56065356122E+03  0.26683762722E+04  0.26088118971E+04 0.  0.
        1    1    3    3  502    0 -0.39575920647E+02  0.10337055209E+04  0.53239773210E+03  0.11634262772E+04  0.50400001928E-02 0. -1.
       -1    1    3    3    0  502  0.39575920647E+02 -0.10337055209E+04 -0.10930512933E+04  0.15049499949E+04  0.50400001928E-02 0.  1.
</event>
<event>
 5   0  0.2484618E-05  0.2778043E+04  0.7818609E-02  0.8310118E-01
       -2   -1    0    0    0  501  0.00000000000E+00  0.00000000000E+00  0.12349864749E+04  0.12349864749E+04  0.25500000920E-02 0. -1.
        2   -1    0    0  501    0  0.00000000000E+00  0.00000000000E+00 -0.15622685572E+04  0.15622685572E+04  0.25500000920E-02 0.  1.
    10030    2    1    2    0    0  0.00000000000E+00  0.00000000000E+00 -0.32728208234E+03  0.27972550321E+04  0.27780428638E+04 0.  0.
        3    1    3    3  502    0  0.96754501325E+03 -0.95159728867E+01  0.83981836018E+03  0.12812216025E+04  0.10100000352E+00 0. -1.
       -3    1    3    3    0  502 -0.96754501325E+03  0.95159728867E+01 -0.11671004425E+04  0.15160334296E+04  0.10100000352E+00 0.  1.
</event>
<event>
 5   0  0.2555801E-05  0.2601551E+04  0.7818609E-02  0.8367675E-01
        2   -1    0    0  501    0  0.00000000000E+00  0.00000000000E+00  0.16260320889E+04  0.16260320889E+04  0.25500000920E-02 0. -1.
       -2   -1    0    0    0  501  0.00000000000E+00  0.00000000000E+00 -0.10405801239E+04  0.10405801239E+04  0.25500000920E-02 0.  1.
    10030    2    1    2    0    0  0.00000000000E+00  0.00000000000E+00  0.58545196499E+03  0.26666122128E+04  0.26015508241E+04 0.  0.
        1    1    3    3  502    0 -0.78972744171E+02 -0.11552174883E+04 -0.31476142709E+03  0.11999328713E+04  0.50400001928E-02 0.  1.
       -1    1    3    3    0  502  0.78972744171E+02  0.11552174883E+04  0.90021339208E+03  0.14666793415E+04  0.50400001928E-02 0. -1.
</event>
<event>
 5   0  0.2662024E-05  0.2512646E+04  0.7818609E-02  0.8398494E-01
        2   -1    0    0  501    0  0.00000000000E+00  0.00000000000E+00  0.91142301473E+03  0.91142301473E+03  0.25500000920E-02 0.  1.
       -2   -1    0    0    0  501  0.00000000000E+00  0.00000000000E+00 -0.17317393152E+04  0.17317393152E+04  0.25500000920E-02 0. -1.
    10030    2    1    2    0    0  0.00000000000E+00  0.00000000000E+00 -0.82031630051E+03  0.26431623300E+04  0.25126456713E+04 0.  0.
        2    1    3    3  502    0  0.81570091036E+03 -0.15703757962E+03 -0.14016220117E+04  0.16292860523E+04  0.25500000920E-02 0. -1.
       -2    1    3    3    0  502 -0.81570091036E+03  0.15703757962E+03  0.58130571117E+03  0.10138762777E+04  0.25500000920E-02 0.  1.
</event>
<event>
 5   0  0.9855352E-06  0.2379885E+04  0.7818609E-02  0.8447073E-01
        1   -1    0    0  501    0  0.00000000000E+00  0.00000000000E+00  0.13380805583E+04  0.13380805583E+04  0.50400001928E-02 0. -1.
       -1   -1    0    0    0  501  0.00000000000E+00  0.00000000000E+00 -0.10582045695E+04  0.10582045695E+04  0.50400001928E-02 0.  1.
    10030    2    1    2    0    0  0.00000000000E+00  0.00000000000E+00  0.27987598875E+03  0.23962851278E+04  0.23798848385E+04 0.  0.
        2    1    3    3  502    0  0.50430227795E+03 -0.21707640774E+03  0.12029213996E+04  0.13222945390E+04  0.25500000920E-02 0. -1.
       -2    1    3    3    0  502 -0.50430227795E+03  0.21707640774E+03 -0.92304541082E+03  0.10739905888E+04  0.25500000920E-02 0.  1.
</event>
<event>
 5   0  0.1005492E-05  0.2153130E+04  0.7818609E-02  0.8538194E-01
       -1   -1    0    0    0  501  0.00000000000E+00  0.00000000000E+00  0.10871959026E+04  0.10871959026E+04  0.50400001928E-02 0.  1.
        1   -1    0    0  501    0  0.00000000000E+00  0.00000000000E+00 -0.10660381707E+04  0.10660381708E+04  0.50400001928E-02 0. -1.
    10030    2    1    2    0    0  0.00000000000E+00  0.00000000000E+00  0.21157731884E+02  0.21532340734E+04  0.21531301227E+04 0.  0.
        4    1    3    3  502    0 -0.48736177536E+03  0.94824369025E+03 -0.13877064295E+03  0.10751495247E+04  0.12699999809E+01 0. -1.
       -4    1    3    3    0  502  0.48736177536E+03 -0.94824369025E+03  0.15992837483E+03  0.10780845487E+04  0.12699999809E+01 0.  1.
</event>
<event>
 5   0  0.2528460E-05  0.2594712E+04  0.7818609E-02  0.8370000E-01
        2   -1    0    0  501    0  0.00000000000E+00  0.00000000000E+00  0.17140572621E+04  0.17140572621E+04  0.25500000920E-02 0.  1.
       -2   -1    0    0    0  501  0.00000000000E+00  0.00000000000E+00 -0.98195795762E+03  0.98195795762E+03  0.25500000920E-02 0. -1.
    10030    2    1    2    0    0  0.00000000000E+00  0.00000000000E+00  0.73209930452E+03  0.26960152198E+04  0.25947116744E+04 0.  0.
        5    1    3    3  502    0  0.20290715663E+03  0.85945599790E+03 -0.62146381040E+03  0.10798496581E+04  0.46999998093E+01 0. -1.
       -5    1    3    3    0  502 -0.20290715663E+03 -0.85945599790E+03  0.13535631149E+04  0.16161655616E+04  0.46999998093E+01 0.  1.
</event>
<event>
 5   0  0.9855352E-06  0.2566317E+04  0.7818609E-02  0.8379734E-01
       -1   -1    0    0    0  501  0.00000000000E+00  0.00000000000E+00  0.90016088080E+03  0.90016088081E+03  0.50400001928E-02 0. -1.
        1   -1    0    0  501    0  0.00000000000E+00  0.00000000000E+00 -0.18291121504E+04  0.18291121504E+04  0.50400001928E-02 0.  1.
    10030    2    1    2    0    0  0.00000000000E+00  0.00000000000E+00 -0.92895126959E+03  0.27292730312E+04  0.25663165856E+04 0.  0.
        2    1    3    3  502    0 -0.78977345096E+03  0.34716000913E+02  0.61041955832E+03  0.99877892536E+03  0.25500000920E-02 0. -1.
       -2    1    3    3    0  502  0.78977345096E+03 -0.34716000913E+02 -0.15393708279E+04  0.17304941059E+04  0.25500000920E-02 0.  1.
</event>
<event>
 5   0  0.1034714E-05  0.2502926E+04  0.7818609E-02  0.8401944E-01
        1   -1    0    0  501    0  0.00000000000E+00  0.00000000000E+00  0.12888986630E+04  0.12888986630E+04  0.50400001928E-02 0.  1.
       -1   -1    0    0    0  501  0.00000000000E+00  0.00000000000E+00 -0.12151144125E+04  0.12151144125E+04  0.50400001928E-02 0. -1.
    10030    2    1    2    0    0  0.00000000000E+00  0.00000000000E+00  0.73784250475E+02  0.25040130755E+04  0.25029257613E+04 0.  0.
        5    1    3    3  502    0  0.54231968459E+02  0.11851950753E+04  0.43519669046E+03  0.12637431393E+04  0.46999998093E+01 0.  1.
       -5    1    3    3    0  502 -0.54231968459E+02 -0.11851950753E+04 -0.36141243998E+03  0.12402699362E+04  0.46999998093E+01 0. -1.
</event>
<event>
 5   0  0.1005492E-05  0.2598351E+04  0.7818609E-02  0.8368762E-01
        1   -1    0    0  501    0  0.00000000000E+00  0.00000000000E+00  0.11071746161E+04  0.11071746161E+04  0.50400001928E-02 0.  1.
       -1   -1    0    0    0  501  0.00000000000E+00  0.00000000000E+00 -0.15244721719E+04  0.15244721719E+04  0.50400001928E-02 0. -1.
    10030    2    1    2    0    0  0.00000000000E+00  0.00000000000E+00 -0.41729755580E+03  0.26316467881E+04  0.25983509322E+04 0.  0.
        4    1    3    3  502    0  0.11238971704E+04  0.61292054659E+03 -0.43293358441E+03  0.13513880078E+04  0.12699999809E+01 0. -1.
       -4    1    3    3    0  502 -0.11238971704E+04 -0.61292054659E+03  0.15636028610E+02  0.12802587803E+04  0.12699999809E+01 0.  1.
</event>
<event>
 5   0  0.1000421E-05  0.2595566E+04  0.7818609E-02  0.8369709E-01
        1   -1    0    0  501    0  0.00000000000E+00  0.00000000000E+00  0.25706781967E+04  0.25706781967E+04  0.50400001928E-02 0. -1.
       -1   -1    0    0    0  501  0.00000000000E+00  0.00000000000E+00 -0.65517366780E+03  0.65517366782E+03  0.50400001928E-02 0.  1.
    10030    2    1    2    0    0  0.00000000000E+00  0.00000000000E+00  0.19155045289E+04  0.32258518645E+04  0.25955659598E+04 0.  0.
        3    1    3    3  502    0 -0.73870125776E+03  0.22920393994E+02  0.22835897836E+04  0.24002056584E+04  0.10100000352E+00 0. -1.
       -3    1    3    3    0  502  0.73870125776E+03 -0.22920393994E+02 -0.36808525473E+03  0.82564620609E+03  0.10100000352E+00 0.  1.
</event>
<event>
 5   0  0.1034714E-05  0.2611055E+04  0.7818609E-02  0.8364456E-01
       -1   -1    0    0    0  501  0.00000000000E+00  0.00000000000E+00  0.14708660257E+04  0.14708660257E+04  0.50400001928E-02 0.  1.
        1   -1    0    0  501    0  0.00000000000E+00  0.00000000000E+00 -0.11587740874E+04  0.11587740874E+04  0.50400001928E-02 0. -1.
    10030    2    1    2    0    0  0.00000000000E+00  0.00000000000E+00  0.31209193834E+03  0.26296401131E+04  0.26110545277E+04 0.  0.
        5    1    3    3  502    0 -0.10350115080E+04  0.31061513381E+03  0.89382352796E+03  0.14023812507E+04  0.46999998093E+01 0.  1.
       -5    1    3    3    0  502  0.10350115080E+04 -0.31061513381E+03 -0.58173158962E+03  0.12272588624E+04  0.46999998093E+01 0. -1.
</event>
<event>
 5   0  0.1025153E-05  0.2551902E+04  0.7818609E-02  0.8384725E-01
       -1   -1    0    0    0  501  0.00000000000E+00  0.00000000000E+00  0.21443566482E+04  0.21443566482E+04  0.50400001928E-02 0. -1.
        1   -1    0    0  501    0  0.00000000000E+00  0.00000000000E+00 -0.75922603201E+03  0.75922603202E+03  0.50400001928E-02 0.  1.
    10030    2    1    2    0    0  0.00000000000E+00  0.00000000000E+00  0.13851306162E+04  0.29035826803E+04  0.25519023408E+04 0.  0.
        1    1    3    3  502    0 -0.50473613616E+03 -0.25805227698E+03  0.19932091797E+04  0.20722529718E+04  0.50400001928E-02 0. -1.
       -1    1    3    3    0  502  0.50473613616E+03  0.25805227698E+03 -0.60807856351E+03  0.83132970849E+03  0.50400001928E-02 0.  1.
</event>
<event>
 5   0  0.8605000E-06  0.2565728E+04  0.7818609E-02  0.8379937E-01
       -3   -1    0    0    0  501  0.00000000000E+00  0.00000000000E+00  0.80366204519E+03  0.80366205154E+03  0.10100000352E+00 0. -1.
        3   -1    0    0  501    0  0.00000000000E+00  0.00000000000E+00 -0.20478004895E+04  0.20478004920E+04  0.10100000352E+00 0.  1.
    10030    2    1    2    0    0  0.00000000000E+00  0.00000000000E+00 -0.12441384443E+04  0.28514625436E+04  0.25657276100E+04 0.  0.
        3    1    3    3  502    0  0.79510885964E+03  0.16581365724E+03  0.48151628812E+03  0.94421936728E+03  0.10100000352E+00 0. -1.
       -3    1    3    3    0  502 -0.79510885964E+03 -0.16581365724E+03 -0.17256547325E+04  0.19072431763E+04  0.10100000352E+00 0.  1.
</event>
<event>
 5   0  0.2555801E-05  0.2549975E+04  0.7818609E-02  0.8385395E-01
        2   -1    0    0  501    0  0.00000000000E+00  0.00000000000E+00  0.10560806145E+04  0.10560806145E+04  0.25500000920E-02 0.  1.
       -2   -1    0    0    0  501  0.00000000000E+00  0.00000000000E+00 -0.15392702306E+04  0.15392702306E+04  0.25500000920E-02 0. -1.
    10030    2    1    2    0    0  0.00000000000E+00  0.00000000000E+00 -0.48318961616E+03  0.25953508451E+04  0.25499752556E+04 0.  0.
        1    1    3    3  502    0 -0.11917229116E+04  0.15851890116E+03 -0.67372225657E+03  0.13781267790E+04  0.50400001928E-02 0. -1.
       -1    1    3    3    0  502  0.11917229116E+04 -0.15851890116E+03  0.19053264041E+03  0.12172240661E+04  0.50400001928E-02 0.  1.
</event>
<event>
 5   0  0.1025153E-05  0.2655842E+04  0.7818609E-02  0.8349477E-01
       -1   -1    0    0    0  501  0.00000000000E+00  0.00000000000E+00  0.12950125343E+04  0.12950125343E+04  0.50400001928E-02 0. -1.
        1   -1    0    0  501    0  0.00000000000E+00  0.00000000000E+00 -0.13616654436E+04  0.13616654436E+04  0.50400001928E-02 0.  1.
    10030    2    1    2    0    0  0.00000000000E+00  0.00000000000E+00 -0.66652909247E+02  0.26566779779E+04  0.26558417250E+04 0.  0.
        1    1    3    3  502    0  0.11340854227E+04 -0.19576071550E+03 -0.69603170847E+03  0.13449654802E+04  0.50400001928E-02 0.  1.
       -1    1    3    3    0  502 -0.11340854227E+04  0.19576071550E+03  0.62937879922E+03  0.13117124977E+04  0.50400001928E-02 0. -1.
</event>
<event>
 5   0  0.2517854E-05  0.2583227E+04  0.7818609E-02  0.8373921E-01
        2   -1    0    0  501    0  0.00000000000E+00  0.00000000000E+00  0.26111865789E+04  0.26111865789E+04  0.25500000920E-02 0.  1.
       -2   -1    0    0    0  501  0.00000000000E+00  0.00000000000E+00 -0.63889159080E+03  0.63889159081E+03  0.25500000920E-02 0. -1.
    10030    2    1    2    0    0  0.00000000000E+00  0.00000000000E+00  0.19722949881E+04  0.32500781697E+04  0.25832267785E+04 0.  0.
        4    1    3    3  502    0  0.67933584794E+03 -0.21338030618E+02 -0.39570256585E+03  0.78646973201E+03  0.12699999809E+01 0. -1.
       -4    1    3    3    0  502 -0.67933584794E+03  0.21338030618E+02  0.23679975540E+04  0.24636084377E+04  0.12699999809E+01 0.  1.
</event>
<event>
 5   0  0.2528460E-05  0.2618082E+04  0.7818609E-02  0.8362085E-01
        2   -1    0    0  501    0  0.00000000000E+00  0.00000000000E+00  0.18816530987E+04  0.18816530987E+04  0.25500000920E-02 0. -1.
       -2   -1    0    0    0  501  0.00000000000E+00  0.00000000000E+00 -0.91068224202E+03  0.91068224202E+03  0.25500000920E-02 0.  1.
    10030    2    1    2    0    0  0.00000000000E+00  0.00000000000E+00  0.97097085666E+03  0.27923353407E+04  0.26180817883E+04 0.  0.
        5    1    3    3  502    0 -0.12886162998E+04 -0.19386154418E+03  0.35290708659E+03  0.13500665792E+04  0.46999998093E+01 0. -1.
       -5    1    3    3    0  502  0.12886162998E+04  0.19386154418E+03  0.61806377007E+03  0.14422687615E+04  0.46999998093E+01 0.  1.
</event>
<event>
 5   0  0.9855352E-06  0.2568333E+04  0.7818609E-02  0.8379038E-01
        1   -1    0    0  501    0  0.00000000000E+00  0.00000000000E+00  0.99032348347E+03  0.99032348349E+03  0.50400001928E-02 0.  1.
       -1   -1    0    0    0  501  0.00000000000E+00  0.00000000000E+00 -0.16651963580E+04  0.16651963580E+04  0.50400001928E-02 0. -1.
    10030    2    1    2    0    0  0.00000000000E+00  0.00000000000E+00 -0.67487287451E+03  0.26555198415E+04  0.25683325781E+04 0.  0.
        2    1    3    3  502    0 -0.10668943531E+04  0.66472437061E+03 -0.65917520787E+02  0.12587561992E+04  0.25500000920E-02 0. -1.
       -2    1    3    3    0  502  0.10668943531E+04 -0.66472437061E+03 -0.60895535372E+03  0.13967636423E+04  0.25500000920E-02 0.  1.
</event>
<event>
 5   0  0.1025153E-05  0.2352950E+04  0.7818609E-02  0.8457331E-01
       -1   -1    0    0    0  501  0.00000000000E+00  0.00000000000E+00  0.91280417473E+03  0.91280417475E+03  0.50400001928E-02 0.  1.
        1   -1    0    0  501    0  0.00000000000E+00  0.00000000000E+00 -0.15163098145E+04  0.15163098145E+04  0.50400001928E-02 0. -1.
    10030    2    1    2    0    0  0.00000000000E+00  0.00000000000E+00 -0.60350563976E+03  0.24291139893E+04  0.23529504278E+04 0.  0.
        1    1    3    3  502    0  0.83131856646E+03  0.55330513666E+03 -0.94386400150E+03  0.13740874741E+04  0.50400001928E-02 0. -1.
       -1    1    3    3    0  502 -0.83131856646E+03 -0.55330513666E+03  0.34035836174E+03  0.10550265151E+04  0.50400001928E-02 0.  1.
</event>
<event>
 5   0  0.2662024E-05  0.2648406E+04  0.7818609E-02  0.8351942E-01
       -2   -1    0    0    0  501  0.00000000000E+00  0.00000000000E+00  0.81641180196E+03  0.81641180197E+03  0.25500000920E-02 0.  1.
        2   -1    0    0  501    0  0.00000000000E+00  0.00000000000E+00 -0.21478299985E+04  0.21478299985E+04  0.25500000920E-02 0. -1.
    10030    2    1    2    0    0  0.00000000000E+00  0.00000000000E+00 -0.13314181965E+04  0.29642418004E+04  0.26484061315E+04 0.  0.
        2    1    3    3  502    0  0.95579083268E+03 -0.72458333352E+03 -0.37572028320E+02  0.11999869917E+04  0.25500000920E-02 0.  1.
       -2    1    3    3    0  502 -0.95579083268E+03  0.72458333352E+03 -0.12938461682E+04  0.17642548087E+04  0.25500000920E-02 0. -1.
</event>
<event>
 5   0  0.1000421E-05  0.2606132E+04  0.7818609E-02  0.8366121E-01
       -1   -1    0    0    0  501  0.00000000000E+00  0.00000000000E+00  0.11606894604E+04  0.11606894604E+04  0.50400001928E-02 0.  1.
        1   -1    0    0  501    0  0.00000000000E+00  0.00000000000E+00 -0.14629070417E+04  0.14629070417E+04  0.50400001928E-02 0. -1.
    10030    2    1    2    0    0  0.00000000000E+00  0.00000000000E+00 -0.30221758123E+03  0.26235965021E+04  0.26061318346E+04 0.  0.
        3    1    3    3  502    0  0.57793269334E+02 -0.72998240900E+03 -0.12361845638E+04  0.14367904041E+04  0.10100000352E+00 0. -1.
       -3    1    3    3    0  502 -0.57793269334E+02  0.72998240900E+03  0.93396698258E+03  0.11868060980E+04  0.10100000352E+00 0.  1.
</event>
<event>
 5   0  0.1000421E-05  0.2575754E+04  0.7818609E-02  0.8376484E-01
        1   -1    0    0  501    0  0.00000000000E+00  0.00000000000E+00  0.17453756314E+04  0.17453756314E+04  0.50400001928E-02 0.  1.
       -1   -1    0    0    0  501  0.00000000000E+00  0.00000000000E+00 -0.95029840964E+03  0.95029840965E+03  0.50400001928E-02 0. -1.
    10030    2    1    2    0    0  0.00000000000E+00  0.00000000000E+00  0.79507722178E+03  0.26956740411E+04  0.25757544035E+04 0.  0.
        3    1    3    3  502    0  0.12127626765E+04  0.42609614047E+03  0.48045107603E+03  0.13722916881E+04  0.10100000352E+00 0.  1.
       -3    1    3    3    0  502 -0.12127626765E+04 -0.42609614047E+03  0.31462614576E+03  0.13233823530E+04  0.10100000352E+00 0. -1.
</event>
<event>
 5   0  0.2662024E-05  0.2595552E+04  0.7818609E-02  0.8369714E-01
       -2   -1    0    0    0  501  0.00000000000E+00  0.00000000000E+00  0.13907424268E+04  0.13907424268E+04  0.25500000920E-02 0. -1.
        2   -1    0    0  501    0  0.00000000000E+00  0.00000000000E+00 -0.12110241901E+04  0.12110241901E+04  0.25500000920E-02 0.  1.
    10030    2    1    2    0    0  0.00000000000E+00  0.00000000000E+00  0.17971823671E+03  0.26017666170E+04  0.25955521348E+04 0.  0.
        2    1    3    3  502    0  0.47634828526E+03 -0.68214940849E+02  0.12980090443E+04  0.13843368254E+04  0.25500000920E-02 0. -1.
       -2    1    3    3    0  502 -0.47634828526E+03  0.68214940849E+02 -0.11182908076E+04  0.12174297916E+04  0.25500000920E-02 0.  1.
</event>
<event>
 5   0  0.1034714E-05  0.2635566E+04  0.7818609E-02  0.8356220E-01
        1   -1    0    0  501    0  0.00000000000E+00  0.00000000000E+00  0.14842686516E+04  0.14842686516E+04  0.50400001928E-02 0.  1.
       -1   -1    0    0    0  501  0.00000000000E+00  0.00000000000E+00 -0.11699714336E+04  0.11699714336E+04  0.50400001928E-02 0. -1.
    10030    2    1    2    0    0  0.00000000000E+00  0.00000000000E+00  0.31429721800E+03  0.26542400852E+04  0.26355659143E+04 0.  0.
        5    1    3    3  502    0 -0.10810347311E+04  0.65056212257E+03 -0.22589176729E+03  0.12817629834E+04  0.46999998093E+01 0. -1.
       -5    1    3    3    0  502  0.10810347311E+04 -0.65056212257E+03  0.54018898529E+03  0.13724771018E+04  0.46999998093E+01 0.  1.
</event>
<event>
 5   0  0.2484618E-05  0.2589523E+04  0.7818609E-02  0.8371769E-01
       -2   -1    0    0    0  501  0.00000000000E+00  0.00000000000E+00  0.90794011141E+03  0.90794011141E+03  0.25500000920E-02 0.  1.
        2   -1    0    0  501    0  0.00000000000E+00  0.00000000000E+00 -0.18463849998E+04  0.18463849998E+04  0.25500000920E-02 0. -1.
    10030    2    1    2    0    0  0.00000000000E+00  0.00000000000E+00 -0.93844488841E+03  0.27543251112E+04  0.25895227378E+04 0.  0.
        3    1    3    3  502    0 -0.37539437795E+03  0.72101595431E+03  0.60269547915E+03  0.10119420913E+04  0.10100000352E+00 0.  1.
       -3    1    3    3    0  502  0.37539437795E+03 -0.72101595431E+03 -0.15411403676E+04  0.17423830199E+04  0.10100000352E+00 0. -1.
</event>
<event>
 5   0  0.2484618E-05  0.2451277E+04  0.7818609E-02  0.8420552E-01
       -2   -1    0    0    0  501  0.00000000000E+00  0.00000000000E+00  0.97604565329E+03  0.97604565329E+03  0.25500000920E-02 0.  1.
        2   -1    0    0  501    0  0.00000000000E+00  0.00000000000E+00 -0.15390574092E+04  0.15390574092E+04  0.25500000920E-02 0. -1.
    10030    2    1    2    0    0  0.00000000000E+00  0.00000000000E+00 -0.56301175589E+03  0.25151030625E+04  0.24512774583E+04 0.  0.
        3    1    3    3  502    0  0.21467615632E+03  0.56781871515E+03 -0.13739765104E+04  0.15021036604E+04  0.10100000352E+00 0. -1.
       -3    1    3    3    0  502 -0.21467615632E+03 -0.56781871515E+03  0.81096475448E+03  0.10129994021E+04  0.10100000352E+00 0.  1.
</event>
<event>
 5   0  0.2662024E-05  0.2573683E+04  0.7818609E-02  0.8377196E-01
       -2   -1    0    0    0  501  0.00000000000E+00  0.00000000000E+00  0.73468118545E+03  0.73468118546E+03  0.25500000920E-02 0. -1.
        2   -1    0    0  501    0  0.00000000000E+00  0.00000000000E+00 -0.22539863917E+04  0.22539863917E+04  0.25500000920E-02 0.  1.
    10030    2    1    2    0    0  0.00000000000E+00  0.00000000000E+00 -0.15193052062E+04  0.29886675771E+04  0.25736832705E+04 0.  0.
        2    1    3    3  502    0 -0.29419797388E+03  0.42728607105E+03  0.60787152309E+03  0.79914555804E+03  0.25500000920E-02 0. -1.
       -2    1    3    3    0  502  0.29419797388E+03 -0.42728607105E+03 -0.21271767293E+04  0.21895220191E+04  0.25500000920E-02 0.  1.
</event>
<event>
 5   0  0.1005492E-05  0.2581428E+04  0.7818609E-02  0.8374537E-01
       -1   -1    0    0    0  501  0.00000000000E+00  0.00000000000E+00  0.13385317943E+04  0.13385317943E+04  0.50400001928E-02 0.  1.
        1   -1    0    0  501    0  0.00000000000E+00  0.00000000000E+00 -0.12446046784E+04  0.12446046784E+04  0.50400001928E-02 0. -1.
    10030    2    1    2    0    0  0.00000000000E+00  0.00000000000E+00  0.93927115883E+02  0.25831364727E+04  0.25814282352E+04 0.  0.
        4    1    3    3  502    0 -0.86093840955E+03 -0.22170130767E+03  0.98330435974E+03  0.13256151371E+04  0.12699999809E+01 0.  1.
       -4    1    3    3    0  502  0.86093840955E+03  0.22170130767E+03 -0.88937724386E+03  0.12575213357E+04  0.12699999809E+01 0. -1.
</event>
<event>
 5   0  0.2555801E-05  0.2553592E+04  0.7818609E-02  0.8384138E-01
        2   -1    0    0  501    0  0.00000000000E+00  0.00000000000E+00  0.12692593004E+04  0.12692593004E+04  0.25500000920E-02 0. -1.
       -2   -1    0    0    0  501  0.00000000000E+00  0.00000000000E+00 -0.12843777540E+04  0.12843777540E+04  0.25500000920E-02 0.  1.
    10030    2    1    2    0    0  0.00000000000E+00  0.00000000000E+00 -0.15118453617E+02  0.25536370544E+04  0.25535923007E+04 0.  0.
        1    1    3    3  502    0  0.20730235126E+03  0.96738885697E+03 -0.81466255145E+03  0.12815968704E+04  0.50400001928E-02 0.  1.
       -1    1    3    3    0  502 -0.20730235126E+03 -0.96738885697E+03  0.79954409783E+03  0.12720401840E+04  0.50400001928E-02 0. -1.
</event>
<event>
 5   0  0.2662024E-05  0.2626429E+04  0.7818609E-02  0.8359279E-01
        2   -1    0    0  501    0  0.00000000000E+00  0.00000000000E+00  0.13615867211E+04  0.13615867211E+04  0.25500000920E-02 0. -1.
       -2   -1    0    0    0  501  0.00000000000E+00  0.00000000000E+00 -0.12665607591E+04  0.12665607591E+04  0.25500000920E-02 0.  1.
    10030    2    1    2    0    0  0.00000000000E+00  0.00000000000E+00  0.95025962033E+02  0.26281474802E+04  0.26264289909E+04 0.  0.
        2    1    3    3  502    0  0.12540561946E+04  0.36790863362E+03  0.17612181693E+03  0.13187238514E+04  0.25500000920E-02 0. -1.
       -2    1    3    3    0  502 -0.12540561946E+04 -0.36790863362E+03 -0.81095854896E+02  0.13094236288E+04  0.25500000920E-02 0.  1.
</event>
<event>
 5   0  0.2555801E-05  0.2611159E+04  0.7818609E-02  0.8364420E-01
        2   -1    0    0  501    0  0.00000000000E+00  0.00000000000E+00  0.14182286890E+04  0.14182286890E+04  0.25500000920E-02 0.  1.
       -2   -1    0    0    0  501  0.00000000000E+00  0.00000000000E+00 -0.12018784289E+04  0.12018784289E+04  0.25500000920E-02 0. -1.
    10030    2    1    2    0    0  0.00000000000E+00  0.00000000000E+00  0.21635026016E+03  0.26201071179E+04  0.26111594885E+04 0.  0.
        1    1    3    3  502    0 -0.10144272383E+04 -0.70126677913E+03  0.53824707588E+03  0.13455659152E+04  0.50400001928E-02 0.  1.
       -1    1    3    3    0  502  0.10144272383E+04  0.70126677913E+03 -0.32189681572E+03  0.12745412027E+04  0.50400001928E-02 0. -1.
</event>
<event>
 5   0  0.2484618E-05  0.2622287E+04  0.7818609E-02  0.8360670E-01
        2   -1    0    0  501    0  0.00000000000E+00  0.00000000000E+00  0.17837302858E+04  0.17837302858E+04  0.25500000920E-02 0. -1.
       -2   -1    0    0    0  501  0.00000000000E+00  0.00000000000E+00 -0.96376559252E+03  0.96376559252E+03  0.25500000920E-02 0.  1.
    10030    2    1    2    0    0  0.00000000000E+00  0.00000000000E+00  0.81996469326E+03  0.27474958783E+04  0.26222874562E+04 0.  0.
        3    1    3    3  502    0  0.11654606083E+04  0.41441587953E+03 -0.45587879057E+02  0.12377872255E+04  0.10100000352E+00 0.  1.
       -3    1    3    3    0  502 -0.11654606083E+04 -0.41441587953E+03  0.86555257232E+03  0.15097086528E+04  0.10100000352E+00 0. -1.
</event>
<event>
 5   0  0.9855352E-06  0.2600003E+04  0.7818609E-02  0.8368200E-01
       -1   -1    0    0    0  501  0.00000000000E+00  0.00000000000E+00  0.91167766225E+03  0.91167766226E+03  0.50400001928E-02 0. -1.
        1   -1    0    0  501    0  0.00000000000E+00  0.00000000000E+00 -0.18537295123E+04  0.18537295124E+04  0.50400001928E-02 0.  1.
    10030    2    1    2    0    0  0.00000000000E+00  0.00000000000E+00 -0.94205185010E+03  0.27654071746E+04  0.26000029141E+04 0.  0.
        2    1    3    3  502    0  0.59894454907E+03 -0.71071610220E+01 -0.16982106926E+04  0.18007511325E+04  0.25500000920E-02 0.  1.
       -2    1    3    3    0  502 -0.59894454907E+03  0.71071610220E+01  0.75615884249E+03  0.96465604216E+03  0.25500000920E-02 0. -1.
</event>
<event>
 5   0  0.2484618E-05  0.1918284E+04  0.7818609E-02  0.8645809E-01
        2   -1    0    0  501    0  0.00000000000E+00  0.00000000000E+00  0.25518850218E+04  0.25518850218E+04  0.25500000920E-02 0.  1.
       -2   -1    0    0    0  501  0.00000000000E+00  0.00000000000E+00 -0.36049937019E+03  0.36049937020E+03  0.25500000920E-02 0. -1.
    10030    2    1    2    0    0  0.00000000000E+00  0.00000000000E+00  0.21913856516E+04  0.29123843920E+04  0.19182835486E+04 0.  0.
        3    1    3    3  502    0  0.89146608111E+03  0.18991620891E+03  0.64232305027E+03  0.11150600214E+04  0.10100000352E+00 0. -1.
       -3    1    3    3    0  502 -0.89146608111E+03 -0.18991620891E+03  0.15490626013E+04  0.17973243706E+04  0.10100000352E+00 0.  1.
</event>
<event>
 5   0  0.2517854E-05  0.2136513E+04  0.7818609E-02  0.8545328E-01
       -2   -1    0    0    0  501  0.00000000000E+00  0.00000000000E+00  0.15955342537E+04  0.15955342537E+04  0.25500000920E-02 0.  1.
        2   -1    0    0  501    0  0.00000000000E+00  0.00000000000E+00 -0.71522855086E+03  0.71522855087E+03  0.25500000920E-02 0. -1.
    10030    2    1    2    0    0  0.00000000000E+00  0.00000000000E+00  0.88030570284E+03  0.23107628046E+04  0.21365127214E+04 0.  0.
        4    1    3    3  502    0 -0.56715562526E+03 -0.56089120931E+03  0.12086724965E+04  0.14481558164E+04  0.12699999809E+01 0. -1.
       -4    1    3    3    0  502  0.56715562526E+03  0.56089120931E+03 -0.32836679365E+03  0.86260698816E+03  0.12699999809E+01 0.  1.
</event>
<event>
 5   0  0.1025153E-05  0.2606971E+04  0.7818609E-02  0.8365837E-01
        1   -1    0    0  501    0  0.00000000000E+00  0.00000000000E+00  0.10763757161E+04  0.10763757161E+04  0.50400001928E-02 0. -1.
       -1   -1    0    0    0  501  0.00000000000E+00  0.00000000000E+00 -0.15785137329E+04  0.15785137329E+04  0.50400001928E-02 0.  1.
    10030    2    1    2    0    0  0.00000000000E+00  0.00000000000E+00 -0.50213801679E+03  0.26548894491E+04  0.26069705405E+04 0.  0.
        1    1    3    3  502    0  0.99057743053E+03 -0.45652773982E+03  0.47578162083E+03  0.11899703248E+04  0.50400001928E-02 0. -1.
       -1    1    3    3    0  502 -0.99057743053E+03  0.45652773982E+03 -0.97791963762E+03  0.14649191243E+04  0.50400001928E-02 0.  1.
</event>
<event>
 5   0  0.9855352E-06  0.2588996E+04  0.7818609E-02  0.8371949E-01
        1   -1    0    0  501    0  0.00000000000E+00  0.00000000000E+00  0.14273446665E+04  0.14273446665E+04  0.50400001928E-02 0.  1.
       -1   -1    0    0    0  501  0.00000000000E+00  0.00000000000E+00 -0.11740154007E+04  0.11740154007E+04  0.50400001928E-02 0. -1.
    10030    2    1    2    0    0  0.00000000000E+00  0.00000000000E+00  0.25332926578E+03  0.26013600672E+04  0.25889956513E+04 0.  0.
        2    1    3    3  502    0  0.18268896481E+03  0.26100239276E+03  0.13873387672E+04  0.14234487563E+04  0.25500000920E-02 0.  1.
       -2    1    3    3    0  502 -0.18268896481E+03 -0.26100239276E+03 -0.11340095014E+04  0.11779113108E+04  0.25500000920E-02 0. -1.
</event>
<event>
 5   0  0.1034714E-05  0.2580895E+04  0.7818609E-02  0.8374720E-01
       -1   -1    0    0    0  501  0.00000000000E+00  0.00000000000E+00  0.16730186293E+04  0.16730186293E+04  0.50400001928E-02 0. -1.
        1   -1    0    0  501    0  0.00000000000E+00  0.00000000000E+00 -0.99535959854E+03  0.99535959856E+03  0.50400001928E-02 0.  1.
    10030    2    1    2    0    0  0.00000000000E+00  0.00000000000E+00  0.67765903078E+03  0.26683782279E+04  0.25808953107E+04 0.  0.
        5    1    3    3  502    0  0.53366752402E+03  0.73278992576E+03 -0.61069660958E+03  0.10930482791E+04  0.46999998093E+01 0.  1.
       -5    1    3    3    0  502 -0.53366752402E+03 -0.73278992576E+03  0.12883556404E+04  0.15753299488E+04  0.46999998093E+01 0. -1.
</event>
<event>
 5   0  0.8605000E-06  0.2205561E+04  0.7818609E-02  0.8516117E-01
       -3   -1    0    0    0  501  0.00000000000E+00  0.00000000000E+00  0.80849233959E+03  0.80849234590E+03  0.10100000352E+00 0. -1.
        3   -1    0    0  501    0  0.00000000000E+00  0.00000000000E+00 -0.15041885363E+04  0.15041885397E+04  0.10100000352E+00 0.  1.
    10030    2    1    2    0    0  0.00000000000E+00  0.00000000000E+00 -0.69569619668E+03  0.23126808856E+04  0.22055610806E+04 0.  0.
        1    1    3    3  502    0  0.86764326866E+03  0.47578923282E+03 -0.85825919354E+03  0.13098813225E+04  0.50400001928E-02 0.  1.
       -1    1    3    3    0  502 -0.86764326866E+03 -0.47578923282E+03  0.16256299686E+03  0.10027995631E+04  0.50400001928E-02 0. -1.
</event>
<event>
 5   0  0.1000421E-05  0.2628363E+04  0.7818609E-02  0.8358630E-01
        1   -1    0    0  501    0  0.00000000000E+00  0.00000000000E+00  0.78795281426E+03  0.78795281427E+03  0.50400001928E-02 0.  1.
       -1   -1    0    0    0  501  0.00000000000E+00  0.00000000000E+00 -0.21918476237E+04  0.21918476237E+04  0.50400001928E-02 0. -1.
    10030    2    1    2    0    0  0.00000000000E+00  0.00000000000E+00 -0.14038948094E+04  0.29798004380E+04  0.26283626109E+04 0.  0.
        3    1    3    3  502    0 -0.14176601128E+02  0.13138328337E+04 -0.73225803214E+03  0.15041806829E+04  0.10100000352E+00 0. -1.
       -3    1    3    3    0  502  0.14176601128E+02 -0.13138328337E+04 -0.67163677729E+03  0.14756197551E+04  0.10100000352E+00 0.  1.
</event>
<event>
 5   0  0.2517854E-05  0.2539846E+04  0.7818609E-02  0.8388926E-01
       -2   -1    0    0    0  501  0.00000000000E+00  0.00000000000E+00  0.14458224560E+04  0.14458224560E+04  0.25500000920E-02 0.  1.
        2   -1    0    0  501    0  0.00000000000E+00  0.00000000000E+00 -0.11154238963E+04  0.11154238963E+04  0.25500000920E-02 0. -1.
    10030    2    1    2    0    0  0.00000000000E+00  0.00000000000E+00  0.33039855969E+03  0.25612463523E+04  0.25398463869E+04 0.  0.
        4    1    3    3  502    0 -0.12567556745E+04 -0.13708813938E+01 -0.18728829864E+02  0.12568966094E+04  0.12699999809E+01 0. -1.
       -4    1    3    3    0  502  0.12567556745E+04  0.13708813938E+01  0.34912738955E+03  0.13043497429E+04  0.12699999809E+01 0.  1.
</event>
<event>
 5   0  0.1025153E-05  0.2595304E+04  0.7818609E-02  0.8369798E-01
        1   -1    0    0  501    0  0.00000000000E+00  0.00000000000E+00  0.18524457944E+04  0.18524457944E+04  0.50400001928E-02 0.  1.
       -1   -1    0    0    0  501  0.00000000000E+00  0.00000000000E+00 -0.90901449313E+03  0.90901449314E+03  0.50400001928E-02 0. -1.
    10030    2    1    2    0    0  0.00000000000E+00  0.00000000000E+00  0.94343130126E+03  0.27614602875E+04  0.25953035082E+04 0.  0.
        1    1    3    3  502    0  0.10542990274E+04  0.24137902073E+03  0.12346200925E+04  0.16413704773E+04  0.50400001928E-02 0.  1.
       -1    1    3    3    0  502 -0.10542990274E+04 -0.24137902073E+03 -0.29118879124E+03  0.11200898103E+04  0.50400001928E-02 0. -1.
</event>
<event>
 5   0  0.2528460E-05  0.2664175E+04  0.7818609E-02  0.8346723E-01
       -2   -1    0    0    0  501  0.00000000000E+00  0.00000000000E+00  0.90568044379E+03  0.90568044380E+03  0.25500000920E-02 0.  1.
        2   -1    0    0  501    0  0.00000000000E+00  0.00000000000E+00 -0.19592529628E+04  0.19592529629E+04  0.25500000920E-02 0. -1.
    10030    2    1    2    0    0  0.00000000000E+00  0.00000000000E+00 -0.10535725191E+04  0.28649334066E+04  0.26641749889E+04 0.  0.
        5    1    3    3  502    0 -0.56680275969E+03  0.81030171251E+03  0.43298268554E+03  0.10795139321E+04  0.46999998093E+01 0.  1.
       -5    1    3    3    0  502  0.56680275969E+03 -0.81030171251E+03 -0.14865552046E+04  0.17854194745E+04  0.46999998093E+01 0. -1.
</event>
<event>
 5   0  0.2528460E-05  0.2542657E+04  0.7818609E-02  0.8387944E-01
       -2   -1    0    0    0  501  0.00000000000E+00  0.00000000000E+00  0.12185856372E+04  0.12185856372E+04  0.25500000920E-02 0.  1.
        2   -1    0    0  501    0  0.00000000000E+00  0.00000000000E+00 -0.13263547027E+04  0.13263547027E+04  0.25500000920E-02 0. -1.
    10030    2    1    2    0    0  0.00000000000E+00  0.00000000000E+00 -0.10776906546E+03  0.25449403399E+04  0.25426575000E+04 0.  0.
        5    1    3    3  502    0  0.18038913744E+03  0.10205695285E+04  0.68308645768E+03  0.12412621005E+04  0.46999998093E+01 0.  1.
       -5    1    3    3    0  502 -0.18038913744E+03 -0.10205695285E+04 -0.79085552314E+03  0.13036782394E+04  0.46999998093E+01 0. -1.
</event>
<event>
 5   0  0.2528460E-05  0.2534176E+04  0.7818609E-02  0.8390910E-01
       -2   -1    0    0    0  501  0.00000000000E+00  0.00000000000E+00  0.94028855872E+03  0.94028855872E+03  0.25500000920E-02 0. -1.
        2   -1    0    0  501    0  0.00000000000E+00  0.00000000000E+00 -0.17074670099E+04  0.17074670099E+04  0.25500000920E-02 0.  1.
    10030    2    1    2    0    0  0.00000000000E+00  0.00000000000E+00 -0.76717845120E+03  0.26477555686E+04  0.25341757586E+04 0.  0.
        5    1    3    3  502    0 -0.62206150837E+03  0.10962575249E+04 -0.24837281240E+03  0.12846992742E+04  0.46999998093E+01 0. -1.
       -5    1    3    3    0  502  0.62206150837E+03 -0.10962575249E+04 -0.51880563879E+03  0.13630562945E+04  0.46999998093E+01 0.  1.
</event>
<event>
 5   0  0.2662024E-05  0.2607112E+04  0.7818609E-02  0.8365789E-01
       -2   -1    0    0    0  501  0.00000000000E+00  0.00000000000E+00  0.10382173911E+04  0.10382173911E+04  0.25500000920E-02 0.  1.
        2   -1    0    0  501    0  0.00000000000E+00  0.00000000000E+00 -0.16367075217E+04  0.16367075217E+04  0.25500000920E-02 0. -1.
    10030    2    1    2    0    0  0.00000000000E+00  0.00000000000E+00 -0.59849013058E+03  0.26749249129E+04  0.26071119756E+04 0.  0.
        2    1    3    3  502    0 -0.11316666234E+04 -0.48137205224E+03  0.14428338995E+03  0.12382269969E+04  0.25500000920E-02 0. -1.
       -2    1    3    3    0  502  0.11316666234E+04  0.48137205224E+03 -0.74277352053E+03  0.14366979160E+04  0.25500000920E-02 0.  1.
</event>
<event>
 5   0  0.1005492E-05  0.2588321E+04  0.7818609E-02  0.8372179E-01
        1   -1    0    0  501    0  0.00000000000E+00  0.00000000000E+00  0.18100380803E+04  0.18100380803E+04  0.50400001928E-02 0.  1.
       -1   -1    0    0    0  501  0.00000000000E+00  0.00000000000E+00 -0.92531309360E+03  0.92531309361E+03  0.50400001928E-02 0. -1.
    10030    2    1    2    0    0  0.00000000000E+00  0.00000000000E+00  0.88472498670E+03  0.27353511739E+04  0.25883214141E+04 0.  0.
        4    1    3    3  502    0 -0.35241726301E+03 -0.10414910878E+04  0.11637422345E+04  0.16009994424E+04  0.12699999809E+01 0. -1.
       -4    1    3    3    0  502  0.35241726301E+03  0.10414910878E+04 -0.27901724784E+03  0.11343517315E+04  0.12699999809E+01 0.  1.
</event>
<event>
 5   0  0.2555801E-05  0.2641134E+04  0.7818609E-02  0.8354362E-01
       -2   -1    0    0    0  501  0.00000000000E+00  0.00000000000E+00  0.84920957162E+03  0.84920957163E+03  0.25500000920E-02 0.  1.
        2   -1    0    0  501    0  0.00000000000E+00  0.00000000000E+00 -0.20535529860E+04  0.20535529860E+04  0.25500000920E-02 0. -1.
    10030    2    1    2    0    0  0.00000000000E+00  0.00000000000E+00 -0.12043434144E+04  0.29027625576E+04  0.26411337350E+04 0.  0.
        1    1    3    3  502    0 -0.10756385061E+04  0.75464099719E+03 -0.45713076762E+03  0.13912044311E+04  0.50400001928E-02 0.  1.
       -1    1    3    3    0  502  0.10756385061E+04 -0.75464099719E+03 -0.74721264677E+03  0.15115581265E+04  0.50400001928E-02 0. -1.
</event>
<event>
 5   0  0.2528460E-05  0.2600080E+04  0.7818609E-02  0.8368174E-01
        2   -1    0    0  501    0  0.00000000000E+00  0.00000000000E+00  0.22712661912E+04  0.22712661912E+04  0.25500000920E-02 0. -1.
       -2   -1    0    0    0  501  0.00000000000E+00  0.00000000000E+00 -0.74412391654E+03  0.74412391655E+03  0.25500000920E-02 0.  1.
    10030    2    1    2    0    0  0.00000000000E+00  0.00000000000E+00  0.15271422747E+04  0.30153901078E+04  0.26000796093E+04 0.  0.
        5    1    3    3  502    0 -0.11139083744E+04 -0.44646158838E+03  0.13433915455E+04  0.18013447063E+04  0.46999998093E+01 0. -1.
       -5    1    3    3    0  502  0.11139083744E+04  0.44646158838E+03  0.18375072918E+03  0.12140454015E+04  0.46999998093E+01 0.  1.
</event>
<event>
 5   0  0.2517854E-05  0.2608698E+04  0.7818609E-02  0.8365253E-01
        2   -1    0    0  501    0  0.00000000000E+00  0.00000000000E+00  0.75256531611E+03  0.75256531611E+03  0.25500000920E-02 0.  1.
       -2   -1    0    0    0  501  0.00000000000E+00  0.00000000000E+00 -0.22607018420E+04  0.22607018420E+04  0.25500000920E-02 0. -1.
    10030    2    1    2    0    0  0.00000000000E+00  0.00000000000E+00 -0.15081365259E+04  0.30132671581E+04  0.26086976033E+04 0.  0.
        4    1    3    3  502    0  0.43487800824E+02 -0.63782287884E+03 -0.20673215291E+04  0.21639152320E+04  0.12699999809E+01 0. -1.
       -4    1    3    3    0  502 -0.43487800824E+02  0.63782287884E+03  0.55918500326E+03  0.84935192609E+03  0.12699999809E+01 0.  1.
</event>
<event>
 5   0  0.2484618E-05  0.2584293E+04  0.7818609E-02  0.8373556E-01
        2   -1    0    0  501    0  0.00000000000E+00  0.00000000000E+00  0.14643231147E+04  0.14643231147E+04  0.25500000920E-02 0.  1.
       -2   -1    0    0    0  501  0.00000000000E+00  0.00000000000E+00 -0.11402142915E+04  0.11402142915E+04  0.25500000920E-02 0. -1.
    10030    2    1    2    0    0  0.00000000000E+00  0.00000000000E+00  0.32410882312E+03  0.26045374062E+04  0.25842926636E+04 0.  0.
        3    1    3    3  502    0 -0.12199646271E+04  0.38770995760E+03  0.33952884407E+03  0.13243536343E+04  0.10100000352E+00 0.  1.
       -3    1    3    3    0  502  0.12199646271E+04 -0.38770995760E+03 -0.15420020955E+02  0.12801837719E+04  0.10100000352E+00 0. -1.
</event>
<event>
 5   0  0.2528460E-05  0.2599600E+04  0.7818609E-02  0.8368337E-01
       -2   -1    0    0    0  501  0.00000000000E+00  0.00000000000E+00  0.15595632337E+04  0.15595632337E+04  0.25500000920E-02 0. -1.
        2   -1    0    0  501    0  0.00000000000E+00  0.00000000000E+00 -0.10833032298E+04  0.10833032298E+04  0.25500000920E-02 0.  1.
    10030    2    1    2    0    0  0.00000000000E+00  0.00000000000E+00  0.47626000389E+03  0.26428664635E+04  0.25995998831E+04 0.  0.
        5    1    3    3  502    0  0.75290178695E+02 -0.27125563631E+03 -0.10519300069E+04  0.10889568682E+04  0.46999998093E+01 0.  1.
       -5    1    3    3    0  502 -0.75290178695E+02  0.27125563631E+03  0.15281900108E+04  0.15539095953E+04  0.46999998093E+01 0. -1.
</event>
<event>
 5   0  0.1005492E-05  0.2586843E+04  0.7818609E-02  0.8372684E-01
       -1   -1    0    0    0  501  0.00000000000E+00  0.00000000000E+00  0.94655615265E+03  0.94655615266E+03  0.50400001928E-02 0. -1.
        1   -1    0    0  501    0  0.00000000000E+00  0.00000000000E+00 -0.17673954172E+04  0.17673954172E+04  0.50400001928E-02 0.  1.
    10030    2    1    2    0    0  0.00000000000E+00  0.00000000000E+00 -0.82083926459E+03  0.27139515699E+04  0.25868428683E+04 0.  0.
        4    1    3    3  502    0  0.36153961253E+03  0.11166688554E+04 -0.98051429963E+03  0.15294018859E+04  0.12699999809E+01 0. -1.
       -4    1    3    3    0  502 -0.36153961253E+03 -0.11166688554E+04  0.15967503504E+03  0.11845496840E+04  0.12699999809E+01 0.  1.
</event>
<event>
 5   0  0.1000421E-05  0.2630574E+04  0.7818609E-02  0.8357890E-01
       -1   -1    0    0    0  501  0.00000000000E+00  0.00000000000E+00  0.12296443104E+04  0.12296443104E+04  0.50400001928E-02 0.  1.
        1   -1    0    0  501    0  0.00000000000E+00  0.00000000000E+00 -0.14068942311E+04  0.14068942311E+04  0.50400001928E-02 0. -1.
    10030    2    1    2    0    0  0.00000000000E+00  0.00000000000E+00 -0.17724992074E+03  0.26365385415E+04  0.26305736915E+04 0.  0.
        3    1    3    3  502    0  0.12868182157E+04 -0.10431665907E+03  0.16333398986E+03  0.13013305068E+04  0.10100000352E+00 0. -1.
       -3    1    3    3    0  502 -0.12868182157E+04  0.10431665907E+03 -0.34058391060E+03  0.13352080347E+04  0.10100000352E+00 0.  1.
</event>
<event>
 5   0  0.1034714E-05  0.2524449E+04  0.7818609E-02  0.8394327E-01
        1   -1    0    0  501    0  0.00000000000E+00  0.00000000000E+00  0.13579398255E+04  0.13579398255E+04  0.50400001928E-02 0. -1.
       -1   -1    0    0    0  501  0.00000000000E+00  0.00000000000E+00 -0.11732553988E+04  0.11732553988E+04  0.50400001928E-02 0.  1.
    10030    2    1    2    0    0  0.00000000000E+00  0.00000000000E+00  0.18468442672E+03  0.25311952243E+04  0.25244486380E+04 0.  0.
        5    1    3    3  502    0  0.78496587105E+03 -0.98844094044E+03  0.91230155049E+02  0.12655164727E+04  0.46999998093E+01 0.  1.
       -5    1    3    3    0  502 -0.78496587105E+03  0.98844094044E+03  0.93454271674E+02  0.12656787516E+04  0.46999998093E+01 0. -1.
</event>
<event>
 5   0  0.2555801E-05  0.2653985E+04  0.7818609E-02  0.8350092E-01
        2   -1    0    0  501    0  0.00000000000E+00  0.00000000000E+00  0.14080794418E+04  0.14080794418E+04  0.25500000920E-02 0.  1.
       -2   -1    0    0    0  501  0.00000000000E+00  0.00000000000E+00 -0.12505749074E+04  0.12505749074E+04  0.25500000920E-02 0. -1.
    10030    2    1    2    0    0  0.00000000000E+00  0.00000000000E+00  0.15750453434E+03  0.26586543492E+04  0.26539847909E+04 0.  0.
        1    1    3    3  502    0 -0.77875251336E+03 -0.10647301702E+04  0.22323850654E+03  0.13378868574E+04  0.50400001928E-02 0. -1.
       -1    1    3    3    0  502  0.77875251336E+03  0.10647301702E+04 -0.65733972203E+02  0.13207674918E+04  0.50400001928E-02 0.  1.
</event>
<event>
 5   0  0.2528460E-05  0.2640284E+04  0.7818609E-02  0.8354645E-01
        2   -1    0    0  501    0  0.00000000000E+00  0.00000000000E+00  0.11731168848E+04  0.11731168848E+04  0.25500000920E-02 0.  1.
       -2   -1    0    0    0  501  0.00000000000E+00  0.00000000000E+00 -0.14855933478E+04  0.14855933478E+04  0.25500000920E-02 0. -1.
    10030    2    1    2    0    0  0.00000000000E+00  0.00000000000E+00 -0.31247646304E+03  0.26587102327E+04  0.26402838032E+04 0.  0.
        5    1    3    3  502    0 -0.28887393042E+03 -0.12874360952E+04 -0.19911122222E+03  0.13343939507E+04  0.46999998093E+01 0. -1.
       -5    1    3    3    0  502  0.28887393042E+03  0.12874360952E+04 -0.11336524082E+03  0.13243162820E+04  0.46999998093E+01 0.  1.
</event>
<event>
 5   0  0.1034714E-05  0.2573068E+04  0.7818609E-02  0.8377407E-01
        1   -1    0    0  501    0  0.00000000000E+00  0.00000000000E+00  0.16122315973E+04  0.16122315973E+04  0.50400001928E-02 0. -1.
       -1   -1    0    0    0  501  0.00000000000E+00  0.00000000000E+00 -0.10266330331E+04  0.10266330331E+04  0.50400001928E-02 0.  1.
    10030    2    1    2    0    0  0.00000000000E+00  0.00000000000E+00  0.58559856416E+03  0.26388646305E+04  0.25730683744E+04 0.  0.
        5    1    3    3  502    0 -0.41637277520E+03 -0.11240284028E+04  0.77201870735E+03  0.14257773714E+04  0.46999998093E+01 0. -1.
       -5    1    3    3    0  502  0.41637277520E+03  0.11240284028E+04 -0.18642014319E+03  0.12130872591E+04  0.46999998093E+01 0.  1.
</event>
<event>
 5   0  0.1025153E-05  0.2630871E+04  0.7818609E-02  0.8357790E-01
        1   -1    0    0  501    0  0.00000000000E+00  0.00000000000E+00  0.55871264748E+03  0.55871264750E+03  0.50400001928E-02 0. -1.
       -1   -1    0    0    0  501  0.00000000000E+00  0.00000000000E+00 -0.30970674016E+04  0.30970674016E+04  0.50400001928E-02 0.  1.
    10030    2    1    2    0    0  0.00000000000E+00  0.00000000000E+00 -0.25383547541E+04  0.36557800491E+04  0.26308711313E+04 0.  0.
        1    1    3    3  502    0 -0.11930464332E+04 -0.12926983511E+03 -0.20178710869E+04  0.23477381041E+04  0.50400001928E-02 0.  1.
       -1    1    3    3    0  502  0.11930464332E+04  0.12926983511E+03 -0.52048366717E+03  0.13080419450E+04  0.50400001928E-02 0. -1.
</event>
<event>
 5   0  0.2517854E-05  0.2615772E+04  0.7818609E-02  0.8362863E-01
       -2   -1    0    0    0  501  0.00000000000E+00  0.00000000000E+00  0.96894280960E+03  0.96894280960E+03  0.25500000920E-02 0.  1.
        2   -1    0    0  501    0  0.00000000000E+00  0.00000000000E+00 -0.17653944320E+04  0.17653944320E+04  0.25500000920E-02 0. -1.
    10030    2    1    2    0    0  0.00000000000E+00  0.00000000000E+00 -0.79645162239E+03  0.27343372416E+04  0.26157723456E+04 0.  0.
        4    1    3    3  502    0 -0.12578361243E+04 -0.11194813513E+02 -0.23818384494E+02  0.12581120648E+04  0.12699999809E+01 0.  1.
       -4    1    3    3    0  502  0.12578361243E+04  0.11194813513E+02 -0.77263323790E+03  0.14762251768E+04  0.12699999809E+01 0. -1.
</event>
<event>
 5   0  0.1025153E-05  0.2576775E+04  0.7818609E-02  0.8376133E-01
       -1   -1    0    0    0  501  0.00000000000E+00  0.00000000000E+00  0.70400521147E+03  0.70400521149E+03  0.50400001928E-02 0. -1.
        1   -1    0    0  501    0  0.00000000000E+00  0.00000000000E+00 -0.23578547851E+04  0.23578547851E+04  0.50400001928E-02 0.  1.
    10030    2    1    2    0    0  0.00000000000E+00  0.00000000000E+00 -0.16538495736E+04  0.30618599966E+04  0.25767747722E+04 0.  0.
        1    1    3    3  502    0 -0.85905199051E+03 -0.95726234737E+03 -0.91600835437E+03  0.15790480770E+04  0.50400001928E-02 0. -1.
       -1    1    3    3    0  502  0.85905199051E+03  0.95726234737E+03 -0.73784121927E+03  0.14828119196E+04  0.50400001928E-02 0.  1.
</event>
<event>
 5   0  0.2517854E-05  0.2608361E+04  0.7818609E-02  0.8365367E-01
        2   -1    0    0  501    0  0.00000000000E+00  0.00000000000E+00  0.11238811352E+04  0.11238811352E+04  0.25500000920E-02 0. -1.
       -2   -1    0    0    0  501  0.00000000000E+00  0.00000000000E+00 -0.15134047383E+04  0.15134047383E+04  0.25500000920E-02 0.  1.
    10030    2    1    2    0    0  0.00000000000E+00  0.00000000000E+00 -0.38952360305E+03  0.26372858735E+04  0.26083611984E+04 0.  0.
        4    1    3    3  502    0 -0.84980181204E+03  0.76878433887E+03  0.43479283290E+03  0.12256585576E+04  0.12699999809E+01 0. -1.
       -4    1    3    3    0  502  0.84980181204E+03 -0.76878433887E+03 -0.82431643594E+03  0.14116273159E+04  0.12699999809E+01 0.  1.
</event>
<event>
 5   0  0.2555801E-05  0.2644606E+04  0.7818609E-02  0.8353206E-01
       -2   -1    0    0    0  501  0.00000000000E+00  0.00000000000E+00  0.82274751737E+03  0.82274751737E+03  0.25500000920E-02 0.  1.
        2   -1    0    0  501    0  0.00000000000E+00  0.00000000000E+00 -0.21251780174E+04  0.21251780174E+04  0.25500000920E-02 0. -1.
    10030    2    1    2    0    0  0.00000000000E+00  0.00000000000E+00 -0.13024305000E+04  0.29479255348E+04  0.26446057837E+04 0.  0.
        1    1    3    3  502    0  0.12537390237E+04 -0.38452036770E+03 -0.46215226371E+03  0.13904323672E+04  0.50400001928E-02 0.  1.
       -1    1    3    3    0  502 -0.12537390237E+04  0.38452036770E+03 -0.84027823633E+03  0.15574931676E+04  0.50400001928E-02 0. -1.
</event>
<event>
 5   0  0.8605000E-06  0.1948216E+04  0.7818609E-02  0.8631221E-01
        4   -1    0    0  501    0  0.00000000000E+00  0.00000000000E+00  0.10611652529E+04  0.10611660129E+04  0.12699999809E+01 0.  1.
       -4   -1    0    0    0  501  0.00000000000E+00  0.00000000000E+00 -0.89419174807E+03  0.89419264994E+03  0.12699999809E+01 0. -1.
    10030    2    1    2    0    0  0.00000000000E+00  0.00000000000E+00  0.16697350486E+03  0.19553586628E+04  0.19482164533E+04 0.  0.
        5    1    3    3  502    0  0.40670376503E+03 -0.18459387920E+02 -0.80469589549E+03  0.90183494926E+03  0.46999998093E+01 0. -1.
       -5    1    3    3    0  502 -0.40670376503E+03  0.18459387920E+02  0.97166940035E+03  0.10535237136E+04  0.46999998093E+01 0.  1.
</event>
<event>
 5   0  0.1025153E-05  0.2649662E+04  0.7818609E-02  0.8351525E-01
       -1   -1    0    0    0  501  0.00000000000E+00  0.00000000000E+00  0.85103086721E+03  0.85103086722E+03  0.50400001928E-02 0. -1.
        1   -1    0    0  501    0  0.00000000000E+00  0.00000000000E+00 -0.20624136673E+04  0.20624136673E+04  0.50400001928E-02 0.  1.
    10030    2    1    2    0    0  0.00000000000E+00  0.00000000000E+00 -0.12113828001E+04  0.29134445345E+04  0.26496623874E+04 0.  0.
        1    1    3    3  502    0 -0.20416748109E+03  0.28007149394E+03  0.80029839832E+03  0.87212495001E+03  0.50400001928E-02 0. -1.
       -1    1    3    3    0  502  0.20416748109E+03 -0.28007149394E+03 -0.20116811984E+04  0.20413195845E+04  0.50400001928E-02 0.  1.
</event>
<event>
 5   0  0.8605000E-06  0.2234562E+04  0.7818609E-02  0.8504179E-01
        3   -1    0    0  501    0  0.00000000000E+00  0.00000000000E+00  0.71139645409E+03  0.71139646126E+03  0.10100000352E+00 0.  1.
       -3   -1    0    0    0  501  0.00000000000E+00  0.00000000000E+00 -0.17547421057E+04  0.17547421086E+04  0.10100000352E+00 0. -1.
    10030    2    1    2    0    0  0.00000000000E+00  0.00000000000E+00 -0.10433456516E+04  0.24661385699E+04  0.22345624397E+04 0.  0.
        2    1    3    3  502    0 -0.46811961906E+03 -0.75419891904E+03 -0.12704908494E+04  0.15498706352E+04  0.25500000920E-02 0. -1.
       -2    1    3    3    0  502  0.46811961906E+03  0.75419891904E+03  0.22714519784E+03  0.91626793469E+03  0.25500000920E-02 0.  1.
</event>
<event>
 5   0  0.2517854E-05  0.2616035E+04  0.7818609E-02  0.8362775E-01
        2   -1    0    0  501    0  0.00000000000E+00  0.00000000000E+00  0.21120017379E+04  0.21120017379E+04  0.25500000920E-02 0.  1.
       -2   -1    0    0    0  501  0.00000000000E+00  0.00000000000E+00 -0.81008910931E+03  0.81008910931E+03  0.25500000920E-02 0. -1.
    10030    2    1    2    0    0  0.00000000000E+00  0.00000000000E+00  0.13019126286E+04  0.29220908472E+04  0.26160348673E+04 0.  0.
        4    1    3    3  502    0 -0.74904037586E+03 -0.10642527726E+04  0.79750189686E+03  0.15263375567E+04  0.12699999809E+01 0.  1.
       -4    1    3    3    0  502  0.74904037586E+03  0.10642527726E+04  0.50441073173E+03  0.13957532905E+04  0.12699999809E+01 0. -1.
</event>
<event>
 5   0  0.1005492E-05  0.2601978E+04  0.7818609E-02  0.8367530E-01
        1   -1    0    0  501    0  0.00000000000E+00  0.00000000000E+00  0.13858778500E+04  0.13858778500E+04  0.50400001928E-02 0.  1.
       -1   -1    0    0    0  501  0.00000000000E+00  0.00000000000E+00 -0.12212997181E+04  0.12212997181E+04  0.50400001928E-02 0. -1.
    10030    2    1    2    0    0  0.00000000000E+00  0.00000000000E+00  0.16457813187E+03  0.26071775682E+04  0.26019778843E+04 0.  0.
        4    1    3    3  502    0  0.10581519104E+04 -0.68802220715E+03 -0.23379431647E+03  0.12836360148E+04  0.12699999809E+01 0. -1.
       -4    1    3    3    0  502 -0.10581519104E+04  0.68802220715E+03  0.39837244835E+03  0.13235415534E+04  0.12699999809E+01 0.  1.
</event>
<event>
 5   0  0.2517854E-05  0.2386296E+04  0.7818609E-02  0.8444652E-01
       -2   -1    0    0    0  501  0.00000000000E+00  0.00000000000E+00  0.49463859115E+03  0.49463859115E+03  0.25500000920E-02 0. -1.
        2   -1    0    0  501    0  0.00000000000E+00  0.00000000000E+00 -0.28780661779E+04  0.28780661779E+04  0.25500000920E-02 0.  1.
    10030    2    1    2    0    0  0.00000000000E+00  0.00000000000E+00 -0.23834275868E+04  0.33727047691E+04  0.23862963768E+04 0.  0.
        4    1    3    3  502    0 -0.68820649643E+03  0.96346355673E+03 -0.98346060690E+03  0.15391837399E+04  0.12699999809E+01 0. -1.
       -4    1    3    3    0  502  0.68820649643E+03 -0.96346355673E+03 -0.13999669799E+04  0.18335210292E+04  0.12699999809E+01 0.  1.
</event>
<event>
 5   0  0.9855352E-06  0.2586833E+04  0.7818609E-02  0.8372687E-01
       -1   -1    0    0    0  501  0.00000000000E+00  0.00000000000E+00  0.77741190111E+03  0.77741190113E+03  0.50400001928E-02 0.  1.
        1   -1    0    0  501    0  0.00000000000E+00  0.00000000000E+00 -0.21519178747E+04  0.21519178747E+04  0.50400001928E-02 0. -1.
    10030    2    1    2    0    0  0.00000000000E+00  0.00000000000E+00 -0.13745059736E+04  0.29293297758E+04  0.25868332502E+04 0.  0.
        2    1    3    3  502    0  0.31156547825E+03 -0.40979610547E+03 -0.20309115496E+04  0.20951390449E+04  0.25500000920E-02 0. -1.
       -2    1    3    3    0  502 -0.31156547825E+03  0.40979610547E+03  0.65640557601E+03  0.83419073090E+03  0.25500000920E-02 0.  1.
</event>
<event>
 5   0  0.2555801E-05  0.2557776E+04  0.7818609E-02  0.8382687E-01
       -2   -1    0    0    0  501  0.00000000000E+00  0.00000000000E+00  0.75705409835E+03  0.75705409836E+03  0.25500000920E-02 0.  1.
        2   -1    0    0  501    0  0.00000000000E+00  0.00000000000E+00 -0.21604188580E+04  0.21604188580E+04  0.25500000920E-02 0. -1.
    10030    2    1    2    0    0  0.00000000000E+00  0.00000000000E+00 -0.14033647597E+04  0.29174729564E+04  0.25577755575E+04 0.  0.
        1    1    3    3  502    0  0.35923358326E+03  0.50139296396E+03  0.57618372093E+03  0.84405648622E+03  0.50400001928E-02 0.  1.
       -1    1    3    3    0  502 -0.35923358326E+03 -0.50139296396E+03 -0.19795484806E+04  0.20734164702E+04  0.50400001928E-02 0. -1.
</event>
<event>
 5   0  0.1000421E-05  0.2579867E+04  0.7818609E-02  0.8375072E-01
        1   -1    0    0  501    0  0.00000000000E+00  0.00000000000E+00  0.16993919094E+04  0.16993919094E+04  0.50400001928E-02 0.  1.
       -1   -1    0    0    0  501  0.00000000000E+00  0.00000000000E+00 -0.97913203437E+03  0.97913203439E+03  0.50400001928E-02 0. -1.
    10030    2    1    2    0    0  0.00000000000E+00  0.00000000000E+00  0.72025987505E+03  0.26785239438E+04  0.25798674830E+04 0.  0.
        3    1    3    3  502    0  0.10794211007E+03 -0.52757950788E+03 -0.85684492840E+03  0.10120152557E+04  0.10100000352E+00 0. -1.
       -3    1    3    3    0  502 -0.10794211007E+03  0.52757950788E+03  0.15771048034E+04  0.16665086881E+04  0.10100000352E+00 0.  1.
</event>
<event>
 5   0  0.1025153E-05  0.2639104E+04  0.7818609E-02  0.8355038E-01
       -1   -1    0    0    0  501  0.00000000000E+00  0.00000000000E+00  0.16932309087E+04  0.16932309087E+04  0.50400001928E-02 0. -1.
        1   -1    0    0  501    0  0.00000000000E+00  0.00000000000E+00 -0.10283402515E+04  0.10283402516E+04  0.50400001928E-02 0.  1.
    10030    2    1    2    0    0  0.00000000000E+00  0.00000000000E+00  0.66489065715E+03  0.27215711603E+04  0.26391040136E+04 0.  0.
        1    1    3    3  502    0  0.89264874720E+03  0.86817915034E+03  0.78273683048E+03  0.14707935847E+04  0.50400001928E-02 0. -1.
       -1    1    3    3    0  502 -0.89264874720E+03 -0.86817915034E+03 -0.11784617332E+03  0.12507775756E+04  0.50400001928E-02 0.  1.
</event>
<event>
 5   0  0.1000421E-05  0.2215498E+04  0.7818609E-02  0.8512005E-01
       -1   -1    0    0    0  501  0.00000000000E+00  0.00000000000E+00  0.53314677498E+03  0.53314677500E+03  0.50400001928E-02 0. -1.
        1   -1    0    0  501    0  0.00000000000E+00  0.00000000000E+00 -0.23016314422E+04  0.23016314422E+04  0.50400001928E-02 0.  1.
    10030    2    1    2    0    0  0.00000000000E+00  0.00000000000E+00 -0.17684846672E+04  0.28347782172E+04  0.22154975790E+04 0.  0.
        3    1    3    3  502    0  0.61447080563E+03  0.70167318275E+03 -0.11953354481E+03  0.94032329807E+03  0.10100000352E+00 0. -1.
       -3    1    3    3    0  502 -0.61447080563E+03 -0.70167318275E+03 -0.16489511224E+04  0.18944549191E+04  0.10100000352E+00 0.  1.
</event>
<event>
 5   0  0.2484618E-05  0.2613988E+04  0.7818609E-02  0.8363465E-01
        2   -1    0    0  501    0  0.00000000000E+00  0.00000000000E+00  0.21874883724E+04  0.21874883724E+04  0.25500000920E-02 0.  1.
       -2   -1    0    0    0  501  0.00000000000E+00  0.00000000000E+00 -0.78091099505E+03  0.78091099505E+03  0.25500000920E-02 0. -1.
    10030    2    1    2    0    0  0.00000000000E+00  0.00000000000E+00  0.14065773774E+04  0.29683993675E+04  0.26139883103E+04 0.  0.
        3    1    3    3  502    0 -0.11274884097E+04  0.51723886786E+03  0.23580983982E+03  0.12626846206E+04  0.10100000352E+00 0. -1.
       -3    1    3    3    0  502  0.11274884097E+04 -0.51723886786E+03  0.11707675376E+04  0.17057147469E+04  0.10100000352E+00 0.  1.
</event>
<event>
 5   0  0.2662024E-05  0.2613898E+04  0.7818609E-02  0.8363496E-01
       -2   -1    0    0    0  501  0.00000000000E+00  0.00000000000E+00  0.11994003574E+04  0.11994003574E+04  0.25500000920E-02 0.  1.
        2   -1    0    0  501    0  0.00000000000E+00  0.00000000000E+00 -0.14241417279E+04  0.14241417280E+04  0.25500000920E-02 0. -1.
    10030    2    1    2    0    0  0.00000000000E+00  0.00000000000E+00 -0.22474137052E+03  0.26235420854E+04  0.26138983129E+04 0.  0.
        2    1    3    3  502    0 -0.82720210412E+03  0.63706108402E+03 -0.90140460894E+03  0.13793623218E+04  0.25500000920E-02 0. -1.
       -2    1    3    3    0  502  0.82720210412E+03 -0.63706108402E+03  0.67666323842E+03  0.12441797636E+04  0.25500000920E-02 0.  1.
</event>
<event>
 5   0  0.1005492E-05  0.2578871E+04  0.7818609E-02  0.8375414E-01
        1   -1    0    0  501    0  0.00000000000E+00  0.00000000000E+00  0.13831540386E+04  0.13831540386E+04  0.50400001928E-02 0. -1.
       -1   -1    0    0    0  501  0.00000000000E+00  0.00000000000E+00 -0.12020669182E+04  0.12020669183E+04  0.50400001928E-02 0.  1.
    10030    2    1    2    0    0  0.00000000000E+00  0.00000000000E+00  0.18108712037E+03  0.25852209569E+04  0.25788708480E+04 0.  0.
        4    1    3    3  502    0 -0.93874744403E+03 -0.86574754165E+03 -0.88436065782E+02  0.12800734823E+04  0.12699999809E+01 0.  1.
       -4    1    3    3    0  502  0.93874744403E+03  0.86574754165E+03  0.26952318616E+03  0.13051474745E+04  0.12699999809E+01 0. -1.
</event>
<event>
 5   0  0.2555801E-05  0.2684037E+04  0.7818609E-02  0.8340203E-01
       -2   -1    0    0    0  501  0.00000000000E+00  0.00000000000E+00  0.16687973767E+04  0.16687973767E+04  0.25500000920E-02 0. -1.
        2   -1    0    0  501    0  0.00000000000E+00  0.00000000000E+00 -0.10792287058E+04  0.10792287058E+04  0.25500000920E-02 0.  1.
    10030    2    1    2    0    0  0.00000000000E+00  0.00000000000E+00  0.58956867087E+03  0.27480260825E+04  0.26840372822E+04 0.  0.
        1    1    3    3  502    0  0.10399873871E+04 -0.28659129820E+03  0.11121308336E+04  0.15493686871E+04  0.50400001928E-02 0. -1.
       -1    1    3    3    0  502 -0.10399873871E+04  0.28659129820E+03 -0.52256216274E+03  0.11986573954E+04  0.50400001928E-02 0.  1.
</event>
<event>
 5   0  0.2528460E-05  0.2599476E+04  0.7818609E-02  0.8368379E-01
       -2   -1    0    0    0  501  0.00000000000E+00  0.00000000000E+00  0.13310856334E+04  0.13310856334E+04  0.25500000920E-02 0.  1.
        2   -1    0    0  501    0  0.00000000000E+00  0.00000000000E+00 -0.12691289098E+04  0.12691289098E+04  0.25500000920E-02 0. -1.
    10030    2    1    2    0    0  0.00000000000E+00  0.00000000000E+00  0.61956723646E+02  0.26002145432E+04  0.25994763001E+04 0.  0.
        5    1    3    3  502    0  0.12285469624E+04  0.18001573316E+03 -0.35327115727E+03  0.12909515497E+04  0.46999998093E+01 0. -1.
       -5    1    3    3    0  502 -0.12285469624E+04 -0.18001573316E+03  0.41522788091E+03  0.13092629935E+04  0.46999998093E+01 0.  1.
</event>
<event>
 5   0  0.1005492E-05  0.2612556E+04  0.7818609E-02  0.8363949E-01
       -1   -1    0    0    0  501  0.00000000000E+00  0.00000000000E+00  0.11052564862E+04  0.11052564862E+04  0.50400001928E-02 0.  1.
        1   -1    0    0  501    0  0.00000000000E+00  0.00000000000E+00 -0.15438611322E+04  0.15438611322E+04  0.50400001928E-02 0. -1.
    10030    2    1    2    0    0  0.00000000000E+00  0.00000000000E+00 -0.43860464609E+03  0.26491176184E+04  0.26125562426E+04 0.  0.
        4    1    3    3  502    0  0.48974290910E+03  0.81047655007E+03  0.69309020756E+03  0.11734973387E+04  0.12699999809E+01 0.  1.
       -4    1    3    3    0  502 -0.48974290910E+03 -0.81047655007E+03 -0.11316948536E+04  0.14756202797E+04  0.12699999809E+01 0. -1.
</event>
<event>
 5   0  0.2555801E-05  0.2631838E+04  0.7818609E-02  0.8357466E-01
        2   -1    0    0  501    0  0.00000000000E+00  0.00000000000E+00  0.12795909927E+04  0.12795909927E+04  0.25500000920E-02 0.  1.
       -2   -1    0    0    0  501  0.00000000000E+00  0.00000000000E+00 -0.13532783205E+04  0.13532783205E+04  0.25500000920E-02 0. -1.
    10030    2    1    2    0    0  0.00000000000E+00  0.00000000000E+00 -0.73687327770E+02  0.26328693132E+04  0.26318379506E+04 0.  0.
        1    1    3    3  502    0 -0.80550977367E+03 -0.10360462976E+04 -0.13386013558E+03  0.13191499013E+04  0.50400001928E-02 0.  1.
       -1    1    3    3    0  502  0.80550977367E+03  0.10360462976E+04  0.60172807815E+02  0.13137194119E+04  0.50400001928E-02 0. -1.
</event>
<event>
 5   0  0.1025153E-05  0.2354353E+04  0.7818609E-02  0.8456794E-01
       -1   -1    0    0    0  501  0.00000000000E+00  0.00000000000E+00  0.60472948852E+03  0.60472948854E+03  0.50400001928E-02 0. -1.
        1   -1    0    0  501    0  0.00000000000E+00  0.00000000000E+00 -0.22915112770E+04  0.22915112770E+04  0.50400001928E-02 0.  1.
    10030    2    1    2    0    0  0.00000000000E+00  0.00000000000E+00 -0.16867817885E+04  0.28962407656E+04  0.23543529409E+04 0.  0.
        1    1    3    3  502    0 -0.52831079292E+03  0.45187974816E+03 -0.20120060171E+04  0.21287263360E+04  0.50400001928E-02 0.  1.
       -1    1    3    3    0  502  0.52831079292E+03 -0.45187974816E+03  0.32522422860E+03  0.76751442957E+03  0.50400001928E-02 0. -1.
</event>
<event>
 5   0  0.2555801E-05  0.2574135E+04  0.7818609E-02  0.8377040E-01
        2   -1    0    0  501    0  0.00000000000E+00  0.00000000000E+00  0.12299796067E+04  0.12299796067E+04  0.25500000920E-02 0.  1.
       -2   -1    0    0    0  501  0.00000000000E+00  0.00000000000E+00 -0.13468047889E+04  0.13468047889E+04  0.25500000920E-02 0. -1.
    10030    2    1    2    0    0  0.00000000000E+00  0.00000000000E+00 -0.11682518228E+03  0.25767843956E+04  0.25741347475E+04 0.  0.
        1    1    3    3  502    0 -0.37273794496E+03 -0.30947216688E+03 -0.12520475543E+04  0.13425087247E+04  0.50400001928E-02 0. -1.
       -1    1    3    3    0  502  0.37273794496E+03  0.30947216688E+03  0.11352223721E+04  0.12342756709E+04  0.50400001928E-02 0.  1.
</event>
<event>
 5   0  0.1005492E-05  0.2591752E+04  0.7818609E-02  0.8371008E-01
        1   -1    0    0  501    0  0.00000000000E+00  0.00000000000E+00  0.19588894344E+04  0.19588894345E+04  0.50400001928E-02 0. -1.
       -1   -1    0    0    0  501  0.00000000000E+00  0.00000000000E+00 -0.85726867103E+03  0.85726867105E+03  0.50400001928E-02 0.  1.
    10030    2    1    2    0    0  0.00000000000E+00  0.00000000000E+00  0.11016207634E+04  0.28161581055E+04  0.25917519497E+04 0.  0.
        4    1    3    3  502    0  0.10949415401E+04  0.63981026786E+03  0.26120186533E+03  0.12947904010E+04  0.12699999809E+01 0.  1.
       -4    1    3    3    0  502 -0.10949415401E+04 -0.63981026786E+03  0.84041889808E+03  0.15213677045E+04  0.12699999809E+01 0. -1.
</event>
<event>
 5   0  0.2662024E-05  0.2610097E+04  0.7818609E-02  0.8364780E-01
       -2   -1    0    0    0  501  0.00000000000E+00  0.00000000000E+00  0.14193600173E+04  0.14193600173E+04  0.25500000920E-02 0.  1.
        2   -1    0    0  501    0  0.00000000000E+00  0.00000000000E+00 -0.11999434780E+04  0.11999434780E+04  0.25500000920E-02 0. -1.
    10030    2    1    2    0    0  0.00000000000E+00  0.00000000000E+00  0.21941653922E+03  0.26193034953E+04  0.26100971597E+04 0.  0.
        2    1    3    3  502    0  0.39971601907E+03  0.19828417769E+03  0.13404362066E+04  0.14127486454E+04  0.25500000920E-02 0.  1.
       -2    1    3    3    0  502 -0.39971601907E+03 -0.19828417769E+03 -0.11210196674E+04  0.12065548499E+04  0.25500000920E-02 0. -1.
</event>
<event>
 5   0  0.2662024E-05  0.2625408E+04  0.7818609E-02  0.8359622E-01
        2   -1    0    0  501    0  0.00000000000E+00  0.00000000000E+00  0.11729546701E+04  0.11729546701E+04  0.25500000920E-02 0. -1.
       -2   -1    0    0    0  501  0.00000000000E+00  0.00000000000E+00 -0.14691032273E+04  0.14691032273E+04  0.25500000920E-02 0.  1.
    10030    2    1    2    0    0  0.00000000000E+00  0.00000000000E+00 -0.29614855718E+03  0.26420578974E+04  0.26254077712E+04 0.  0.
        2    1    3    3  502    0 -0.52682634348E+03  0.11283123442E+04  0.26995965711E+03  0.12741714793E+04  0.25500000920E-02 0. -1.
       -2    1    3    3    0  502  0.52682634348E+03 -0.11283123442E+04 -0.56610821429E+03  0.13678864180E+04  0.25500000920E-02 0.  1.
</event>
<event>
 5   0  0.1005492E-05  0.2551784E+04  0.7818609E-02  0.8384766E-01
        1   -1    0    0  501    0  0.00000000000E+00  0.00000000000E+00  0.11819696805E+04  0.11819696805E+04  0.50400001928E-02 0. -1.
       -1   -1    0    0    0  501  0.00000000000E+00  0.00000000000E+00 -0.13772777651E+04  0.13772777651E+04  0.50400001928E-02 0.  1.
    10030    2    1    2    0    0  0.00000000000E+00  0.00000000000E+00 -0.19530808455E+03  0.25592474456E+04  0.25517841288E+04 0.  0.
        4    1    3    3  502    0  0.92571899683E+03 -0.57963380038E+03  0.56379588360E+03  0.12291454002E+04  0.12699999809E+01 0. -1.
       -4    1    3    3    0  502 -0.92571899683E+03  0.57963380038E+03 -0.75910396816E+03  0.13301020453E+04  0.12699999809E+01 0.  1.
</event>
<event>
 5   0  0.1034714E-05  0.2631149E+04  0.7818609E-02  0.8357697E-01
        1   -1    0    0  501    0  0.00000000000E+00  0.00000000000E+00  0.13748816783E+04  0.13748816783E+04  0.50400001928E-02 0.  1.
       -1   -1    0    0    0  501  0.00000000000E+00  0.00000000000E+00 -0.12588252655E+04  0.12588252655E+04  0.50400001928E-02 0. -1.
    10030    2    1    2    0    0  0.00000000000E+00  0.00000000000E+00  0.11605641283E+03  0.26337069438E+04  0.26311486417E+04 0.  0.
        5    1    3    3  502    0  0.11784319182E+04 -0.45832726758E+03  0.42162791514E+03  0.13328757852E+04  0.46999998093E+01 0. -1.
       -5    1    3    3    0  502 -0.11784319182E+04  0.45832726758E+03 -0.30557150231E+03  0.13008311585E+04  0.46999998093E+01 0.  1.
</event>
<event>
 5   0  0.9855352E-06  0.2527262E+04  0.7818609E-02  0.8393337E-01
        1   -1    0    0  501    0  0.00000000000E+00  0.00000000000E+00  0.23051003920E+04  0.23051003920E+04  0.50400001928E-02 0.  1.
       -1   -1    0    0    0  501  0.00000000000E+00  0.00000000000E+00 -0.69270898860E+03  0.69270898862E+03  0.50400001928E-02 0. -1.
    10030    2    1    2    0    0  0.00000000000E+00  0.00000000000E+00  0.16123914034E+04  0.29978093806E+04  0.25272623617E+04 0.  0.
        2    1    3    3  502    0  0.99816282567E+03  0.56707759010E+03  0.14325860214E+04  0.18358128250E+04  0.25500000920E-02 0.  1.
       -2    1    3    3    0  502 -0.99816282567E+03 -0.56707759010E+03  0.17980538195E+03  0.11619965556E+04  0.25500000920E-02 0. -1.
</event>
<event>
 5   0  0.2484618E-05  0.2398575E+04  0.7818609E-02  0.8440037E-01
        2   -1    0    0  501    0  0.00000000000E+00  0.00000000000E+00  0.11478692272E+04  0.11478692272E+04  0.25500000920E-02 0.  1.
       -2   -1    0    0    0  501  0.00000000000E+00  0.00000000000E+00 -0.12530092498E+04  0.12530092498E+04  0.25500000920E-02 0. -1.
    10030    2    1    2    0    0  0.00000000000E+00  0.00000000000E+00 -0.10514002255E+03  0.24008784770E+04  0.23985752098E+04 0.  0.
        3    1    3    3  502    0  0.32582613624E+03  0.22793740211E+03 -0.11851036348E+04  0.12500355058E+04  0.10100000352E+00 0. -1.
       -3    1    3    3    0  502 -0.32582613624E+03 -0.22793740211E+03  0.10799636123E+04  0.11508429712E+04  0.10100000352E+00 0.  1.
</event>
<event>
 5   0  0.9855352E-06  0.2633699E+04  0.7818609E-02  0.8356844E-01
        1   -1    0    0  501    0  0.00000000000E+00  0.00000000000E+00  0.73935625257E+03  0.73935625258E+03  0.50400001928E-02 0. -1.
       -1   -1    0    0    0  501  0.00000000000E+00  0.00000000000E+00 -0.23454083916E+04  0.23454083916E+04  0.50400001928E-02 0.  1.
    10030    2    1    2    0    0  0.00000000000E+00  0.00000000000E+00 -0.16060521391E+04  0.30847646442E+04  0.26336988128E+04 0.  0.
        2    1    3    3  502    0  0.11378672466E+04 -0.28621599186E+02 -0.15786589674E+04  0.19462079031E+04  0.25500000920E-02 0.  1.
       -2    1    3    3    0  502 -0.11378672466E+04  0.28621599186E+02 -0.27393171620E+02  0.11385567411E+04  0.25500000920E-02 0. -1.
</event>
<event>
 5   0  0.1025153E-05  0.2581775E+04  0.7818609E-02  0.8374418E-01
       -1   -1    0    0    0  501  0.00000000000E+00  0.00000000000E+00  0.13400127852E+04  0.13400127852E+04  0.50400001928E-02 0.  1.
        1   -1    0    0  501    0  0.00000000000E+00  0.00000000000E+00 -0.12435627477E+04  0.12435627477E+04  0.50400001928E-02 0. -1.
    10030    2    1    2    0    0  0.00000000000E+00  0.00000000000E+00  0.96450037471E+02  0.25835755329E+04  0.25817745689E+04 0.  0.
        1    1    3    3  502    0 -0.37937631794E+03  0.12292429256E+04 -0.58739301948E+02  0.12877945746E+04  0.50400001928E-02 0. -1.
       -1    1    3    3    0  502  0.37937631794E+03 -0.12292429256E+04  0.15518933942E+03  0.12957809583E+04  0.50400001928E-02 0.  1.
</event>
<event>
 5   0  0.2555801E-05  0.2616915E+04  0.7818609E-02  0.8362478E-01
       -2   -1    0    0    0  501  0.00000000000E+00  0.00000000000E+00  0.24914764230E+04  0.24914764230E+04  0.25500000920E-02 0.  1.
        2   -1    0    0  501    0  0.00000000000E+00  0.00000000000E+00 -0.68716703444E+03  0.68716703445E+03  0.25500000920E-02 0. -1.
    10030    2    1    2    0    0  0.00000000000E+00  0.00000000000E+00  0.18043093885E+04  0.31786434574E+04  0.26169145687E+04 0.  0.
        1    1    3    3  502    0 -0.10953172377E+03 -0.11788616619E+04  0.22548447850E+03  0.12052200075E+04  0.50400001928E-02 0.  1.
       -1    1    3    3    0  502  0.10953172377E+03  0.11788616619E+04  0.15788249100E+04  0.19734234499E+04  0.50400001928E-02 0. -1.
</event>
<event>
 5   0  0.1034714E-05  0.2067189E+04  0.7818609E-02  0.8575836E-01
        1   -1    0    0  501    0  0.00000000000E+00  0.00000000000E+00  0.16784679214E+04  0.16784679215E+04  0.50400001928E-02 0.  1.
       -1   -1    0    0    0  501  0.00000000000E+00  0.00000000000E+00 -0.63648360567E+03  0.63648360569E+03  0.50400001928E-02 0. -1.
    10030    2    1    2    0    0  0.00000000000E+00  0.00000000000E+00  0.10419843158E+04  0.23149515271E+04  0.20671887332E+04 0.  0.
        5    1    3    3  502    0 -0.61761615565E+03  0.40930498061E+03  0.13279989346E+04  0.15207181011E+04  0.46999998093E+01 0.  1.
       -5    1    3    3    0  502  0.61761615565E+03 -0.40930498061E+03 -0.28601461878E+03  0.79423342603E+03  0.46999998093E+01 0. -1.
</event>
<event>
 5   0  0.1034714E-05  0.2548984E+04  0.7818609E-02  0.8385740E-01
        1   -1    0    0  501    0  0.00000000000E+00  0.00000000000E+00  0.27597796015E+04  0.27597796015E+04  0.50400001928E-02 0. -1.
       -1   -1    0    0    0  501  0.00000000000E+00  0.00000000000E+00 -0.58857238009E+03  0.58857238011E+03  0.50400001928E-02 0.  1.
    10030    2    1    2    0    0  0.00000000000E+00  0.00000000000E+00  0.21712072214E+04  0.33483519816E+04  0.25489841495E+04 0.  0.
        5    1    3    3  502    0 -0.12482037747E+04 -0.12008657572E+02  0.74774696600E+03  0.14550960402E+04  0.46999998093E+01 0.  1.
       -5    1    3    3    0  502  0.12482037747E+04  0.12008657572E+02  0.14234602554E+04  0.18932559414E+04  0.46999998093E+01 0. -1.
</event>
<event>
 5   0  0.2662024E-05  0.2234552E+04  0.7818609E-02  0.8504183E-01
       -2   -1    0    0    0  501  0.00000000000E+00  0.00000000000E+00  0.66954363569E+03  0.66954363570E+03  0.25500000920E-02 0.  1.
        2   -1    0    0  501    0  0.00000000000E+00  0.00000000000E+00 -0.18644123995E+04  0.18644123995E+04  0.25500000920E-02 0. -1.
    10030    2    1    2    0    0  0.00000000000E+00  0.00000000000E+00 -0.11948687638E+04  0.25339560352E+04  0.22345518176E+04 0.  0.
        2    1    3    3  502    0 -0.10573862721E+04  0.35833300502E+03 -0.64603985303E+03  0.12898975783E+04  0.25500000920E-02 0.  1.
       -2    1    3    3    0  502  0.10573862721E+04 -0.35833300502E+03 -0.54882891075E+03  0.12440584569E+04  0.25500000920E-02 0. -1.
</event>
<event>
 5   0  0.2662024E-05  0.2564210E+04  0.7818609E-02  0.8380461E-01
       -2   -1    0    0    0  501  0.00000000000E+00  0.00000000000E+00  0.23113882034E+04  0.23113882034E+04  0.25500000920E-02 0. -1.
        2   -1    0    0  501    0  0.00000000000E+00  0.00000000000E+00 -0.71117157689E+03  0.71117157689E+03  0.25500000920E-02 0.  1.
    10030    2    1    2    0    0  0.00000000000E+00  0.00000000000E+00  0.16002166266E+04  0.30225597803E+04  0.25642102827E+04 0.  0.
        2    1    3    3  502    0  0.81219315346E+03 -0.16973019050E+03  0.19522275021E+04  0.21212397969E+04  0.25500000920E-02 0. -1.
       -2    1    3    3    0  502 -0.81219315346E+03  0.16973019050E+03 -0.35201087550E+03  0.90131998345E+03  0.25500000920E-02 0.  1.
</event>
<event>
 5   0  0.1000421E-05  0.2629484E+04  0.7818609E-02  0.8358255E-01
       -1   -1    0    0    0  501  0.00000000000E+00  0.00000000000E+00  0.11966360747E+04  0.11966360747E+04  0.50400001928E-02 0. -1.
        1   -1    0    0  501    0  0.00000000000E+00  0.00000000000E+00 -0.14445045344E+04  0.14445045344E+04  0.50400001928E-02 0.  1.
    10030    2    1    2    0    0  0.00000000000E+00  0.00000000000E+00 -0.24786845973E+03  0.26411406091E+04  0.26294837790E+04 0.  0.
        3    1    3    3  502    0 -0.29648695787E+03 -0.11173747898E+04 -0.75290130927E+03  0.13795982490E+04  0.10100000352E+00 0.  1.
       -3    1    3    3    0  502  0.29648695787E+03  0.11173747898E+04  0.50503284954E+03  0.12615423601E+04  0.10100000352E+00 0. -1.
</event>
<event>
 5   0  0.2528460E-05  0.2640392E+04  0.7818609E-02  0.8354609E-01
        2   -1    0    0  501    0  0.00000000000E+00  0.00000000000E+00  0.11837014831E+04  0.11837014831E+04  0.25500000920E-02 0.  1.
       -2   -1    0    0    0  501  0.00000000000E+00  0.00000000000E+00 -0.14724299156E+04  0.14724299156E+04  0.25500000920E-02 0. -1.
    10030    2    1    2    0    0  0.00000000000E+00  0.00000000000E+00 -0.28872843248E+03  0.26561313988E+04  0.26403919974E+04 0.  0.
        5    1    3    3  502    0  0.40520412552E+03  0.80045050411E+03  0.82990473264E+03  0.12221601156E+04  0.46999998093E+01 0.  1.
       -5    1    3    3    0  502 -0.40520412552E+03 -0.80045050411E+03 -0.11186331651E+04  0.14339712832E+04  0.46999998093E+01 0. -1.
</event>
<event>
 5   0  0.1005492E-05  0.2623753E+04  0.7818609E-02  0.8360177E-01
        1   -1    0    0  501    0  0.00000000000E+00  0.00000000000E+00  0.12185047240E+04  0.12185047240E+04  0.50400001928E-02 0.  1.
       -1   -1    0    0    0  501  0.00000000000E+00  0.00000000000E+00 -0.14124036734E+04  0.14124036734E+04  0.50400001928E-02 0. -1.
    10030    2    1    2    0    0  0.00000000000E+00  0.00000000000E+00 -0.19389894941E+03  0.26309083975E+04  0.26237534551E+04 0.  0.
        4    1    3    3  502    0 -0.26774218604E+03 -0.15211004078E+03  0.11817517865E+04  0.12212134295E+04  0.12699999809E+01 0.  1.
       -4    1    3    3    0  502  0.26774218604E+03  0.15211004078E+03 -0.13756507359E+04  0.14096949680E+04  0.12699999809E+01 0. -1.
</event>
<event>
 5   0  0.2662024E-05  0.2612000E+04  0.7818609E-02  0.8364137E-01
        2   -1    0    0  501    0  0.00000000000E+00  0.00000000000E+00  0.15381615156E+04  0.15381615156E+04  0.25500000920E-02 0. -1.
       -2   -1    0    0    0  501  0.00000000000E+00  0.00000000000E+00 -0.11088794178E+04  0.11088794178E+04  0.25500000920E-02 0.  1.
    10030    2    1    2    0    0  0.00000000000E+00  0.00000000000E+00  0.42928209779E+03  0.26470409335E+04  0.26119997289E+04 0.  0.
        2    1    3    3  502    0 -0.11010332397E+04 -0.69948745390E+03  0.14991915358E+03  0.13130242365E+04  0.25500000920E-02 0.  1.
       -2    1    3    3    0  502  0.11010332397E+04  0.69948745390E+03  0.27936294420E+03  0.13340166969E+04  0.25500000920E-02 0. -1.
</event>
<event>
 5   0  0.1000421E-05  0.2575493E+04  0.7818609E-02  0.8376574E-01
        1   -1    0    0  501    0  0.00000000000E+00  0.00000000000E+00  0.15322634147E+04  0.15322634147E+04  0.50400001928E-02 0. -1.
       -1   -1    0    0    0  501  0.00000000000E+00  0.00000000000E+00 -0.10822492165E+04  0.10822492165E+04  0.50400001928E-02 0.  1.
    10030    2    1    2    0    0  0.00000000000E+00  0.00000000000E+00  0.45001419825E+03  0.26145126312E+04  0.25754928693E+04 0.  0.
        3    1    3    3  502    0 -0.10878648509E+04 -0.36882991752E+02  0.92353133418E+03  0.14274874515E+04  0.10100000352E+00 0. -1.
       -3    1    3    3    0  502  0.10878648509E+04  0.36882991752E+02 -0.47351713593E+03  0.11870251796E+04  0.10100000352E+00 0.  1.
</event>
<event>
 5   0  0.1034714E-05  0.2593668E+04  0.7818609E-02  0.8370355E-01
        1   -1    0    0  501    0  0.00000000000E+00  0.00000000000E+00  0.13010029543E+04  0.13010029543E+04  0.50400001928E-02 0. -1.
       -1   -1    0    0    0  501  0.00000000000E+00  0.00000000000E+00 -0.12926785861E+04  0.12926785861E+04  0.50400001928E-02 0.  1.
    10030    2    1    2    0    0  0.00000000000E+00  0.00000000000E+00  0.83243681556E+01  0.25936815404E+04  0.25936681819E+04 0.  0.
        5    1    3    3  502    0 -0.35026801395E+02  0.72151197207E+03 -0.10728531897E+04  0.12933841112E+04  0.46999998093E+01 0.  1.
       -5    1    3    3    0  502  0.35026801395E+02 -0.72151197207E+03  0.10811775578E+04  0.13002974291E+04  0.46999998093E+01 0. -1.
</event>
<event>
 5   0  0.9855352E-06  0.2506831E+04  0.7818609E-02  0.8400556E-01
       -1   -1    0    0    0  501  0.00000000000E+00  0.00000000000E+00  0.45111786880E+03  0.45111786883E+03  0.50400001928E-02 0.  1.
        1   -1    0    0  501    0  0.00000000000E+00  0.00000000000E+00 -0.34825708094E+04  0.34825708094E+04  0.50400001928E-02 0. -1.
    10030    2    1    2    0    0  0.00000000000E+00  0.00000000000E+00 -0.30314529406E+04  0.39336886782E+04  0.25068306058E+04 0.  0.
        2    1    3    3  502    0 -0.11740971940E+04 -0.43364875522E+03 -0.16209259620E+04  0.20479151443E+04  0.25500000920E-02 0. -1.
       -2    1    3    3    0  502  0.11740971940E+04  0.43364875522E+03 -0.14105269786E+04  0.18857735339E+04  0.25500000920E-02 0.  1.
</event>
<event>
 5   0  0.1034714E-05  0.2497796E+04  0.7818609E-02  0.8403771E-01
        1   -1    0    0  501    0  0.00000000000E+00  0.00000000000E+00  0.16822131018E+04  0.16822131018E+04  0.50400001928E-02 0. -1.
       -1   -1    0    0    0  501  0.00000000000E+00  0.00000000000E+00 -0.92719914114E+03  0.92719914116E+03  0.50400001928E-02 0.  1.
    10030    2    1    2    0    0  0.00000000000E+00  0.00000000000E+00  0.75501396061E+03  0.26094122429E+04  0.24977962633E+04 0.  0.
        5    1    3    3  502    0 -0.38951552737E+03 -0.77755726232E+03  0.13138898040E+04  0.15756415040E+04  0.46999998093E+01 0. -1.
       -5    1    3    3    0  502  0.38951552737E+03  0.77755726232E+03 -0.55887584338E+03  0.10337707389E+04  0.46999998093E+01 0.  1.
</event>
<event>
 5   0  0.2662024E-05  0.2689952E+04  0.7818609E-02  0.8338273E-01
        2   -1    0    0  501    0  0.00000000000E+00  0.00000000000E+00  0.26220240467E+04  0.26220240467E+04  0.25500000920E-02 0. -1.
       -2   -1    0    0    0  501  0.00000000000E+00  0.00000000000E+00 -0.68990989970E+03  0.68990989971E+03  0.25500000920E-02 0.  1.
    10030    2    1    2    0    0  0.00000000000E+00  0.00000000000E+00  0.19321141470E+04  0.33119339464E+04  0.26899519305E+04 0.  0.
        2    1    3    3  502    0 -0.46509329708E+03 -0.11825069350E+04  0.15088104256E+04  0.19725981159E+04  0.25500000920E-02 0. -1.
       -2    1    3    3    0  502  0.46509329708E+03  0.11825069350E+04  0.42330372141E+03  0.13393358305E+04  0.25500000920E-02 0.  1.
</event>
<event>
 5   0  0.2662024E-05  0.2590589E+04  0.7818609E-02  0.8371405E-01
        2   -1    0    0  501    0  0.00000000000E+00  0.00000000000E+00  0.21005260172E+04  0.21005260172E+04  0.25500000920E-02 0.  1.
       -2   -1    0    0    0  501  0.00000000000E+00  0.00000000000E+00 -0.79874641439E+03  0.79874641440E+03  0.25500000920E-02 0. -1.
    10030    2    1    2    0    0  0.00000000000E+00  0.00000000000E+00  0.13017796028E+04  0.28992724316E+04  0.25905888323E+04 0.  0.
        2    1    3    3  502    0 -0.19015397034E+03 -0.58543396690E+03 -0.62460224206E+03  0.87693752504E+03  0.25500000920E-02 0. -1.
       -2    1    3    3    0  502  0.19015397034E+03  0.58543396690E+03  0.19263818448E+04  0.20223349065E+04  0.25500000920E-02 0.  1.
</event>
<event>
 5   0  0.1005492E-05  0.2605621E+04  0.7818609E-02  0.8366295E-01
       -1   -1    0    0    0  501  0.00000000000E+00  0.00000000000E+00  0.74603590084E+03  0.74603590086E+03  0.50400001928E-02 0.  1.
        1   -1    0    0  501    0  0.00000000000E+00  0.00000000000E+00 -0.22751112362E+04  0.22751112362E+04  0.50400001928E-02 0. -1.
    10030    2    1    2    0    0  0.00000000000E+00  0.00000000000E+00 -0.15290753354E+04  0.30211471371E+04  0.26056205868E+04 0.  0.
        4    1    3    3  502    0  0.12258278650E+04  0.43898829902E+03 -0.71335817109E+03  0.14846703926E+04  0.12699999809E+01 0. -1.
       -4    1    3    3    0  502 -0.12258278650E+04 -0.43898829902E+03 -0.81571716429E+03  0.15364767445E+04  0.12699999809E+01 0.  1.
</event>
<event>
 5   0  0.2517854E-05  0.2581935E+04  0.7818609E-02  0.8374363E-01
        2   -1    0    0  501    0  0.00000000000E+00  0.00000000000E+00  0.11343260807E+04  0.11343260807E+04  0.25500000920E-02 0. -1.
       -2   -1    0    0    0  501  0.00000000000E+00  0.00000000000E+00 -0.14692400893E+04  0.14692400893E+04  0.25500000920E-02 0.  1.
    10030    2    1    2    0    0  0.00000000000E+00  0.00000000000E+00 -0.33491400866E+03  0.26035661700E+04  0.25819352061E+04 0.  0.
        4    1    3    3  502    0 -0.84881724589E+03  0.97241780466E+03 -0.14471511298E+03  0.12988576445E+04  0.12699999809E+01 0.  1.
       -4    1    3    3    0  502  0.84881724589E+03 -0.97241780466E+03 -0.19019889568E+03  0.13047085255E+04  0.12699999809E+01 0. -1.
</event>
<event>
 5   0  0.8605000E-06  0.2603779E+04  0.7818609E-02  0.8366919E-01
       -3   -1    0    0    0  501  0.00000000000E+00  0.00000000000E+00  0.16890389377E+04  0.16890389407E+04  0.10100000352E+00 0. -1.
        3   -1    0    0  501    0  0.00000000000E+00  0.00000000000E+00 -0.10034797739E+04  0.10034797790E+04  0.10100000352E+00 0.  1.
    10030    2    1    2    0    0  0.00000000000E+00  0.00000000000E+00  0.68555916372E+03  0.26925187197E+04  0.26037791168E+04 0.  0.
        4    1    3    3  502    0 -0.46979604068E+03  0.12104532127E+04  0.24462622388E+03  0.13212679147E+04  0.12699999809E+01 0.  1.
       -4    1    3    3    0  502  0.46979604068E+03 -0.12104532127E+04  0.44093293984E+03  0.13712508050E+04  0.12699999809E+01 0. -1.
</event>
<event>
 5   0  0.1034714E-05  0.2631817E+04  0.7818609E-02  0.8357473E-01
       -1   -1    0    0    0  501  0.00000000000E+00  0.00000000000E+00  0.11447662355E+04  0.11447662355E+04  0.50400001928E-02 0.  1.
        1   -1    0    0  501    0  0.00000000000E+00  0.00000000000E+00 -0.15126360140E+04  0.15126360140E+04  0.50400001928E-02 0. -1.
    10030    2    1    2    0    0  0.00000000000E+00  0.00000000000E+00 -0.36786977852E+03  0.26574022495E+04  0.26318165859E+04 0.  0.
        5    1    3    3  502    0 -0.25355320839E+03  0.12065571743E+04 -0.64832245330E+03  0.13929872713E+04  0.46999998093E+01 0. -1.
       -5    1    3    3    0  502  0.25355320839E+03 -0.12065571743E+04  0.28045267478E+03  0.12644149783E+04  0.46999998093E+01 0.  1.
</event>
<event>
 5   0  0.1000421E-05  0.2492032E+04  0.7818609E-02  0.8405829E-01
       -1   -1    0    0    0  501  0.00000000000E+00  0.00000000000E+00  0.76216831697E+03  0.76216831698E+03  0.50400001928E-02 0.  1.
        1   -1    0    0  501    0  0.00000000000E+00  0.00000000000E+00 -0.20370257271E+04  0.20370257271E+04  0.50400001928E-02 0. -1.
    10030    2    1    2    0    0  0.00000000000E+00  0.00000000000E+00 -0.12748574101E+04  0.27991940441E+04  0.24920324798E+04 0.  0.
        3    1    3    3  502    0 -0.60546125204E+03 -0.26592548178E+03  0.54879538962E+03  0.85934630939E+03  0.10100000352E+00 0.  1.
       -3    1    3    3    0  502  0.60546125204E+03  0.26592548178E+03 -0.18236527997E+04  0.19398477347E+04  0.10100000352E+00 0. -1.
</event>
<event>
 5   0  0.2662024E-05  0.2278510E+04  0.7818609E-02  0.8486443E-01
        2   -1    0    0  501    0  0.00000000000E+00  0.00000000000E+00  0.13220137304E+04  0.13220137304E+04  0.25500000920E-02 0.  1.
       -2   -1    0    0    0  501  0.00000000000E+00  0.00000000000E+00 -0.98176162911E+03  0.98176162911E+03  0.25500000920E-02 0. -1.
    10030    2    1    2    0    0  0.00000000000E+00  0.00000000000E+00  0.34025210133E+03  0.23037753596E+04  0.22785103499E+04 0.  0.
        2    1    3    3  502    0  0.51848605332E+03 -0.71014473626E+03 -0.56231591131E+03  0.10437109361E+04  0.25500000920E-02 0. -1.
       -2    1    3    3    0  502 -0.51848605332E+03  0.71014473626E+03  0.90256801264E+03  0.12600644235E+04  0.25500000920E-02 0.  1.
</event>
<event>
 5   0  0.1025153E-05  0.2620200E+04  0.7818609E-02  0.8361372E-01
       -1   -1    0    0    0  501  0.00000000000E+00  0.00000000000E+00  0.97225667581E+03  0.97225667582E+03  0.50400001928E-02 0.  1.
        1   -1    0    0  501    0  0.00000000000E+00  0.00000000000E+00 -0.17653384633E+04  0.17653384633E+04  0.50400001928E-02 0. -1.
    10030    2    1    2    0    0  0.00000000000E+00  0.00000000000E+00 -0.79308178745E+03  0.27375951391E+04  0.26202000733E+04 0.  0.
        1    1    3    3  502    0  0.81394855497E+02  0.90228448776E+03 -0.13853138560E+04  0.16552452685E+04  0.50400001928E-02 0. -1.
       -1    1    3    3    0  502 -0.81394855497E+02 -0.90228448776E+03  0.59223206851E+03  0.10823498706E+04  0.50400001928E-02 0.  1.
</event>
<event>
 5   0  0.2662024E-05  0.2445938E+04  0.7818609E-02  0.8422503E-01
       -2   -1    0    0    0  501  0.00000000000E+00  0.00000000000E+00  0.14790673422E+04  0.14790673423E+04  0.25500000920E-02 0. -1.
        2   -1    0    0  501    0  0.00000000000E+00  0.00000000000E+00 -0.10112135613E+04  0.10112135613E+04  0.25500000920E-02 0.  1.
    10030    2    1    2    0    0  0.00000000000E+00  0.00000000000E+00  0.46785378099E+03  0.24902809035E+04  0.24459378197E+04 0.  0.
        2    1    3    3  502    0 -0.10509069456E+04  0.16756674573E+03  0.84748721765E+03  0.13604111903E+04  0.25500000920E-02 0. -1.
       -2    1    3    3    0  502  0.10509069456E+04 -0.16756674573E+03 -0.37963343666E+03  0.11298697132E+04  0.25500000920E-02 0.  1.
</event>
<event>
 5   0  0.2662024E-05  0.2515940E+04  0.7818609E-02  0.8397329E-01
       -2   -1    0    0    0  501  0.00000000000E+00  0.00000000000E+00  0.92830968653E+03  0.92830968653E+03  0.25500000920E-02 0.  1.
        2   -1    0    0  501    0  0.00000000000E+00  0.00000000000E+00 -0.17046988857E+04  0.17046988857E+04  0.25500000920E-02 0. -1.
    10030    2    1    2    0    0  0.00000000000E+00  0.00000000000E+00 -0.77638919922E+03  0.26330085723E+04  0.25159399740E+04 0.  0.
        2    1    3    3  502    0  0.33694614785E+03 -0.10806648551E+03  0.87515374311E+03  0.94398365766E+03  0.25500000920E-02 0.  1.
       -2    1    3    3    0  502 -0.33694614785E+03  0.10806648551E+03 -0.16515429423E+04  0.16890249146E+04  0.25500000920E-02 0. -1.
</event>
<event>
 5   0  0.1000421E-05  0.2587205E+04  0.7818609E-02  0.8372561E-01
        1   -1    0    0  501    0  0.00000000000E+00  0.00000000000E+00  0.11293827164E+04  0.11293827164E+04  0.50400001928E-02 0. -1.
       -1   -1    0    0    0  501  0.00000000000E+00  0.00000000000E+00 -0.14817003831E+04  0.14817003831E+04  0.50400001928E-02 0.  1.
    10030    2    1    2    0    0  0.00000000000E+00  0.00000000000E+00 -0.35231766673E+03  0.26110830995E+04  0.25872045173E+04 0.  0.
        3    1    3    3  502    0 -0.83941166377E+03 -0.59897359551E+03 -0.96440872913E+03  0.14119013834E+04  0.10100000352E+00 0.  1.
       -3    1    3    3    0  502  0.83941166377E+03  0.59897359551E+03  0.61209106240E+03  0.11991817161E+04  0.10100000352E+00 0. -1.
</event>
<event>
 5   0  0.1025153E-05  0.2586090E+04  0.7818609E-02  0.8372942E-01
        1   -1    0    0  501    0  0.00000000000E+00  0.00000000000E+00  0.95836751750E+03  0.95836751751E+03  0.50400001928E-02 0. -1.
       -1   -1    0    0    0  501  0.00000000000E+00  0.00000000000E+00 -0.17445968290E+04  0.17445968290E+04  0.50400001928E-02 0.  1.
    10030    2    1    2    0    0  0.00000000000E+00  0.00000000000E+00 -0.78622931145E+03  0.27029643465E+04  0.25860896597E+04 0.  0.
        1    1    3    3  502    0 -0.59530947867E+03 -0.10764407329E+04 -0.80968286012E+03  0.14726521520E+04  0.50400001928E-02 0.  1.
       -1    1    3    3    0  502  0.59530947867E+03  0.10764407329E+04  0.23453548667E+02  0.12303121945E+04  0.50400001928E-02 0. -1.
</event>
<event>
 5   0  0.1000421E-05  0.2527241E+04  0.7818609E-02  0.8393345E-01
        1   -1    0    0  501    0  0.00000000000E+00  0.00000000000E+00  0.98512796720E+03  0.98512796722E+03  0.50400001928E-02 0.  1.
       -1   -1    0    0    0  501  0.00000000000E+00  0.00000000000E+00 -0.16208420491E+04  0.16208420491E+04  0.50400001928E-02 0. -1.
    10030    2    1    2    0    0  0.00000000000E+00  0.00000000000E+00 -0.63571408187E+03  0.26059700163E+04  0.25272410514E+04 0.  0.
        3    1    3    3  502    0  0.37556879585E+03  0.11592647971E+04 -0.66262292837E+03  0.13870890186E+04  0.10100000352E+00 0. -1.
       -3    1    3    3    0  502 -0.37556879585E+03 -0.11592647971E+04  0.26908846495E+02  0.12188809977E+04  0.10100000352E+00 0.  1.
</event>
<event>
 5   0  0.8605000E-06  0.2374180E+04  0.7818609E-02  0.8449234E-01
        3   -1    0    0  501    0  0.00000000000E+00  0.00000000000E+00  0.10072861763E+04  0.10072861814E+04  0.10100000352E+00 0.  1.
       -3   -1    0    0    0  501  0.00000000000E+00  0.00000000000E+00 -0.13989888705E+04  0.13989888741E+04  0.10100000352E+00 0. -1.
    10030    2    1    2    0    0  0.00000000000E+00  0.00000000000E+00 -0.39170269419E+03  0.24062750555E+04  0.23741795724E+04 0.  0.
        2    1    3    3  502    0 -0.11623474927E+04  0.10332080911E+03 -0.41663858284E+03  0.12390781219E+04  0.25500000920E-02 0. -1.
       -2    1    3    3    0  502  0.11623474927E+04 -0.10332080911E+03  0.24935888656E+02  0.11671969336E+04  0.25500000920E-02 0.  1.
</event>
<event>
 5   0  0.1005492E-05  0.2592322E+04  0.7818609E-02  0.8370814E-01
       -1   -1    0    0    0  501  0.00000000000E+00  0.00000000000E+00  0.76685899972E+03  0.76685899974E+03  0.50400001928E-02 0.  1.
        1   -1    0    0  501    0  0.00000000000E+00  0.00000000000E+00 -0.21907988198E+04  0.21907988198E+04  0.50400001928E-02 0. -1.
    10030    2    1    2    0    0  0.00000000000E+00  0.00000000000E+00 -0.14239398201E+04  0.29576578196E+04  0.25923223500E+04 0.  0.
        4    1    3    3  502    0 -0.83324815144E+03  0.93747616081E+03 -0.33899204518E+03  0.12992618110E+04  0.12699999809E+01 0.  1.
       -4    1    3    3    0  502  0.83324815144E+03 -0.93747616081E+03 -0.10849477749E+04  0.16583960086E+04  0.12699999809E+01 0. -1.
</event>
<event>
 5   0  0.1005492E-05  0.2636659E+04  0.7818609E-02  0.8355855E-01
        1   -1    0    0  501    0  0.00000000000E+00  0.00000000000E+00  0.13667138040E+04  0.13667138040E+04  0.50400001928E-02 0. -1.
       -1   -1    0    0    0  501  0.00000000000E+00  0.00000000000E+00 -0.12716580861E+04  0.12716580861E+04  0.50400001928E-02 0.  1.
    10030    2    1    2    0    0  0.00000000000E+00  0.00000000000E+00  0.95055717943E+02  0.26383718902E+04  0.26366589922E+04 0.  0.
        4    1    3    3  502    0 -0.11516166525E+04  0.58406214699E+03  0.31348529079E+03  0.13287679053E+04  0.12699999809E+01 0. -1.
       -4    1    3    3    0  502  0.11516166525E+04 -0.58406214699E+03 -0.21842957285E+03  0.13096039848E+04  0.12699999809E+01 0.  1.
</event>
<event>
 5   0  0.2555801E-05  0.2517834E+04  0.7818609E-02  0.8396660E-01
       -2   -1    0    0    0  501  0.00000000000E+00  0.00000000000E+00  0.15665160157E+04  0.15665160157E+04  0.25500000920E-02 0. -1.
        2   -1    0    0  501    0  0.00000000000E+00  0.00000000000E+00 -0.10117173442E+04  0.10117173442E+04  0.25500000920E-02 0.  1.
    10030    2    1    2    0    0  0.00000000000E+00  0.00000000000E+00  0.55479867147E+03  0.25782333599E+04  0.25178335315E+04 0.  0.
        1    1    3    3  502    0  0.23924796233E+03 -0.83739313963E+03  0.12082747589E+04  0.14894276588E+04  0.50400001928E-02 0. -1.
       -1    1    3    3    0  502 -0.23924796233E+03  0.83739313963E+03 -0.65347608746E+03  0.10888057011E+04  0.50400001928E-02 0.  1.
</event>
<event>
 5   0  0.2484618E-05  0.2631384E+04  0.7818609E-02  0.8357618E-01
        2   -1    0    0  501    0  0.00000000000E+00  0.00000000000E+00  0.14288338075E+04  0.14288338075E+04  0.25500000920E-02 0. -1.
       -2   -1    0    0    0  501  0.00000000000E+00  0.00000000000E+00 -0.12115089009E+04  0.12115089009E+04  0.25500000920E-02 0.  1.
    10030    2    1    2    0    0  0.00000000000E+00  0.00000000000E+00  0.21732490664E+03  0.26403427084E+04  0.26313835719E+04 0.  0.
        3    1    3    3  502    0  0.79213970520E+03  0.10267474469E+04  0.33156567504E+03  0.13385183747E+04  0.10100000352E+00 0. -1.
       -3    1    3    3    0  502 -0.79213970520E+03 -0.10267474469E+04 -0.11424076840E+03  0.13018243337E+04  0.10100000352E+00 0.  1.
</event>
<event>
 5   0  0.1034714E-05  0.2437682E+04  0.7818609E-02  0.8425529E-01
        1   -1    0    0  501    0  0.00000000000E+00  0.00000000000E+00  0.25605270928E+04  0.25605270928E+04  0.50400001928E-02 0.  1.
       -1   -1    0    0    0  501  0.00000000000E+00  0.00000000000E+00 -0.58018258825E+03  0.58018258827E+03  0.50400001928E-02 0. -1.
    10030    2    1    2    0    0  0.00000000000E+00  0.00000000000E+00  0.19803445046E+04  0.31407096811E+04  0.24376818792E+04 0.  0.
        5    1    3    3  502    0 -0.11203501860E+04 -0.41068007677E+03  0.13102262038E+04  0.17721618041E+04  0.46999998093E+01 0.  1.
       -5    1    3    3    0  502  0.11203501860E+04  0.41068007677E+03  0.67011830079E+03  0.13685478770E+04  0.46999998093E+01 0. -1.
</event>
<event>
 5   0  0.2662024E-05  0.2061167E+04  0.7818609E-02  0.8578545E-01
       -2   -1    0    0    0  501  0.00000000000E+00  0.00000000000E+00  0.68639548285E+03  0.68639548286E+03  0.25500000920E-02 0.  1.
        2   -1    0    0  501    0  0.00000000000E+00  0.00000000000E+00 -0.15473615975E+04  0.15473615975E+04  0.25500000920E-02 0. -1.
    10030    2    1    2    0    0  0.00000000000E+00  0.00000000000E+00 -0.86096611468E+03  0.22337570804E+04  0.20611666705E+04 0.  0.
        2    1    3    3  502    0  0.95914806499E+03 -0.28071582266E+03 -0.15774429288E+03  0.10117557243E+04  0.25500000920E-02 0.  1.
       -2    1    3    3    0  502 -0.95914806499E+03  0.28071582266E+03 -0.70322182181E+03  0.12220013561E+04  0.25500000920E-02 0. -1.
</event>
<event>
 5   0  0.2517854E-05  0.2668346E+04  0.7818609E-02  0.8345349E-01
       -2   -1    0    0    0  501  0.00000000000E+00  0.00000000000E+00  0.70719377525E+03  0.70719377526E+03  0.25500000920E-02 0. -1.
        2   -1    0    0  501    0  0.00000000000E+00  0.00000000000E+00 -0.25170162734E+04  0.25170162734E+04  0.25500000920E-02 0.  1.
    10030    2    1    2    0    0  0.00000000000E+00  0.00000000000E+00 -0.18098224981E+04  0.32242100487E+04  0.26683464848E+04 0.  0.
        4    1    3    3  502    0 -0.10000710412E+04 -0.20839014599E+03  0.13202528100E+03  0.10300489446E+04  0.12699999809E+01 0. -1.
       -4    1    3    3    0  502  0.10000710412E+04  0.20839014599E+03 -0.19418477791E+04  0.21941611041E+04  0.12699999809E+01 0.  1.
</event>
<event>
 5   0  0.1005492E-05  0.2598532E+04  0.7818609E-02  0.8368700E-01
        1   -1    0    0  501    0  0.00000000000E+00  0.00000000000E+00  0.86023317532E+03  0.86023317534E+03  0.50400001928E-02 0. -1.
       -1   -1    0    0    0  501  0.00000000000E+00  0.00000000000E+00 -0.19623654014E+04  0.19623654014E+04  0.50400001928E-02 0.  1.
    10030    2    1    2    0    0  0.00000000000E+00  0.00000000000E+00 -0.11021322261E+04  0.28225985767E+04  0.25985317550E+04 0.  0.
        4    1    3    3  502    0 -0.73077038556E+03  0.51496329441E+02  0.61449929575E+03  0.95618420073E+03  0.12699999809E+01 0. -1.
       -4    1    3    3    0  502  0.73077038556E+03 -0.51496329441E+02 -0.17166315218E+04  0.18664143760E+04  0.12699999809E+01 0.  1.
</event>
<event>
 5   0  0.2528460E-05  0.2622742E+04  0.7818609E-02  0.8360517E-01
       -2   -1    0    0    0  501  0.00000000000E+00  0.00000000000E+00  0.12134375744E+04  0.12134375744E+04  0.25500000920E-02 0.  1.
        2   -1    0    0  501    0  0.00000000000E+00  0.00000000000E+00 -0.14172085597E+04  0.14172085597E+04  0.25500000920E-02 0. -1.
    10030    2    1    2    0    0  0.00000000000E+00  0.00000000000E+00 -0.20377098533E+03  0.26306461340E+04  0.26227421658E+04 0.  0.
        5    1    3    3  502    0  0.21028453233E+03 -0.84583564099E+03 -0.10846415571E+04  0.13914477761E+04  0.46999998093E+01 0. -1.
       -5    1    3    3    0  502 -0.21028453233E+03  0.84583564099E+03  0.88087057180E+03  0.12391983580E+04  0.46999998093E+01 0.  1.
</event>
<event>
 5   0  0.2484618E-05  0.2654643E+04  0.7818609E-02  0.8349874E-01
        2   -1    0    0  501    0  0.00000000000E+00  0.00000000000E+00  0.25283887133E+04  0.25283887133E+04  0.25500000920E-02 0.  1.
       -2   -1    0    0    0  501  0.00000000000E+00  0.00000000000E+00 -0.69680046197E+03  0.69680046197E+03  0.25500000920E-02 0. -1.
    10030    2    1    2    0    0  0.00000000000E+00  0.00000000000E+00  0.18315882513E+04  0.32251891753E+04  0.26546430445E+04 0.  0.
        3    1    3    3  502    0  0.39488107812E+03  0.12614430321E+04  0.76892985895E+03  0.15291902194E+04  0.10100000352E+00 0.  1.
       -3    1    3    3    0  502 -0.39488107812E+03 -0.12614430321E+04  0.10626583924E+04  0.16959989558E+04  0.10100000352E+00 0. -1.
</event>
<event>
 5   0  0.1005492E-05  0.2628778E+04  0.7818609E-02  0.8358491E-01
        1   -1    0    0  501    0  0.00000000000E+00  0.00000000000E+00  0.14926876541E+04  0.14926876541E+04  0.50400001928E-02 0.  1.
       -1   -1    0    0    0  501  0.00000000000E+00  0.00000000000E+00 -0.11573882119E+04  0.11573882119E+04  0.50400001928E-02 0. -1.
    10030    2    1    2    0    0  0.00000000000E+00  0.00000000000E+00  0.33529944218E+03  0.26500758661E+04  0.26287784958E+04 0.  0.
        4    1    3    3  502    0 -0.37187408451E+02 -0.33292982720E+03 -0.11136281308E+04  0.11629249330E+04  0.12699999809E+01 0. -1.
       -4    1    3    3    0  502  0.37187408451E+02  0.33292982720E+03  0.14489275730E+04  0.14871509331E+04  0.12699999809E+01 0.  1.
</event>
<event>
 5   0  0.1000421E-05  0.2616621E+04  0.7818609E-02  0.8362577E-01
       -1   -1    0    0    0  501  0.00000000000E+00  0.00000000000E+00  0.13395758807E+04  0.13395758807E+04  0.50400001928E-02 0. -1.
        1   -1    0    0  501    0  0.00000000000E+00  0.00000000000E+00 -0.12777744706E+04  0.12777744706E+04  0.50400001928E-02 0.  1.
    10030    2    1    2    0    0  0.00000000000E+00  0.00000000000E+00  0.61801410062E+02  0.26173503513E+04  0.26166206159E+04 0.  0.
        3    1    3    3  502    0  0.28097267145E+03  0.12777384520E+04  0.20189882965E+02  0.13084222695E+04  0.10100000352E+00 0. -1.
       -3    1    3    3    0  502 -0.28097267145E+03 -0.12777384520E+04  0.41611527096E+02  0.13089280818E+04  0.10100000352E+00 0.  1.
</event>
<event>
 5   0  0.2517854E-05  0.2621204E+04  0.7818609E-02  0.8361034E-01
       -2   -1    0    0    0  501  0.00000000000E+00  0.00000000000E+00  0.18152561414E+04  0.18152561414E+04  0.25500000920E-02 0. -1.
        2   -1    0    0  501    0  0.00000000000E+00  0.00000000000E+00 -0.94624505924E+03  0.94624505925E+03  0.25500000920E-02 0.  1.
    10030    2    1    2    0    0  0.00000000000E+00  0.00000000000E+00  0.86901108215E+03  0.27615012006E+04  0.26212036587E+04 0.  0.
        4    1    3    3  502    0  0.32902926102E+03 -0.19567311905E+03  0.17550412845E+04  0.17963072530E+04  0.12699999809E+01 0. -1.
       -4    1    3    3    0  502 -0.32902926102E+03  0.19567311905E+03 -0.88603020235E+03  0.96519394761E+03  0.12699999809E+01 0.  1.
</event>
<event>
 5   0  0.2484618E-05  0.2556052E+04  0.7818609E-02  0.8383285E-01
        2   -1    0    0  501    0  0.00000000000E+00  0.00000000000E+00  0.17068513551E+04  0.17068513551E+04  0.25500000920E-02 0. -1.
       -2   -1    0    0    0  501  0.00000000000E+00  0.00000000000E+00 -0.95693753685E+03  0.95693753685E+03  0.25500000920E-02 0.  1.
    10030    2    1    2    0    0  0.00000000000E+00  0.00000000000E+00  0.74991381823E+03  0.26637888919E+04  0.25560517456E+04 0.  0.
        3    1    3    3  502    0  0.16625684748E+02 -0.79303695819E+03 -0.66936150997E+03  0.10378963685E+04  0.10100000352E+00 0.  1.
       -3    1    3    3    0  502 -0.16625684748E+02  0.79303695819E+03  0.14192753282E+04  0.16258925235E+04  0.10100000352E+00 0. -1.
</event>
<event>
 5   0  0.2662024E-05  0.2594242E+04  0.7818609E-02  0.8370160E-01
        2   -1    0    0  501    0  0.00000000000E+00  0.00000000000E+00  0.16980724729E+04  0.16980724729E+04  0.25500000920E-02 0.  1.
       -2   -1    0    0    0  501  0.00000000000E+00  0.00000000000E+00 -0.99084248560E+03  0.99084248560E+03  0.25500000920E-02 0. -1.
    10030    2    1    2    0    0  0.00000000000E+00  0.00000000000E+00  0.70722998730E+03  0.26889149585E+04  0.25942415846E+04 0.  0.
        2    1    3    3  502    0 -0.69140909289E+03 -0.67555412347E+03 -0.54287859253E+03  0.11086645452E+04  0.25500000920E-02 0. -1.
       -2    1    3    3    0  502  0.69140909289E+03  0.67555412347E+03  0.12501085798E+04  0.15802504133E+04  0.25500000920E-02 0.  1.
</event>
<event>
 5   0  0.2662024E-05  0.2616706E+04  0.7818609E-02  0.8362549E-01
        2   -1    0    0  501    0  0.00000000000E+00  0.00000000000E+00  0.24679214409E+04  0.24679214409E+04  0.25500000920E-02 0.  1.
       -2   -1    0    0    0  501  0.00000000000E+00  0.00000000000E+00 -0.69361507159E+03  0.69361507159E+03  0.25500000920E-02 0. -1.
    10030    2    1    2    0    0  0.00000000000E+00  0.00000000000E+00  0.17743063693E+04  0.31615365125E+04  0.26167059498E+04 0.  0.
        2    1    3    3  502    0  0.11711375900E+04 -0.21054072419E+03  0.15443772463E+04  0.19496132258E+04  0.25500000920E-02 0.  1.
       -2    1    3    3    0  502 -0.11711375900E+04  0.21054072419E+03  0.22992912308E+03  0.12119232868E+04  0.25500000920E-02 0. -1.
</event>
<event>
 5   0  0.2517854E-05  0.2613066E+04  0.7818609E-02  0.8363776E-01
        2   -1    0    0  501    0  0.00000000000E+00  0.00000000000E+00  0.16985328568E+04  0.16985328568E+04  0.25500000920E-02 0. -1.
       -2   -1    0    0    0  501  0.00000000000E+00  0.00000000000E+00 -0.10050020492E+04  0.10050020492E+04  0.25500000920E-02 0.  1.
    10030    2    1    2    0    0  0.00000000000E+00  0.00000000000E+00  0.69353080766E+03  0.27035349060E+04  0.26130663992E+04 0.  0.
        4    1    3    3  502    0  0.57031593576E+03  0.82864586976E+03 -0.51583426350E+03  0.11304869943E+04  0.12699999809E+01 0.  1.
       -4    1    3    3    0  502 -0.57031593576E+03 -0.82864586976E+03  0.12093650712E+04  0.15730479116E+04  0.12699999809E+01 0. -1.
</event>
<event>
 5   0  0.2528460E-05  0.2555815E+04  0.7818609E-02  0.8383367E-01
       -2   -1    0    0    0  501  0.00000000000E+00  0.00000000000E+00  0.15035482244E+04  0.15035482244E+04  0.25500000920E-02 0. -1.
        2   -1    0    0  501    0  0.00000000000E+00  0.00000000000E+00 -0.10861292578E+04  0.10861292578E+04  0.25500000920E-02 0.  1.
    10030    2    1    2    0    0  0.00000000000E+00  0.00000000000E+00  0.41741896658E+03  0.25896774821E+04  0.25558151083E+04 0.  0.
        5    1    3    3  502    0  0.57281426567E+03 -0.23505378278E+03  0.13414020134E+04  0.14774125746E+04  0.46999998093E+01 0. -1.
       -5    1    3    3    0  502 -0.57281426567E+03  0.23505378278E+03 -0.92398304687E+03  0.11122649076E+04  0.46999998093E+01 0.  1.
</event>
<event>
 5   0  0.2528460E-05  0.2566508E+04  0.7818609E-02  0.8379668E-01
        2   -1    0    0  501    0  0.00000000000E+00  0.00000000000E+00  0.16267704807E+04  0.16267704807E+04  0.25500000920E-02 0. -1.
       -2   -1    0    0    0  501  0.00000000000E+00  0.00000000000E+00 -0.10122757496E+04  0.10122757496E+04  0.25500000920E-02 0.  1.
    10030    2    1    2    0    0  0.00000000000E+00  0.00000000000E+00  0.61449473112E+03  0.26390462303E+04  0.25665075942E+04 0.  0.
        5    1    3    3  502    0 -0.21613469282E+03  0.33114461583E+03 -0.94805451845E+03  0.10272294885E+04  0.46999998093E+01 0.  1.
       -5    1    3    3    0  502  0.21613469282E+03 -0.33114461583E+03  0.15625492496E+04  0.16118167419E+04  0.46999998093E+01 0. -1.
</event>
<event>
 5   0  0.2484618E-05  0.2634352E+04  0.7818609E-02  0.8356626E-01
        2   -1    0    0  501    0  0.00000000000E+00  0.00000000000E+00  0.17814139410E+04  0.17814139410E+04  0.25500000920E-02 0.  1.
       -2   -1    0    0    0  501  0.00000000000E+00  0.00000000000E+00 -0.97391854585E+03  0.97391854586E+03  0.25500000920E-02 0. -1.
    10030    2    1    2    0    0  0.00000000000E+00  0.00000000000E+00  0.80749539515E+03  0.27553324869E+04  0.26343515900E+04 0.  0.
        3    1    3    3  502    0 -0.25854502312E+02 -0.12234175983E+04  0.91350357657E+03  0.15270585679E+04  0.10100000352E+00 0.  1.
       -3    1    3    3    0  502  0.25854502312E+02  0.12234175983E+04 -0.10600818142E+03  0.12282739189E+04  0.10100000352E+00 0. -1.
</event>
<event>
 5   0  0.1025153E-05  0.2650848E+04  0.7818609E-02  0.8351131E-01
       -1   -1    0    0    0  501  0.00000000000E+00  0.00000000000E+00  0.10384601718E+04  0.10384601718E+04  0.50400001928E-02 0.  1.
        1   -1    0    0  501    0  0.00000000000E+00  0.00000000000E+00 -0.16916865941E+04  0.16916865941E+04  0.50400001928E-02 0. -1.
    10030    2    1    2    0    0  0.00000000000E+00  0.00000000000E+00 -0.65322642236E+03  0.27301467659E+04  0.26508482802E+04 0.  0.
        1    1    3    3  502    0 -0.33443432310E+03  0.10138873167E+04  0.48233542666E+03  0.11715209223E+04  0.50400001928E-02 0.  1.
       -1    1    3    3    0  502  0.33443432310E+03 -0.10138873167E+04 -0.11355618490E+04  0.15586258436E+04  0.50400001928E-02 0. -1.
</event>
<event>
 5   0  0.1025153E-05  0.2607782E+04  0.7818609E-02  0.8365563E-01
        1   -1    0    0  501    0  0.00000000000E+00  0.00000000000E+00  0.11631759144E+04  0.11631759144E+04  0.50400001928E-02 0.  1.
       -1   -1    0    0    0  501  0.00000000000E+00  0.00000000000E+00 -0.14616294102E+04  0.14616294102E+04  0.50400001928E-02 0. -1.
    10030    2    1    2    0    0  0.00000000000E+00  0.00000000000E+00 -0.29845349588E+03  0.26248053246E+04  0.26077822959E+04 0.  0.
        1    1    3    3  502    0 -0.88073365481E+03  0.57507323402E+02 -0.11152487064E+04  0.14222441915E+04  0.50400001928E-02 0. -1.
       -1    1    3    3    0  502  0.88073365481E+03 -0.57507323402E+02  0.81679521053E+03  0.12025611331E+04  0.50400001928E-02 0.  1.
</event>
<event>
 5   0  0.2662024E-05  0.2627090E+04  0.7818609E-02  0.8359057E-01
       -2   -1    0    0    0  501  0.00000000000E+00  0.00000000000E+00  0.16158642720E+04  0.16158642720E+04  0.25500000920E-02 0.  1.
        2   -1    0    0  501    0  0.00000000000E+00  0.00000000000E+00 -0.10677875972E+04  0.10677875972E+04  0.25500000920E-02 0. -1.
    10030    2    1    2    0    0  0.00000000000E+00  0.00000000000E+00  0.54807667473E+03  0.26836518692E+04  0.26270895138E+04 0.  0.
        2    1    3    3  502    0  0.63805578930E+02 -0.64685166021E+03  0.14400658095E+04  0.15799613153E+04  0.25500000920E-02 0.  1.
       -2    1    3    3    0  502 -0.63805578930E+02  0.64685166021E+03 -0.89198913476E+03  0.11036905539E+04  0.25500000920E-02 0. -1.
</event>
<event>
 5   0  0.2517854E-05  0.2661239E+04  0.7818609E-02  0.8347692E-01
       -2   -1    0    0    0  501  0.00000000000E+00  0.00000000000E+00  0.10740435179E+04  0.10740435179E+04  0.25500000920E-02 0.  1.
        2   -1    0    0  501    0  0.00000000000E+00  0.00000000000E+00 -0.16484877817E+04  0.16484877817E+04  0.25500000920E-02 0. -1.
    10030    2    1    2    0    0  0.00000000000E+00  0.00000000000E+00 -0.57444426381E+03  0.27225312997E+04  0.26612385210E+04 0.  0.
        4    1    3    3  502    0 -0.54330421928E+03  0.21967479989E+03 -0.15093530478E+04  0.16191308558E+04  0.12699999809E+01 0. -1.
       -4    1    3    3    0  502  0.54330421928E+03 -0.21967479989E+03  0.93490878396E+03  0.11034004439E+04  0.12699999809E+01 0.  1.
</event>
<event>
 5   0  0.1034714E-05  0.2623636E+04  0.7818609E-02  0.8360217E-01
        1   -1    0    0  501    0  0.00000000000E+00  0.00000000000E+00  0.11298289303E+04  0.11298289303E+04  0.50400001928E-02 0.  1.
       -1   -1    0    0    0  501  0.00000000000E+00  0.00000000000E+00 -0.15231213903E+04  0.15231213903E+04  0.50400001928E-02 0. -1.
    10030    2    1    2    0    0  0.00000000000E+00  0.00000000000E+00 -0.39329245997E+03  0.26529503206E+04  0.26236361113E+04 0.  0.
        5    1    3    3  502    0  0.59234190955E+03 -0.35784237957E+03 -0.13235143694E+04  0.14935302081E+04  0.46999998093E+01 0. -1.
       -5    1    3    3    0  502 -0.59234190955E+03  0.35784237957E+03  0.93022190944E+03  0.11594201125E+04  0.46999998093E+01 0.  1.
</event>
<event>
 5   0  0.2555801E-05  0.2559687E+04  0.7818609E-02  0.8382025E-01
       -2   -1    0    0    0  501  0.00000000000E+00  0.00000000000E+00  0.12086435418E+04  0.12086435418E+04  0.25500000920E-02 0. -1.
        2   -1    0    0  501    0  0.00000000000E+00  0.00000000000E+00 -0.13552380108E+04  0.13552380108E+04  0.25500000920E-02 0.  1.
    10030    2    1    2    0    0  0.00000000000E+00  0.00000000000E+00 -0.14659446898E+03  0.25638815527E+04  0.25596872226E+04 0.  0.
        1    1    3    3  502    0 -0.74762924138E+03 -0.17631135646E+03  0.95208158195E+03  0.12233129263E+04  0.50400001928E-02 0. -1.
       -1    1    3    3    0  502  0.74762924138E+03  0.17631135646E+03 -0.10986760509E+04  0.13405686263E+04  0.50400001928E-02 0.  1.
</event>
<event>
 5   0  0.1034714E-05  0.2659262E+04  0.7818609E-02  0.8348345E-01
       -1   -1    0    0    0  501  0.00000000000E+00  0.00000000000E+00  0.10864794244E+04  0.10864794244E+04  0.50400001928E-02 0.  1.
        1   -1    0    0  501    0  0.00000000000E+00  0.00000000000E+00 -0.16271995479E+04  0.16271995479E+04  0.50400001928E-02 0. -1.
    10030    2    1    2    0    0  0.00000000000E+00  0.00000000000E+00 -0.54072012357E+03  0.27136789723E+04  0.26592621745E+04 0.  0.
        5    1    3    3  502    0 -0.24591227668E+03 -0.86247651887E+03  0.73133671568E+03  0.11572441726E+04  0.46999998093E+01 0.  1.
       -5    1    3    3    0  502  0.24591227668E+03  0.86247651887E+03 -0.12720568392E+04  0.15564347997E+04  0.46999998093E+01 0. -1.
</event>
<event>
 5   0  0.1005492E-05  0.2480147E+04  0.7818609E-02  0.8410093E-01
       -1   -1    0    0    0  501  0.00000000000E+00  0.00000000000E+00  0.14635408745E+04  0.14635408746E+04  0.50400001928E-02 0. -1.
        1   -1    0    0  501    0  0.00000000000E+00  0.00000000000E+00 -0.10507272378E+04  0.10507272379E+04  0.50400001928E-02 0.  1.
    10030    2    1    2    0    0  0.00000000000E+00  0.00000000000E+00  0.41281363671E+03  0.25142681124E+04  0.24801469800E+04 0.  0.
        4    1    3    3  502    0  0.50800692781E+03 -0.11143659046E+04  0.90538386869E+01  0.12247309880E+04  0.12699999809E+01 0. -1.
       -4    1    3    3    0  502 -0.50800692781E+03  0.11143659046E+04  0.40375979802E+03  0.12895371245E+04  0.12699999809E+01 0.  1.
</event>
<event>
 5   0  0.1025153E-05  0.2529788E+04  0.7818609E-02  0.8392449E-01
       -1   -1    0    0    0  501  0.00000000000E+00  0.00000000000E+00  0.10558667291E+04  0.10558667291E+04  0.50400001928E-02 0.  1.
        1   -1    0    0  501    0  0.00000000000E+00  0.00000000000E+00 -0.15153023989E+04  0.15153023989E+04  0.50400001928E-02 0. -1.
    10030    2    1    2    0    0  0.00000000000E+00  0.00000000000E+00 -0.45943566978E+03  0.25711691280E+04  0.25297884398E+04 0.  0.
        1    1    3    3  502    0  0.40421642248E+03  0.78173791153E+03  0.69368761742E+03  0.11205835931E+04  0.50400001928E-02 0.  1.
       -1    1    3    3    0  502 -0.40421642248E+03 -0.78173791153E+03 -0.11531232872E+04  0.14505855349E+04  0.50400001928E-02 0. -1.
</event>
<event>
 5   0  0.1025153E-05  0.2789506E+04  0.7818609E-02  0.8306534E-01
       -1   -1    0    0    0  501  0.00000000000E+00  0.00000000000E+00  0.10603646757E+04  0.10603646757E+04  0.50400001928E-02 0.  1.
        1   -1    0    0  501    0  0.00000000000E+00  0.00000000000E+00 -0.18345916319E+04  0.18345916319E+04  0.50400001928E-02 0. -1.
    10030    2    1    2    0    0  0.00000000000E+00  0.00000000000E+00 -0.77422695620E+03  0.28949563076E+04  0.27895061648E+04 0.  0.
        1    1    3    3  502    0  0.11654231481E+04 -0.76603701482E+03 -0.36877228875E+03  0.14425729871E+04  0.50400001928E-02 0. -1.
       -1    1    3    3    0  502 -0.11654231481E+04  0.76603701482E+03 -0.40545466745E+03  0.14523833205E+04  0.50400001928E-02 0.  1.
</event>
<event>
 5   0  0.1025153E-05  0.2544915E+04  0.7818609E-02  0.8387157E-01
        1   -1    0    0  501    0  0.00000000000E+00  0.00000000000E+00  0.10162004105E+04  0.10162004105E+04  0.50400001928E-02 0. -1.
       -1   -1    0    0    0  501  0.00000000000E+00  0.00000000000E+00 -0.15933352838E+04  0.15933352838E+04  0.50400001928E-02 0.  1.
    10030    2    1    2    0    0  0.00000000000E+00  0.00000000000E+00 -0.57713487329E+03  0.26095356943E+04  0.25449149058E+04 0.  0.
        1    1    3    3  502    0 -0.85688825652E+03 -0.73486125098E+03  0.31360007978E+03  0.11715901811E+04  0.50400001928E-02 0. -1.
       -1    1    3    3    0  502  0.85688825652E+03  0.73486125098E+03 -0.89073495307E+03  0.14379455132E+04  0.50400001928E-02 0.  1.
</event>
<event>
 5   0  0.9855352E-06  0.2611661E+04  0.7818609E-02  0.8364251E-01
        1   -1    0    0  501    0  0.00000000000E+00  0.00000000000E+00  0.12064344750E+04  0.12064344750E+04  0.50400001928E-02 0. -1.
       -1   -1    0    0    0  501  0.00000000000E+00  0.00000000000E+00 -0.14134157423E+04  0.14134157423E+04  0.50400001928E-02 0.  1.
    10030    2    1    2    0    0  0.00000000000E+00  0.00000000000E+00 -0.20698126730E+03  0.26198502172E+04  0.26116611411E+04 0.  0.
        2    1    3    3  502    0 -0.39546171403E+01 -0.12016433174E+04 -0.61620104832E+03  0.13504317951E+04  0.25500000920E-02 0.  1.
       -2    1    3    3    0  502  0.39546171403E+01  0.12016433174E+04  0.40921978102E+03  0.12694184221E+04  0.25500000920E-02 0. -1.
</event>
<event>
 5   0  0.1034714E-05  0.2625064E+04  0.7818609E-02  0.8359737E-01
        1   -1    0    0  501    0  0.00000000000E+00  0.00000000000E+00  0.17199016427E+04  0.17199016427E+04  0.50400001928E-02 0. -1.
       -1   -1    0    0    0  501  0.00000000000E+00  0.00000000000E+00 -0.10016505214E+04  0.10016505214E+04  0.50400001928E-02 0.  1.
    10030    2    1    2    0    0  0.00000000000E+00  0.00000000000E+00  0.71825112135E+03  0.27215521642E+04  0.26250640961E+04 0.  0.
        5    1    3    3  502    0  0.20351456713E+03  0.11626534390E+03 -0.97976923740E+03  0.10074252616E+04  0.46999998093E+01 0.  1.
       -5    1    3    3    0  502 -0.20351456713E+03 -0.11626534390E+03  0.16980203587E+04  0.17141269025E+04  0.46999998093E+01 0. -1.
</event>
<event>
 5   0  0.2484618E-05  0.2614321E+04  0.7818609E-02  0.8363353E-01
        2   -1    0    0  501    0  0.00000000000E+00  0.00000000000E+00  0.12779513589E+04  0.12779513589E+04  0.25500000920E-02 0.  1.
       -2   -1    0    0    0  501  0.00000000000E+00  0.00000000000E+00 -0.13370371385E+04  0.13370371385E+04  0.25500000920E-02 0. -1.
    10030    2    1    2    0    0  0.00000000000E+00  0.00000000000E+00 -0.59085779628E+02  0.26149884973E+04  0.26143208892E+04 0.  0.
        3    1    3    3  502    0  0.76270031583E+03 -0.10381307052E+04  0.19241755071E+03  0.13024790428E+04  0.10100000352E+00 0.  1.
       -3    1    3    3    0  502 -0.76270031583E+03  0.10381307052E+04 -0.25150333034E+03  0.13125094545E+04  0.10100000352E+00 0. -1.
</event>
<event>
 5   0  0.1000421E-05  0.2595279E+04  0.7818609E-02  0.8369807E-01
       -1   -1    0    0    0  501  0.00000000000E+00  0.00000000000E+00  0.13162725197E+04  0.13162725197E+04  0.50400001928E-02 0. -1.
        1   -1    0    0  501    0  0.00000000000E+00  0.00000000000E+00 -0.12792700048E+04  0.12792700048E+04  0.50400001928E-02 0.  1.
    10030    2    1    2    0    0  0.00000000000E+00  0.00000000000E+00  0.37002514937E+02  0.25955425245E+04  0.25952787539E+04 0.  0.
        3    1    3    3  502    0  0.31489799478E+02  0.92757409881E+03 -0.88849919474E+03  0.12848409028E+04  0.10100000352E+00 0.  1.
       -3    1    3    3    0  502 -0.31489799478E+02 -0.92757409881E+03  0.92550170968E+03  0.13107016217E+04  0.10100000352E+00 0. -1.
</event>
<event>
 5   0  0.9855352E-06  0.2583528E+04  0.7818609E-02  0.8373818E-01
       -1   -1    0    0    0  501  0.00000000000E+00  0.00000000000E+00  0.65925484096E+03  0.65925484098E+03  0.50400001928E-02 0. -1.
        1   -1    0    0  501    0  0.00000000000E+00  0.00000000000E+00 -0.25311217243E+04  0.25311217243E+04  0.50400001928E-02 0.  1.
    10030    2    1    2    0    0  0.00000000000E+00  0.00000000000E+00 -0.18718668834E+04  0.31903765653E+04  0.25835280141E+04 0.  0.
        2    1    3    3  502    0  0.68031591691E+03  0.76858578053E+03  0.32571356248E+02  0.10269443715E+04  0.25500000920E-02 0. -1.
       -2    1    3    3    0  502 -0.68031591691E+03 -0.76858578053E+03 -0.19044382396E+04  0.21634321938E+04  0.25500000920E-02 0.  1.
</event>
<event>
 5   0  0.2528460E-05  0.2579183E+04  0.7818609E-02  0.8375307E-01
       -2   -1    0    0    0  501  0.00000000000E+00  0.00000000000E+00  0.17306558002E+04  0.17306558002E+04  0.25500000920E-02 0. -1.
        2   -1    0    0  501    0  0.00000000000E+00  0.00000000000E+00 -0.96093430506E+03  0.96093430506E+03  0.25500000920E-02 0.  1.
    10030    2    1    2    0    0  0.00000000000E+00  0.00000000000E+00  0.76972149516E+03  0.26915901053E+04  0.25791832263E+04 0.  0.
        5    1    3    3  502    0 -0.32321967513E+03 -0.29269868088E+03  0.16513763718E+04  0.17079840420E+04  0.46999998093E+01 0. -1.
       -5    1    3    3    0  502  0.32321967513E+03  0.29269868088E+03 -0.88165487668E+03  0.98360606330E+03  0.46999998093E+01 0.  1.
</event>
<event>
 5   0  0.2484618E-05  0.2598080E+04  0.7818609E-02  0.8368854E-01
       -2   -1    0    0    0  501  0.00000000000E+00  0.00000000000E+00  0.78144406286E+03  0.78144406286E+03  0.25500000920E-02 0. -1.
        2   -1    0    0  501    0  0.00000000000E+00  0.00000000000E+00 -0.21594707086E+04  0.21594707086E+04  0.25500000920E-02 0.  1.
    10030    2    1    2    0    0  0.00000000000E+00  0.00000000000E+00 -0.13780266457E+04  0.29409147715E+04  0.25980804946E+04 0.  0.
        3    1    3    3  502    0 -0.78101649441E+02  0.25474506971E+02 -0.21565273682E+04  0.21580915454E+04  0.10100000352E+00 0.  1.
       -3    1    3    3    0  502  0.78101649441E+02 -0.25474506971E+02  0.77850072249E+03  0.78282322607E+03  0.10100000352E+00 0. -1.
</event>
<event>
 5   0  0.1025153E-05  0.2605217E+04  0.7818609E-02  0.8366431E-01
        1   -1    0    0  501    0  0.00000000000E+00  0.00000000000E+00  0.19209747008E+04  0.19209747008E+04  0.50400001928E-02 0.  1.
       -1   -1    0    0    0  501  0.00000000000E+00  0.00000000000E+00 -0.88329566095E+03  0.88329566096E+03  0.50400001928E-02 0. -1.
    10030    2    1    2    0    0  0.00000000000E+00  0.00000000000E+00  0.10376790399E+04  0.28042703618E+04  0.26052167803E+04 0.  0.
        1    1    3    3  502    0  0.12640545771E+04  0.26138375702E+03  0.70723567078E+03  0.14718484081E+04  0.50400001928E-02 0.  1.
       -1    1    3    3    0  502 -0.12640545771E+04 -0.26138375702E+03  0.33044336908E+03  0.13324219537E+04  0.50400001928E-02 0. -1.
</event>
<event>
 5   0  0.2517854E-05  0.2591683E+04  0.7818609E-02  0.8371032E-01
       -2   -1    0    0    0  501  0.00000000000E+00  0.00000000000E+00  0.94341250061E+03  0.94341250061E+03  0.25500000920E-02 0. -1.
        2   -1    0    0  501    0  0.00000000000E+00  0.00000000000E+00 -0.17799264321E+04  0.17799264321E+04  0.25500000920E-02 0.  1.
    10030    2    1    2    0    0  0.00000000000E+00  0.00000000000E+00 -0.83651393151E+03  0.27233389327E+04  0.25916827323E+04 0.  0.
        4    1    3    3  502    0 -0.71728167161E+03 -0.56250723540E+03  0.54956066642E+03  0.10643899310E+04  0.12699999809E+01 0. -1.
       -4    1    3    3    0  502  0.71728167161E+03  0.56250723540E+03 -0.13860745979E+04  0.16589490017E+04  0.12699999809E+01 0.  1.
</event>
<event>
 5   0  0.2555801E-05  0.2571792E+04  0.7818609E-02  0.8377846E-01
        2   -1    0    0  501    0  0.00000000000E+00  0.00000000000E+00  0.10732983159E+04  0.10732983159E+04  0.25500000920E-02 0. -1.
       -2   -1    0    0    0  501  0.00000000000E+00  0.00000000000E+00 -0.15406048490E+04  0.15406048490E+04  0.25500000920E-02 0.  1.
    10030    2    1    2    0    0  0.00000000000E+00  0.00000000000E+00 -0.46730653312E+03  0.26139031649E+04  0.25717920521E+04 0.  0.
        1    1    3    3  502    0  0.11894892184E+04  0.44246847927E+03 -0.23222968622E+02  0.12693314233E+04  0.50400001928E-02 0.  1.
       -1    1    3    3    0  502 -0.11894892184E+04 -0.44246847927E+03 -0.44408356450E+03  0.13445717416E+04  0.50400001928E-02 0. -1.
</event>
<event>
 5   0  0.2484618E-05  0.2641316E+04  0.7818609E-02  0.8354301E-01
        2   -1    0    0  501    0  0.00000000000E+00  0.00000000000E+00  0.17384135978E+04  0.17384135978E+04  0.25500000920E-02 0. -1.
       -2   -1    0    0    0  501  0.00000000000E+00  0.00000000000E+00 -0.10032928344E+04  0.10032928344E+04  0.25500000920E-02 0.  1.
    10030    2    1    2    0    0  0.00000000000E+00  0.00000000000E+00  0.73512076341E+03  0.27417064322E+04  0.26413162672E+04 0.  0.
        3    1    3    3  502    0 -0.94636576544E+03 -0.90445926370E+03  0.54879060997E+03  0.14194456191E+04  0.10100000352E+00 0. -1.
       -3    1    3    3    0  502  0.94636576544E+03  0.90445926370E+03  0.18633015344E+03  0.13222608131E+04  0.10100000352E+00 0.  1.
</event>
<event>
 5   0  0.1034714E-05  0.2542479E+04  0.7818609E-02  0.8388007E-01
        1   -1    0    0  501    0  0.00000000000E+00  0.00000000000E+00  0.13570355907E+04  0.13570355907E+04  0.50400001928E-02 0.  1.
       -1   -1    0    0    0  501  0.00000000000E+00  0.00000000000E+00 -0.11908678621E+04  0.11908678621E+04  0.50400001928E-02 0. -1.
    10030    2    1    2    0    0  0.00000000000E+00  0.00000000000E+00  0.16616772861E+03  0.25479034527E+04  0.25424791622E+04 0.  0.
        5    1    3    3  502    0 -0.14357605931E+02 -0.80815565116E+03 -0.90018541095E+03  0.12098254260E+04  0.46999998093E+01 0. -1.
       -5    1    3    3    0  502  0.14357605931E+02  0.80815565116E+03  0.10663531396E+04  0.13380780267E+04  0.46999998093E+01 0.  1.
</event>
<event>
 5   0  0.9855352E-06  0.2584323E+04  0.7818609E-02  0.8373546E-01
        1   -1    0    0  501    0  0.00000000000E+00  0.00000000000E+00  0.21759577987E+04  0.21759577987E+04  0.50400001928E-02 0.  1.
       -1   -1    0    0    0  501  0.00000000000E+00  0.00000000000E+00 -0.76733147072E+03  0.76733147074E+03  0.50400001928E-02 0. -1.
    10030    2    1    2    0    0  0.00000000000E+00  0.00000000000E+00  0.14086263279E+04  0.29432892694E+04  0.25843226563E+04 0.  0.
        2    1    3    3  502    0  0.73823089911E+03  0.64579380827E+03  0.16623768105E+04  0.19301635069E+04  0.25500000920E-02 0.  1.
       -2    1    3    3    0  502 -0.73823089911E+03 -0.64579380827E+03 -0.25375048260E+03  0.10131257625E+04  0.25500000920E-02 0. -1.
</event>
<event>
 5   0  0.1025153E-05  0.2601092E+04  0.7818609E-02  0.8367831E-01
       -1   -1    0    0    0  501  0.00000000000E+00  0.00000000000E+00  0.12486935487E+04  0.12486935487E+04  0.50400001928E-02 0. -1.
        1   -1    0    0  501    0  0.00000000000E+00  0.00000000000E+00 -0.13545511293E+04  0.13545511293E+04  0.50400001928E-02 0.  1.
    10030    2    1    2    0    0  0.00000000000E+00  0.00000000000E+00 -0.10585758059E+03  0.26032446779E+04  0.26010915066E+04 0.  0.
        1    1    3    3  502    0  0.80846861698E+02  0.12158616316E+04 -0.50779762891E+03  0.13201189925E+04  0.50400001928E-02 0.  1.
       -1    1    3    3    0  502 -0.80846861698E+02 -0.12158616316E+04  0.40194004832E+03  0.12831256855E+04  0.50400001928E-02 0. -1.
</event>
<event>
 5   0  0.2662024E-05  0.2606103E+04  0.7818609E-02  0.8366131E-01
       -2   -1    0    0    0  501  0.00000000000E+00  0.00000000000E+00  0.91153307593E+03  0.91153307593E+03  0.25500000920E-02 0.  1.
        2   -1    0    0  501    0  0.00000000000E+00  0.00000000000E+00 -0.18627334771E+04  0.18627334771E+04  0.25500000920E-02 0. -1.
    10030    2    1    2    0    0  0.00000000000E+00  0.00000000000E+00 -0.95120040115E+03  0.27742665530E+04  0.26061029726E+04 0.  0.
        2    1    3    3  502    0 -0.61604910602E+03  0.11473769630E+04 -0.42855847431E+03  0.13710042896E+04  0.25500000920E-02 0.  1.
       -2    1    3    3    0  502  0.61604910602E+03 -0.11473769630E+04 -0.52264192684E+03  0.14032622634E+04  0.25500000920E-02 0. -1.
</event>
<event>
 5   0  0.2517854E-05  0.2554359E+04  0.7818609E-02  0.8383872E-01
       -2   -1    0    0    0  501  0.00000000000E+00  0.00000000000E+00  0.14917331491E+04  0.14917331491E+04  0.25500000920E-02 0.  1.
        2   -1    0    0  501    0  0.00000000000E+00  0.00000000000E+00 -0.10934849277E+04  0.10934849277E+04  0.25500000920E-02 0. -1.
    10030    2    1    2    0    0  0.00000000000E+00  0.00000000000E+00  0.39824822139E+03  0.25852180768E+04  0.25543591875E+04 0.  0.
        4    1    3    3  502    0  0.34404600900E+03  0.30060118983E+03  0.14062007563E+04  0.14785570370E+04  0.12699999809E+01 0.  1.
       -4    1    3    3    0  502 -0.34404600900E+03 -0.30060118983E+03 -0.10079525349E+04  0.11066610399E+04  0.12699999809E+01 0. -1.
</event>
<event>
 5   0  0.9855352E-06  0.2622390E+04  0.7818609E-02  0.8360636E-01
        1   -1    0    0  501    0  0.00000000000E+00  0.00000000000E+00  0.19516614481E+04  0.19516614481E+04  0.50400001928E-02 0. -1.
       -1   -1    0    0    0  501  0.00000000000E+00  0.00000000000E+00 -0.88090677054E+03  0.88090677056E+03  0.50400001928E-02 0.  1.
    10030    2    1    2    0    0  0.00000000000E+00  0.00000000000E+00  0.10707546775E+04  0.28325682186E+04  0.26223895847E+04 0.  0.
        2    1    3    3  502    0 -0.70356998596E+03  0.47581211934E+03 -0.54359451199E+03  0.10084160310E+04  0.25500000920E-02 0.  1.
       -2    1    3    3    0  502  0.70356998596E+03 -0.47581211934E+03  0.16143491895E+04  0.18241521877E+04  0.25500000920E-02 0. -1.
</event>
<event>
 5   0  0.1034714E-05  0.2608026E+04  0.7818609E-02  0.8365480E-01
        1   -1    0    0  501    0  0.00000000000E+00  0.00000000000E+00  0.22865488293E+04  0.22865488293E+04  0.50400001928E-02 0.  1.
       -1   -1    0    0    0  501  0.00000000000E+00  0.00000000000E+00 -0.74367543919E+03  0.74367543921E+03  0.50400001928E-02 0. -1.
    10030    2    1    2    0    0  0.00000000000E+00  0.00000000000E+00  0.15428733902E+04  0.30302242686E+04  0.26080262306E+04 0.  0.
        5    1    3    3  502    0  0.10685355253E+03  0.12890234607E+04  0.57900907163E+03  0.14171354060E+04  0.46999998093E+01 0. -1.
       -5    1    3    3    0  502 -0.10685355253E+03 -0.12890234607E+04  0.96386431853E+03  0.16130888625E+04  0.46999998093E+01 0.  1.
</event>
<event>
 5   0  0.9855352E-06  0.2621214E+04  0.7818609E-02  0.8361031E-01
        1   -1    0    0  501    0  0.00000000000E+00  0.00000000000E+00  0.17461018595E+04  0.17461018595E+04  0.50400001928E-02 0.  1.
       -1   -1    0    0    0  501  0.00000000000E+00  0.00000000000E+00 -0.98372882067E+03  0.98372882068E+03  0.50400001928E-02 0. -1.
    10030    2    1    2    0    0  0.00000000000E+00  0.00000000000E+00  0.76237303884E+03  0.27298306802E+04  0.26212140111E+04 0.  0.
        2    1    3    3  502    0 -0.36694344315E+03  0.99438993971E+03 -0.42162057861E+03  0.11407115126E+04  0.25500000920E-02 0. -1.
       -2    1    3    3    0  502  0.36694344315E+03 -0.99438993971E+03  0.11839936175E+04  0.15891191676E+04  0.25500000920E-02 0.  1.
</event>
<event>
 5   0  0.8605000E-06  0.2624640E+04  0.7818609E-02  0.8359879E-01
       -3   -1    0    0    0  501  0.00000000000E+00  0.00000000000E+00  0.12421605607E+04  0.12421605648E+04  0.10100000352E+00 0.  1.
        3   -1    0    0  501    0  0.00000000000E+00  0.00000000000E+00 -0.13864424489E+04  0.13864424526E+04  0.10100000352E+00 0. -1.
    10030    2    1    2    0    0  0.00000000000E+00  0.00000000000E+00 -0.14428188820E+03  0.26286030174E+04  0.26246402725E+04 0.  0.
        5    1    3    3  502    0 -0.90118299672E+03  0.81900461293E+03 -0.56202433330E+03  0.13411908107E+04  0.46999998093E+01 0. -1.
       -5    1    3    3    0  502  0.90118299672E+03 -0.81900461293E+03  0.41774244509E+03  0.12874122067E+04  0.46999998093E+01 0.  1.
</event>
<event>
 5   0  0.2662024E-05  0.2590263E+04  0.7818609E-02  0.8371516E-01
       -2   -1    0    0    0  501  0.00000000000E+00  0.00000000000E+00  0.12522822320E+04  0.12522822320E+04  0.25500000920E-02 0. -1.
        2   -1    0    0  501    0  0.00000000000E+00  0.00000000000E+00 -0.13394466209E+04  0.13394466209E+04  0.25500000920E-02 0.  1.
    10030    2    1    2    0    0  0.00000000000E+00  0.00000000000E+00 -0.87164388858E+02  0.25917288529E+04  0.25902626926E+04 0.  0.
        2    1    3    3  502    0 -0.12690810102E+03 -0.39250905013E+03 -0.12719562808E+04  0.13371768023E+04  0.25500000920E-02 0.  1.
       -2    1    3    3    0  502  0.12690810102E+03  0.39250905013E+03  0.11847918919E+04  0.12545520506E+04  0.25500000920E-02 0. -1.
</event>
<event>
 5   0  0.2484618E-05  0.2607123E+04  0.7818609E-02  0.8365786E-01
       -2   -1    0    0    0  501  0.00000000000E+00  0.00000000000E+00  0.11142776892E+04  0.11142776892E+04  0.25500000920E-02 0.  1.
        2   -1    0    0  501    0  0.00000000000E+00  0.00000000000E+00 -0.15249987470E+04  0.15249987470E+04  0.25500000920E-02 0. -1.
    10030    2    1    2    0    0  0.00000000000E+00  0.00000000000E+00 -0.41072105782E+03  0.26392764362E+04  0.26071226130E+04 0.  0.
        3    1    3    3  502    0  0.71704901597E+03  0.13137140707E+03 -0.12993616367E+04  0.14898853685E+04  0.10100000352E+00 0. -1.
       -3    1    3    3    0  502 -0.71704901597E+03 -0.13137140707E+03  0.88864057892E+03  0.11493910677E+04  0.10100000352E+00 0.  1.
</event>
<event>
 5   0  0.2662024E-05  0.1968335E+04  0.7818609E-02  0.8621570E-01
        2   -1    0    0  501    0  0.00000000000E+00  0.00000000000E+00  0.16167376487E+04  0.16167376487E+04  0.25500000920E-02 0. -1.
       -2   -1    0    0    0  501  0.00000000000E+00  0.00000000000E+00 -0.59909908510E+03  0.59909908511E+03  0.25500000920E-02 0.  1.
    10030    2    1    2    0    0  0.00000000000E+00  0.00000000000E+00  0.10176385636E+04  0.22158367338E+04  0.19683353842E+04 0.  0.
        2    1    3    3  502    0  0.78833091632E+03  0.69433387990E+02  0.11674496295E+04  0.14103989742E+04  0.25500000920E-02 0. -1.
       -2    1    3    3    0  502 -0.78833091632E+03 -0.69433387990E+02 -0.14981106597E+03  0.80543775954E+03  0.25500000920E-02 0.  1.
</event>
<event>
 5   0  0.1000421E-05  0.2583730E+04  0.7818609E-02  0.8373749E-01
        1   -1    0    0  501    0  0.00000000000E+00  0.00000000000E+00  0.13393515547E+04  0.13393515547E+04  0.50400001928E-02 0. -1.
       -1   -1    0    0    0  501  0.00000000000E+00  0.00000000000E+00 -0.12460619529E+04  0.12460619529E+04  0.50400001928E-02 0.  1.
    10030    2    1    2    0    0  0.00000000000E+00  0.00000000000E+00  0.93289601808E+02  0.25854135076E+04  0.25837298728E+04 0.  0.
        3    1    3    3  502    0  0.46013683152E+03 -0.85240383804E+03  0.90195133311E+03  0.13235688212E+04  0.10100000352E+00 0. -1.
       -3    1    3    3    0  502 -0.46013683152E+03  0.85240383804E+03 -0.80866173131E+03  0.12618446864E+04  0.10100000352E+00 0.  1.
</event>
<event>
 5   0  0.1034714E-05  0.2602520E+04  0.7818609E-02  0.8367346E-01
        1   -1    0    0  501    0  0.00000000000E+00  0.00000000000E+00  0.12370089248E+04  0.12370089248E+04  0.50400001928E-02 0.  1.
       -1   -1    0    0    0  501  0.00000000000E+00  0.00000000000E+00 -0.13688483414E+04  0.13688483414E+04  0.50400001928E-02 0. -1.
    10030    2    1    2    0    0  0.00000000000E+00  0.00000000000E+00 -0.13183941659E+03  0.26058572663E+04  0.26025200211E+04 0.  0.
        5    1    3    3  502    0  0.95165252885E+03 -0.83801106130E+03  0.22660291119E+03  0.12881288926E+04  0.46999998093E+01 0.  1.
       -5    1    3    3    0  502 -0.95165252885E+03  0.83801106130E+03 -0.35844232779E+03  0.13177283737E+04  0.46999998093E+01 0. -1.
</event>
<event>
 5   0  0.2528460E-05  0.2589057E+04  0.7818609E-02  0.8371928E-01
       -2   -1    0    0    0  501  0.00000000000E+00  0.00000000000E+00  0.73074920799E+03  0.73074920799E+03  0.25500000920E-02 0. -1.
        2   -1    0    0  501    0  0.00000000000E+00  0.00000000000E+00 -0.22932689525E+04  0.22932689525E+04  0.25500000920E-02 0.  1.
    10030    2    1    2    0    0  0.00000000000E+00  0.00000000000E+00 -0.15625197445E+04  0.30240181605E+04  0.25890573348E+04 0.  0.
        5    1    3    3  502    0 -0.23128252288E+03  0.10248468373E+04  0.10209060541E+03  0.10555790956E+04  0.46999998093E+01 0. -1.
       -5    1    3    3    0  502  0.23128252288E+03 -0.10248468373E+04 -0.16646103499E+04  0.19684390650E+04  0.46999998093E+01 0.  1.
</event>
<event>
 5   0  0.1034714E-05  0.2597753E+04  0.7818609E-02  0.8368965E-01
       -1   -1    0    0    0  501  0.00000000000E+00  0.00000000000E+00  0.11102574629E+04  0.11102574629E+04  0.50400001928E-02 0. -1.
        1   -1    0    0  501    0  0.00000000000E+00  0.00000000000E+00 -0.15195394116E+04  0.15195394116E+04  0.50400001928E-02 0.  1.
    10030    2    1    2    0    0  0.00000000000E+00  0.00000000000E+00 -0.40928194872E+03  0.26297968745E+04  0.25977528535E+04 0.  0.
        5    1    3    3  502    0  0.48645032070E+03 -0.81764074845E+03 -0.10997924459E+04  0.14542131281E+04  0.46999998093E+01 0.  1.
       -5    1    3    3    0  502 -0.48645032070E+03  0.81764074845E+03  0.69051049717E+03  0.11755837464E+04  0.46999998093E+01 0. -1.
</event>
<event>
 5   0  0.9855352E-06  0.2643518E+04  0.7818609E-02  0.8353568E-01
       -1   -1    0    0    0  501  0.00000000000E+00  0.00000000000E+00  0.13046958002E+04  0.13046958002E+04  0.50400001928E-02 0.  1.
        1   -1    0    0  501    0  0.00000000000E+00  0.00000000000E+00 -0.13390456558E+04  0.13390456558E+04  0.50400001928E-02 0. -1.
    10030    2    1    2    0    0  0.00000000000E+00  0.00000000000E+00 -0.34349855635E+02  0.26437414560E+04  0.26435182945E+04 0.  0.
        2    1    3    3  502    0 -0.27677853881E+03 -0.70403883315E+03  0.10667847384E+04  0.13077869537E+04  0.25500000920E-02 0.  1.
       -2    1    3    3    0  502  0.27677853881E+03  0.70403883315E+03 -0.11011345940E+04  0.13359545023E+04  0.25500000920E-02 0. -1.
</event>
<event>
 5   0  0.2528460E-05  0.2601169E+04  0.7818609E-02  0.8367804E-01
        2   -1    0    0  501    0  0.00000000000E+00  0.00000000000E+00  0.16909143640E+04  0.16909143640E+04  0.25500000920E-02 0. -1.
       -2   -1    0    0    0  501  0.00000000000E+00  0.00000000000E+00 -0.10003578200E+04  0.10003578200E+04  0.25500000920E-02 0.  1.
    10030    2    1    2    0    0  0.00000000000E+00  0.00000000000E+00  0.69055654403E+03  0.26912721840E+04  0.26011685120E+04 0.  0.
        5    1    3    3  502    0 -0.55087271640E+03  0.33050574134E+03 -0.82473523851E+03  0.10454210149E+04  0.46999998093E+01 0.  1.
       -5    1    3    3    0  502  0.55087271640E+03 -0.33050574134E+03  0.15152917825E+04  0.16458511691E+04  0.46999998093E+01 0. -1.
</event>
<event>
 5   0  0.1025153E-05  0.2610692E+04  0.7818609E-02  0.8364579E-01
        1   -1    0    0  501    0  0.00000000000E+00  0.00000000000E+00  0.12356325206E+04  0.12356325206E+04  0.50400001928E-02 0.  1.
       -1   -1    0    0    0  501  0.00000000000E+00  0.00000000000E+00 -0.13789921414E+04  0.13789921414E+04  0.50400001928E-02 0. -1.
    10030    2    1    2    0    0  0.00000000000E+00  0.00000000000E+00 -0.14335962077E+03  0.26146246620E+04  0.26106915065E+04 0.  0.
        1    1    3    3  502    0  0.10388725086E+04  0.41478079160E+03 -0.74546997756E+03  0.13442561816E+04  0.50400001928E-02 0. -1.
       -1    1    3    3    0  502 -0.10388725086E+04 -0.41478079160E+03  0.60211035679E+03  0.12703684804E+04  0.50400001928E-02 0.  1.
</event>
<event>
 5   0  0.2484618E-05  0.2602982E+04  0.7818609E-02  0.8367189E-01
       -2   -1    0    0    0  501  0.00000000000E+00  0.00000000000E+00  0.10551545697E+04  0.10551545697E+04  0.25500000920E-02 0. -1.
        2   -1    0    0  501    0  0.00000000000E+00  0.00000000000E+00 -0.16053376029E+04  0.16053376029E+04  0.25500000920E-02 0.  1.
    10030    2    1    2    0    0  0.00000000000E+00  0.00000000000E+00 -0.55018303321E+03  0.26604921726E+04  0.26029823723E+04 0.  0.
        3    1    3    3  502    0  0.79886446408E+03  0.15113116662E+03  0.76365666372E+03  0.11154355973E+04  0.10100000352E+00 0. -1.
       -3    1    3    3    0  502 -0.79886446408E+03 -0.15113116662E+03 -0.13138396969E+04  0.15450565753E+04  0.10100000352E+00 0.  1.
</event>
<event>
 5   0  0.2555801E-05  0.2618739E+04  0.7818609E-02  0.8361864E-01
       -2   -1    0    0    0  501  0.00000000000E+00  0.00000000000E+00  0.87093980397E+03  0.87093980397E+03  0.25500000920E-02 0.  1.
        2   -1    0    0  501    0  0.00000000000E+00  0.00000000000E+00 -0.19685035556E+04  0.19685035556E+04  0.25500000920E-02 0. -1.
    10030    2    1    2    0    0  0.00000000000E+00  0.00000000000E+00 -0.10975637516E+04  0.28394433596E+04  0.26187387047E+04 0.  0.
        1    1    3    3  502    0  0.10766960870E+03 -0.12244021571E+04 -0.10381446418E+04  0.16088808794E+04  0.50400001928E-02 0. -1.
       -1    1    3    3    0  502 -0.10766960870E+03  0.12244021571E+04 -0.59419109795E+02  0.12305624801E+04  0.50400001928E-02 0.  1.
</event>
<event>
 5   0  0.2484618E-05  0.2852505E+04  0.7818609E-02  0.8287151E-01
        2   -1    0    0  501    0  0.00000000000E+00  0.00000000000E+00  0.17852632007E+04  0.17852632007E+04  0.25500000920E-02 0. -1.
       -2   -1    0    0    0  501  0.00000000000E+00  0.00000000000E+00 -0.11394373104E+04  0.11394373104E+04  0.25500000920E-02 0.  1.
    10030    2    1    2    0    0  0.00000000000E+00  0.00000000000E+00  0.64582589036E+03  0.29247005111E+04  0.28525045134E+04 0.  0.
        3    1    3    3  502    0  0.48895032657E+02 -0.12195429450E+04 -0.43367930274E+03  0.12952812308E+04  0.10100000352E+00 0.  1.
       -3    1    3    3    0  502 -0.48895032657E+02  0.12195429450E+04  0.10795051931E+04  0.16294192803E+04  0.10100000352E+00 0. -1.
</event>
<event>
 5   0  0.9855352E-06  0.2670254E+04  0.7818609E-02  0.8344721E-01
        1   -1    0    0  501    0  0.00000000000E+00  0.00000000000E+00  0.11969010760E+04  0.11969010760E+04  0.50400001928E-02 0.  1.
       -1   -1    0    0    0  501  0.00000000000E+00  0.00000000000E+00 -0.14893162721E+04  0.14893162721E+04  0.50400001928E-02 0. -1.
    10030    2    1    2    0    0  0.00000000000E+00  0.00000000000E+00 -0.29241519616E+03  0.26862173481E+04  0.26702541067E+04 0.  0.
        2    1    3    3  502    0  0.38346643190E+03  0.10187539853E+03 -0.14286380850E+04  0.14827109898E+04  0.25500000920E-02 0. -1.
       -2    1    3    3    0  502 -0.38346643190E+03 -0.10187539853E+03  0.11362228889E+04  0.12035063583E+04  0.25500000920E-02 0.  1.
</event>
<event>
 5   0  0.2517854E-05  0.2565645E+04  0.7818609E-02  0.8379965E-01
        2   -1    0    0  501    0  0.00000000000E+00  0.00000000000E+00  0.15827782558E+04  0.15827782558E+04  0.25500000920E-02 0. -1.
       -2   -1    0    0    0  501  0.00000000000E+00  0.00000000000E+00 -0.10397117389E+04  0.10397117389E+04  0.25500000920E-02 0.  1.
    10030    2    1    2    0    0  0.00000000000E+00  0.00000000000E+00  0.54306651682E+03  0.26224899947E+04  0.25656446618E+04 0.  0.
        4    1    3    3  502    0  0.12030533520E+04  0.22446369413E+03 -0.12157882927E+03  0.12298391531E+04  0.12699999809E+01 0.  1.
       -4    1    3    3    0  502 -0.12030533520E+04 -0.22446369413E+03  0.66464534610E+03  0.13926508416E+04  0.12699999809E+01 0. -1.
</event>
<event>
 5   0  0.1034714E-05  0.2274481E+04  0.7818609E-02  0.8488051E-01
       -1   -1    0    0    0  501  0.00000000000E+00  0.00000000000E+00  0.72985258098E+03  0.72985258099E+03  0.50400001928E-02 0. -1.
        1   -1    0    0  501    0  0.00000000000E+00  0.00000000000E+00 -0.17720230408E+04  0.17720230408E+04  0.50400001928E-02 0.  1.
    10030    2    1    2    0    0  0.00000000000E+00  0.00000000000E+00 -0.10421704598E+04  0.25018756218E+04  0.22744806791E+04 0.  0.
        5    1    3    3  502    0 -0.40738624764E+03 -0.10012191763E+04 -0.90981471292E+03  0.14128652786E+04  0.46999998093E+01 0. -1.
       -5    1    3    3    0  502  0.40738624764E+03  0.10012191763E+04 -0.13235574687E+03  0.10890103431E+04  0.46999998093E+01 0.  1.
</event>
<event>
 5   0  0.9855352E-06  0.2631174E+04  0.7818609E-02  0.8357689E-01
       -1   -1    0    0    0  501  0.00000000000E+00  0.00000000000E+00  0.11300086920E+04  0.11300086921E+04  0.50400001928E-02 0. -1.
        1   -1    0    0  501    0  0.00000000000E+00  0.00000000000E+00 -0.15316424792E+04  0.15316424792E+04  0.50400001928E-02 0.  1.
    10030    2    1    2    0    0  0.00000000000E+00  0.00000000000E+00 -0.40163378712E+03  0.26616511712E+04  0.26311741216E+04 0.  0.
        2    1    3    3  502    0  0.44265715483E+03 -0.22207852781E+03  0.10321136733E+04  0.11447807056E+04  0.25500000920E-02 0. -1.
       -2    1    3    3    0  502 -0.44265715483E+03  0.22207852781E+03 -0.14337474604E+04  0.15168704656E+04  0.25500000920E-02 0.  1.
</event>
<event>
 5   0  0.8605000E-06  0.2599767E+04  0.7818609E-02  0.8368280E-01
       -3   -1    0    0    0  501  0.00000000000E+00  0.00000000000E+00  0.12835602453E+04  0.12835602493E+04  0.10100000352E+00 0. -1.
        3   -1    0    0  501    0  0.00000000000E+00  0.00000000000E+00 -0.13164139717E+04  0.13164139756E+04  0.10100000352E+00 0.  1.
    10030    2    1    2    0    0  0.00000000000E+00  0.00000000000E+00 -0.32853726343E+02  0.25999742249E+04  0.25997666439E+04 0.  0.
        3    1    3    3  502    0 -0.44909805871E+03 -0.54924345375E+03 -0.11057058261E+04  0.13137514308E+04  0.10100000352E+00 0.  1.
       -3    1    3    3    0  502  0.44909805871E+03  0.54924345375E+03  0.10728520998E+04  0.12862227941E+04  0.10100000352E+00 0. -1.
</event>
<event>
 5   0  0.9855352E-06  0.2588341E+04  0.7818609E-02  0.8372172E-01
        1   -1    0    0  501    0  0.00000000000E+00  0.00000000000E+00  0.15352223959E+04  0.15352223960E+04  0.50400001928E-02 0.  1.
       -1   -1    0    0    0  501  0.00000000000E+00  0.00000000000E+00 -0.10909668441E+04  0.10909668441E+04  0.50400001928E-02 0. -1.
    10030    2    1    2    0    0  0.00000000000E+00  0.00000000000E+00  0.44425555181E+03  0.26261892401E+04  0.25883405745E+04 0.  0.
        2    1    3    3  502    0 -0.68475608628E+03  0.87483361772E+03 -0.45139526647E+03  0.11991590566E+04  0.25500000920E-02 0. -1.
       -2    1    3    3    0  502  0.68475608628E+03 -0.87483361772E+03  0.89565081828E+03  0.14270301835E+04  0.25500000920E-02 0.  1.
</event>
<event>
 5   0  0.1000421E-05  0.2996517E+04  0.7818609E-02  0.8244726E-01
        1   -1    0    0  501    0  0.00000000000E+00  0.00000000000E+00  0.24995255846E+04  0.24995255846E+04  0.50400001928E-02 0. -1.
       -1   -1    0    0    0  501  0.00000000000E+00  0.00000000000E+00 -0.89808208358E+03  0.89808208360E+03  0.50400001928E-02 0.  1.
    10030    2    1    2    0    0  0.00000000000E+00  0.00000000000E+00  0.16014435011E+04  0.33976076682E+04  0.29965174086E+04 0.  0.
        3    1    3    3  502    0 -0.10562731356E+04 -0.81116511553E+03  0.15789420163E+04  0.20656136335E+04  0.10100000352E+00 0. -1.
       -3    1    3    3    0  502  0.10562731356E+04  0.81116511553E+03  0.22501484756E+02  0.13319940348E+04  0.10100000352E+00 0.  1.
</event>
<event>
 5   0  0.1034714E-05  0.2540231E+04  0.7818609E-02  0.8388792E-01
       -1   -1    0    0    0  501  0.00000000000E+00  0.00000000000E+00  0.12701600537E+04  0.12701600537E+04  0.50400001928E-02 0.  1.
        1   -1    0    0  501    0  0.00000000000E+00  0.00000000000E+00 -0.12700705729E+04  0.12700705729E+04  0.50400001928E-02 0. -1.
    10030    2    1    2    0    0  0.00000000000E+00  0.00000000000E+00  0.89480832656E-01  0.25402306266E+04  0.25402306250E+04 0.  0.
        5    1    3    3  502    0  0.77266498349E+02 -0.47686711348E+03  0.11746929699E+04  0.12701566908E+04  0.46999998093E+01 0.  1.
       -5    1    3    3    0  502 -0.77266498349E+02  0.47686711348E+03 -0.11746034891E+04  0.12700739358E+04  0.46999998093E+01 0. -1.
</event>
<event>
 5   0  0.2528460E-05  0.2547276E+04  0.7818609E-02  0.8386334E-01
       -2   -1    0    0    0  501  0.00000000000E+00  0.00000000000E+00  0.75144201344E+03  0.75144201345E+03  0.25500000920E-02 0. -1.
        2   -1    0    0  501    0  0.00000000000E+00  0.00000000000E+00 -0.21587205242E+04  0.21587205242E+04  0.25500000920E-02 0.  1.
    10030    2    1    2    0    0  0.00000000000E+00  0.00000000000E+00 -0.14072785108E+04  0.29101625377E+04  0.25472756405E+04 0.  0.
        5    1    3    3  502    0  0.66210143768E+03  0.72751463363E+03 -0.16278860450E+04  0.19020228499E+04  0.46999998093E+01 0.  1.
       -5    1    3    3    0  502 -0.66210143768E+03 -0.72751463363E+03  0.22060753424E+03  0.10081396878E+04  0.46999998093E+01 0. -1.
</event>
<event>
 5   0  0.1025153E-05  0.2466736E+04  0.7818609E-02  0.8414933E-01
        1   -1    0    0  501    0  0.00000000000E+00  0.00000000000E+00  0.96882658037E+03  0.96882658038E+03  0.50400001928E-02 0. -1.
       -1   -1    0    0    0  501  0.00000000000E+00  0.00000000000E+00 -0.15701434864E+04  0.15701434864E+04  0.50400001928E-02 0.  1.
    10030    2    1    2    0    0  0.00000000000E+00  0.00000000000E+00 -0.60131690600E+03  0.25389700668E+04  0.24667360983E+04 0.  0.
        1    1    3    3  502    0  0.60356767510E+03 -0.42629574031E+03 -0.13170852701E+04  0.15102104507E+04  0.50400001928E-02 0.  1.
       -1    1    3    3    0  502 -0.60356767510E+03  0.42629574031E+03  0.71576836408E+03  0.10287596161E+04  0.50400001928E-02 0. -1.
</event>
<event>
 5   0  0.1034714E-05  0.2565387E+04  0.7818609E-02  0.8380054E-01
        1   -1    0    0  501    0  0.00000000000E+00  0.00000000000E+00  0.26955238542E+04  0.26955238542E+04  0.50400001928E-02 0.  1.
       -1   -1    0    0    0  501  0.00000000000E+00  0.00000000000E+00 -0.61038333959E+03  0.61038333961E+03  0.50400001928E-02 0. -1.
    10030    2    1    2    0    0  0.00000000000E+00  0.00000000000E+00  0.20851405146E+04  0.33059071938E+04  0.25653871849E+04 0.  0.
        5    1    3    3  502    0  0.11199652330E+04 -0.29765912123E+03  0.17511655181E+04  0.20998871011E+04  0.46999998093E+01 0.  1.
       -5    1    3    3    0  502 -0.11199652330E+04  0.29765912123E+03  0.33397499651E+03  0.12060200927E+04  0.46999998093E+01 0. -1.
</event>
<event>
 5   0  0.1005492E-05  0.2280980E+04  0.7818609E-02  0.8485458E-01
        1   -1    0    0  501    0  0.00000000000E+00  0.00000000000E+00  0.10980516226E+04  0.10980516226E+04  0.50400001928E-02 0.  1.
       -1   -1    0    0    0  501  0.00000000000E+00  0.00000000000E+00 -0.11845689572E+04  0.11845689573E+04  0.50400001928E-02 0. -1.
    10030    2    1    2    0    0  0.00000000000E+00  0.00000000000E+00 -0.86517334651E+02  0.22826205799E+04  0.22809803731E+04 0.  0.
        4    1    3    3  502    0  0.46661621158E+03  0.58597385855E+03 -0.90388882898E+03  0.11739304408E+04  0.12699999809E+01 0. -1.
       -4    1    3    3    0  502 -0.46661621158E+03 -0.58597385855E+03  0.81737149432E+03  0.11086901391E+04  0.12699999809E+01 0.  1.
</event>
<event>
 5   0  0.9855352E-06  0.2575396E+04  0.7818609E-02  0.8376607E-01
        1   -1    0    0  501    0  0.00000000000E+00  0.00000000000E+00  0.24604896401E+04  0.24604896401E+04  0.50400001928E-02 0. -1.
       -1   -1    0    0    0  501  0.00000000000E+00  0.00000000000E+00 -0.67391731528E+03  0.67391731530E+03  0.50400001928E-02 0.  1.
    10030    2    1    2    0    0  0.00000000000E+00  0.00000000000E+00  0.17865723248E+04  0.31344069554E+04  0.25753963365E+04 0.  0.
        2    1    3    3  502    0 -0.21228860028E+03 -0.50159300102E+03 -0.52682016592E+03  0.75776083015E+03  0.25500000920E-02 0.  1.
       -2    1    3    3    0  502  0.21228860028E+03  0.50159300102E+03  0.23133924907E+04  0.23766461252E+04  0.25500000920E-02 0. -1.
</event>
<event>
 5   0  0.2662024E-05  0.2568615E+04  0.7818609E-02  0.8378941E-01
        2   -1    0    0  501    0  0.00000000000E+00  0.00000000000E+00  0.16653366186E+04  0.16653366186E+04  0.25500000920E-02 0. -1.
       -2   -1    0    0    0  501  0.00000000000E+00  0.00000000000E+00 -0.99045820183E+03  0.99045820183E+03  0.25500000920E-02 0.  1.
    10030    2    1    2    0    0  0.00000000000E+00  0.00000000000E+00  0.67487841672E+03  0.26557948204E+04  0.25686154346E+04 0.  0.
        2    1    3    3  502    0 -0.29829721353E+03  0.36858337803E+03  0.15715201235E+04  0.16414964005E+04  0.25500000920E-02 0. -1.
       -2    1    3    3    0  502  0.29829721353E+03 -0.36858337803E+03 -0.89664170682E+03  0.10142984199E+04  0.25500000920E-02 0.  1.
</event>
<event>
 5   0  0.2484618E-05  0.2628022E+04  0.7818609E-02  0.8358745E-01
        2   -1    0    0  501    0  0.00000000000E+00  0.00000000000E+00  0.18309106029E+04  0.18309106029E+04  0.25500000920E-02 0.  1.
       -2   -1    0    0    0  501  0.00000000000E+00  0.00000000000E+00 -0.94304178824E+03  0.94304178824E+03  0.25500000920E-02 0. -1.
    10030    2    1    2    0    0  0.00000000000E+00  0.00000000000E+00  0.88786881463E+03  0.27739523911E+04  0.26280222290E+04 0.  0.
        3    1    3    3  502    0 -0.77798988852E+03 -0.60861667625E+03 -0.47075439191E+03  0.10942084961E+04  0.10100000352E+00 0. -1.
       -3    1    3    3    0  502  0.77798988852E+03  0.60861667625E+03  0.13586232065E+04  0.16797438950E+04  0.10100000352E+00 0.  1.
</event>
<event>
 5   0  0.2517854E-05  0.2599263E+04  0.7818609E-02  0.8368451E-01
        2   -1    0    0  501    0  0.00000000000E+00  0.00000000000E+00  0.11681366112E+04  0.11681366112E+04  0.25500000920E-02 0. -1.
       -2   -1    0    0    0  501  0.00000000000E+00  0.00000000000E+00 -0.14459289490E+04  0.14459289490E+04  0.25500000920E-02 0.  1.
    10030    2    1    2    0    0  0.00000000000E+00  0.00000000000E+00 -0.27779233779E+03  0.26140655601E+04  0.25992633898E+04 0.  0.
        4    1    3    3  502    0  0.11654155825E+04  0.81437724608E+02  0.43374553018E+03  0.12461791126E+04  0.12699999809E+01 0. -1.
       -4    1    3    3    0  502 -0.11654155825E+04 -0.81437724608E+02 -0.71153786797E+03  0.13678864475E+04  0.12699999809E+01 0.  1.
</event>
<event>
 5   0  0.1034714E-05  0.2594805E+04  0.7818609E-02  0.8369968E-01
       -1   -1    0    0    0  501  0.00000000000E+00  0.00000000000E+00  0.65253484656E+03  0.65253484658E+03  0.50400001928E-02 0.  1.
        1   -1    0    0  501    0  0.00000000000E+00  0.00000000000E+00 -0.25795604000E+04  0.25795604000E+04  0.50400001928E-02 0. -1.
    10030    2    1    2    0    0  0.00000000000E+00  0.00000000000E+00 -0.19270255534E+04  0.32320952465E+04  0.25948048480E+04 0.  0.
        5    1    3    3  502    0  0.99719330533E+03 -0.35682750051E+03 -0.18968926501E+04  0.21725432492E+04  0.46999998093E+01 0. -1.
       -5    1    3    3    0  502 -0.99719330533E+03  0.35682750051E+03 -0.30132903263E+02  0.10595519974E+04  0.46999998093E+01 0.  1.
</event>
<event>
 5   0  0.2555801E-05  0.2618577E+04  0.7818609E-02  0.8361918E-01
        2   -1    0    0  501    0  0.00000000000E+00  0.00000000000E+00  0.19032041355E+04  0.19032041355E+04  0.25500000920E-02 0.  1.
       -2   -1    0    0    0  501  0.00000000000E+00  0.00000000000E+00 -0.90071081468E+03  0.90071081468E+03  0.25500000920E-02 0. -1.
    10030    2    1    2    0    0  0.00000000000E+00  0.00000000000E+00  0.10024933208E+04  0.28039149501E+04  0.26185771307E+04 0.  0.
        1    1    3    3  502    0 -0.24187656587E+03 -0.10854535187E+04 -0.23869347090E+03  0.11374041443E+04  0.50400001928E-02 0. -1.
       -1    1    3    3    0  502  0.24187656587E+03  0.10854535187E+04  0.12411867917E+04  0.16665108059E+04  0.50400001928E-02 0.  1.
</event>
<event>
 5   0  0.2528460E-05  0.2623421E+04  0.7818609E-02  0.8360289E-01
       -2   -1    0    0    0  501  0.00000000000E+00  0.00000000000E+00  0.11893907543E+04  0.11893907543E+04  0.25500000920E-02 0.  1.
        2   -1    0    0  501    0  0.00000000000E+00  0.00000000000E+00 -0.14466094802E+04  0.14466094802E+04  0.25500000920E-02 0. -1.
    10030    2    1    2    0    0  0.00000000000E+00  0.00000000000E+00 -0.25721872587E+03  0.26360002344E+04  0.26234206226E+04 0.  0.
        5    1    3    3  502    0 -0.68676805233E+03 -0.10071875677E+04 -0.61516753194E+03  0.13654780615E+04  0.46999998093E+01 0. -1.
       -5    1    3    3    0  502  0.68676805233E+03  0.10071875677E+04  0.35794880607E+03  0.12705221729E+04  0.46999998093E+01 0.  1.
</event>
<event>
 5   0  0.1005492E-05  0.2625732E+04  0.7818609E-02  0.8359513E-01
       -1   -1    0    0    0  501  0.00000000000E+00  0.00000000000E+00  0.14801101386E+04  0.14801101386E+04  0.50400001928E-02 0. -1.
        1   -1    0    0  501    0  0.00000000000E+00  0.00000000000E+00 -0.11645191583E+04  0.11645191583E+04  0.50400001928E-02 0.  1.
    10030    2    1    2    0    0  0.00000000000E+00  0.00000000000E+00  0.31559098023E+03  0.26446292969E+04  0.26257316031E+04 0.  0.
        4    1    3    3  502    0 -0.24734634366E+03  0.86835819353E+03  0.11177493671E+04  0.14368686184E+04  0.12699999809E+01 0. -1.
       -4    1    3    3    0  502  0.24734634366E+03 -0.86835819353E+03 -0.80215838689E+03  0.12077606785E+04  0.12699999809E+01 0.  1.
</event>
<event>
 5   0  0.9855352E-06  0.2645804E+04  0.7818609E-02  0.8352807E-01
       -1   -1    0    0    0  501  0.00000000000E+00  0.00000000000E+00  0.10736896918E+04  0.10736896918E+04  0.50400001928E-02 0.  1.
        1   -1    0    0  501    0  0.00000000000E+00  0.00000000000E+00 -0.16299591684E+04  0.16299591684E+04  0.50400001928E-02 0. -1.
    10030    2    1    2    0    0  0.00000000000E+00  0.00000000000E+00 -0.55626947660E+03  0.27036488602E+04  0.26458044956E+04 0.  0.
        2    1    3    3  502    0 -0.75394401575E+03 -0.33651550319E+03 -0.13343651850E+04  0.15691413925E+04  0.25500000920E-02 0. -1.
       -2    1    3    3    0  502  0.75394401575E+03  0.33651550319E+03  0.77809570841E+03  0.11345074677E+04  0.25500000920E-02 0.  1.
</event>
<event>
 5   0  0.9855352E-06  0.2602710E+04  0.7818609E-02  0.8367281E-01
        1   -1    0    0  501    0  0.00000000000E+00  0.00000000000E+00  0.23156278945E+04  0.23156278945E+04  0.50400001928E-02 0.  1.
       -1   -1    0    0    0  501  0.00000000000E+00  0.00000000000E+00 -0.73134575948E+03  0.73134575949E+03  0.50400001928E-02 0. -1.
    10030    2    1    2    0    0  0.00000000000E+00  0.00000000000E+00  0.15842821350E+04  0.30469736540E+04  0.26027098503E+04 0.  0.
        2    1    3    3  502    0 -0.39694708400E+03 -0.21304717330E+03 -0.63714421248E+03  0.78032610686E+03  0.25500000920E-02 0. -1.
       -2    1    3    3    0  502  0.39694708400E+03  0.21304717330E+03  0.22214263475E+04  0.22666475471E+04  0.25500000920E-02 0.  1.
</event>
<event>
 5   0  0.1000421E-05  0.2634100E+04  0.7818609E-02  0.8356710E-01
       -1   -1    0    0    0  501  0.00000000000E+00  0.00000000000E+00  0.84141754820E+03  0.84141754822E+03  0.50400001928E-02 0.  1.
        1   -1    0    0  501    0  0.00000000000E+00  0.00000000000E+00 -0.20615458100E+04  0.20615458100E+04  0.50400001928E-02 0. -1.
    10030    2    1    2    0    0  0.00000000000E+00  0.00000000000E+00 -0.12201282618E+04  0.29029633582E+04  0.26341000899E+04 0.  0.
        3    1    3    3  502    0 -0.97543916131E+03 -0.13104953611E+03 -0.15745898684E+04  0.18568760869E+04  0.10100000352E+00 0. -1.
       -3    1    3    3    0  502  0.97543916131E+03  0.13104953611E+03  0.35446160663E+03  0.10460872713E+04  0.10100000352E+00 0.  1.
</event>
<event>
 5   0  0.9855352E-06  0.2610327E+04  0.7818609E-02  0.8364702E-01
       -1   -1    0    0    0  501  0.00000000000E+00  0.00000000000E+00  0.13751897236E+04  0.13751897236E+04  0.50400001928E-02 0.  1.
        1   -1    0    0  501    0  0.00000000000E+00  0.00000000000E+00 -0.12387030130E+04  0.12387030130E+04  0.50400001928E-02 0. -1.
    10030    2    1    2    0    0  0.00000000000E+00  0.00000000000E+00  0.13648671058E+03  0.26138927367E+04  0.26103269176E+04 0.  0.
        2    1    3    3  502    0  0.10625120310E+04  0.74594626660E+03 -0.66417129721E+02  0.12999149526E+04  0.25500000920E-02 0. -1.
       -2    1    3    3    0  502 -0.10625120310E+04 -0.74594626660E+03  0.20290384030E+03  0.13139777841E+04  0.25500000920E-02 0.  1.
</event>
<event>
 5   0  0.2662024E-05  0.2420092E+04  0.7818609E-02  0.8432020E-01
       -2   -1    0    0    0  501  0.00000000000E+00  0.00000000000E+00  0.15476884104E+04  0.15476884104E+04  0.25500000920E-02 0.  1.
        2   -1    0    0  501    0  0.00000000000E+00  0.00000000000E+00 -0.94606322380E+03  0.94606322380E+03  0.25500000920E-02 0. -1.
    10030    2    1    2    0    0  0.00000000000E+00  0.00000000000E+00  0.60162518663E+03  0.24937516342E+04  0.24200918057E+04 0.  0.
        2    1    3    3  502    0  0.23685417356E+03 -0.64397801765E+03  0.13278451230E+04  0.14946505469E+04  0.25500000920E-02 0.  1.
       -2    1    3    3    0  502 -0.23685417356E+03  0.64397801765E+03 -0.72621993634E+03  0.99910108733E+03  0.25500000920E-02 0. -1.
</event>
<event>
 5   0  0.2662024E-05  0.2598138E+04  0.7818609E-02  0.8368834E-01
        2   -1    0    0  501    0  0.00000000000E+00  0.00000000000E+00  0.90363885359E+03  0.90363885359E+03  0.25500000920E-02 0.  1.
       -2   -1    0    0    0  501  0.00000000000E+00  0.00000000000E+00 -0.18675389012E+04  0.18675389012E+04  0.25500000920E-02 0. -1.
    10030    2    1    2    0    0  0.00000000000E+00  0.00000000000E+00 -0.96390004766E+03  0.27711777548E+04  0.25981383426E+04 0.  0.
        2    1    3    3  502    0  0.58379580776E+03  0.28213126544E+03  0.71870631000E+03  0.96796402626E+03  0.25500000920E-02 0.  1.
       -2    1    3    3    0  502 -0.58379580776E+03 -0.28213126544E+03 -0.16826063577E+04  0.18032137286E+04  0.25500000920E-02 0. -1.
</event>
<event>
 5   0  0.2484618E-05  0.2540592E+04  0.7818609E-02  0.8388665E-01
        2   -1    0    0  501    0  0.00000000000E+00  0.00000000000E+00  0.49612836599E+03  0.49612836600E+03  0.25500000920E-02 0.  1.
       -2   -1    0    0    0  501  0.00000000000E+00  0.00000000000E+00 -0.32524888570E+04  0.32524888570E+04  0.25500000920E-02 0. -1.
    10030    2    1    2    0    0  0.00000000000E+00  0.00000000000E+00 -0.27563604910E+04  0.37486172230E+04  0.25405920428E+04 0.  0.
        3    1    3    3  502    0  0.37576650491E+03  0.10431728278E+04 -0.46356474892E+03  0.12017912886E+04  0.10100000352E+00 0.  1.
       -3    1    3    3    0  502 -0.37576650491E+03 -0.10431728278E+04 -0.22927957421E+04  0.25468259343E+04  0.10100000352E+00 0. -1.
</event>
<event>
 5   0  0.1025153E-05  0.2726668E+04  0.7818609E-02  0.8326404E-01
       -1   -1    0    0    0  501  0.00000000000E+00  0.00000000000E+00  0.12351484598E+04  0.12351484598E+04  0.50400001928E-02 0. -1.
        1   -1    0    0  501    0  0.00000000000E+00  0.00000000000E+00 -0.15048227745E+04  0.15048227745E+04  0.50400001928E-02 0.  1.
    10030    2    1    2    0    0  0.00000000000E+00  0.00000000000E+00 -0.26967431477E+03  0.27399712343E+04  0.27266679535E+04 0.  0.
        1    1    3    3  502    0  0.11332285747E+04  0.19652830052E+03  0.60075150235E+03  0.12975872776E+04  0.50400001928E-02 0. -1.
       -1    1    3    3    0  502 -0.11332285747E+04 -0.19652830052E+03 -0.87042581712E+03  0.14423839567E+04  0.50400001928E-02 0.  1.
</event>
<event>
 5   0  0.9855352E-06  0.2564360E+04  0.7818609E-02  0.8380409E-01
       -1   -1    0    0    0  501  0.00000000000E+00  0.00000000000E+00  0.10078563924E+04  0.10078563924E+04  0.50400001928E-02 0.  1.
        1   -1    0    0  501    0  0.00000000000E+00  0.00000000000E+00 -0.16311710494E+04  0.16311710494E+04  0.50400001928E-02 0. -1.
    10030    2    1    2    0    0  0.00000000000E+00  0.00000000000E+00 -0.62331465693E+03  0.26390274418E+04  0.25643604811E+04 0.  0.
        2    1    3    3  502    0  0.18148320217E+03 -0.20038351420E+03 -0.16015055579E+04  0.16241643259E+04  0.25500000920E-02 0. -1.
       -2    1    3    3    0  502 -0.18148320217E+03  0.20038351420E+03  0.97819090095E+03  0.10148631160E+04  0.25500000920E-02 0.  1.
</event>
<event>
 5   0  0.9855352E-06  0.2670533E+04  0.7818609E-02  0.8344630E-01
        1   -1    0    0  501    0  0.00000000000E+00  0.00000000000E+00  0.18750524624E+04  0.18750524624E+04  0.50400001928E-02 0. -1.
       -1   -1    0    0    0  501  0.00000000000E+00  0.00000000000E+00 -0.95087287439E+03  0.95087287441E+03  0.50400001928E-02 0.  1.
    10030    2    1    2    0    0  0.00000000000E+00  0.00000000000E+00  0.92417958798E+03  0.28259253368E+04  0.26705329240E+04 0.  0.
        2    1    3    3  502    0 -0.12302323411E+04  0.69576522502E+02 -0.82259140519E+02  0.12349409183E+04  0.25500000920E-02 0.  1.
       -2    1    3    3    0  502  0.12302323411E+04 -0.69576522502E+02  0.10064387285E+04  0.15909844185E+04  0.25500000920E-02 0. -1.
</event>
<event>
 5   0  0.2484618E-05  0.2596255E+04  0.7818609E-02  0.8369474E-01
       -2   -1    0    0    0  501  0.00000000000E+00  0.00000000000E+00  0.99672354934E+03  0.99672354934E+03  0.25500000920E-02 0. -1.
        2   -1    0    0  501    0  0.00000000000E+00  0.00000000000E+00 -0.16906748243E+04  0.16906748243E+04  0.25500000920E-02 0.  1.
    10030    2    1    2    0    0  0.00000000000E+00  0.00000000000E+00 -0.69395127498E+03  0.26873983737E+04  0.25962553123E+04 0.  0.
        3    1    3    3  502    0 -0.76473141158E+02  0.85711601676E+03  0.65906999094E+03  0.10839138668E+04  0.10100000352E+00 0. -1.
       -3    1    3    3    0  502  0.76473141158E+02 -0.85711601676E+03 -0.13530212659E+04  0.16034845069E+04  0.10100000352E+00 0.  1.
</event>
<event>
 5   0  0.2662024E-05  0.2706907E+04  0.7818609E-02  0.8332768E-01
       -2   -1    0    0    0  501  0.00000000000E+00  0.00000000000E+00  0.15007452652E+04  0.15007452652E+04  0.25500000920E-02 0. -1.
        2   -1    0    0  501    0  0.00000000000E+00  0.00000000000E+00 -0.12206174077E+04  0.12206174077E+04  0.25500000920E-02 0.  1.
    10030    2    1    2    0    0  0.00000000000E+00  0.00000000000E+00  0.28012785748E+03  0.27213626729E+04  0.27069065704E+04 0.  0.
        2    1    3    3  502    0  0.31547280372E+03  0.37795296596E+03 -0.11274085584E+04  0.12302120110E+04  0.25500000920E-02 0.  1.
       -2    1    3    3    0  502 -0.31547280372E+03 -0.37795296596E+03  0.14075364159E+04  0.14911506619E+04  0.25500000920E-02 0. -1.
</event>
<event>
 5   0  0.2662024E-05  0.2616285E+04  0.7818609E-02  0.8362691E-01
       -2   -1    0    0    0  501  0.00000000000E+00  0.00000000000E+00  0.10155078799E+04  0.10155078799E+04  0.25500000920E-02 0.  1.
        2   -1    0    0  501    0  0.00000000000E+00  0.00000000000E+00 -0.16851041449E+04  0.16851041449E+04  0.25500000920E-02 0. -1.
    10030    2    1    2    0    0  0.00000000000E+00  0.00000000000E+00 -0.66959626498E+03  0.27006120248E+04  0.26162847992E+04 0.  0.
        2    1    3    3  502    0 -0.77157379890E+03 -0.81119954161E+03 -0.10332656938E+04  0.15234857457E+04  0.25500000920E-02 0. -1.
       -2    1    3    3    0  502  0.77157379890E+03  0.81119954161E+03  0.36366942883E+03  0.11771262791E+04  0.25500000920E-02 0.  1.
</event>
<event>
 5   0  0.1005492E-05  0.2698915E+04  0.7818609E-02  0.8335357E-01
       -1   -1    0    0    0  501  0.00000000000E+00  0.00000000000E+00  0.95971926417E+03  0.95971926418E+03  0.50400001928E-02 0.  1.
        1   -1    0    0  501    0  0.00000000000E+00  0.00000000000E+00 -0.18974664520E+04  0.18974664520E+04  0.50400001928E-02 0. -1.
    10030    2    1    2    0    0  0.00000000000E+00  0.00000000000E+00 -0.93774718779E+03  0.28571857162E+04  0.26989146760E+04 0.  0.
        4    1    3    3  502    0  0.81665475715E+03 -0.39151538879E+03 -0.15279522481E+04  0.17761894543E+04  0.12699999809E+01 0. -1.
       -4    1    3    3    0  502 -0.81665475715E+03  0.39151538879E+03  0.59020506033E+03  0.10809962619E+04  0.12699999809E+01 0.  1.
</event>
<event>
 5   0  0.8605000E-06  0.2564572E+04  0.7818609E-02  0.8380336E-01
        3   -1    0    0  501    0  0.00000000000E+00  0.00000000000E+00  0.94142119511E+03  0.94142120053E+03  0.10100000352E+00 0.  1.
       -3   -1    0    0    0  501  0.00000000000E+00  0.00000000000E+00 -0.17465693178E+04  0.17465693208E+04  0.10100000352E+00 0. -1.
    10030    2    1    2    0    0  0.00000000000E+00  0.00000000000E+00 -0.80514812272E+03  0.26879905213E+04  0.25645720000E+04 0.  0.
        2    1    3    3  502    0 -0.26534927399E+03 -0.59097244940E+03  0.75729706113E+03  0.99657288341E+03  0.25500000920E-02 0.  1.
       -2    1    3    3    0  502  0.26534927399E+03  0.59097244940E+03 -0.15624451838E+04  0.16914176379E+04  0.25500000920E-02 0. -1.
</event>
<event>
 5   0  0.2555801E-05  0.2619770E+04  0.7818609E-02  0.8361517E-01
        2   -1    0    0  501    0  0.00000000000E+00  0.00000000000E+00  0.19582025240E+04  0.19582025240E+04  0.25500000920E-02 0. -1.
       -2   -1    0    0    0  501  0.00000000000E+00  0.00000000000E+00 -0.87621100895E+03  0.87621100896E+03  0.25500000920E-02 0.  1.
    10030    2    1    2    0    0  0.00000000000E+00  0.00000000000E+00  0.10819915151E+04  0.28344135330E+04  0.26197699207E+04 0.  0.
        1    1    3    3  502    0  0.47523489822E+03 -0.10809060507E+04  0.11545500862E+04  0.16514212063E+04  0.50400001928E-02 0. -1.
       -1    1    3    3    0  502 -0.47523489822E+03  0.10809060507E+04 -0.72558571160E+02  0.11829923267E+04  0.50400001928E-02 0.  1.
</event>
<event>
 5   0  0.2484618E-05  0.2595147E+04  0.7818609E-02  0.8369851E-01
        2   -1    0    0  501    0  0.00000000000E+00  0.00000000000E+00  0.12563154358E+04  0.12563154358E+04  0.25500000920E-02 0.  1.
       -2   -1    0    0    0  501  0.00000000000E+00  0.00000000000E+00 -0.13401868757E+04  0.13401868757E+04  0.25500000920E-02 0. -1.
    10030    2    1    2    0    0  0.00000000000E+00  0.00000000000E+00 -0.83871439883E+02  0.25965023115E+04  0.25951473629E+04 0.  0.
        3    1    3    3  502    0 -0.95829871329E+03  0.87285762635E+03  0.17091598207E+02  0.12963444730E+04  0.10100000352E+00 0. -1.
       -3    1    3    3    0  502  0.95829871329E+03 -0.87285762635E+03 -0.10096303809E+03  0.13001578385E+04  0.10100000352E+00 0.  1.
</event>
<event>
 5   0  0.9855352E-06  0.2581581E+04  0.7818609E-02  0.8374485E-01
       -1   -1    0    0    0  501  0.00000000000E+00  0.00000000000E+00  0.10123825445E+04  0.10123825445E+04  0.50400001928E-02 0. -1.
        1   -1    0    0  501    0  0.00000000000E+00  0.00000000000E+00 -0.16457612174E+04  0.16457612174E+04  0.50400001928E-02 0.  1.
    10030    2    1    2    0    0  0.00000000000E+00  0.00000000000E+00 -0.63337867292E+03  0.26581437619E+04  0.25815808559E+04 0.  0.
        2    1    3    3  502    0 -0.11914140661E+04 -0.12252373672E+03  0.17889619800E+03  0.12109844725E+04  0.25500000920E-02 0. -1.
       -2    1    3    3    0  502  0.11914140661E+04  0.12252373672E+03 -0.81227487092E+03  0.14471592894E+04  0.25500000920E-02 0.  1.
</event>
<event>
 5   0  0.2484618E-05  0.2588685E+04  0.7818609E-02  0.8372055E-01
       -2   -1    0    0    0  501  0.00000000000E+00  0.00000000000E+00  0.11010259154E+04  0.11010259154E+04  0.25500000920E-02 0.  1.
        2   -1    0    0  501    0  0.00000000000E+00  0.00000000000E+00 -0.15216009335E+04  0.15216009335E+04  0.25500000920E-02 0. -1.
    10030    2    1    2    0    0  0.00000000000E+00  0.00000000000E+00 -0.42057501806E+03  0.26226268489E+04  0.25886846549E+04 0.  0.
        3    1    3    3  502    0 -0.23789312247E+02  0.12629818440E+04 -0.49618071824E+03  0.13571604124E+04  0.10100000352E+00 0. -1.
       -3    1    3    3    0  502  0.23789312247E+02 -0.12629818440E+04  0.75605700187E+02  0.12654664364E+04  0.10100000352E+00 0.  1.
</event>
<event>
 5   0  0.2662024E-05  0.2598292E+04  0.7818609E-02  0.8368782E-01
       -2   -1    0    0    0  501  0.00000000000E+00  0.00000000000E+00  0.14325961073E+04  0.14325961073E+04  0.25500000920E-02 0. -1.
        2   -1    0    0  501    0  0.00000000000E+00  0.00000000000E+00 -0.11781272894E+04  0.11781272894E+04  0.25500000920E-02 0.  1.
    10030    2    1    2    0    0  0.00000000000E+00  0.00000000000E+00  0.25446881791E+03  0.26107233966E+04  0.25982921842E+04 0.  0.
        2    1    3    3  502    0 -0.28416258869E+03 -0.96534150211E+03  0.95283949429E+03  0.13858339346E+04  0.25500000920E-02 0. -1.
       -2    1    3    3    0  502  0.28416258869E+03  0.96534150211E+03 -0.69837067637E+03  0.12248894620E+04  0.25500000920E-02 0.  1.
</event>
<event>
 5   0  0.2528460E-05  0.2532980E+04  0.7818609E-02  0.8391330E-01
       -2   -1    0    0    0  501  0.00000000000E+00  0.00000000000E+00  0.93190256654E+03  0.93190256654E+03  0.25500000920E-02 0. -1.
        2   -1    0    0  501    0  0.00000000000E+00  0.00000000000E+00 -0.17212062383E+04  0.17212062383E+04  0.25500000920E-02 0.  1.
    10030    2    1    2    0    0  0.00000000000E+00  0.00000000000E+00 -0.78930367180E+03  0.26531088049E+04  0.25329796770E+04 0.  0.
        5    1    3    3  502    0  0.47540223836E+03  0.30848156629E+03 -0.15809774031E+04  0.16794879589E+04  0.46999998093E+01 0.  1.
       -5    1    3    3    0  502 -0.47540223836E+03 -0.30848156629E+03  0.79167373128E+03  0.97362084600E+03  0.46999998093E+01 0. -1.
</event>
<event>
 5   0  0.1034714E-05  0.2602505E+04  0.7818609E-02  0.8367351E-01
        1   -1    0    0  501    0  0.00000000000E+00  0.00000000000E+00  0.23589882137E+04  0.23589882137E+04  0.50400001928E-02 0. -1.
       -1   -1    0    0    0  501  0.00000000000E+00  0.00000000000E+00 -0.71778981276E+03  0.71778981277E+03  0.50400001928E-02 0.  1.
    10030    2    1    2    0    0  0.00000000000E+00  0.00000000000E+00  0.16411984009E+04  0.30767780265E+04  0.26025047229E+04 0.  0.
        5    1    3    3  502    0  0.47072130698E+03  0.99707594380E+03  0.16375385122E+04  0.19741563908E+04  0.46999998093E+01 0. -1.
       -5    1    3    3    0  502 -0.47072130698E+03 -0.99707594380E+03  0.36598887220E+01  0.11026216356E+04  0.46999998093E+01 0.  1.
</event>
<event>
 5   0  0.1034714E-05  0.2617443E+04  0.7818609E-02  0.8362300E-01
        1   -1    0    0  501    0  0.00000000000E+00  0.00000000000E+00  0.18349847303E+04  0.18349847303E+04  0.50400001928E-02 0.  1.
       -1   -1    0    0    0  501  0.00000000000E+00  0.00000000000E+00 -0.93338751207E+03  0.93338751208E+03  0.50400001928E-02 0. -1.
    10030    2    1    2    0    0  0.00000000000E+00  0.00000000000E+00  0.90159721823E+03  0.27683722424E+04  0.26174428988E+04 0.  0.
        5    1    3    3  502    0 -0.63210656789E+03  0.65397151687E+03  0.14460657379E+04  0.17083224714E+04  0.46999998093E+01 0.  1.
       -5    1    3    3    0  502  0.63210656789E+03 -0.65397151687E+03 -0.54446851966E+03  0.10600497710E+04  0.46999998093E+01 0. -1.
</event>
<event>
 5   0  0.2555801E-05  0.2593929E+04  0.7818609E-02  0.8370266E-01
       -2   -1    0    0    0  501  0.00000000000E+00  0.00000000000E+00  0.14671055032E+04  0.14671055032E+04  0.25500000920E-02 0. -1.
        2   -1    0    0  501    0  0.00000000000E+00  0.00000000000E+00 -0.11465548889E+04  0.11465548889E+04  0.25500000920E-02 0.  1.
    10030    2    1    2    0    0  0.00000000000E+00  0.00000000000E+00  0.32055061430E+03  0.26136603921E+04  0.25939290562E+04 0.  0.
        1    1    3    3  502    0  0.86537250461E+03  0.61544397252E+03  0.91057106455E+03  0.13988497127E+04  0.50400001928E-02 0. -1.
       -1    1    3    3    0  502 -0.86537250461E+03 -0.61544397252E+03 -0.59002045024E+03  0.12148106794E+04  0.50400001928E-02 0.  1.
</event>
<event>
 5   0  0.1005492E-05  0.2331729E+04  0.7818609E-02  0.8465515E-01
        1   -1    0    0  501    0  0.00000000000E+00  0.00000000000E+00  0.23453915134E+04  0.23453915134E+04  0.50400001928E-02 0.  1.
       -1   -1    0    0    0  501  0.00000000000E+00  0.00000000000E+00 -0.57953668452E+03  0.57953668454E+03  0.50400001928E-02 0. -1.
    10030    2    1    2    0    0  0.00000000000E+00  0.00000000000E+00  0.17658548289E+04  0.29249281979E+04  0.23317293339E+04 0.  0.
        4    1    3    3  502    0 -0.69413831258E+03  0.34525467422E+03 -0.20934718223E+03  0.80302966488E+03  0.12699999809E+01 0. -1.
       -4    1    3    3    0  502  0.69413831258E+03 -0.34525467422E+03  0.19752020111E+04  0.21218985331E+04  0.12699999809E+01 0.  1.
</event>
<event>
 5   0  0.2662024E-05  0.2507712E+04  0.7818609E-02  0.8400243E-01
        2   -1    0    0  501    0  0.00000000000E+00  0.00000000000E+00  0.11035892374E+04  0.11035892374E+04  0.25500000920E-02 0. -1.
       -2   -1    0    0    0  501  0.00000000000E+00  0.00000000000E+00 -0.14245834472E+04  0.14245834472E+04  0.25500000920E-02 0.  1.
    10030    2    1    2    0    0  0.00000000000E+00  0.00000000000E+00 -0.32099420988E+03  0.25281726846E+04  0.25077120729E+04 0.  0.
        2    1    3    3  502    0  0.44809806927E+03 -0.66254089070E+02 -0.13392129127E+04  0.14137442164E+04  0.25500000920E-02 0.  1.
       -2    1    3    3    0  502 -0.44809806927E+03  0.66254089070E+02  0.10182187028E+04  0.11144284682E+04  0.25500000920E-02 0. -1.
</event>
<event>
 5   0  0.1025153E-05  0.2576941E+04  0.7818609E-02  0.8376076E-01
       -1   -1    0    0    0  501  0.00000000000E+00  0.00000000000E+00  0.11313135657E+04  0.11313135657E+04  0.50400001928E-02 0. -1.
        1   -1    0    0  501    0  0.00000000000E+00  0.00000000000E+00 -0.14674591857E+04  0.14674591857E+04  0.50400001928E-02 0.  1.
    10030    2    1    2    0    0  0.00000000000E+00  0.00000000000E+00 -0.33614562001E+03  0.25987727514E+04  0.25769411976E+04 0.  0.
        1    1    3    3  502    0  0.81620796703E+03  0.52912655589E+03 -0.10202083569E+04  0.14096082609E+04  0.50400001928E-02 0.  1.
       -1    1    3    3    0  502 -0.81620796703E+03 -0.52912655589E+03  0.68406273689E+03  0.11891644906E+04  0.50400001928E-02 0. -1.
</event>
<event>
 5   0  0.2517854E-05  0.2622602E+04  0.7818609E-02  0.8360564E-01
       -2   -1    0    0    0  501  0.00000000000E+00  0.00000000000E+00  0.12187262347E+04  0.12187262347E+04  0.25500000920E-02 0.  1.
        2   -1    0    0  501    0  0.00000000000E+00  0.00000000000E+00 -0.14109074561E+04  0.14109074561E+04  0.25500000920E-02 0. -1.
    10030    2    1    2    0    0  0.00000000000E+00  0.00000000000E+00 -0.19218122146E+03  0.26296336908E+04  0.26226017094E+04 0.  0.
        4    1    3    3  502    0  0.94714939976E+02  0.11313024306E+04 -0.75412171601E+03  0.13629076582E+04  0.12699999809E+01 0. -1.
       -4    1    3    3    0  502 -0.94714939976E+02 -0.11313024306E+04  0.56194049455E+03  0.12667260326E+04  0.12699999809E+01 0.  1.
</event>
<event>
 5   0  0.1005492E-05  0.2608688E+04  0.7818609E-02  0.8365256E-01
       -1   -1    0    0    0  501  0.00000000000E+00  0.00000000000E+00  0.88098072664E+03  0.88098072666E+03  0.50400001928E-02 0. -1.
        1   -1    0    0  501    0  0.00000000000E+00  0.00000000000E+00 -0.19311576489E+04  0.19311576489E+04  0.50400001928E-02 0.  1.
    10030    2    1    2    0    0  0.00000000000E+00  0.00000000000E+00 -0.10501769222E+04  0.28121383755E+04  0.26086875388E+04 0.  0.
        4    1    3    3  502    0 -0.14494995042E+03 -0.56378292252E+03  0.73318434815E+03  0.93617443520E+03  0.12699999809E+01 0. -1.
       -4    1    3    3    0  502  0.14494995042E+03  0.56378292252E+03 -0.17833612704E+04  0.18759639403E+04  0.12699999809E+01 0.  1.
</event>
<event>
 5   0  0.2528460E-05  0.2610638E+04  0.7818609E-02  0.8364597E-01
       -2   -1    0    0    0  501  0.00000000000E+00  0.00000000000E+00  0.87087627429E+03  0.87087627430E+03  0.25500000920E-02 0.  1.
        2   -1    0    0  501    0  0.00000000000E+00  0.00000000000E+00 -0.19564864433E+04  0.19564864433E+04  0.25500000920E-02 0. -1.
    10030    2    1    2    0    0  0.00000000000E+00  0.00000000000E+00 -0.10856101690E+04  0.28273627176E+04  0.26106379484E+04 0.  0.
        5    1    3    3  502    0 -0.12695378862E+04 -0.50509892889E+02 -0.21869937083E+03  0.12892358972E+04  0.46999998093E+01 0.  1.
       -5    1    3    3    0  502  0.12695378862E+04  0.50509892889E+02 -0.86691079815E+03  0.15381268204E+04  0.46999998093E+01 0. -1.
</event>
<event>
 5   0  0.1005492E-05  0.2622410E+04  0.7818609E-02  0.8360629E-01
       -1   -1    0    0    0  501  0.00000000000E+00  0.00000000000E+00  0.91126285868E+03  0.91126285870E+03  0.50400001928E-02 0. -1.
        1   -1    0    0  501    0  0.00000000000E+00  0.00000000000E+00 -0.18866770267E+04  0.18866770267E+04  0.50400001928E-02 0.  1.
    10030    2    1    2    0    0  0.00000000000E+00  0.00000000000E+00 -0.97541416804E+03  0.27979398854E+04  0.26224101135E+04 0.  0.
        4    1    3    3  502    0 -0.95660314982E+03  0.86404871043E+03 -0.23167096769E+03  0.13097109645E+04  0.12699999809E+01 0. -1.
       -4    1    3    3    0  502  0.95660314982E+03 -0.86404871043E+03 -0.74374320035E+03  0.14882289210E+04  0.12699999809E+01 0.  1.
</event>
<event>
 5   0  0.1034714E-05  0.2581289E+04  0.7818609E-02  0.8374585E-01
        1   -1    0    0  501    0  0.00000000000E+00  0.00000000000E+00  0.10389890009E+04  0.10389890009E+04  0.50400001928E-02 0. -1.
       -1   -1    0    0    0  501  0.00000000000E+00  0.00000000000E+00 -0.16032545737E+04  0.16032545737E+04  0.50400001928E-02 0.  1.
    10030    2    1    2    0    0  0.00000000000E+00  0.00000000000E+00 -0.56426557286E+03  0.26422435746E+04  0.25812894977E+04 0.  0.
        5    1    3    3  502    0 -0.17697972337E+03 -0.11494069583E+04  0.29080170219E+03  0.11987684923E+04  0.46999998093E+01 0. -1.
       -5    1    3    3    0  502  0.17697972337E+03  0.11494069583E+04 -0.85506727505E+03  0.14434750823E+04  0.46999998093E+01 0.  1.
</event>
<event>
 5   0  0.2555801E-05  0.2652427E+04  0.7818609E-02  0.8350608E-01
       -2   -1    0    0    0  501  0.00000000000E+00  0.00000000000E+00  0.17412284870E+04  0.17412284870E+04  0.25500000920E-02 0. -1.
        2   -1    0    0  501    0  0.00000000000E+00  0.00000000000E+00 -0.10101158968E+04  0.10101158968E+04  0.25500000920E-02 0.  1.
    10030    2    1    2    0    0  0.00000000000E+00  0.00000000000E+00  0.73111259024E+03  0.27513443838E+04  0.26524272466E+04 0.  0.
        1    1    3    3  502    0 -0.42225297847E+03 -0.91806412163E+03 -0.52537112729E+03  0.11389267451E+04  0.50400001928E-02 0.  1.
       -1    1    3    3    0  502  0.42225297847E+03  0.91806412163E+03  0.12564837175E+04  0.16124176387E+04  0.50400001928E-02 0. -1.
</event>
<event>
 5   0  0.1000421E-05  0.2600333E+04  0.7818609E-02  0.8368088E-01
       -1   -1    0    0    0  501  0.00000000000E+00  0.00000000000E+00  0.81727723875E+03  0.81727723877E+03  0.50400001928E-02 0. -1.
        1   -1    0    0  501    0  0.00000000000E+00  0.00000000000E+00 -0.20683712179E+04  0.20683712179E+04  0.50400001928E-02 0.  1.
    10030    2    1    2    0    0  0.00000000000E+00  0.00000000000E+00 -0.12510939791E+04  0.28856484567E+04  0.26003328385E+04 0.  0.
        3    1    3    3  502    0 -0.11178823317E+04 -0.64475427451E+03 -0.44986093323E+03  0.13666542545E+04  0.10100000352E+00 0. -1.
       -3    1    3    3    0  502  0.11178823317E+04  0.64475427451E+03 -0.80123304590E+03  0.15189942021E+04  0.10100000352E+00 0.  1.
</event>
<event>
 5   0  0.2555801E-05  0.2612325E+04  0.7818609E-02  0.8364027E-01
       -2   -1    0    0    0  501  0.00000000000E+00  0.00000000000E+00  0.77264170347E+03  0.77264170347E+03  0.25500000920E-02 0.  1.
        2   -1    0    0  501    0  0.00000000000E+00  0.00000000000E+00 -0.22080869048E+04  0.22080869048E+04  0.25500000920E-02 0. -1.
    10030    2    1    2    0    0  0.00000000000E+00  0.00000000000E+00 -0.14354452014E+04  0.29807286083E+04  0.26123246564E+04 0.  0.
        1    1    3    3  502    0  0.53092787716E+03  0.54257400201E+03 -0.19305359558E+04  0.20744252300E+04  0.50400001928E-02 0. -1.
       -1    1    3    3    0  502 -0.53092787716E+03 -0.54257400201E+03  0.49509075440E+03  0.90630337830E+03  0.50400001928E-02 0.  1.
</event>
<event>
 5   0  0.1000421E-05  0.2584315E+04  0.7818609E-02  0.8373549E-01
        1   -1    0    0  501    0  0.00000000000E+00  0.00000000000E+00  0.11457367719E+04  0.11457367719E+04  0.50400001928E-02 0. -1.
       -1   -1    0    0    0  501  0.00000000000E+00  0.00000000000E+00 -0.14572900384E+04  0.14572900384E+04  0.50400001928E-02 0.  1.
    10030    2    1    2    0    0  0.00000000000E+00  0.00000000000E+00 -0.31155326648E+03  0.26030268103E+04  0.25843148294E+04 0.  0.
        3    1    3    3  502    0  0.95295891813E+03 -0.25433235722E+03 -0.99659941695E+03  0.14021505111E+04  0.10100000352E+00 0.  1.
       -3    1    3    3    0  502 -0.95295891813E+03  0.25433235722E+03  0.68504615047E+03  0.12008762992E+04  0.10100000352E+00 0. -1.
</event>
<event>
 5   0  0.1034714E-05  0.2605261E+04  0.7818609E-02  0.8366416E-01
       -1   -1    0    0    0  501  0.00000000000E+00  0.00000000000E+00  0.94886159816E+03  0.94886159817E+03  0.50400001928E-02 0. -1.
        1   -1    0    0  501    0  0.00000000000E+00  0.00000000000E+00 -0.17882965421E+04  0.17882965421E+04  0.50400001928E-02 0.  1.
    10030    2    1    2    0    0  0.00000000000E+00  0.00000000000E+00 -0.83943494390E+03  0.27371581402E+04  0.26052607661E+04 0.  0.
        5    1    3    3  502    0 -0.28028899085E+02  0.11942762393E+04 -0.96537902572E+03  0.15359232104E+04  0.46999998093E+01 0.  1.
       -5    1    3    3    0  502  0.28028899085E+02 -0.11942762393E+04  0.12594408182E+03  0.12012349298E+04  0.46999998093E+01 0. -1.
</event>
<event>
 5   0  0.2517854E-05  0.2640583E+04  0.7818609E-02  0.8354545E-01
        2   -1    0    0  501    0  0.00000000000E+00  0.00000000000E+00  0.15279774573E+04  0.15279774573E+04  0.25500000920E-02 0. -1.
       -2   -1    0    0    0  501  0.00000000000E+00  0.00000000000E+00 -0.11408346720E+04  0.11408346720E+04  0.25500000920E-02 0.  1.
    10030    2    1    2    0    0  0.00000000000E+00  0.00000000000E+00  0.38714278531E+03  0.26688121293E+04  0.26405830124E+04 0.  0.
        4    1    3    3  502    0  0.90201142716E+03  0.44723152361E+03  0.10568261515E+04  0.14596313842E+04  0.12699999809E+01 0. -1.
       -4    1    3    3    0  502 -0.90201142716E+03 -0.44723152361E+03 -0.66968336617E+03  0.12091807451E+04  0.12699999809E+01 0.  1.
</event>
<event>
 5   0  0.2662024E-05  0.2580115E+04  0.7818609E-02  0.8374987E-01
        2   -1    0    0  501    0  0.00000000000E+00  0.00000000000E+00  0.18863742969E+04  0.18863742969E+04  0.25500000920E-02 0.  1.
       -2   -1    0    0    0  501  0.00000000000E+00  0.00000000000E+00 -0.88224704776E+03  0.88224704776E+03  0.25500000920E-02 0. -1.
    10030    2    1    2    0    0  0.00000000000E+00  0.00000000000E+00  0.10041272491E+04  0.27686213446E+04  0.25801148458E+04 0.  0.
        2    1    3    3  502    0 -0.12836555298E+04  0.76965150988E+02  0.39183040049E+03  0.13443311409E+04  0.25500000920E-02 0. -1.
       -2    1    3    3    0  502  0.12836555298E+04 -0.76965150988E+02  0.61229684862E+03  0.14242902037E+04  0.25500000920E-02 0.  1.
</event>
<event>
 5   0  0.1005492E-05  0.2579270E+04  0.7818609E-02  0.8375277E-01
       -1   -1    0    0    0  501  0.00000000000E+00  0.00000000000E+00  0.63298425661E+03  0.63298425663E+03  0.50400001928E-02 0.  1.
        1   -1    0    0  501    0  0.00000000000E+00  0.00000000000E+00 -0.26274883248E+04  0.26274883248E+04  0.50400001928E-02 0. -1.
    10030    2    1    2    0    0  0.00000000000E+00  0.00000000000E+00 -0.19945040682E+04  0.32604725815E+04  0.25792702411E+04 0.  0.
        4    1    3    3  502    0 -0.21721844404E+03  0.11180047458E+04 -0.17620508163E+04  0.20980808268E+04  0.12699999809E+01 0. -1.
       -4    1    3    3    0  502  0.21721844404E+03 -0.11180047458E+04 -0.23245325197E+03  0.11623917546E+04  0.12699999809E+01 0.  1.
</event>
<event>
 5   0  0.2528460E-05  0.2598870E+04  0.7818609E-02  0.8368585E-01
        2   -1    0    0  501    0  0.00000000000E+00  0.00000000000E+00  0.19926740865E+04  0.19926740865E+04  0.25500000920E-02 0.  1.
       -2   -1    0    0    0  501  0.00000000000E+00  0.00000000000E+00 -0.84736956056E+03  0.84736956057E+03  0.25500000920E-02 0. -1.
    10030    2    1    2    0    0  0.00000000000E+00  0.00000000000E+00  0.11453045259E+04  0.28400436470E+04  0.25988700352E+04 0.  0.
        5    1    3    3  502    0 -0.88735184120E+03 -0.53372757025E+03  0.14305178052E+04  0.17659732983E+04  0.46999998093E+01 0.  1.
       -5    1    3    3    0  502  0.88735184120E+03  0.53372757025E+03 -0.28521327931E+03  0.10740703487E+04  0.46999998093E+01 0. -1.
</event>
<event>
 5   0  0.1025153E-05  0.2595209E+04  0.7818609E-02  0.8369831E-01
        1   -1    0    0  501    0  0.00000000000E+00  0.00000000000E+00  0.13233450757E+04  0.13233450757E+04  0.50400001928E-02 0.  1.
       -1   -1    0    0    0  501  0.00000000000E+00  0.00000000000E+00 -0.12723642142E+04  0.12723642142E+04  0.50400001928E-02 0. -1.
    10030    2    1    2    0    0  0.00000000000E+00  0.00000000000E+00  0.50980861485E+02  0.25957092899E+04  0.25952085984E+04 0.  0.
        1    1    3    3  502    0 -0.98031304931E+03  0.82686931831E+03  0.22314022835E+03  0.13017365731E+04  0.50400001928E-02 0. -1.
       -1    1    3    3    0  502  0.98031304931E+03 -0.82686931831E+03 -0.17215936687E+03  0.12939727168E+04  0.50400001928E-02 0.  1.
</event>
<event>
 5   0  0.2517854E-05  0.2562586E+04  0.7818609E-02  0.8381022E-01
        2   -1    0    0  501    0  0.00000000000E+00  0.00000000000E+00  0.20304034300E+04  0.20304034300E+04  0.25500000920E-02 0.  1.
       -2   -1    0    0    0  501  0.00000000000E+00  0.00000000000E+00 -0.80856438960E+03  0.80856438961E+03  0.25500000920E-02 0. -1.
    10030    2    1    2    0    0  0.00000000000E+00  0.00000000000E+00  0.12218390403E+04  0.28389678196E+04  0.25625861234E+04 0.  0.
        4    1    3    3  502    0  0.68754750136E+03  0.85359393262E+03  0.13460915121E+04  0.17358882857E+04  0.12699999809E+01 0.  1.
       -4    1    3    3    0  502 -0.68754750136E+03 -0.85359393262E+03 -0.12425247177E+03  0.11030795339E+04  0.12699999809E+01 0. -1.
</event>
<event>
 5   0  0.9855352E-06  0.2617249E+04  0.7818609E-02  0.8362366E-01
       -1   -1    0    0    0  501  0.00000000000E+00  0.00000000000E+00  0.96529291985E+03  0.96529291986E+03  0.50400001928E-02 0. -1.
        1   -1    0    0  501    0  0.00000000000E+00  0.00000000000E+00 -0.17740703562E+04  0.17740703562E+04  0.50400001928E-02 0.  1.
    10030    2    1    2    0    0  0.00000000000E+00  0.00000000000E+00 -0.80877743638E+03  0.27393632761E+04  0.26172485967E+04 0.  0.
        2    1    3    3  502    0 -0.43050481346E+03 -0.58211386683E+03  0.73656731556E+03  0.10328225204E+04  0.25500000920E-02 0. -1.
       -2    1    3    3    0  502  0.43050481346E+03  0.58211386683E+03 -0.15453447519E+04  0.17065407557E+04  0.25500000920E-02 0.  1.
</event>
<event>
 5   0  0.9855352E-06  0.2644103E+04  0.7818609E-02  0.8353373E-01
        1   -1    0    0  501    0  0.00000000000E+00  0.00000000000E+00  0.11400440891E+04  0.11400440892E+04  0.50400001928E-02 0. -1.
       -1   -1    0    0    0  501  0.00000000000E+00  0.00000000000E+00 -0.15331167674E+04  0.15331167674E+04  0.50400001928E-02 0.  1.
    10030    2    1    2    0    0  0.00000000000E+00  0.00000000000E+00 -0.39307267824E+03  0.26731608565E+04  0.26441034084E+04 0.  0.
        2    1    3    3  502    0  0.85183419981E+03 -0.10068630179E+04 -0.28933872286E+03  0.13502264763E+04  0.25500000920E-02 0.  1.
       -2    1    3    3    0  502 -0.85183419981E+03  0.10068630179E+04 -0.10373395537E+03  0.13229343802E+04  0.25500000920E-02 0. -1.
</event>
<event>
 5   0  0.2662024E-05  0.2656715E+04  0.7818609E-02  0.8349187E-01
       -2   -1    0    0    0  501  0.00000000000E+00  0.00000000000E+00  0.10392233924E+04  0.10392233924E+04  0.25500000920E-02 0. -1.
        2   -1    0    0  501    0  0.00000000000E+00  0.00000000000E+00 -0.16979354691E+04  0.16979354691E+04  0.25500000920E-02 0.  1.
    10030    2    1    2    0    0  0.00000000000E+00  0.00000000000E+00 -0.65871207663E+03  0.27371588615E+04  0.26567154596E+04 0.  0.
        2    1    3    3  502    0  0.10920005034E+04  0.50285763297E+02  0.44817416366E+03  0.11814625845E+04  0.25500000920E-02 0. -1.
       -2    1    3    3    0  502 -0.10920005034E+04 -0.50285763297E+02 -0.11068862403E+04  0.15556962771E+04  0.25500000920E-02 0.  1.
</event>
<event>
 5   0  0.1034714E-05  0.2570019E+04  0.7818609E-02  0.8378457E-01
        1   -1    0    0  501    0  0.00000000000E+00  0.00000000000E+00  0.18527206473E+04  0.18527206473E+04  0.50400001928E-02 0. -1.
       -1   -1    0    0    0  501  0.00000000000E+00  0.00000000000E+00 -0.89125656391E+03  0.89125656393E+03  0.50400001928E-02 0.  1.
    10030    2    1    2    0    0  0.00000000000E+00  0.00000000000E+00  0.96146408341E+03  0.27439772113E+04  0.25700190179E+04 0.  0.
        5    1    3    3  502    0 -0.44366482344E+03 -0.10985947031E+03  0.17629886362E+04  0.18212793856E+04  0.46999998093E+01 0. -1.
       -5    1    3    3    0  502  0.44366482344E+03  0.10985947031E+03 -0.80152455282E+03  0.92269782570E+03  0.46999998093E+01 0.  1.
</event>
<event>
 5   0  0.1005492E-05  0.2611631E+04  0.7818609E-02  0.8364261E-01
        1   -1    0    0  501    0  0.00000000000E+00  0.00000000000E+00  0.11979113180E+04  0.11979113180E+04  0.50400001928E-02 0.  1.
       -1   -1    0    0    0  501  0.00000000000E+00  0.00000000000E+00 -0.14234392998E+04  0.14234392998E+04  0.50400001928E-02 0. -1.
    10030    2    1    2    0    0  0.00000000000E+00  0.00000000000E+00 -0.22552798183E+03  0.26213506178E+04  0.26116309446E+04 0.  0.
        4    1    3    3  502    0 -0.20733988883E+01 -0.13021743638E+04 -0.14984485670E+02  0.13022628461E+04  0.12699999809E+01 0.  1.
       -4    1    3    3    0  502  0.20733988883E+01  0.13021743638E+04 -0.21054349616E+03  0.13190877717E+04  0.12699999809E+01 0. -1.
</event>
<event>
 5   0  0.1034714E-05  0.2566608E+04  0.7818609E-02  0.8379633E-01
       -1   -1    0    0    0  501  0.00000000000E+00  0.00000000000E+00  0.19311323598E+04  0.19311323598E+04  0.50400001928E-02 0. -1.
        1   -1    0    0  501    0  0.00000000000E+00  0.00000000000E+00 -0.85279978317E+03  0.85279978319E+03  0.50400001928E-02 0.  1.
    10030    2    1    2    0    0  0.00000000000E+00  0.00000000000E+00  0.10783325766E+04  0.27839321430E+04  0.25666080789E+04 0.  0.
        5    1    3    3  502    0 -0.49423515640E+03  0.58913047212E+03 -0.57520276620E+03  0.96032464055E+03  0.46999998093E+01 0.  1.
       -5    1    3    3    0  502  0.49423515640E+03 -0.58913047212E+03  0.16535353428E+04  0.18236075024E+04  0.46999998093E+01 0. -1.
</event>
<event>
 5   0  0.2662024E-05  0.2635094E+04  0.7818609E-02  0.8356377E-01
        2   -1    0    0  501    0  0.00000000000E+00  0.00000000000E+00  0.79104616304E+03  0.79104616304E+03  0.25500000920E-02 0. -1.
       -2   -1    0    0    0  501  0.00000000000E+00  0.00000000000E+00 -0.21944733290E+04  0.21944733290E+04  0.25500000920E-02 0.  1.
    10030    2    1    2    0    0  0.00000000000E+00  0.00000000000E+00 -0.14034271660E+04  0.29855194921E+04  0.26350937037E+04 0.  0.
        2    1    3    3  502    0  0.44568230737E+03 -0.92591435499E+03  0.23255509249E+03  0.10535805536E+04  0.25500000920E-02 0. -1.
       -2    1    3    3    0  502 -0.44568230737E+03  0.92591435499E+03 -0.16359822585E+04  0.19319389385E+04  0.25500000920E-02 0.  1.
</event>
<event>
 5   0  0.2662024E-05  0.2550292E+04  0.7818609E-02  0.8385285E-01
        2   -1    0    0  501    0  0.00000000000E+00  0.00000000000E+00  0.12624610814E+04  0.12624610814E+04  0.25500000920E-02 0. -1.
       -2   -1    0    0    0  501  0.00000000000E+00  0.00000000000E+00 -0.12879580159E+04  0.12879580159E+04  0.25500000920E-02 0.  1.
    10030    2    1    2    0    0  0.00000000000E+00  0.00000000000E+00 -0.25496934490E+02  0.25504190974E+04  0.25502916458E+04 0.  0.
        2    1    3    3  502    0 -0.37047447254E+03 -0.30777512163E+03 -0.11934937175E+04  0.12870136417E+04  0.25500000920E-02 0.  1.
       -2    1    3    3    0  502  0.37047447254E+03  0.30777512163E+03  0.11679967830E+04  0.12634054556E+04  0.25500000920E-02 0. -1.
</event>
<event>
 5   0  0.1025153E-05  0.2617838E+04  0.7818609E-02  0.8362167E-01
       -1   -1    0    0    0  501  0.00000000000E+00  0.00000000000E+00  0.13974514603E+04  0.13974514603E+04  0.50400001928E-02 0.  1.
        1   -1    0    0  501    0  0.00000000000E+00  0.00000000000E+00 -0.12259955096E+04  0.12259955096E+04  0.50400001928E-02 0. -1.
    10030    2    1    2    0    0  0.00000000000E+00  0.00000000000E+00  0.17145595071E+03  0.26234469699E+04  0.26178382037E+04 0.  0.
        1    1    3    3  502    0  0.25955206538E+03 -0.80939967204E+03 -0.91178100342E+03  0.12465310674E+04  0.50400001928E-02 0. -1.
       -1    1    3    3    0  502 -0.25955206538E+03  0.80939967204E+03  0.10832369541E+04  0.13769159025E+04  0.50400001928E-02 0.  1.
</event>
<event>
 5   0  0.2484618E-05  0.2600773E+04  0.7818609E-02  0.8367939E-01
        2   -1    0    0  501    0  0.00000000000E+00  0.00000000000E+00  0.23670862179E+04  0.23670862179E+04  0.25500000920E-02 0. -1.
       -2   -1    0    0    0  501  0.00000000000E+00  0.00000000000E+00 -0.71438243413E+03  0.71438243413E+03  0.25500000920E-02 0.  1.
    10030    2    1    2    0    0  0.00000000000E+00  0.00000000000E+00  0.16527037837E+04  0.30814686520E+04  0.26007728191E+04 0.  0.
        3    1    3    3  502    0  0.74371705625E+03  0.23107534425E+03 -0.40751667044E+03  0.87896571114E+03  0.10100000352E+00 0.  1.
       -3    1    3    3    0  502 -0.74371705625E+03 -0.23107534425E+03  0.20602204542E+04  0.22025029409E+04  0.10100000352E+00 0. -1.
</event>
<event>
 5   0  0.2484618E-05  0.2629139E+04  0.7818609E-02  0.8358370E-01
        2   -1    0    0  501    0  0.00000000000E+00  0.00000000000E+00  0.70261430321E+03  0.70261430321E+03  0.25500000920E-02 0. -1.
       -2   -1    0    0    0  501  0.00000000000E+00  0.00000000000E+00 -0.24595177131E+04  0.24595177131E+04  0.25500000920E-02 0.  1.
    10030    2    1    2    0    0  0.00000000000E+00  0.00000000000E+00 -0.17569034099E+04  0.31621320163E+04  0.26291385085E+04 0.  0.
        3    1    3    3  502    0 -0.64360078565E+03 -0.10821279259E+04 -0.42384453018E+03  0.13284829751E+04  0.10100000352E+00 0.  1.
       -3    1    3    3    0  502  0.64360078565E+03  0.10821279259E+04 -0.13330588797E+04  0.18336490412E+04  0.10100000352E+00 0. -1.
</event>
<event>
 5   0  0.2517854E-05  0.2687310E+04  0.7818609E-02  0.8339134E-01
        2   -1    0    0  501    0  0.00000000000E+00  0.00000000000E+00  0.12477341398E+04  0.12477341398E+04  0.25500000920E-02 0.  1.
       -2   -1    0    0    0  501  0.00000000000E+00  0.00000000000E+00 -0.14469499797E+04  0.14469499797E+04  0.25500000920E-02 0. -1.
    10030    2    1    2    0    0  0.00000000000E+00  0.00000000000E+00 -0.19921583987E+03  0.26946841195E+04  0.26873100962E+04 0.  0.
        4    1    3    3  502    0  0.19317236472E+03 -0.95965052673E+03  0.82333206429E+03  0.12791098455E+04  0.12699999809E+01 0.  1.
       -4    1    3    3    0  502 -0.19317236472E+03  0.95965052673E+03 -0.10225479042E+04  0.14155742740E+04  0.12699999809E+01 0. -1.
</event>
<event>
 5   0  0.1005492E-05  0.2704245E+04  0.7818609E-02  0.8333629E-01
       -1   -1    0    0    0  501  0.00000000000E+00  0.00000000000E+00  0.16775451564E+04  0.16775451564E+04  0.50400001928E-02 0.  1.
        1   -1    0    0  501    0  0.00000000000E+00  0.00000000000E+00 -0.10898280246E+04  0.10898280246E+04  0.50400001928E-02 0. -1.
    10030    2    1    2    0    0  0.00000000000E+00  0.00000000000E+00  0.58771713184E+03  0.27673731810E+04  0.27042453468E+04 0.  0.
        4    1    3    3  502    0  0.23015200664E+03 -0.68312025387E+03  0.14645081110E+04  0.16323017024E+04  0.12699999809E+01 0.  1.
       -4    1    3    3    0  502 -0.23015200664E+03  0.68312025387E+03 -0.87679097919E+03  0.11350714786E+04  0.12699999809E+01 0. -1.
</event>
<event>
 5   0  0.1005492E-05  0.1907538E+04  0.7818609E-02  0.8651113E-01
       -1   -1    0    0    0  501  0.00000000000E+00  0.00000000000E+00  0.97099248364E+03  0.97099248365E+03  0.50400001928E-02 0.  1.
        1   -1    0    0  501    0  0.00000000000E+00  0.00000000000E+00 -0.93685123000E+03  0.93685123001E+03  0.50400001928E-02 0. -1.
    10030    2    1    2    0    0  0.00000000000E+00  0.00000000000E+00  0.34141253641E+02  0.19078437137E+04  0.19075382068E+04 0.  0.
        4    1    3    3  502    0  0.18403918364E+03 -0.48578103549E+03  0.81708638592E+03  0.96823830254E+03  0.12699999809E+01 0.  1.
       -4    1    3    3    0  502 -0.18403918364E+03  0.48578103549E+03 -0.78294513228E+03  0.93960541112E+03  0.12699999809E+01 0. -1.
</event>
<event>
 5   0  0.2528460E-05  0.2710496E+04  0.7818609E-02  0.8331607E-01
       -2   -1    0    0    0  501  0.00000000000E+00  0.00000000000E+00  0.67348523520E+03  0.67348523521E+03  0.25500000920E-02 0.  1.
        2   -1    0    0  501    0  0.00000000000E+00  0.00000000000E+00 -0.27271525816E+04  0.27271525816E+04  0.25500000920E-02 0. -1.
    10030    2    1    2    0    0  0.00000000000E+00  0.00000000000E+00 -0.20536673464E+04  0.34006378168E+04  0.27104958940E+04 0.  0.
        5    1    3    3  502    0  0.27506968663E+03 -0.13252640016E+04 -0.11127260336E+04  0.17521898647E+04  0.46999998093E+01 0.  1.
       -5    1    3    3    0  502 -0.27506968663E+03  0.13252640016E+04 -0.94094131281E+03  0.16484479520E+04  0.46999998093E+01 0. -1.
</event>
<event>
 5   0  0.1005492E-05  0.2467251E+04  0.7818609E-02  0.8414746E-01
       -1   -1    0    0    0  501  0.00000000000E+00  0.00000000000E+00  0.13325322139E+04  0.13325322139E+04  0.50400001928E-02 0.  1.
        1   -1    0    0  501    0  0.00000000000E+00  0.00000000000E+00 -0.11420602767E+04  0.11420602767E+04  0.50400001928E-02 0. -1.
    10030    2    1    2    0    0  0.00000000000E+00  0.00000000000E+00  0.19047193713E+03  0.24745924906E+04  0.24672511903E+04 0.  0.
        4    1    3    3  502    0 -0.13585042825E+03 -0.11367459379E+04  0.55615076932E+03  0.12727733331E+04  0.12699999809E+01 0.  1.
       -4    1    3    3    0  502  0.13585042825E+03  0.11367459379E+04 -0.36567883219E+03  0.12018191576E+04  0.12699999809E+01 0. -1.
</event>
<event>
 5   0  0.2484618E-05  0.2341844E+04  0.7818609E-02  0.8461603E-01
       -2   -1    0    0    0  501  0.00000000000E+00  0.00000000000E+00  0.11848015493E+04  0.11848015493E+04  0.25500000920E-02 0. -1.
        2   -1    0    0  501    0  0.00000000000E+00  0.00000000000E+00 -0.11572050395E+04  0.11572050395E+04  0.25500000920E-02 0.  1.
    10030    2    1    2    0    0  0.00000000000E+00  0.00000000000E+00  0.27596509860E+02  0.23420065888E+04  0.23418439945E+04 0.  0.
        3    1    3    3  502    0  0.23372067007E+03  0.76889543886E+03 -0.83786686428E+03  0.11609678893E+04  0.10100000352E+00 0.  1.
       -3    1    3    3    0  502 -0.23372067007E+03 -0.76889543886E+03  0.86546337414E+03  0.11810386995E+04  0.10100000352E+00 0. -1.
</event>
<event>
 5   0  0.2484618E-05  0.2601481E+04  0.7818609E-02  0.8367698E-01
        2   -1    0    0  501    0  0.00000000000E+00  0.00000000000E+00  0.22262985601E+04  0.22262985601E+04  0.25500000920E-02 0.  1.
       -2   -1    0    0    0  501  0.00000000000E+00  0.00000000000E+00 -0.75997235026E+03  0.75997235027E+03  0.25500000920E-02 0. -1.
    10030    2    1    2    0    0  0.00000000000E+00  0.00000000000E+00  0.14663262099E+04  0.29862709104E+04  0.26014806162E+04 0.  0.
        3    1    3    3  502    0 -0.30743879278E+03  0.49589502939E+03  0.20676545887E+04  0.21484008006E+04  0.10100000352E+00 0.  1.
       -3    1    3    3    0  502  0.30743879278E+03 -0.49589502939E+03 -0.60132837886E+03  0.83787010981E+03  0.10100000352E+00 0. -1.
</event>
<event>
 5   0  0.1005492E-05  0.2758564E+04  0.7818609E-02  0.8316249E-01
        1   -1    0    0  501    0  0.00000000000E+00  0.00000000000E+00  0.18506189091E+04  0.18506189091E+04  0.50400001928E-02 0.  1.
       -1   -1    0    0    0  501  0.00000000000E+00  0.00000000000E+00 -0.10279906580E+04  0.10279906580E+04  0.50400001928E-02 0. -1.
    10030    2    1    2    0    0  0.00000000000E+00  0.00000000000E+00  0.82262825109E+03  0.28786095672E+04  0.27585640831E+04 0.  0.
        4    1    3    3  502    0 -0.90883632407E+03 -0.85865953439E+03  0.10190119868E+04  0.16129682892E+04  0.12699999809E+01 0.  1.
       -4    1    3    3    0  502  0.90883632407E+03  0.85865953439E+03 -0.19638373567E+03  0.12656412780E+04  0.12699999809E+01 0. -1.
</event>
<event>
 5   0  0.1000421E-05  0.2550117E+04  0.7818609E-02  0.8385345E-01
       -1   -1    0    0    0  501  0.00000000000E+00  0.00000000000E+00  0.14886392098E+04  0.14886392098E+04  0.50400001928E-02 0. -1.
        1   -1    0    0  501    0  0.00000000000E+00  0.00000000000E+00 -0.10921212685E+04  0.10921212685E+04  0.50400001928E-02 0.  1.
    10030    2    1    2    0    0  0.00000000000E+00  0.00000000000E+00  0.39651794124E+03  0.25807604783E+04  0.25501172853E+04 0.  0.
        3    1    3    3  502    0  0.49421224124E+03 -0.23243033137E+03  0.13642779411E+04  0.14695318673E+04  0.10100000352E+00 0. -1.
       -3    1    3    3    0  502 -0.49421224124E+03  0.23243033137E+03 -0.96775999986E+03  0.11112286110E+04  0.10100000352E+00 0.  1.
</event>
<event>
 5   0  0.1005492E-05  0.2589170E+04  0.7818609E-02  0.8371889E-01
        1   -1    0    0  501    0  0.00000000000E+00  0.00000000000E+00  0.17070472546E+04  0.17070472546E+04  0.50400001928E-02 0.  1.
       -1   -1    0    0    0  501  0.00000000000E+00  0.00000000000E+00 -0.98178354798E+03  0.98178354799E+03  0.50400001928E-02 0. -1.
    10030    2    1    2    0    0  0.00000000000E+00  0.00000000000E+00  0.72526370658E+03  0.26888308026E+04  0.25891704542E+04 0.  0.
        4    1    3    3  502    0  0.60218110961E+03  0.16546293763E+03  0.15402778027E+04  0.16620641970E+04  0.12699999809E+01 0.  1.
       -4    1    3    3    0  502 -0.60218110961E+03 -0.16546293763E+03 -0.81501409614E+03  0.10267666056E+04  0.12699999809E+01 0. -1.
</event>
<event>
 5   0  0.2528460E-05  0.2632103E+04  0.7818609E-02  0.8357378E-01
       -2   -1    0    0    0  501  0.00000000000E+00  0.00000000000E+00  0.12119170212E+04  0.12119170212E+04  0.25500000920E-02 0. -1.
        2   -1    0    0  501    0  0.00000000000E+00  0.00000000000E+00 -0.14291337213E+04  0.14291337213E+04  0.25500000920E-02 0.  1.
    10030    2    1    2    0    0  0.00000000000E+00  0.00000000000E+00 -0.21721670014E+03  0.26410507425E+04  0.26321029482E+04 0.  0.
        5    1    3    3  502    0  0.12605437400E+04  0.36091262712E+03 -0.22186787563E+03  0.13298405503E+04  0.46999998093E+01 0. -1.
       -5    1    3    3    0  502 -0.12605437400E+04 -0.36091262712E+03  0.46511754953E+01  0.13112101923E+04  0.46999998093E+01 0.  1.
</event>
<event>
 5   0  0.1005492E-05  0.2609384E+04  0.7818609E-02  0.8365021E-01
       -1   -1    0    0    0  501  0.00000000000E+00  0.00000000000E+00  0.12249432604E+04  0.12249432604E+04  0.50400001928E-02 0.  1.
        1   -1    0    0  501    0  0.00000000000E+00  0.00000000000E+00 -0.13896323759E+04  0.13896323759E+04  0.50400001928E-02 0. -1.
    10030    2    1    2    0    0  0.00000000000E+00  0.00000000000E+00 -0.16468911550E+03  0.26145756363E+04  0.26093836922E+04 0.  0.
        4    1    3    3  502    0  0.16726958964E+00  0.12633289822E+04 -0.40890568255E+03  0.13278575282E+04  0.12699999809E+01 0. -1.
       -4    1    3    3    0  502 -0.16726958964E+00 -0.12633289822E+04  0.24421656704E+03  0.12867181081E+04  0.12699999809E+01 0.  1.
</event>
<event>
 5   0  0.9855352E-06  0.2574334E+04  0.7818609E-02  0.8376972E-01
       -1   -1    0    0    0  501  0.00000000000E+00  0.00000000000E+00  0.11709554992E+04  0.11709554992E+04  0.50400001928E-02 0.  1.
        1   -1    0    0  501    0  0.00000000000E+00  0.00000000000E+00 -0.14149123553E+04  0.14149123553E+04  0.50400001928E-02 0. -1.
    10030    2    1    2    0    0  0.00000000000E+00  0.00000000000E+00 -0.24395685615E+03  0.25858678545E+04  0.25743344020E+04 0.  0.
        2    1    3    3  502    0  0.21166167827E+03 -0.98592654904E+03 -0.92552965137E+03  0.13687428399E+04  0.25500000920E-02 0. -1.
       -2    1    3    3    0  502 -0.21166167827E+03  0.98592654904E+03  0.68157279522E+03  0.12171250147E+04  0.25500000920E-02 0.  1.
</event>
<event>
 5   0  0.1034714E-05  0.2649839E+04  0.7818609E-02  0.8351466E-01
        1   -1    0    0  501    0  0.00000000000E+00  0.00000000000E+00  0.13452067470E+04  0.13452067470E+04  0.50400001928E-02 0. -1.
       -1   -1    0    0    0  501  0.00000000000E+00  0.00000000000E+00 -0.13049382341E+04  0.13049382341E+04  0.50400001928E-02 0.  1.
    10030    2    1    2    0    0  0.00000000000E+00  0.00000000000E+00  0.40268512893E+02  0.26501449811E+04  0.26498390268E+04 0.  0.
        5    1    3    3  502    0 -0.10905131103E+04 -0.71499382044E+03 -0.21431682786E+03  0.13215100453E+04  0.46999998093E+01 0. -1.
       -5    1    3    3    0  502  0.10905131103E+04  0.71499382044E+03  0.25458534075E+03  0.13286349359E+04  0.46999998093E+01 0.  1.
</event>
<event>
 5   0  0.2662024E-05  0.2670985E+04  0.7818609E-02  0.8344481E-01
        2   -1    0    0  501    0  0.00000000000E+00  0.00000000000E+00  0.12491916993E+04  0.12491916993E+04  0.25500000920E-02 0.  1.
       -2   -1    0    0    0  501  0.00000000000E+00  0.00000000000E+00 -0.14277554421E+04  0.14277554421E+04  0.25500000920E-02 0. -1.
    10030    2    1    2    0    0  0.00000000000E+00  0.00000000000E+00 -0.17856374275E+03  0.26769471414E+04  0.26709850219E+04 0.  0.
        2    1    3    3  502    0  0.37221049394E+03 -0.33427964229E+03  0.11517295571E+04  0.12556928381E+04  0.25500000920E-02 0.  1.
       -2    1    3    3    0  502 -0.37221049394E+03  0.33427964229E+03 -0.13302932998E+04  0.14212543033E+04  0.25500000920E-02 0. -1.
</event>
<event>
 5   0  0.2517854E-05  0.2601987E+04  0.7818609E-02  0.8367526E-01
        2   -1    0    0  501    0  0.00000000000E+00  0.00000000000E+00  0.21197581138E+04  0.21197581138E+04  0.25500000920E-02 0.  1.
       -2   -1    0    0    0  501  0.00000000000E+00  0.00000000000E+00 -0.79848011767E+03  0.79848011768E+03  0.25500000920E-02 0. -1.
    10030    2    1    2    0    0  0.00000000000E+00  0.00000000000E+00  0.13212779962E+04  0.29182382315E+04  0.26019874774E+04 0.  0.
        4    1    3    3  502    0  0.41475444125E+03  0.74173065849E+03  0.17654560549E+04  0.19593423159E+04  0.12699999809E+01 0.  1.
       -4    1    3    3    0  502 -0.41475444125E+03 -0.74173065849E+03 -0.44417805870E+03  0.95889591563E+03  0.12699999809E+01 0. -1.
</event>
<event>
 5   0  0.2484618E-05  0.2243835E+04  0.7818609E-02  0.8500402E-01
        2   -1    0    0  501    0  0.00000000000E+00  0.00000000000E+00  0.13020761599E+04  0.13020761599E+04  0.25500000920E-02 0. -1.
       -2   -1    0    0    0  501  0.00000000000E+00  0.00000000000E+00 -0.96668576715E+03  0.96668576716E+03  0.25500000920E-02 0.  1.
    10030    2    1    2    0    0  0.00000000000E+00  0.00000000000E+00  0.33539039271E+03  0.22687619270E+04  0.22438346566E+04 0.  0.
        3    1    3    3  502    0 -0.93528407578E+03 -0.45033914405E+03  0.59802503491E+03  0.11979964940E+04  0.10100000352E+00 0. -1.
       -3    1    3    3    0  502  0.93528407578E+03  0.45033914405E+03 -0.26263464220E+03  0.10707654330E+04  0.10100000352E+00 0.  1.
</event>
<event>
 5   0  0.1005492E-05  0.2672544E+04  0.7818609E-02  0.8343969E-01
       -1   -1    0    0    0  501  0.00000000000E+00  0.00000000000E+00  0.12139843339E+04  0.12139843339E+04  0.50400001928E-02 0.  1.
        1   -1    0    0  501    0  0.00000000000E+00  0.00000000000E+00 -0.14708778826E+04  0.14708778826E+04  0.50400001928E-02 0. -1.
    10030    2    1    2    0    0  0.00000000000E+00  0.00000000000E+00 -0.25689354871E+03  0.26848622165E+04  0.26725438867E+04 0.  0.
        4    1    3    3  502    0  0.62907355388E+03 -0.13974666496E+03  0.10475719729E+04  0.12299070363E+04  0.12699999809E+01 0.  1.
       -4    1    3    3    0  502 -0.62907355388E+03  0.13974666496E+03 -0.13044655216E+04  0.14549551802E+04  0.12699999809E+01 0. -1.
</event>
<event>
 5   0  0.1000421E-05  0.2471733E+04  0.7818609E-02  0.8413126E-01
        1   -1    0    0  501    0  0.00000000000E+00  0.00000000000E+00  0.13678399630E+04  0.13678399631E+04  0.50400001928E-02 0.  1.
       -1   -1    0    0    0  501  0.00000000000E+00  0.00000000000E+00 -0.11166258623E+04  0.11166258624E+04  0.50400001928E-02 0. -1.
    10030    2    1    2    0    0  0.00000000000E+00  0.00000000000E+00  0.25121410070E+03  0.24844658254E+04  0.24717325732E+04 0.  0.
        3    1    3    3  502    0 -0.34494622326E+03  0.10504900078E+04 -0.42936798252E+03  0.11861172067E+04  0.10100000352E+00 0. -1.
       -3    1    3    3    0  502  0.34494622326E+03 -0.10504900078E+04  0.68058208322E+03  0.12983486187E+04  0.10100000352E+00 0.  1.
</event>
<event>
 5   0  0.1034714E-05  0.2520919E+04  0.7818609E-02  0.8395571E-01
       -1   -1    0    0    0  501  0.00000000000E+00  0.00000000000E+00  0.13980491389E+04  0.13980491389E+04  0.50400001928E-02 0. -1.
        1   -1    0    0  501    0  0.00000000000E+00  0.00000000000E+00 -0.11364105920E+04  0.11364105921E+04  0.50400001928E-02 0.  1.
    10030    2    1    2    0    0  0.00000000000E+00  0.00000000000E+00  0.26163854685E+03  0.25344597309E+04  0.25209187608E+04 0.  0.
        5    1    3    3  502    0 -0.23163882191E+03 -0.62121300926E+03  0.12085725890E+04  0.13784890060E+04  0.46999998093E+01 0. -1.
       -5    1    3    3    0  502  0.23163882191E+03  0.62121300926E+03 -0.94693404219E+03  0.11559707250E+04  0.46999998093E+01 0.  1.
</event>
<event>
 5   0  0.1034714E-05  0.2614129E+04  0.7818609E-02  0.8363418E-01
        1   -1    0    0  501    0  0.00000000000E+00  0.00000000000E+00  0.11040280313E+04  0.11040280313E+04  0.50400001928E-02 0. -1.
       -1   -1    0    0    0  501  0.00000000000E+00  0.00000000000E+00 -0.15474406799E+04  0.15474406799E+04  0.50400001928E-02 0.  1.
    10030    2    1    2    0    0  0.00000000000E+00  0.00000000000E+00 -0.44341264854E+03  0.26514687112E+04  0.26141292144E+04 0.  0.
        5    1    3    3  502    0 -0.11671566236E+03 -0.30874086858E+03  0.10610527811E+04  0.11112149046E+04  0.46999998093E+01 0. -1.
       -5    1    3    3    0  502  0.11671566236E+03  0.30874086858E+03 -0.15044654297E+04  0.15402538066E+04  0.46999998093E+01 0.  1.
</event>
<event>
 5   0  0.2662024E-05  0.2595351E+04  0.7818609E-02  0.8369782E-01
        2   -1    0    0  501    0  0.00000000000E+00  0.00000000000E+00  0.99899308902E+03  0.99899308903E+03  0.25500000920E-02 0.  1.
       -2   -1    0    0    0  501  0.00000000000E+00  0.00000000000E+00 -0.16856593660E+04  0.16856593660E+04  0.25500000920E-02 0. -1.
    10030    2    1    2    0    0  0.00000000000E+00  0.00000000000E+00 -0.68666627695E+03  0.26846524550E+04  0.25953512726E+04 0.  0.
        2    1    3    3  502    0  0.81329152807E+03 -0.95993586535E+03 -0.14524614305E+02  0.12582253135E+04  0.25500000920E-02 0.  1.
       -2    1    3    3    0  502 -0.81329152807E+03  0.95993586535E+03 -0.67214166265E+03  0.14264271415E+04  0.25500000920E-02 0. -1.
</event>
<event>
 5   0  0.2662024E-05  0.2609190E+04  0.7818609E-02  0.8365086E-01
       -2   -1    0    0    0  501  0.00000000000E+00  0.00000000000E+00  0.77493041499E+03  0.77493041500E+03  0.25500000920E-02 0. -1.
        2   -1    0    0  501    0  0.00000000000E+00  0.00000000000E+00 -0.21962847227E+04  0.21962847228E+04  0.25500000920E-02 0.  1.
    10030    2    1    2    0    0  0.00000000000E+00  0.00000000000E+00 -0.14213543078E+04  0.29712151377E+04  0.26091897836E+04 0.  0.
        2    1    3    3  502    0 -0.55525519398E+03 -0.62545649317E+03 -0.18508291510E+04  0.20310274989E+04  0.25500000920E-02 0.  1.
       -2    1    3    3    0  502  0.55525519398E+03  0.62545649317E+03  0.42947484320E+03  0.94018763884E+03  0.25500000920E-02 0. -1.
</event>
<event>
 5   0  0.1000421E-05  0.2565654E+04  0.7818609E-02  0.8379962E-01
        1   -1    0    0  501    0  0.00000000000E+00  0.00000000000E+00  0.13500258284E+04  0.13500258284E+04  0.50400001928E-02 0.  1.
       -1   -1    0    0    0  501  0.00000000000E+00  0.00000000000E+00 -0.12189727264E+04  0.12189727264E+04  0.50400001928E-02 0. -1.
    10030    2    1    2    0    0  0.00000000000E+00  0.00000000000E+00  0.13105310197E+03  0.25689985547E+04  0.25656536514E+04 0.  0.
        3    1    3    3  502    0 -0.96157437459E+03  0.31751199775E+03  0.85408454839E+03  0.13247262255E+04  0.10100000352E+00 0.  1.
       -3    1    3    3    0  502  0.96157437459E+03 -0.31751199775E+03 -0.72303144642E+03  0.12442723292E+04  0.10100000352E+00 0. -1.
</event>
<event>
 5   0  0.1025153E-05  0.2566128E+04  0.7818609E-02  0.8379799E-01
       -1   -1    0    0    0  501  0.00000000000E+00  0.00000000000E+00  0.12002995799E+04  0.12002995799E+04  0.50400001928E-02 0.  1.
        1   -1    0    0  501    0  0.00000000000E+00  0.00000000000E+00 -0.13715354028E+04  0.13715354028E+04  0.50400001928E-02 0. -1.
    10030    2    1    2    0    0  0.00000000000E+00  0.00000000000E+00 -0.17123582288E+03  0.25718349826E+04  0.25661281088E+04 0.  0.
        1    1    3    3  502    0  0.10925275072E+04  0.14944809128E+03  0.57181522521E+03  0.12421448135E+04  0.50400001928E-02 0.  1.
       -1    1    3    3    0  502 -0.10925275072E+04 -0.14944809128E+03 -0.74305104809E+03  0.13296901692E+04  0.50400001928E-02 0. -1.
</event>
<event>
 5   0  0.2555801E-05  0.2568136E+04  0.7818609E-02  0.8379106E-01
       -2   -1    0    0    0  501  0.00000000000E+00  0.00000000000E+00  0.16720204759E+04  0.16720204759E+04  0.25500000920E-02 0. -1.
        2   -1    0    0  501    0  0.00000000000E+00  0.00000000000E+00 -0.98613073346E+03  0.98613073347E+03  0.25500000920E-02 0.  1.
    10030    2    1    2    0    0  0.00000000000E+00  0.00000000000E+00  0.68588974248E+03  0.26581512094E+04  0.25681361166E+04 0.  0.
        1    1    3    3  502    0  0.10483668158E+04  0.33334848771E+03 -0.34256556173E+03  0.11521915461E+04  0.50400001928E-02 0.  1.
       -1    1    3    3    0  502 -0.10483668158E+04 -0.33334848771E+03  0.10284553042E+04  0.15059596633E+04  0.50400001928E-02 0. -1.
</event>
<event>
 5   0  0.2528460E-05  0.2116857E+04  0.7818609E-02  0.8553854E-01
        2   -1    0    0  501    0  0.00000000000E+00  0.00000000000E+00  0.12641499480E+04  0.12641499480E+04  0.25500000920E-02 0.  1.
       -2   -1    0    0    0  501  0.00000000000E+00  0.00000000000E+00 -0.88618503621E+03  0.88618503621E+03  0.25500000920E-02 0. -1.
    10030    2    1    2    0    0  0.00000000000E+00  0.00000000000E+00  0.37796491177E+03  0.21503349842E+04  0.21168568846E+04 0.  0.
        5    1    3    3  502    0 -0.43598524237E+03 -0.71431102514E+03 -0.46928236555E+03  0.95946412170E+03  0.46999998093E+01 0. -1.
       -5    1    3    3    0  502  0.43598524237E+03  0.71431102514E+03  0.84724727732E+03  0.11908708625E+04  0.46999998093E+01 0.  1.
</event>
<event>
 5   0  0.9855352E-06  0.2255176E+04  0.7818609E-02  0.8495807E-01
       -1   -1    0    0    0  501  0.00000000000E+00  0.00000000000E+00  0.15182302727E+04  0.15182302728E+04  0.50400001928E-02 0. -1.
        1   -1    0    0  501    0  0.00000000000E+00  0.00000000000E+00 -0.83745874129E+03  0.83745874130E+03  0.50400001928E-02 0.  1.
    10030    2    1    2    0    0  0.00000000000E+00  0.00000000000E+00  0.68077153146E+03  0.23556890141E+04  0.22551764572E+04 0.  0.
        2    1    3    3  502    0 -0.45969683273E+03  0.78094969135E+03 -0.36052877071E+03  0.97528692852E+03  0.25500000920E-02 0.  1.
       -2    1    3    3    0  502  0.45969683273E+03 -0.78094969135E+03  0.10413003022E+04  0.13804020855E+04  0.25500000920E-02 0. -1.
</event>
<event>
 5   0  0.9855352E-06  0.2619199E+04  0.7818609E-02  0.8361709E-01
       -1   -1    0    0    0  501  0.00000000000E+00  0.00000000000E+00  0.14320764130E+04  0.14320764130E+04  0.50400001928E-02 0.  1.
        1   -1    0    0  501    0  0.00000000000E+00  0.00000000000E+00 -0.11975969348E+04  0.11975969348E+04  0.50400001928E-02 0. -1.
    10030    2    1    2    0    0  0.00000000000E+00  0.00000000000E+00  0.23447947825E+03  0.26296733478E+04  0.26191985970E+04 0.  0.
        2    1    3    3  502    0  0.66061930634E+03 -0.67978812267E+03  0.10244687689E+04  0.13957313560E+04  0.25500000920E-02 0.  1.
       -2    1    3    3    0  502 -0.66061930634E+03  0.67978812267E+03 -0.78998929068E+03  0.12339419918E+04  0.25500000920E-02 0. -1.
</event>
<event>
 5   0  0.1000421E-05  0.2578775E+04  0.7818609E-02  0.8375447E-01
       -1   -1    0    0    0  501  0.00000000000E+00  0.00000000000E+00  0.74217943751E+03  0.74217943753E+03  0.50400001928E-02 0. -1.
        1   -1    0    0  501    0  0.00000000000E+00  0.00000000000E+00 -0.22400507998E+04  0.22400507998E+04  0.50400001928E-02 0.  1.
    10030    2    1    2    0    0  0.00000000000E+00  0.00000000000E+00 -0.14978713623E+04  0.29822302373E+04  0.25787746257E+04 0.  0.
        3    1    3    3  502    0 -0.11714443386E+04 -0.48684184605E+03 -0.48214129651E+03  0.13571135036E+04  0.10100000352E+00 0. -1.
       -3    1    3    3    0  502  0.11714443386E+04  0.48684184605E+03 -0.10157300658E+04  0.16251167337E+04  0.10100000352E+00 0.  1.
</event>
<event>
 5   0  0.2484618E-05  0.2375691E+04  0.7818609E-02  0.8448661E-01
       -2   -1    0    0    0  501  0.00000000000E+00  0.00000000000E+00  0.83699027428E+03  0.83699027429E+03  0.25500000920E-02 0.  1.
        2   -1    0    0  501    0  0.00000000000E+00  0.00000000000E+00 -0.16857744334E+04  0.16857744334E+04  0.25500000920E-02 0. -1.
    10030    2    1    2    0    0  0.00000000000E+00  0.00000000000E+00 -0.84878415908E+03  0.25227647077E+04  0.23756908935E+04 0.  0.
        3    1    3    3  502    0 -0.23040035357E+03 -0.10717562984E+04 -0.91012745622E+03  0.14248080161E+04  0.10100000352E+00 0. -1.
       -3    1    3    3    0  502  0.23040035357E+03  0.10717562984E+04  0.61343297140E+02  0.10979566915E+04  0.10100000352E+00 0.  1.
</event>
<event>
 5   0  0.1034714E-05  0.2601315E+04  0.7818609E-02  0.8367755E-01
        1   -1    0    0  501    0  0.00000000000E+00  0.00000000000E+00  0.12241571915E+04  0.12241571916E+04  0.50400001928E-02 0. -1.
       -1   -1    0    0    0  501  0.00000000000E+00  0.00000000000E+00 -0.13819385679E+04  0.13819385679E+04  0.50400001928E-02 0.  1.
    10030    2    1    2    0    0  0.00000000000E+00  0.00000000000E+00 -0.15778137639E+03  0.26060957595E+04  0.26013150799E+04 0.  0.
        5    1    3    3  502    0  0.78645570718E+03  0.82410217499E+03 -0.70776316963E+03  0.13411218321E+04  0.46999998093E+01 0.  1.
       -5    1    3    3    0  502 -0.78645570718E+03 -0.82410217499E+03  0.54998179324E+03  0.12649739274E+04  0.46999998093E+01 0. -1.
</event>
<event>
 5   0  0.9855352E-06  0.2599776E+04  0.7818609E-02  0.8368277E-01
        1   -1    0    0  501    0  0.00000000000E+00  0.00000000000E+00  0.16228764099E+04  0.16228764100E+04  0.50400001928E-02 0.  1.
       -1   -1    0    0    0  501  0.00000000000E+00  0.00000000000E+00 -0.10411817679E+04  0.10411817679E+04  0.50400001928E-02 0. -1.
    10030    2    1    2    0    0  0.00000000000E+00  0.00000000000E+00  0.58169464207E+03  0.26640581779E+04  0.25997763978E+04 0.  0.
        2    1    3    3  502    0 -0.85611943211E+02  0.67399279089E+03 -0.84475686823E+03  0.10840709633E+04  0.25500000920E-02 0. -1.
       -2    1    3    3    0  502  0.85611943211E+02 -0.67399279089E+03  0.14264515103E+04  0.15799872146E+04  0.25500000920E-02 0.  1.
</event>
<event>
 5   0  0.2484618E-05  0.2796562E+04  0.7818609E-02  0.8304337E-01
        2   -1    0    0  501    0  0.00000000000E+00  0.00000000000E+00  0.21040111962E+04  0.21040111962E+04  0.25500000920E-02 0.  1.
       -2   -1    0    0    0  501  0.00000000000E+00  0.00000000000E+00 -0.92926746442E+03  0.92926746442E+03  0.25500000920E-02 0. -1.
    10030    2    1    2    0    0  0.00000000000E+00  0.00000000000E+00  0.11747437318E+04  0.30332786606E+04  0.27965615669E+04 0.  0.
        3    1    3    3  502    0  0.17822121097E+03 -0.31900696733E+03 -0.87656279206E+03  0.94967920050E+03  0.10100000352E+00 0. -1.
       -3    1    3    3    0  502 -0.17822121097E+03  0.31900696733E+03  0.20513065238E+04  0.20835994601E+04  0.10100000352E+00 0.  1.
</event>
<event>
 5   0  0.2528460E-05  0.2571871E+04  0.7818609E-02  0.8377819E-01
        2   -1    0    0  501    0  0.00000000000E+00  0.00000000000E+00  0.16102540292E+04  0.16102540292E+04  0.25500000920E-02 0. -1.
       -2   -1    0    0    0  501  0.00000000000E+00  0.00000000000E+00 -0.10269371467E+04  0.10269371467E+04  0.25500000920E-02 0.  1.
    10030    2    1    2    0    0  0.00000000000E+00  0.00000000000E+00  0.58331688252E+03  0.26371911759E+04  0.25718706640E+04 0.  0.
        5    1    3    3  502    0  0.51386654802E+03 -0.37166360144E+03  0.14387369804E+04  0.15723163965E+04  0.46999998093E+01 0. -1.
       -5    1    3    3    0  502 -0.51386654802E+03  0.37166360144E+03 -0.85542009791E+03  0.10648747794E+04  0.46999998093E+01 0.  1.
</event>
<event>
 5   0  0.2528460E-05  0.2620851E+04  0.7818609E-02  0.8361153E-01
       -2   -1    0    0    0  501  0.00000000000E+00  0.00000000000E+00  0.68857288178E+03  0.68857288179E+03  0.25500000920E-02 0. -1.
        2   -1    0    0  501    0  0.00000000000E+00  0.00000000000E+00 -0.24938751703E+04  0.24938751703E+04  0.25500000920E-02 0.  1.
    10030    2    1    2    0    0  0.00000000000E+00  0.00000000000E+00 -0.18053022885E+04  0.31824480521E+04  0.26208508640E+04 0.  0.
        5    1    3    3  502    0 -0.62674834094E+03  0.20890386834E+03 -0.22768488921E+04  0.23707630157E+04  0.46999998093E+01 0.  1.
       -5    1    3    3    0  502  0.62674834094E+03 -0.20890386834E+03  0.47154660354E+03  0.81168503645E+03  0.46999998093E+01 0. -1.
</event>
<event>
 5   0  0.2528460E-05  0.2597809E+04  0.7818609E-02  0.8368946E-01
        2   -1    0    0  501    0  0.00000000000E+00  0.00000000000E+00  0.18549756559E+04  0.18549756559E+04  0.25500000920E-02 0.  1.
       -2   -1    0    0    0  501  0.00000000000E+00  0.00000000000E+00 -0.90952808833E+03  0.90952808833E+03  0.25500000920E-02 0. -1.
    10030    2    1    2    0    0  0.00000000000E+00  0.00000000000E+00  0.94544756758E+03  0.27645037442E+04  0.25978086629E+04 0.  0.
        5    1    3    3  502    0  0.35362685571E+03  0.68617361506E+03  0.15843812619E+04  0.17624336175E+04  0.46999998093E+01 0.  1.
       -5    1    3    3    0  502 -0.35362685571E+03 -0.68617361506E+03 -0.63893369434E+03  0.10020701267E+04  0.46999998093E+01 0. -1.
</event>
<event>
 5   0  0.2662024E-05  0.2585869E+04  0.7818609E-02  0.8373017E-01
        2   -1    0    0  501    0  0.00000000000E+00  0.00000000000E+00  0.25970555290E+04  0.25970555290E+04  0.25500000920E-02 0. -1.
       -2   -1    0    0    0  501  0.00000000000E+00  0.00000000000E+00 -0.64368256610E+03  0.64368256610E+03  0.25500000920E-02 0.  1.
    10030    2    1    2    0    0  0.00000000000E+00  0.00000000000E+00  0.19533729629E+04  0.32407380951E+04  0.25858688035E+04 0.  0.
        2    1    3    3  502    0  0.68337315856E+02 -0.68127103992E+03 -0.39782523413E+03  0.79187444428E+03  0.25500000920E-02 0.  1.
       -2    1    3    3    0  502 -0.68337315856E+02  0.68127103992E+03  0.23511981970E+04  0.24488636508E+04  0.25500000920E-02 0. -1.
</event>
<event>
 5   0  0.2517854E-05  0.2611165E+04  0.7818609E-02  0.8364419E-01
        2   -1    0    0  501    0  0.00000000000E+00  0.00000000000E+00  0.18869945778E+04  0.18869945778E+04  0.25500000920E-02 0.  1.
       -2   -1    0    0    0  501  0.00000000000E+00  0.00000000000E+00 -0.90331227397E+03  0.90331227397E+03  0.25500000920E-02 0. -1.
    10030    2    1    2    0    0  0.00000000000E+00  0.00000000000E+00  0.98368230387E+03  0.27903068518E+04  0.26111647693E+04 0.  0.
        4    1    3    3  502    0  0.59625810197E+03 -0.94716302241E+02 -0.74518249864E+03  0.95905863807E+03  0.12699999809E+01 0. -1.
       -4    1    3    3    0  502 -0.59625810197E+03  0.94716302241E+02  0.17288648025E+04  0.18312482137E+04  0.12699999809E+01 0.  1.
</event>
<event>
 5   0  0.2484618E-05  0.2552023E+04  0.7818609E-02  0.8384683E-01
        2   -1    0    0  501    0  0.00000000000E+00  0.00000000000E+00  0.15045568627E+04  0.15045568627E+04  0.25500000920E-02 0.  1.
       -2   -1    0    0    0  501  0.00000000000E+00  0.00000000000E+00 -0.10821828742E+04  0.10821828742E+04  0.25500000920E-02 0. -1.
    10030    2    1    2    0    0  0.00000000000E+00  0.00000000000E+00  0.42237398848E+03  0.25867397369E+04  0.25520232523E+04 0.  0.
        3    1    3    3  502    0  0.25907872235E+03  0.11674119962E+04 -0.24010351577E+03  0.12196812132E+04  0.10100000352E+00 0. -1.
       -3    1    3    3    0  502 -0.25907872235E+03 -0.11674119962E+04  0.66247750425E+03  0.13670585237E+04  0.10100000352E+00 0.  1.
</event>
<event>
 5   0  0.2528460E-05  0.2591524E+04  0.7818609E-02  0.8371086E-01
       -2   -1    0    0    0  501  0.00000000000E+00  0.00000000000E+00  0.93449663335E+03  0.93449663335E+03  0.25500000920E-02 0. -1.
        2   -1    0    0  501    0  0.00000000000E+00  0.00000000000E+00 -0.17966885672E+04  0.17966885672E+04  0.25500000920E-02 0.  1.
    10030    2    1    2    0    0  0.00000000000E+00  0.00000000000E+00 -0.86219193387E+03  0.27311852006E+04  0.25915241980E+04 0.  0.
        5    1    3    3  502    0 -0.11933616864E+04 -0.21194585156E+03 -0.91398549819E+03  0.15180331813E+04  0.46999998093E+01 0.  1.
       -5    1    3    3    0  502  0.11933616864E+04  0.21194585156E+03  0.51793564322E+02  0.12131520193E+04  0.46999998093E+01 0. -1.
</event>
<event>
 5   0  0.2555801E-05  0.2600857E+04  0.7818609E-02  0.8367910E-01
       -2   -1    0    0    0  501  0.00000000000E+00  0.00000000000E+00  0.17563675616E+04  0.17563675616E+04  0.25500000920E-02 0.  1.
        2   -1    0    0  501    0  0.00000000000E+00  0.00000000000E+00 -0.96284729960E+03  0.96284729961E+03  0.25500000920E-02 0. -1.
    10030    2    1    2    0    0  0.00000000000E+00  0.00000000000E+00  0.79352026198E+03  0.27192148612E+04  0.26008566003E+04 0.  0.
        1    1    3    3  502    0  0.25088398357E+03  0.37854572660E+03  0.16707674906E+04  0.17313877809E+04  0.50400001928E-02 0.  1.
       -1    1    3    3    0  502 -0.25088398357E+03 -0.37854572660E+03 -0.87724722862E+03  0.98782708025E+03  0.50400001928E-02 0. -1.
</event>
<event>
 5   0  0.8605000E-06  0.2650094E+04  0.7818609E-02  0.8351382E-01
        3   -1    0    0  501    0  0.00000000000E+00  0.00000000000E+00  0.17216935688E+04  0.17216935718E+04  0.10100000352E+00 0.  1.
       -3   -1    0    0    0  501  0.00000000000E+00  0.00000000000E+00 -0.10197807145E+04  0.10197807195E+04  0.10100000352E+00 0. -1.
    10030    2    1    2    0    0  0.00000000000E+00  0.00000000000E+00  0.70191285432E+03  0.27414742913E+04  0.26500942690E+04 0.  0.
        1    1    3    3  502    0 -0.12081709882E+04 -0.35202669688E+03 -0.78260003616E+02  0.12608427975E+04  0.50400001928E-02 0. -1.
       -1    1    3    3    0  502  0.12081709882E+04  0.35202669688E+03  0.78017285794E+03  0.14806314937E+04  0.50400001928E-02 0.  1.
</event>
<event>
 5   0  0.2555801E-05  0.2260253E+04  0.7818609E-02  0.8493760E-01
       -2   -1    0    0    0  501  0.00000000000E+00  0.00000000000E+00  0.19188175306E+04  0.19188175306E+04  0.25500000920E-02 0. -1.
        2   -1    0    0  501    0  0.00000000000E+00  0.00000000000E+00 -0.66561100299E+03  0.66561100300E+03  0.25500000920E-02 0.  1.
    10030    2    1    2    0    0  0.00000000000E+00  0.00000000000E+00  0.12532065276E+04  0.25844285336E+04  0.22602531372E+04 0.  0.
        1    1    3    3  502    0  0.19426236849E+03 -0.50685873581E+03 -0.50679645422E+03  0.74262123045E+03  0.50400001928E-02 0.  1.
       -1    1    3    3    0  502 -0.19426236849E+03  0.50685873581E+03  0.17600029818E+04  0.18418073032E+04  0.50400001928E-02 0. -1.
</event>
<event>
 5   0  0.9855352E-06  0.2577964E+04  0.7818609E-02  0.8375725E-01
       -1   -1    0    0    0  501  0.00000000000E+00  0.00000000000E+00  0.10944142223E+04  0.10944142223E+04  0.50400001928E-02 0. -1.
        1   -1    0    0  501    0  0.00000000000E+00  0.00000000000E+00 -0.15181409889E+04  0.15181409889E+04  0.50400001928E-02 0.  1.
    10030    2    1    2    0    0  0.00000000000E+00  0.00000000000E+00 -0.42372676666E+03  0.26125552112E+04  0.25779643827E+04 0.  0.
        2    1    3    3  502    0 -0.94842212907E+03 -0.78377231428E+03  0.17757336316E+03  0.12431153908E+04  0.25500000920E-02 0. -1.
       -2    1    3    3    0  502  0.94842212907E+03  0.78377231428E+03 -0.60130012982E+03  0.13694398204E+04  0.25500000920E-02 0.  1.
</event>
<event>
 5   0  0.2484618E-05  0.2668667E+04  0.7818609E-02  0.8345243E-01
       -2   -1    0    0    0  501  0.00000000000E+00  0.00000000000E+00  0.15043195319E+04  0.15043195319E+04  0.25500000920E-02 0. -1.
        2   -1    0    0  501    0  0.00000000000E+00  0.00000000000E+00 -0.11835559588E+04  0.11835559588E+04  0.25500000920E-02 0.  1.
    10030    2    1    2    0    0  0.00000000000E+00  0.00000000000E+00  0.32076357314E+03  0.26878754907E+04  0.26686673423E+04 0.  0.
        3    1    3    3  502    0  0.79580410590E+03 -0.75724022877E+03  0.92328291563E+03  0.14349802408E+04  0.10100000352E+00 0. -1.
       -3    1    3    3    0  502 -0.79580410590E+03  0.75724022877E+03 -0.60251934248E+03  0.12528952499E+04  0.10100000352E+00 0.  1.
</event>
<event>
 5   0  0.1005492E-05  0.2605166E+04  0.7818609E-02  0.8366448E-01
       -1   -1    0    0    0  501  0.00000000000E+00  0.00000000000E+00  0.74171777141E+03  0.74171777143E+03  0.50400001928E-02 0. -1.
        1   -1    0    0  501    0  0.00000000000E+00  0.00000000000E+00 -0.22875585514E+04  0.22875585514E+04  0.50400001928E-02 0.  1.
    10030    2    1    2    0    0  0.00000000000E+00  0.00000000000E+00 -0.15458407800E+04  0.30292763228E+04  0.26051662755E+04 0.  0.
        4    1    3    3  502    0 -0.10096222318E+04  0.49115198927E+03 -0.15408533678E+04  0.19065146318E+04  0.12699999809E+01 0.  1.
       -4    1    3    3    0  502  0.10096222318E+04 -0.49115198927E+03 -0.49874122000E+01  0.11227616910E+04  0.12699999809E+01 0. -1.
</event>
<event>
 5   0  0.1025153E-05  0.2624022E+04  0.7818609E-02  0.8360087E-01
        1   -1    0    0  501    0  0.00000000000E+00  0.00000000000E+00  0.14136226410E+04  0.14136226410E+04  0.50400001928E-02 0.  1.
       -1   -1    0    0    0  501  0.00000000000E+00  0.00000000000E+00 -0.12177036809E+04  0.12177036809E+04  0.50400001928E-02 0. -1.
    10030    2    1    2    0    0  0.00000000000E+00  0.00000000000E+00  0.19591896005E+03  0.26313263219E+04  0.26240224796E+04 0.  0.
        1    1    3    3  502    0 -0.12198852284E+04 -0.30773544911E+03 -0.27530289119E+03  0.12878714063E+04  0.50400001928E-02 0.  1.
       -1    1    3    3    0  502  0.12198852284E+04  0.30773544911E+03  0.47122185124E+03  0.13434549156E+04  0.50400001928E-02 0. -1.
</event>
<event>
 5   0  0.1034714E-05  0.2623810E+04  0.7818609E-02  0.8360158E-01
        1   -1    0    0  501    0  0.00000000000E+00  0.00000000000E+00  0.19074264848E+04  0.19074264848E+04  0.50400001928E-02 0.  1.
       -1   -1    0    0    0  501  0.00000000000E+00  0.00000000000E+00 -0.90231226694E+03  0.90231226695E+03  0.50400001928E-02 0. -1.
    10030    2    1    2    0    0  0.00000000000E+00  0.00000000000E+00  0.10051142179E+04  0.28097387518E+04  0.26238096848E+04 0.  0.
        5    1    3    3  502    0  0.71433639060E+03  0.74466883684E+03  0.13700639820E+04  0.17151984026E+04  0.46999998093E+01 0. -1.
       -5    1    3    3    0  502 -0.71433639060E+03 -0.74466883684E+03 -0.36494976419E+03  0.10945403491E+04  0.46999998093E+01 0.  1.
</event>
<event>
 5   0  0.2517854E-05  0.2605419E+04  0.7818609E-02  0.8366363E-01
        2   -1    0    0  501    0  0.00000000000E+00  0.00000000000E+00  0.22349228917E+04  0.22349228917E+04  0.25500000920E-02 0.  1.
       -2   -1    0    0    0  501  0.00000000000E+00  0.00000000000E+00 -0.75933359989E+03  0.75933359990E+03  0.25500000920E-02 0. -1.
    10030    2    1    2    0    0  0.00000000000E+00  0.00000000000E+00  0.14755892919E+04  0.29942564916E+04  0.26054190027E+04 0.  0.
        4    1    3    3  502    0  0.33842967443E+03 -0.47925296826E+03  0.20744930151E+04  0.21558619934E+04  0.12699999809E+01 0.  1.
       -4    1    3    3    0  502 -0.33842967443E+03  0.47925296826E+03 -0.59890372321E+03  0.83839449825E+03  0.12699999809E+01 0. -1.
</event>
<event>
 5   0  0.9855352E-06  0.2598808E+04  0.7818609E-02  0.8368606E-01
       -1   -1    0    0    0  501  0.00000000000E+00  0.00000000000E+00  0.12637698221E+04  0.12637698221E+04  0.50400001928E-02 0.  1.
        1   -1    0    0  501    0  0.00000000000E+00  0.00000000000E+00 -0.13360427878E+04  0.13360427878E+04  0.50400001928E-02 0. -1.
    10030    2    1    2    0    0  0.00000000000E+00  0.00000000000E+00 -0.72272965682E+02  0.25998126100E+04  0.25988078470E+04 0.  0.
        2    1    3    3  502    0 -0.11368591242E+03 -0.15190671337E+03 -0.13221102085E+04  0.13356554719E+04  0.25500000920E-02 0. -1.
       -2    1    3    3    0  502  0.11368591242E+03  0.15190671337E+03  0.12498372428E+04  0.12641571381E+04  0.25500000920E-02 0.  1.
</event>
<event>
 5   0  0.2662024E-05  0.2573970E+04  0.7818609E-02  0.8377097E-01
        2   -1    0    0  501    0  0.00000000000E+00  0.00000000000E+00  0.10085191959E+04  0.10085191960E+04  0.25500000920E-02 0. -1.
       -2   -1    0    0    0  501  0.00000000000E+00  0.00000000000E+00 -0.16423392275E+04  0.16423392275E+04  0.25500000920E-02 0.  1.
    10030    2    1    2    0    0  0.00000000000E+00  0.00000000000E+00 -0.63382003150E+03  0.26508584234E+04  0.25739701919E+04 0.  0.
        2    1    3    3  502    0  0.95241412983E+03  0.72662070102E+03 -0.80134420684E+03  0.14412573870E+04  0.25500000920E-02 0.  1.
       -2    1    3    3    0  502 -0.95241412983E+03 -0.72662070102E+03  0.16752417534E+03  0.12096010364E+04  0.25500000920E-02 0. -1.
</event>
<event>
 5   0  0.2555801E-05  0.3094780E+04  0.7818609E-02  0.8217172E-01
       -2   -1    0    0    0  501  0.00000000000E+00  0.00000000000E+00  0.15942321595E+04  0.15942321595E+04  0.25500000920E-02 0. -1.
        2   -1    0    0  501    0  0.00000000000E+00  0.00000000000E+00 -0.15019243385E+04  0.15019243385E+04  0.25500000920E-02 0.  1.
    10030    2    1    2    0    0  0.00000000000E+00  0.00000000000E+00  0.92307820971E+02  0.30961564980E+04  0.30947801741E+04 0.  0.
        1    1    3    3  502    0 -0.71205055534E+03 -0.99396258037E+03 -0.90265516364E+03  0.15197907583E+04  0.50400001928E-02 0.  1.
       -1    1    3    3    0  502  0.71205055534E+03  0.99396258037E+03  0.99496298461E+03  0.15763657397E+04  0.50400001928E-02 0. -1.
</event>
<event>
 5   0  0.2528460E-05  0.2613379E+04  0.7818609E-02  0.8363671E-01
       -2   -1    0    0    0  501  0.00000000000E+00  0.00000000000E+00  0.72747127527E+03  0.72747127527E+03  0.25500000920E-02 0. -1.
        2   -1    0    0  501    0  0.00000000000E+00  0.00000000000E+00 -0.23470853817E+04  0.23470853817E+04  0.25500000920E-02 0.  1.
    10030    2    1    2    0    0  0.00000000000E+00  0.00000000000E+00 -0.16196141064E+04  0.30745566570E+04  0.26133788059E+04 0.  0.
        5    1    3    3  502    0 -0.10988803329E+04 -0.50469737067E+03 -0.22729771696E+03  0.12304242212E+04  0.46999998093E+01 0. -1.
       -5    1    3    3    0  502  0.10988803329E+04  0.50469737067E+03 -0.13923163895E+04  0.18441324357E+04  0.46999998093E+01 0.  1.
</event>
<event>
 5   0  0.9855352E-06  0.2689390E+04  0.7818609E-02  0.8338456E-01
        1   -1    0    0  501    0  0.00000000000E+00  0.00000000000E+00  0.14531230561E+04  0.14531230561E+04  0.50400001928E-02 0.  1.
       -1   -1    0    0    0  501  0.00000000000E+00  0.00000000000E+00 -0.12443571054E+04  0.12443571054E+04  0.50400001928E-02 0. -1.
    10030    2    1    2    0    0  0.00000000000E+00  0.00000000000E+00  0.20876595072E+03  0.26974801615E+04  0.26893895217E+04 0.  0.
        2    1    3    3  502    0  0.98360845531E+03  0.62981198826E+03  0.77276238630E+03  0.14004679359E+04  0.25500000920E-02 0.  1.
       -2    1    3    3    0  502 -0.98360845531E+03 -0.62981198826E+03 -0.56399643559E+03  0.12970122256E+04  0.25500000920E-02 0. -1.
</event>
<event>
 5   0  0.1005492E-05  0.2631837E+04  0.7818609E-02  0.8357467E-01
       -1   -1    0    0    0  501  0.00000000000E+00  0.00000000000E+00  0.68043133285E+03  0.68043133287E+03  0.50400001928E-02 0. -1.
        1   -1    0    0  501    0  0.00000000000E+00  0.00000000000E+00 -0.25449170917E+04  0.25449170917E+04  0.50400001928E-02 0.  1.
    10030    2    1    2    0    0  0.00000000000E+00  0.00000000000E+00 -0.18644857589E+04  0.32253484246E+04  0.26318368709E+04 0.  0.
        4    1    3    3  502    0 -0.12869363826E+04 -0.27440945907E+03 -0.91806122420E+03  0.16044761851E+04  0.12699999809E+01 0.  1.
       -4    1    3    3    0  502  0.12869363826E+04  0.27440945907E+03 -0.94642453470E+03  0.16208722395E+04  0.12699999809E+01 0. -1.
</event>
<event>
 5   0  0.2517854E-05  0.2578229E+04  0.7818609E-02  0.8375634E-01
        2   -1    0    0  501    0  0.00000000000E+00  0.00000000000E+00  0.19207522840E+04  0.19207522840E+04  0.25500000920E-02 0. -1.
       -2   -1    0    0    0  501  0.00000000000E+00  0.00000000000E+00 -0.86519041928E+03  0.86519041928E+03  0.25500000920E-02 0.  1.
    10030    2    1    2    0    0  0.00000000000E+00  0.00000000000E+00  0.10555618648E+04  0.27859427033E+04  0.25782292171E+04 0.  0.
        4    1    3    3  502    0  0.14118473222E+03  0.48699265284E+02 -0.85580999253E+03  0.86874455582E+03  0.12699999809E+01 0.  1.
       -4    1    3    3    0  502 -0.14118473222E+03 -0.48699265284E+02  0.19113718573E+04  0.19171981475E+04  0.12699999809E+01 0. -1.
</event>
<event>
 5   0  0.2484618E-05  0.2580849E+04  0.7818609E-02  0.8374736E-01
        2   -1    0    0  501    0  0.00000000000E+00  0.00000000000E+00  0.14236166346E+04  0.14236166346E+04  0.25500000920E-02 0.  1.
       -2   -1    0    0    0  501  0.00000000000E+00  0.00000000000E+00 -0.11696938113E+04  0.11696938113E+04  0.25500000920E-02 0. -1.
    10030    2    1    2    0    0  0.00000000000E+00  0.00000000000E+00  0.25392282324E+03  0.25933104459E+04  0.25808491372E+04 0.  0.
        3    1    3    3  502    0  0.60150142398E+02  0.14614859551E+03  0.14138551609E+04  0.14226608443E+04  0.10100000352E+00 0.  1.
       -3    1    3    3    0  502 -0.60150142398E+02 -0.14614859551E+03 -0.11599323377E+04  0.11706496016E+04  0.10100000352E+00 0. -1.
</event>
<event>
 5   0  0.1025153E-05  0.2575971E+04  0.7818609E-02  0.8376409E-01
        1   -1    0    0  501    0  0.00000000000E+00  0.00000000000E+00  0.17652315855E+04  0.17652315855E+04  0.50400001928E-02 0.  1.
       -1   -1    0    0    0  501  0.00000000000E+00  0.00000000000E+00 -0.93976744084E+03  0.93976744085E+03  0.50400001928E-02 0. -1.
    10030    2    1    2    0    0  0.00000000000E+00  0.00000000000E+00  0.82546414466E+03  0.27049990264E+04  0.25759714048E+04 0.  0.
        1    1    3    3  502    0 -0.59511926957E+03 -0.11207141237E+04  0.64456183093E+03  0.14232452515E+04  0.50400001928E-02 0.  1.
       -1    1    3    3    0  502  0.59511926957E+03  0.11207141237E+04  0.18090231373E+03  0.12817537748E+04  0.50400001928E-02 0. -1.
</event>
<event>
 5   0  0.1000421E-05  0.2603413E+04  0.7818609E-02  0.8367043E-01
        1   -1    0    0  501    0  0.00000000000E+00  0.00000000000E+00  0.16422701701E+04  0.16422701701E+04  0.50400001928E-02 0. -1.
       -1   -1    0    0    0  501  0.00000000000E+00  0.00000000000E+00 -0.10317666573E+04  0.10317666573E+04  0.50400001928E-02 0.  1.
    10030    2    1    2    0    0  0.00000000000E+00  0.00000000000E+00  0.61050351277E+03  0.26740368274E+04  0.26034128400E+04 0.  0.
        3    1    3    3  502    0 -0.82170684558E+03  0.89311850777E+03 -0.17823710099E+03  0.12266341278E+04  0.10100000352E+00 0.  1.
       -3    1    3    3    0  502  0.82170684558E+03 -0.89311850777E+03  0.78874061376E+03  0.14474026997E+04  0.10100000352E+00 0. -1.
</event>
<event>
 5   0  0.9855352E-06  0.2645506E+04  0.7818609E-02  0.8352906E-01
        1   -1    0    0  501    0  0.00000000000E+00  0.00000000000E+00  0.19676488953E+04  0.19676488953E+04  0.50400001928E-02 0. -1.
       -1   -1    0    0    0  501  0.00000000000E+00  0.00000000000E+00 -0.88922159736E+03  0.88922159738E+03  0.50400001928E-02 0.  1.
    10030    2    1    2    0    0  0.00000000000E+00  0.00000000000E+00  0.10784272979E+04  0.28568704927E+04  0.26455062984E+04 0.  0.
        2    1    3    3  502    0  0.20761288288E+03 -0.85862902203E+01 -0.87148672128E+03  0.89591625663E+03  0.25500000920E-02 0.  1.
       -2    1    3    3    0  502 -0.20761288288E+03  0.85862902203E+01  0.19499140192E+04  0.19609542360E+04  0.25500000920E-02 0. -1.
</event>
<event>
 5   0  0.9855352E-06  0.2585841E+04  0.7818609E-02  0.8373026E-01
        1   -1    0    0  501    0  0.00000000000E+00  0.00000000000E+00  0.99855058391E+03  0.99855058393E+03  0.50400001928E-02 0. -1.
       -1   -1    0    0    0  501  0.00000000000E+00  0.00000000000E+00 -0.16740704194E+04  0.16740704194E+04  0.50400001928E-02 0.  1.
    10030    2    1    2    0    0  0.00000000000E+00  0.00000000000E+00 -0.67551983549E+03  0.26726210033E+04  0.25858414451E+04 0.  0.
        2    1    3    3  502    0  0.10189391243E+04 -0.64092361734E+03 -0.82542476285E+03  0.14595705058E+04  0.25500000920E-02 0.  1.
       -2    1    3    3    0  502 -0.10189391243E+04  0.64092361734E+03  0.14990492736E+03  0.12130504975E+04  0.25500000920E-02 0. -1.
</event>
<event>
 5   0  0.2528460E-05  0.2624857E+04  0.7818609E-02  0.8359806E-01
       -2   -1    0    0    0  501  0.00000000000E+00  0.00000000000E+00  0.11499323810E+04  0.11499323810E+04  0.25500000920E-02 0. -1.
        2   -1    0    0  501    0  0.00000000000E+00  0.00000000000E+00 -0.14978871375E+04  0.14978871375E+04  0.25500000920E-02 0.  1.
    10030    2    1    2    0    0  0.00000000000E+00  0.00000000000E+00 -0.34795475656E+03  0.26478195185E+04  0.26248572704E+04 0.  0.
        5    1    3    3  502    0  0.48958741107E+03 -0.19588745880E+03  0.10383594110E+04  0.11645943869E+04  0.46999998093E+01 0.  1.
       -5    1    3    3    0  502 -0.48958741107E+03  0.19588745880E+03 -0.13863141676E+04  0.14832251316E+04  0.46999998093E+01 0. -1.
</event>
<event>
 5   0  0.1034714E-05  0.2582669E+04  0.7818609E-02  0.8374112E-01
       -1   -1    0    0    0  501  0.00000000000E+00  0.00000000000E+00  0.18555366036E+04  0.18555366036E+04  0.50400001928E-02 0.  1.
        1   -1    0    0  501    0  0.00000000000E+00  0.00000000000E+00 -0.89868584558E+03  0.89868584560E+03  0.50400001928E-02 0. -1.
    10030    2    1    2    0    0  0.00000000000E+00  0.00000000000E+00  0.95685075801E+03  0.27542224492E+04  0.25826687605E+04 0.  0.
        5    1    3    3  502    0 -0.12720678044E+04 -0.14926900014E+03  0.30291937277E+03  0.13161382792E+04  0.46999998093E+01 0. -1.
       -5    1    3    3    0  502  0.12720678044E+04  0.14926900014E+03  0.65393138524E+03  0.14380841700E+04  0.46999998093E+01 0.  1.
</event>
<event>
 5   0  0.1000421E-05  0.2639432E+04  0.7818609E-02  0.8354929E-01
       -1   -1    0    0    0  501  0.00000000000E+00  0.00000000000E+00  0.84982325042E+03  0.84982325043E+03  0.50400001928E-02 0. -1.
        1   -1    0    0  501    0  0.00000000000E+00  0.00000000000E+00 -0.20494271057E+04  0.20494271057E+04  0.50400001928E-02 0.  1.
    10030    2    1    2    0    0  0.00000000000E+00  0.00000000000E+00 -0.11996038553E+04  0.28992503562E+04  0.26394323666E+04 0.  0.
        3    1    3    3  502    0 -0.11166189094E+04  0.48673403776E+03 -0.11576338494E+04  0.16804356435E+04  0.10100000352E+00 0.  1.
       -3    1    3    3    0  502  0.11166189094E+04 -0.48673403776E+03 -0.41970005929E+02  0.12188147127E+04  0.10100000352E+00 0. -1.
</event>
<event>
 5   0  0.1034714E-05  0.2433810E+04  0.7818609E-02  0.8426953E-01
       -1   -1    0    0    0  501  0.00000000000E+00  0.00000000000E+00  0.14735087137E+04  0.14735087137E+04  0.50400001928E-02 0.  1.
        1   -1    0    0  501    0  0.00000000000E+00  0.00000000000E+00 -0.10049877044E+04  0.10049877045E+04  0.50400001928E-02 0. -1.
    10030    2    1    2    0    0  0.00000000000E+00  0.00000000000E+00  0.46852100923E+03  0.24784964181E+04  0.24338102963E+04 0.  0.
        5    1    3    3  502    0 -0.70424526152E+03 -0.83290594024E+03 -0.31522250410E+03  0.11353770346E+04  0.46999998093E+01 0. -1.
       -5    1    3    3    0  502  0.70424526152E+03  0.83290594024E+03  0.78374351333E+03  0.13431193835E+04  0.46999998093E+01 0.  1.
</event>
<event>
 5   0  0.1025153E-05  0.2559341E+04  0.7818609E-02  0.8382145E-01
       -1   -1    0    0    0  501  0.00000000000E+00  0.00000000000E+00  0.16392262887E+04  0.16392262887E+04  0.50400001928E-02 0.  1.
        1   -1    0    0  501    0  0.00000000000E+00  0.00000000000E+00 -0.99898165429E+03  0.99898165431E+03  0.50400001928E-02 0. -1.
    10030    2    1    2    0    0  0.00000000000E+00  0.00000000000E+00  0.64024463441E+03  0.26382079430E+04  0.25593413134E+04 0.  0.
        1    1    3    3  502    0  0.11916886989E+04 -0.44390104624E+03  0.17293975233E+03  0.12833854651E+04  0.50400001928E-02 0. -1.
       -1    1    3    3    0  502 -0.11916886989E+04  0.44390104624E+03  0.46730488208E+03  0.13548224780E+04  0.50400001928E-02 0.  1.
</event>
<event>
 5   0  0.2662024E-05  0.2573841E+04  0.7818609E-02  0.8377141E-01
        2   -1    0    0  501    0  0.00000000000E+00  0.00000000000E+00  0.13810404146E+04  0.13810404146E+04  0.25500000920E-02 0.  1.
       -2   -1    0    0    0  501  0.00000000000E+00  0.00000000000E+00 -0.11992152401E+04  0.11992152401E+04  0.25500000920E-02 0. -1.
    10030    2    1    2    0    0  0.00000000000E+00  0.00000000000E+00  0.18182517457E+03  0.25802556547E+04  0.25738412634E+04 0.  0.
        2    1    3    3  502    0  0.78171772833E+03 -0.86034928066E+03 -0.46262398073E+03  0.12511212727E+04  0.25500000920E-02 0. -1.
       -2    1    3    3    0  502 -0.78171772833E+03  0.86034928066E+03  0.64444915530E+03  0.13291343820E+04  0.25500000920E-02 0.  1.
</event>
<event>
 5   0  0.2555801E-05  0.2397331E+04  0.7818609E-02  0.8440503E-01
       -2   -1    0    0    0  501  0.00000000000E+00  0.00000000000E+00  0.12694501861E+04  0.12694501861E+04  0.25500000920E-02 0. -1.
        2   -1    0    0  501    0  0.00000000000E+00  0.00000000000E+00 -0.11318281484E+04  0.11318281484E+04  0.25500000920E-02 0.  1.
    10030    2    1    2    0    0  0.00000000000E+00  0.00000000000E+00  0.13762203771E+03  0.24012783344E+04  0.23973313943E+04 0.  0.
        1    1    3    3  502    0  0.52848612649E+03  0.84030628410E+03 -0.60414868127E+03  0.11620705082E+04  0.50400001928E-02 0.  1.
       -1    1    3    3    0  502 -0.52848612649E+03 -0.84030628410E+03  0.74177071898E+03  0.12392078262E+04  0.50400001928E-02 0. -1.
</event>
<event>
 5   0  0.1034714E-05  0.2584718E+04  0.7818609E-02  0.8373411E-01
        1   -1    0    0  501    0  0.00000000000E+00  0.00000000000E+00  0.13501954502E+04  0.13501954502E+04  0.50400001928E-02 0. -1.
       -1   -1    0    0    0  501  0.00000000000E+00  0.00000000000E+00 -0.12369998116E+04  0.12369998116E+04  0.50400001928E-02 0.  1.
    10030    2    1    2    0    0  0.00000000000E+00  0.00000000000E+00  0.11319563863E+03  0.25871952618E+04  0.25847177932E+04 0.  0.
        5    1    3    3  502    0  0.11389224320E+04 -0.56904707579E+03 -0.16544931399E+03  0.12838825671E+04  0.46999998093E+01 0. -1.
       -5    1    3    3    0  502 -0.11389224320E+04  0.56904707579E+03  0.27864495263E+03  0.13033126947E+04  0.46999998093E+01 0.  1.
</event>
<event>
 5   0  0.9855352E-06  0.2556962E+04  0.7818609E-02  0.8382969E-01
        1   -1    0    0  501    0  0.00000000000E+00  0.00000000000E+00  0.14761816435E+04  0.14761816435E+04  0.50400001928E-02 0.  1.
       -1   -1    0    0    0  501  0.00000000000E+00  0.00000000000E+00 -0.11072574642E+04  0.11072574642E+04  0.50400001928E-02 0. -1.
    10030    2    1    2    0    0  0.00000000000E+00  0.00000000000E+00  0.36892417931E+03  0.25834391078E+04  0.25569615901E+04 0.  0.
        2    1    3    3  502    0  0.52478030409E+03  0.87204689165E+03  0.96620077654E+03  0.14033545843E+04  0.25500000920E-02 0.  1.
       -2    1    3    3    0  502 -0.52478030409E+03 -0.87204689165E+03 -0.59727659723E+03  0.11800845234E+04  0.25500000920E-02 0. -1.
</event>
<event>
 5   0  0.1000421E-05  0.2505939E+04  0.7818609E-02  0.8400873E-01
       -1   -1    0    0    0  501  0.00000000000E+00  0.00000000000E+00  0.79681265033E+03  0.79681265034E+03  0.50400001928E-02 0. -1.
        1   -1    0    0  501    0  0.00000000000E+00  0.00000000000E+00 -0.19702648974E+04  0.19702648974E+04  0.50400001928E-02 0.  1.
    10030    2    1    2    0    0  0.00000000000E+00  0.00000000000E+00 -0.11734522471E+04  0.27670775477E+04  0.25059385425E+04 0.  0.
        3    1    3    3  502    0  0.71148561699E+03  0.95107034804E+02  0.54726644963E+03  0.90263930135E+03  0.10100000352E+00 0. -1.
       -3    1    3    3    0  502 -0.71148561699E+03 -0.95107034804E+02 -0.17207186967E+04  0.18644382464E+04  0.10100000352E+00 0.  1.
</event>
<event>
 5   0  0.2662024E-05  0.2385705E+04  0.7818609E-02  0.8444875E-01
        2   -1    0    0  501    0  0.00000000000E+00  0.00000000000E+00  0.15273215734E+04  0.15273215734E+04  0.25500000920E-02 0.  1.
       -2   -1    0    0    0  501  0.00000000000E+00  0.00000000000E+00 -0.93162914717E+03  0.93162914717E+03  0.25500000920E-02 0. -1.
    10030    2    1    2    0    0  0.00000000000E+00  0.00000000000E+00  0.59569242625E+03  0.24589507206E+04  0.23857051745E+04 0.  0.
        2    1    3    3  502    0  0.68678488897E+03  0.54369562268E+03  0.11324085449E+04  0.14316520270E+04  0.25500000920E-02 0.  1.
       -2    1    3    3    0  502 -0.68678488897E+03 -0.54369562268E+03 -0.53671611865E+03  0.10272986936E+04  0.25500000920E-02 0. -1.
</event>
<event>
 5   0  0.2555801E-05  0.2638710E+04  0.7818609E-02  0.8355170E-01
        2   -1    0    0  501    0  0.00000000000E+00  0.00000000000E+00  0.21274907611E+04  0.21274907611E+04  0.25500000920E-02 0.  1.
       -2   -1    0    0    0  501  0.00000000000E+00  0.00000000000E+00 -0.81819258793E+03  0.81819258793E+03  0.25500000920E-02 0. -1.
    10030    2    1    2    0    0  0.00000000000E+00  0.00000000000E+00  0.13092981732E+04  0.29456833491E+04  0.26387096632E+04 0.  0.
        1    1    3    3  502    0 -0.63507918211E+02 -0.79538268149E+03  0.18276138069E+04  0.19942013672E+04  0.50400001928E-02 0.  1.
       -1    1    3    3    0  502  0.63507918211E+02  0.79538268149E+03 -0.51831563369E+03  0.95148198188E+03  0.50400001928E-02 0. -1.
</event>
<event>
 5   0  0.1025153E-05  0.2018823E+04  0.7818609E-02  0.8597870E-01
       -1   -1    0    0    0  501  0.00000000000E+00  0.00000000000E+00  0.58057437250E+03  0.58057437252E+03  0.50400001928E-02 0.  1.
        1   -1    0    0  501    0  0.00000000000E+00  0.00000000000E+00 -0.17550066010E+04  0.17550066010E+04  0.50400001928E-02 0. -1.
    10030    2    1    2    0    0  0.00000000000E+00  0.00000000000E+00 -0.11744322285E+04  0.23355809735E+04  0.20188232772E+04 0.  0.
        1    1    3    3  502    0 -0.59306600286E+03 -0.30389908444E+03  0.28991861597E+03  0.72672879479E+03  0.50400001928E-02 0.  1.
       -1    1    3    3    0  502  0.59306600286E+03  0.30389908444E+03 -0.14643508444E+04  0.16088521787E+04  0.50400001928E-02 0. -1.
</event>
<event>
 5   0  0.2662024E-05  0.2598487E+04  0.7818609E-02  0.8368715E-01
        2   -1    0    0  501    0  0.00000000000E+00  0.00000000000E+00  0.87071684215E+03  0.87071684215E+03  0.25500000920E-02 0. -1.
       -2   -1    0    0    0  501  0.00000000000E+00  0.00000000000E+00 -0.19386707578E+04  0.19386707578E+04  0.25500000920E-02 0.  1.
    10030    2    1    2    0    0  0.00000000000E+00  0.00000000000E+00 -0.10679539157E+04  0.28093876000E+04  0.25984866982E+04 0.  0.
        2    1    3    3  502    0 -0.12331667131E+04  0.25461161677E+03 -0.18782568002E+03  0.12731086771E+04  0.25500000920E-02 0. -1.
       -2    1    3    3    0  502  0.12331667131E+04 -0.25461161677E+03 -0.88012823567E+03  0.15362789229E+04  0.25500000920E-02 0.  1.
</event>
<event>
 5   0  0.1005492E-05  0.2604160E+04  0.7818609E-02  0.8366789E-01
        1   -1    0    0  501    0  0.00000000000E+00  0.00000000000E+00  0.87552520308E+03  0.87552520309E+03  0.50400001928E-02 0.  1.
       -1   -1    0    0    0  501  0.00000000000E+00  0.00000000000E+00 -0.19364522461E+04  0.19364522461E+04  0.50400001928E-02 0. -1.
    10030    2    1    2    0    0  0.00000000000E+00  0.00000000000E+00 -0.10609270430E+04  0.28119774492E+04  0.26041603223E+04 0.  0.
        4    1    3    3  502    0  0.11049078304E+04 -0.47447994283E+03  0.88525460578E+01  0.12025109190E+04  0.12699999809E+01 0.  1.
       -4    1    3    3    0  502 -0.11049078304E+04  0.47447994283E+03 -0.10697795890E+04  0.16094665302E+04  0.12699999809E+01 0. -1.
</event>
<event>
 5   0  0.1000421E-05  0.2634715E+04  0.7818609E-02  0.8356504E-01
        1   -1    0    0  501    0  0.00000000000E+00  0.00000000000E+00  0.17609661679E+04  0.17609661679E+04  0.50400001928E-02 0. -1.
       -1   -1    0    0    0  501  0.00000000000E+00  0.00000000000E+00 -0.98549922323E+03  0.98549922324E+03  0.50400001928E-02 0.  1.
    10030    2    1    2    0    0  0.00000000000E+00  0.00000000000E+00  0.77546694464E+03  0.27464653911E+04  0.26347150059E+04 0.  0.
        3    1    3    3  502    0  0.94508336628E+03 -0.14587077611E+03  0.13322381441E+04  0.16399144292E+04  0.10100000352E+00 0. -1.
       -3    1    3    3    0  502 -0.94508336628E+03  0.14587077611E+03 -0.55677119942E+03  0.11065509619E+04  0.10100000352E+00 0.  1.
</event>
<event>
 5   0  0.2528460E-05  0.2740295E+04  0.7818609E-02  0.8322048E-01
        2   -1    0    0  501    0  0.00000000000E+00  0.00000000000E+00  0.81330601641E+03  0.81330601641E+03  0.25500000920E-02 0. -1.
       -2   -1    0    0    0  501  0.00000000000E+00  0.00000000000E+00 -0.23082377502E+04  0.23082377502E+04  0.25500000920E-02 0.  1.
    10030    2    1    2    0    0  0.00000000000E+00  0.00000000000E+00 -0.14949317337E+04  0.31215437666E+04  0.27402946188E+04 0.  0.
        5    1    3    3  502    0 -0.62474437558E+03 -0.11500104421E+04 -0.12094124517E+04  0.17820017172E+04  0.46999998093E+01 0.  1.
       -5    1    3    3    0  502  0.62474437558E+03  0.11500104421E+04 -0.28551928208E+03  0.13395420494E+04  0.46999998093E+01 0. -1.
</event>
<event>
 5   0  0.2662024E-05  0.2560591E+04  0.7818609E-02  0.8381712E-01
        2   -1    0    0  501    0  0.00000000000E+00  0.00000000000E+00  0.17951433660E+04  0.17951433660E+04  0.25500000920E-02 0.  1.
       -2   -1    0    0    0  501  0.00000000000E+00  0.00000000000E+00 -0.91310617855E+03  0.91310617856E+03  0.25500000920E-02 0. -1.
    10030    2    1    2    0    0  0.00000000000E+00  0.00000000000E+00  0.88203718749E+03  0.27082495446E+04  0.25605909466E+04 0.  0.
        2    1    3    3  502    0  0.32553595943E+03  0.10953721744E+04 -0.16963357931E+03  0.11552443086E+04  0.25500000920E-02 0. -1.
       -2    1    3    3    0  502 -0.32553595943E+03 -0.10953721744E+04  0.10516707668E+04  0.15530052360E+04  0.25500000920E-02 0.  1.
</event>
<event>
 5   0  0.8605000E-06  0.2609413E+04  0.7818609E-02  0.8365011E-01
        3   -1    0    0  501    0  0.00000000000E+00  0.00000000000E+00  0.24603362013E+04  0.24603362034E+04  0.10100000352E+00 0.  1.
       -3   -1    0    0    0  501  0.00000000000E+00  0.00000000000E+00 -0.69188055079E+03  0.69188055816E+03  0.10100000352E+00 0. -1.
    10030    2    1    2    0    0  0.00000000000E+00  0.00000000000E+00  0.17684556505E+04  0.31522167616E+04  0.26094127929E+04 0.  0.
        4    1    3    3  502    0  0.61536314074E+03  0.80816211819E+03  0.18733718165E+04  0.21310376299E+04  0.12699999809E+01 0.  1.
       -4    1    3    3    0  502 -0.61536314074E+03 -0.80816211819E+03 -0.10491616593E+03  0.10211791317E+04  0.12699999809E+01 0. -1.
</event>
<event>
 5   0  0.1034714E-05  0.2466546E+04  0.7818609E-02  0.8415002E-01
        1   -1    0    0  501    0  0.00000000000E+00  0.00000000000E+00  0.14062830074E+04  0.14062830074E+04  0.50400001928E-02 0.  1.
       -1   -1    0    0    0  501  0.00000000000E+00  0.00000000000E+00 -0.10815474665E+04  0.10815474665E+04  0.50400001928E-02 0. -1.
    10030    2    1    2    0    0  0.00000000000E+00  0.00000000000E+00  0.32473554087E+03  0.24878304739E+04  0.24665456199E+04 0.  0.
        5    1    3    3  502    0  0.38329298351E+03  0.11533567278E+04  0.37344496973E+03  0.12714670614E+04  0.46999998093E+01 0.  1.
       -5    1    3    3    0  502 -0.38329298351E+03 -0.11533567278E+04 -0.48709428860E+02  0.12163634125E+04  0.46999998093E+01 0. -1.
</event>
<event>
 5   0  0.9855352E-06  0.2674932E+04  0.7818609E-02  0.8343185E-01
        1   -1    0    0  501    0  0.00000000000E+00  0.00000000000E+00  0.14634801315E+04  0.14634801315E+04  0.50400001928E-02 0. -1.
       -1   -1    0    0    0  501  0.00000000000E+00  0.00000000000E+00 -0.12223022770E+04  0.12223022771E+04  0.50400001928E-02 0.  1.
    10030    2    1    2    0    0  0.00000000000E+00  0.00000000000E+00  0.24117785447E+03  0.26857824086E+04  0.26749318475E+04 0.  0.
        2    1    3    3  502    0 -0.11926537667E+03 -0.11001564169E+04 -0.63362166465E+03  0.12751646112E+04  0.25500000920E-02 0.  1.
       -2    1    3    3    0  502  0.11926537667E+03  0.11001564169E+04  0.87479951913E+03  0.14106177974E+04  0.25500000920E-02 0. -1.
</event>
<event>
 5   0  0.1025153E-05  0.2615363E+04  0.7818609E-02  0.8363001E-01
        1   -1    0    0  501    0  0.00000000000E+00  0.00000000000E+00  0.14033866725E+04  0.14033866725E+04  0.50400001928E-02 0.  1.
       -1   -1    0    0    0  501  0.00000000000E+00  0.00000000000E+00 -0.12185028558E+04  0.12185028558E+04  0.50400001928E-02 0. -1.
    10030    2    1    2    0    0  0.00000000000E+00  0.00000000000E+00  0.18488381671E+03  0.26218895283E+04  0.26153628186E+04 0.  0.
        1    1    3    3  502    0  0.56713330580E+03  0.39518891793E+03 -0.10203805992E+04  0.12324735432E+04  0.50400001928E-02 0. -1.
       -1    1    3    3    0  502 -0.56713330580E+03 -0.39518891793E+03  0.12052644159E+04  0.13894159851E+04  0.50400001928E-02 0.  1.
</event>
<event>
 5   0  0.2662024E-05  0.2514398E+04  0.7818609E-02  0.8397874E-01
        2   -1    0    0  501    0  0.00000000000E+00  0.00000000000E+00  0.21867163596E+04  0.21867163596E+04  0.25500000920E-02 0. -1.
       -2   -1    0    0    0  501  0.00000000000E+00  0.00000000000E+00 -0.72279595770E+03  0.72279595770E+03  0.25500000920E-02 0.  1.
    10030    2    1    2    0    0  0.00000000000E+00  0.00000000000E+00  0.14639204019E+04  0.29095123173E+04  0.25143983339E+04 0.  0.
        2    1    3    3  502    0 -0.91279202016E+03  0.68231393925E+03  0.11768511231E+03  0.11456837999E+04  0.25500000920E-02 0.  1.
       -2    1    3    3    0  502  0.91279202016E+03 -0.68231393925E+03  0.13462352896E+04  0.17638285174E+04  0.25500000920E-02 0. -1.
</event>
<event>
 5   0  0.1025153E-05  0.2592227E+04  0.7818609E-02  0.8370846E-01
       -1   -1    0    0    0  501  0.00000000000E+00  0.00000000000E+00  0.90371300283E+03  0.90371300284E+03  0.50400001928E-02 0.  1.
        1   -1    0    0  501    0  0.00000000000E+00  0.00000000000E+00 -0.18588982181E+04  0.18588982181E+04  0.50400001928E-02 0. -1.
    10030    2    1    2    0    0  0.00000000000E+00  0.00000000000E+00 -0.95518521523E+03  0.27626112209E+04  0.25922272205E+04 0.  0.
        1    1    3    3  502    0  0.11248496160E+04 -0.50052058907E+03 -0.90931535056E+03  0.15305756844E+04  0.50400001928E-02 0. -1.
       -1    1    3    3    0  502 -0.11248496160E+04  0.50052058907E+03 -0.45869864667E+02  0.12320355365E+04  0.50400001928E-02 0.  1.
</event>
<event>
 5   0  0.2528460E-05  0.2637676E+04  0.7818609E-02  0.8355515E-01
        2   -1    0    0  501    0  0.00000000000E+00  0.00000000000E+00  0.13501570021E+04  0.13501570021E+04  0.25500000920E-02 0. -1.
       -2   -1    0    0    0  501  0.00000000000E+00  0.00000000000E+00 -0.12882456817E+04  0.12882456817E+04  0.25500000920E-02 0.  1.
    10030    2    1    2    0    0  0.00000000000E+00  0.00000000000E+00  0.61911320432E+02  0.26384026839E+04  0.26376761952E+04 0.  0.
        5    1    3    3  502    0 -0.91114174986E+02  0.36033510119E+02  0.13465029161E+04  0.13500712574E+04  0.46999998093E+01 0. -1.
       -5    1    3    3    0  502  0.91114174986E+02 -0.36033510119E+02 -0.12845915957E+04  0.12883314265E+04  0.46999998093E+01 0.  1.
</event>
<event>
 5   0  0.1000421E-05  0.1945108E+04  0.7818609E-02  0.8632723E-01
        1   -1    0    0  501    0  0.00000000000E+00  0.00000000000E+00  0.10202222579E+04  0.10202222579E+04  0.50400001928E-02 0. -1.
       -1   -1    0    0    0  501  0.00000000000E+00  0.00000000000E+00 -0.92711342553E+03  0.92711342554E+03  0.50400001928E-02 0.  1.
    10030    2    1    2    0    0  0.00000000000E+00  0.00000000000E+00  0.93108832357E+02  0.19473356834E+04  0.19451084827E+04 0.  0.
        3    1    3    3  502    0  0.14600932739E+03 -0.55090548410E+03  0.83552159479E+03  0.10113910825E+04  0.10100000352E+00 0. -1.
       -3    1    3    3    0  502 -0.14600932739E+03  0.55090548410E+03 -0.74241276243E+03  0.93594460099E+03  0.10100000352E+00 0.  1.
</event>
<event>
 5   0  0.8605000E-06  0.2605385E+04  0.7818609E-02  0.8366374E-01
       -3   -1    0    0    0  501  0.00000000000E+00  0.00000000000E+00  0.11520738836E+04  0.11520738881E+04  0.10100000352E+00 0. -1.
        3   -1    0    0  501    0  0.00000000000E+00  0.00000000000E+00 -0.14730029702E+04  0.14730029737E+04  0.10100000352E+00 0.  1.
    10030    2    1    2    0    0  0.00000000000E+00  0.00000000000E+00 -0.32092908657E+03  0.26250768617E+04  0.26053853940E+04 0.  0.
        2    1    3    3  502    0 -0.40386983682E+03 -0.11109019433E+04  0.39120845561E+03  0.12450935822E+04  0.25500000920E-02 0. -1.
       -2    1    3    3    0  502  0.40386983682E+03  0.11109019433E+04 -0.71213754218E+03  0.13799832795E+04  0.25500000920E-02 0.  1.
</event>
<event>
 5   0  0.1034714E-05  0.2630982E+04  0.7818609E-02  0.8357753E-01
        1   -1    0    0  501    0  0.00000000000E+00  0.00000000000E+00  0.12479900746E+04  0.12479900746E+04  0.50400001928E-02 0.  1.
       -1   -1    0    0    0  501  0.00000000000E+00  0.00000000000E+00 -0.13866429712E+04  0.13866429712E+04  0.50400001928E-02 0. -1.
    10030    2    1    2    0    0  0.00000000000E+00  0.00000000000E+00 -0.13865289655E+03  0.26346330458E+04  0.26309820715E+04 0.  0.
        5    1    3    3  502    0 -0.73994903805E+03 -0.96639784146E+03  0.43041036284E+03  0.12910168618E+04  0.46999998093E+01 0.  1.
       -5    1    3    3    0  502  0.73994903805E+03  0.96639784146E+03 -0.56906325939E+03  0.13436161841E+04  0.46999998093E+01 0. -1.
</event>
<event>
 5   0  0.2662024E-05  0.2571414E+04  0.7818609E-02  0.8377977E-01
       -2   -1    0    0    0  501  0.00000000000E+00  0.00000000000E+00  0.65942586068E+03  0.65942586068E+03  0.25500000920E-02 0. -1.
        2   -1    0    0  501    0  0.00000000000E+00  0.00000000000E+00 -0.25067898074E+04  0.25067898074E+04  0.25500000920E-02 0.  1.
    10030    2    1    2    0    0  0.00000000000E+00  0.00000000000E+00 -0.18473639467E+04  0.31662156681E+04  0.25714136394E+04 0.  0.
        2    1    3    3  502    0 -0.93756408473E+03  0.83992576829E+03 -0.12460423133E+04  0.17711925801E+04  0.25500000920E-02 0.  1.
       -2    1    3    3    0  502  0.93756408473E+03 -0.83992576829E+03 -0.60132163345E+03  0.13950230880E+04  0.25500000920E-02 0. -1.
</event>
<event>
 5   0  0.8605000E-06  0.2628647E+04  0.7818609E-02  0.8358535E-01
        3   -1    0    0  501    0  0.00000000000E+00  0.00000000000E+00  0.12021809759E+04  0.12021809802E+04  0.10100000352E+00 0.  1.
       -3   -1    0    0    0  501  0.00000000000E+00  0.00000000000E+00 -0.14369267106E+04  0.14369267142E+04  0.10100000352E+00 0. -1.
    10030    2    1    2    0    0  0.00000000000E+00  0.00000000000E+00 -0.23474573473E+03  0.26391076944E+04  0.26286467740E+04 0.  0.
        4    1    3    3  502    0 -0.83570365291E+03 -0.62749479538E+03 -0.91759815567E+03  0.13907330089E+04  0.12699999809E+01 0. -1.
       -4    1    3    3    0  502  0.83570365291E+03  0.62749479538E+03  0.68285242094E+03  0.12483746855E+04  0.12699999809E+01 0.  1.
</event>
<event>
 5   0  0.1025153E-05  0.2531897E+04  0.7818609E-02  0.8391709E-01
        1   -1    0    0  501    0  0.00000000000E+00  0.00000000000E+00  0.10388139735E+04  0.10388139735E+04  0.50400001928E-02 0. -1.
       -1   -1    0    0    0  501  0.00000000000E+00  0.00000000000E+00 -0.15427455382E+04  0.15427455382E+04  0.50400001928E-02 0.  1.
    10030    2    1    2    0    0  0.00000000000E+00  0.00000000000E+00 -0.50393156468E+03  0.25815595118E+04  0.25318970143E+04 0.  0.
        1    1    3    3  502    0 -0.99052905087E+03 -0.74421353554E+02 -0.10521777763E+04  0.14469845927E+04  0.50400001928E-02 0.  1.
       -1    1    3    3    0  502  0.99052905087E+03  0.74421353554E+02  0.54824621161E+03  0.11345749191E+04  0.50400001928E-02 0. -1.
</event>
<event>
 5   0  0.2662024E-05  0.2589363E+04  0.7818609E-02  0.8371823E-01
       -2   -1    0    0    0  501  0.00000000000E+00  0.00000000000E+00  0.15918765436E+04  0.15918765436E+04  0.25500000920E-02 0.  1.
        2   -1    0    0  501    0  0.00000000000E+00  0.00000000000E+00 -0.10529714514E+04  0.10529714514E+04  0.25500000920E-02 0. -1.
    10030    2    1    2    0    0  0.00000000000E+00  0.00000000000E+00  0.53890509218E+03  0.26448479950E+04  0.25893632844E+04 0.  0.
        2    1    3    3  502    0  0.28718950645E+03  0.33662515891E+02  0.15584725769E+04  0.15850702667E+04  0.25500000920E-02 0.  1.
       -2    1    3    3    0  502 -0.28718950645E+03 -0.33662515891E+02 -0.10195674847E+04  0.10597777283E+04  0.25500000920E-02 0. -1.
</event>
<event>
 5   0  0.9855352E-06  0.2556867E+04  0.7818609E-02  0.8383002E-01
       -1   -1    0    0    0  501  0.00000000000E+00  0.00000000000E+00  0.10743419462E+04  0.10743419462E+04  0.50400001928E-02 0.  1.
        1   -1    0    0  501    0  0.00000000000E+00  0.00000000000E+00 -0.15212966315E+04  0.15212966315E+04  0.50400001928E-02 0. -1.
    10030    2    1    2    0    0  0.00000000000E+00  0.00000000000E+00 -0.44695468529E+03  0.25956385777E+04  0.25568674458E+04 0.  0.
        2    1    3    3  502    0  0.83310168950E+03  0.85409863310E+03 -0.68962412354E+03  0.13780872004E+04  0.25500000920E-02 0. -1.
       -2    1    3    3    0  502 -0.83310168950E+03 -0.85409863310E+03  0.24266943825E+03  0.12175513773E+04  0.25500000920E-02 0.  1.
</event>
<event>
 5   0  0.9855352E-06  0.2534430E+04  0.7818609E-02  0.8390821E-01
        1   -1    0    0  501    0  0.00000000000E+00  0.00000000000E+00  0.22693294719E+04  0.22693294719E+04  0.50400001928E-02 0.  1.
       -1   -1    0    0    0  501  0.00000000000E+00  0.00000000000E+00 -0.70762466222E+03  0.70762466223E+03  0.50400001928E-02 0. -1.
    10030    2    1    2    0    0  0.00000000000E+00  0.00000000000E+00  0.15617048097E+04  0.29769541341E+04  0.25344297197E+04 0.  0.
        2    1    3    3  502    0 -0.11314052744E+04  0.54723053461E+03  0.97132087555E+03  0.15883964858E+04  0.25500000920E-02 0. -1.
       -2    1    3    3    0  502  0.11314052744E+04 -0.54723053461E+03  0.59038393414E+03  0.13885576483E+04  0.25500000920E-02 0.  1.
</event>
<event>
 5   0  0.1005492E-05  0.2629766E+04  0.7818609E-02  0.8358160E-01
       -1   -1    0    0    0  501  0.00000000000E+00  0.00000000000E+00  0.12637437556E+04  0.12637437556E+04  0.50400001928E-02 0.  1.
        1   -1    0    0  501    0  0.00000000000E+00  0.00000000000E+00 -0.13680911680E+04  0.13680911681E+04  0.50400001928E-02 0. -1.
    10030    2    1    2    0    0  0.00000000000E+00  0.00000000000E+00 -0.10434741246E+03  0.26318349236E+04  0.26297655186E+04 0.  0.
        4    1    3    3  502    0  0.72269705039E+03  0.10439522549E+04  0.28983740079E+03  0.13023573507E+04  0.12699999809E+01 0.  1.
       -4    1    3    3    0  502 -0.72269705039E+03 -0.10439522549E+04 -0.39418481326E+03  0.13294775730E+04  0.12699999809E+01 0. -1.
</event>
<event>
 5   0  0.1005492E-05  0.2578410E+04  0.7818609E-02  0.8375572E-01
        1   -1    0    0  501    0  0.00000000000E+00  0.00000000000E+00  0.17653679445E+04  0.17653679445E+04  0.50400001928E-02 0. -1.
       -1   -1    0    0    0  501  0.00000000000E+00  0.00000000000E+00 -0.94147520160E+03  0.94147520162E+03  0.50400001928E-02 0.  1.
    10030    2    1    2    0    0  0.00000000000E+00  0.00000000000E+00  0.82389274293E+03  0.27068431462E+04  0.25784104728E+04 0.  0.
        4    1    3    3  502    0 -0.11169923091E+04 -0.63947124988E+03  0.48947069158E+03  0.13770179624E+04  0.12699999809E+01 0.  1.
       -4    1    3    3    0  502  0.11169923091E+04  0.63947124988E+03  0.33442205135E+03  0.13298251837E+04  0.12699999809E+01 0. -1.
</event>
<event>
 5   0  0.1034714E-05  0.2615503E+04  0.7818609E-02  0.8362954E-01
        1   -1    0    0  501    0  0.00000000000E+00  0.00000000000E+00  0.13848832799E+04  0.13848832799E+04  0.50400001928E-02 0.  1.
       -1   -1    0    0    0  501  0.00000000000E+00  0.00000000000E+00 -0.12349152387E+04  0.12349152388E+04  0.50400001928E-02 0. -1.
    10030    2    1    2    0    0  0.00000000000E+00  0.00000000000E+00  0.14996804120E+03  0.26197985187E+04  0.26155026028E+04 0.  0.
        5    1    3    3  502    0  0.63407402362E+03 -0.52702746490E+03 -0.94176133233E+03  0.12516965740E+04  0.46999998093E+01 0. -1.
       -5    1    3    3    0  502 -0.63407402362E+03  0.52702746490E+03  0.10917293735E+04  0.13681019447E+04  0.46999998093E+01 0.  1.
</event>
<event>
 5   0  0.1000421E-05  0.2616923E+04  0.7818609E-02  0.8362476E-01
        1   -1    0    0  501    0  0.00000000000E+00  0.00000000000E+00  0.19713597155E+04  0.19713597155E+04  0.50400001928E-02 0. -1.
       -1   -1    0    0    0  501  0.00000000000E+00  0.00000000000E+00 -0.86847206642E+03  0.86847206643E+03  0.50400001928E-02 0.  1.
    10030    2    1    2    0    0  0.00000000000E+00  0.00000000000E+00  0.11028876490E+04  0.28398317819E+04  0.26169225023E+04 0.  0.
        3    1    3    3  502    0  0.88579833013E+03  0.76574685987E+03  0.11851962448E+04  0.16660423416E+04  0.10100000352E+00 0. -1.
       -3    1    3    3    0  502 -0.88579833013E+03 -0.76574685987E+03 -0.82308595756E+02  0.11737894403E+04  0.10100000352E+00 0.  1.
</event>
<event>
 5   0  0.2528460E-05  0.2586236E+04  0.7818609E-02  0.8372891E-01
        2   -1    0    0  501    0  0.00000000000E+00  0.00000000000E+00  0.19550110440E+04  0.19550110440E+04  0.25500000920E-02 0.  1.
       -2   -1    0    0    0  501  0.00000000000E+00  0.00000000000E+00 -0.85531722540E+03  0.85531722541E+03  0.25500000920E-02 0. -1.
    10030    2    1    2    0    0  0.00000000000E+00  0.00000000000E+00  0.10996938186E+04  0.28103282694E+04  0.25862363556E+04 0.  0.
        5    1    3    3  502    0 -0.12661325780E+04 -0.95940379459E+02  0.28403704290E+03  0.13011515643E+04  0.46999998093E+01 0. -1.
       -5    1    3    3    0  502  0.12661325780E+04  0.95940379459E+02  0.81565677570E+03  0.15091767051E+04  0.46999998093E+01 0.  1.
</event>
<event>
 5   0  0.1034714E-05  0.2564094E+04  0.7818609E-02  0.8380501E-01
       -1   -1    0    0    0  501  0.00000000000E+00  0.00000000000E+00  0.12077841868E+04  0.12077841868E+04  0.50400001928E-02 0. -1.
        1   -1    0    0  501    0  0.00000000000E+00  0.00000000000E+00 -0.13608760836E+04  0.13608760836E+04  0.50400001928E-02 0.  1.
    10030    2    1    2    0    0  0.00000000000E+00  0.00000000000E+00 -0.15309189679E+03  0.25686602705E+04  0.25640940810E+04 0.  0.
        5    1    3    3  502    0 -0.50939369318E+03 -0.61127976870E+03  0.93046934218E+03  0.12243121240E+04  0.46999998093E+01 0. -1.
       -5    1    3    3    0  502  0.50939369318E+03  0.61127976870E+03 -0.10835612390E+04  0.13443481464E+04  0.46999998093E+01 0.  1.
</event>
<event>
 5   0  0.2555801E-05  0.2655350E+04  0.7818609E-02  0.8349639E-01
        2   -1    0    0  501    0  0.00000000000E+00  0.00000000000E+00  0.14148193084E+04  0.14148193084E+04  0.25500000920E-02 0. -1.
       -2   -1    0    0    0  501  0.00000000000E+00  0.00000000000E+00 -0.12458982870E+04  0.12458982870E+04  0.25500000920E-02 0.  1.
    10030    2    1    2    0    0  0.00000000000E+00  0.00000000000E+00  0.16892102135E+03  0.26607175954E+04  0.26553500355E+04 0.  0.
        1    1    3    3  502    0 -0.68452961593E+03 -0.10281405427E+04  0.57234018063E+03  0.13613328222E+04  0.50400001928E-02 0. -1.
       -1    1    3    3    0  502  0.68452961593E+03  0.10281405427E+04 -0.40341915928E+03  0.12993847731E+04  0.50400001928E-02 0.  1.
</event>
<event>
 5   0  0.1000421E-05  0.2192478E+04  0.7818609E-02  0.8521565E-01
       -1   -1    0    0    0  501  0.00000000000E+00  0.00000000000E+00  0.92653854121E+03  0.92653854123E+03  0.50400001928E-02 0. -1.
        1   -1    0    0  501    0  0.00000000000E+00  0.00000000000E+00 -0.12970208762E+04  0.12970208763E+04  0.50400001928E-02 0.  1.
    10030    2    1    2    0    0  0.00000000000E+00  0.00000000000E+00 -0.37048233503E+03  0.22235594175E+04  0.21924778956E+04 0.  0.
        3    1    3    3  502    0 -0.85707023944E+03  0.39145134918E+03 -0.75348438403E+03  0.12064585701E+04  0.10100000352E+00 0.  1.
       -3    1    3    3    0  502  0.85707023944E+03 -0.39145134918E+03  0.38300204899E+03  0.10171008474E+04  0.10100000352E+00 0. -1.
</event>
<event>
 5   0  0.1005492E-05  0.2628552E+04  0.7818609E-02  0.8358567E-01
        1   -1    0    0  501    0  0.00000000000E+00  0.00000000000E+00  0.12772493042E+04  0.12772493042E+04  0.50400001928E-02 0. -1.
       -1   -1    0    0    0  501  0.00000000000E+00  0.00000000000E+00 -0.13523758367E+04  0.13523758367E+04  0.50400001928E-02 0.  1.
    10030    2    1    2    0    0  0.00000000000E+00  0.00000000000E+00 -0.75126532483E+02  0.26296251409E+04  0.26285517658E+04 0.  0.
        4    1    3    3  502    0 -0.37600977510E+03  0.50969148277E+03 -0.11896196969E+04  0.13477260087E+04  0.12699999809E+01 0.  1.
       -4    1    3    3    0  502  0.37600977510E+03 -0.50969148277E+03  0.11144931644E+04  0.12818991321E+04  0.12699999809E+01 0. -1.
</event>
<event>
 5   0  0.2555801E-05  0.2616797E+04  0.7818609E-02  0.8362518E-01
        2   -1    0    0  501    0  0.00000000000E+00  0.00000000000E+00  0.13840795227E+04  0.13840795227E+04  0.25500000920E-02 0. -1.
       -2   -1    0    0    0  501  0.00000000000E+00  0.00000000000E+00 -0.12368554846E+04  0.12368554846E+04  0.25500000920E-02 0.  1.
    10030    2    1    2    0    0  0.00000000000E+00  0.00000000000E+00  0.14722403803E+03  0.26209350073E+04  0.26167967814E+04 0.  0.
        1    1    3    3  502    0 -0.12361816475E+04 -0.37654717836E+03 -0.13158633664E+03  0.12989410330E+04  0.50400001928E-02 0.  1.
       -1    1    3    3    0  502  0.12361816475E+04  0.37654717836E+03  0.27881037467E+03  0.13219939743E+04  0.50400001928E-02 0. -1.
</event>
<event>
 5   0  0.2484618E-05  0.2588406E+04  0.7818609E-02  0.8372150E-01
        2   -1    0    0  501    0  0.00000000000E+00  0.00000000000E+00  0.27616911883E+04  0.27616911883E+04  0.25500000920E-02 0. -1.
       -2   -1    0    0    0  501  0.00000000000E+00  0.00000000000E+00 -0.60649862955E+03  0.60649862956E+03  0.25500000920E-02 0.  1.
    10030    2    1    2    0    0  0.00000000000E+00  0.00000000000E+00  0.21551925587E+04  0.33681898179E+04  0.25884063985E+04 0.  0.
        3    1    3    3  502    0  0.26861488769E+03 -0.48465052425E+02  0.27238106284E+04  0.27374526788E+04  0.10100000352E+00 0. -1.
       -3    1    3    3    0  502 -0.26861488769E+03  0.48465052425E+02 -0.56861806967E+03  0.63073713903E+03  0.10100000352E+00 0.  1.
</event>
<event>
 5   0  0.2555801E-05  0.2495206E+04  0.7818609E-02  0.8404695E-01
       -2   -1    0    0    0  501  0.00000000000E+00  0.00000000000E+00  0.68778965423E+03  0.68778965423E+03  0.25500000920E-02 0. -1.
        2   -1    0    0  501    0  0.00000000000E+00  0.00000000000E+00 -0.22630656196E+04  0.22630656196E+04  0.25500000920E-02 0.  1.
    10030    2    1    2    0    0  0.00000000000E+00  0.00000000000E+00 -0.15752759654E+04  0.29508552738E+04  0.24952058993E+04 0.  0.
        1    1    3    3  502    0  0.27624475500E+03  0.69990351810E+03 -0.19645202749E+04  0.21036910443E+04  0.50400001928E-02 0.  1.
       -1    1    3    3    0  502 -0.27624475500E+03 -0.69990351810E+03  0.38924430952E+03  0.84716422955E+03  0.50400001928E-02 0. -1.
</event>
<event>
 5   0  0.2484618E-05  0.2412168E+04  0.7818609E-02  0.8434962E-01
        2   -1    0    0  501    0  0.00000000000E+00  0.00000000000E+00  0.97517818507E+03  0.97517818508E+03  0.25500000920E-02 0. -1.
       -2   -1    0    0    0  501  0.00000000000E+00  0.00000000000E+00 -0.14916647195E+04  0.14916647195E+04  0.25500000920E-02 0.  1.
    10030    2    1    2    0    0  0.00000000000E+00  0.00000000000E+00 -0.51648653439E+03  0.24668429045E+04  0.24121682312E+04 0.  0.
        3    1    3    3  502    0  0.56351945217E+03 -0.22768492601E+03  0.80711984066E+03  0.10103648083E+04  0.10100000352E+00 0. -1.
       -3    1    3    3    0  502 -0.56351945217E+03  0.22768492601E+03 -0.13236063751E+04  0.14564780962E+04  0.10100000352E+00 0.  1.
</event>
<event>
 5   0  0.2662024E-05  0.2581873E+04  0.7818609E-02  0.8374385E-01
       -2   -1    0    0    0  501  0.00000000000E+00  0.00000000000E+00  0.68849967524E+03  0.68849967525E+03  0.25500000920E-02 0. -1.
        2   -1    0    0  501    0  0.00000000000E+00  0.00000000000E+00 -0.24205045771E+04  0.24205045771E+04  0.25500000920E-02 0.  1.
    10030    2    1    2    0    0  0.00000000000E+00  0.00000000000E+00 -0.17320049019E+04  0.31090042524E+04  0.25818726656E+04 0.  0.
        2    1    3    3  502    0 -0.40391435974E+03  0.78390899876E+03  0.26927580418E+03  0.92204641264E+03  0.25500000920E-02 0. -1.
       -2    1    3    3    0  502  0.40391435974E+03 -0.78390899876E+03 -0.20012807061E+04  0.21869578397E+04  0.25500000920E-02 0.  1.
</event>
<event>
 5   0  0.2555801E-05  0.2619669E+04  0.7818609E-02  0.8361551E-01
        2   -1    0    0  501    0  0.00000000000E+00  0.00000000000E+00  0.18205104277E+04  0.18205104277E+04  0.25500000920E-02 0. -1.
       -2   -1    0    0    0  501  0.00000000000E+00  0.00000000000E+00 -0.94240946297E+03  0.94240946298E+03  0.25500000920E-02 0.  1.
    10030    2    1    2    0    0  0.00000000000E+00  0.00000000000E+00  0.87810096473E+03  0.27629198907E+04  0.26196688757E+04 0.  0.
        1    1    3    3  502    0 -0.74869420828E+03  0.89897249285E+03  0.10603040789E+04  0.15789044620E+04  0.50400001928E-02 0.  1.
       -1    1    3    3    0  502  0.74869420828E+03 -0.89897249285E+03 -0.18220311421E+03  0.11840154286E+04  0.50400001928E-02 0. -1.
</event>
<event>
 5   0  0.1034714E-05  0.2561971E+04  0.7818609E-02  0.8381235E-01
       -1   -1    0    0    0  501  0.00000000000E+00  0.00000000000E+00  0.12470171291E+04  0.12470171291E+04  0.50400001928E-02 0.  1.
        1   -1    0    0  501    0  0.00000000000E+00  0.00000000000E+00 -0.13158796401E+04  0.13158796401E+04  0.50400001928E-02 0. -1.
    10030    2    1    2    0    0  0.00000000000E+00  0.00000000000E+00 -0.68862510944E+02  0.25628967692E+04  0.25619714683E+04 0.  0.
        5    1    3    3  502    0  0.11888826879E+04 -0.28743101868E+03 -0.41515211055E+03  0.12916779788E+04  0.46999998093E+01 0.  1.
       -5    1    3    3    0  502 -0.11888826879E+04  0.28743101868E+03  0.34628959961E+03  0.12712187904E+04  0.46999998093E+01 0. -1.
</event>
<event>
 5   0  0.1034714E-05  0.2595867E+04  0.7818609E-02  0.8369606E-01
       -1   -1    0    0    0  501  0.00000000000E+00  0.00000000000E+00  0.55766231149E+03  0.55766231151E+03  0.50400001928E-02 0. -1.
        1   -1    0    0  501    0  0.00000000000E+00  0.00000000000E+00 -0.30208808859E+04  0.30208808859E+04  0.50400001928E-02 0.  1.
    10030    2    1    2    0    0  0.00000000000E+00  0.00000000000E+00 -0.24632185744E+04  0.35785431974E+04  0.25958670363E+04 0.  0.
        5    1    3    3  502    0 -0.11495681788E+04  0.21826754868E+03 -0.45733100799E+03  0.12563126448E+04  0.46999998093E+01 0. -1.
       -5    1    3    3    0  502  0.11495681788E+04 -0.21826754868E+03 -0.20058875664E+04  0.23222305526E+04  0.46999998093E+01 0.  1.
</event>
<event>
 5   0  0.2662024E-05  0.2563005E+04  0.7818609E-02  0.8380877E-01
       -2   -1    0    0    0  501  0.00000000000E+00  0.00000000000E+00  0.28579799933E+04  0.28579799933E+04  0.25500000920E-02 0.  1.
        2   -1    0    0  501    0  0.00000000000E+00  0.00000000000E+00 -0.57461862378E+03  0.57461862379E+03  0.25500000920E-02 0. -1.
    10030    2    1    2    0    0  0.00000000000E+00  0.00000000000E+00  0.22833613695E+04  0.34325986171E+04  0.25630049009E+04 0.  0.
        2    1    3    3  502    0  0.59377563359E+03 -0.16894591295E+03  0.26457041111E+04  0.27167742763E+04  0.25500000920E-02 0.  1.
       -2    1    3    3    0  502 -0.59377563359E+03  0.16894591295E+03 -0.36234274159E+03  0.71582434084E+03  0.25500000920E-02 0. -1.
</event>
<event>
 5   0  0.1000421E-05  0.2602185E+04  0.7818609E-02  0.8367459E-01
        1   -1    0    0  501    0  0.00000000000E+00  0.00000000000E+00  0.13162517891E+04  0.13162517891E+04  0.50400001928E-02 0.  1.
       -1   -1    0    0    0  501  0.00000000000E+00  0.00000000000E+00 -0.12861082502E+04  0.12861082502E+04  0.50400001928E-02 0. -1.
    10030    2    1    2    0    0  0.00000000000E+00  0.00000000000E+00  0.30143538918E+02  0.26023600393E+04  0.26021854548E+04 0.  0.
        3    1    3    3  502    0 -0.23260242733E+03  0.49586372383E+03 -0.11652012741E+04  0.12875087344E+04  0.10100000352E+00 0. -1.
       -3    1    3    3    0  502  0.23260242733E+03 -0.49586372383E+03  0.11953448130E+04  0.13148513049E+04  0.10100000352E+00 0.  1.
</event>
<event>
 5   0  0.1034714E-05  0.2590879E+04  0.7818609E-02  0.8371306E-01
        1   -1    0    0  501    0  0.00000000000E+00  0.00000000000E+00  0.20140935224E+04  0.20140935224E+04  0.50400001928E-02 0.  1.
       -1   -1    0    0    0  501  0.00000000000E+00  0.00000000000E+00 -0.83321056293E+03  0.83321056294E+03  0.50400001928E-02 0. -1.
    10030    2    1    2    0    0  0.00000000000E+00  0.00000000000E+00  0.11808829594E+04  0.28473040853E+04  0.25908793855E+04 0.  0.
        5    1    3    3  502    0 -0.48175354022E+03  0.71143820921E+03 -0.47500109469E+03  0.98177335929E+03  0.46999998093E+01 0. -1.
       -5    1    3    3    0  502  0.48175354022E+03 -0.71143820921E+03  0.16558840541E+04  0.18655307260E+04  0.46999998093E+01 0.  1.
</event>
<event>
 5   0  0.8605000E-06  0.2596374E+04  0.7818609E-02  0.8369434E-01
        4   -1    0    0  501    0  0.00000000000E+00  0.00000000000E+00  0.99871457180E+03  0.99871537929E+03  0.12699999809E+01 0. -1.
       -4   -1    0    0    0  501  0.00000000000E+00  0.00000000000E+00 -0.16874562391E+04  0.16874567170E+04  0.12699999809E+01 0.  1.
    10030    2    1    2    0    0  0.00000000000E+00  0.00000000000E+00 -0.68874166733E+03  0.26861720963E+04  0.25963735183E+04 0.  0.
        2    1    3    3  502    0  0.36053847003E+02 -0.41005451381E+03 -0.16181494585E+04  0.16696862742E+04  0.25500000920E-02 0.  1.
       -2    1    3    3    0  502 -0.36053847003E+02  0.41005451381E+03  0.92940779120E+03  0.10164858221E+04  0.25500000920E-02 0. -1.
</event>
<event>
 5   0  0.2484618E-05  0.2838544E+04  0.7818609E-02  0.8291401E-01
       -2   -1    0    0    0  501  0.00000000000E+00  0.00000000000E+00  0.10047049716E+04  0.10047049716E+04  0.25500000920E-02 0. -1.
        2   -1    0    0  501    0  0.00000000000E+00  0.00000000000E+00 -0.20049000812E+04  0.20049000812E+04  0.25500000920E-02 0.  1.
    10030    2    1    2    0    0  0.00000000000E+00  0.00000000000E+00 -0.10001951096E+04  0.30096050529E+04  0.28385440488E+04 0.  0.
        3    1    3    3  502    0 -0.11202157585E+04  0.50122570760E+03 -0.12559566081E+04  0.17560004462E+04  0.10100000352E+00 0.  1.
       -3    1    3    3    0  502  0.11202157585E+04 -0.50122570760E+03  0.25576149850E+03  0.12536046066E+04  0.10100000352E+00 0. -1.
</event>
<event>
 5   0  0.1034714E-05  0.2583352E+04  0.7818609E-02  0.8373878E-01
        1   -1    0    0  501    0  0.00000000000E+00  0.00000000000E+00  0.10152726067E+04  0.10152726067E+04  0.50400001928E-02 0. -1.
       -1   -1    0    0    0  501  0.00000000000E+00  0.00000000000E+00 -0.16433286489E+04  0.16433286489E+04  0.50400001928E-02 0.  1.
    10030    2    1    2    0    0  0.00000000000E+00  0.00000000000E+00 -0.62805604224E+03  0.26586012556E+04  0.25833517461E+04 0.  0.
        5    1    3    3  502    0 -0.14810699245E+03 -0.22476955658E+03  0.98607855200E+03  0.10221692793E+04  0.46999998093E+01 0. -1.
       -5    1    3    3    0  502  0.14810699245E+03  0.22476955658E+03 -0.16141345942E+04  0.16364319763E+04  0.46999998093E+01 0.  1.
</event>
<event>
 5   0  0.2662024E-05  0.2589581E+04  0.7818609E-02  0.8371749E-01
        2   -1    0    0  501    0  0.00000000000E+00  0.00000000000E+00  0.17409966978E+04  0.17409966978E+04  0.25500000920E-02 0. -1.
       -2   -1    0    0    0  501  0.00000000000E+00  0.00000000000E+00 -0.96294425205E+03  0.96294425205E+03  0.25500000920E-02 0.  1.
    10030    2    1    2    0    0  0.00000000000E+00  0.00000000000E+00  0.77805244577E+03  0.27039409499E+04  0.25895812503E+04 0.  0.
        2    1    3    3  502    0 -0.11979042745E+04  0.45316052835E+03  0.58756425898E+03  0.14090993130E+04  0.25500000920E-02 0. -1.
       -2    1    3    3    0  502  0.11979042745E+04 -0.45316052835E+03  0.19048818678E+03  0.12948416369E+04  0.25500000920E-02 0.  1.
</event>
<event>
 5   0  0.1025153E-05  0.2531355E+04  0.7818609E-02  0.8391899E-01
        1   -1    0    0  501    0  0.00000000000E+00  0.00000000000E+00  0.13264982288E+04  0.13264982288E+04  0.50400001928E-02 0. -1.
       -1   -1    0    0    0  501  0.00000000000E+00  0.00000000000E+00 -0.12076456584E+04  0.12076456584E+04  0.50400001928E-02 0.  1.
    10030    2    1    2    0    0  0.00000000000E+00  0.00000000000E+00  0.11885257034E+03  0.25341438872E+04  0.25313552314E+04 0.  0.
        1    1    3    3  502    0 -0.11166183498E+04  0.18692933508E+03 -0.50702451337E+03  0.12405051280E+04  0.50400001928E-02 0.  1.
       -1    1    3    3    0  502  0.11166183498E+04 -0.18692933508E+03  0.62587708371E+03  0.12936387592E+04  0.50400001928E-02 0. -1.
</event>
<event>
 5   0  0.8605000E-06  0.2171593E+04  0.7818609E-02  0.8530346E-01
        3   -1    0    0  501    0  0.00000000000E+00  0.00000000000E+00  0.18456755752E+04  0.18456755779E+04  0.10100000352E+00 0. -1.
       -3   -1    0    0    0  501  0.00000000000E+00  0.00000000000E+00 -0.63876561117E+03  0.63876561916E+03  0.10100000352E+00 0.  1.
    10030    2    1    2    0    0  0.00000000000E+00  0.00000000000E+00  0.12069099640E+04  0.24844411971E+04  0.21715930559E+04 0.  0.
        5    1    3    3  502    0 -0.89998858008E+03 -0.36245810316E+03  0.11610927637E+04  0.15131139471E+04  0.46999998093E+01 0.  1.
       -5    1    3    3    0  502  0.89998858008E+03  0.36245810316E+03  0.45817200280E+02  0.97132725004E+03  0.46999998093E+01 0. -1.
</event>
<event>
 5   0  0.2484618E-05  0.2575050E+04  0.7818609E-02  0.8376726E-01
       -2   -1    0    0    0  501  0.00000000000E+00  0.00000000000E+00  0.91782204529E+03  0.91782204529E+03  0.25500000920E-02 0. -1.
        2   -1    0    0  501    0  0.00000000000E+00  0.00000000000E+00 -0.18061459660E+04  0.18061459660E+04  0.25500000920E-02 0.  1.
    10030    2    1    2    0    0  0.00000000000E+00  0.00000000000E+00 -0.88832392074E+03  0.27239680113E+04  0.25750499682E+04 0.  0.
        3    1    3    3  502    0  0.97614789036E+03 -0.78582788235E+03 -0.75676924326E+03  0.14639295961E+04  0.10100000352E+00 0.  1.
       -3    1    3    3    0  502 -0.97614789036E+03  0.78582788235E+03 -0.13155467748E+03  0.12600384152E+04  0.10100000352E+00 0. -1.
</event>
<event>
 5   0  0.9855352E-06  0.2598594E+04  0.7818609E-02  0.8368679E-01
        1   -1    0    0  501    0  0.00000000000E+00  0.00000000000E+00  0.16100304214E+04  0.16100304214E+04  0.50400001928E-02 0.  1.
       -1   -1    0    0    0  501  0.00000000000E+00  0.00000000000E+00 -0.10485342586E+04  0.10485342586E+04  0.50400001928E-02 0. -1.
    10030    2    1    2    0    0  0.00000000000E+00  0.00000000000E+00  0.56149616285E+03  0.26585646801E+04  0.25985935075E+04 0.  0.
        2    1    3    3  502    0 -0.41467258279E+02 -0.11346098558E+04  0.92708180475E+03  0.14657897977E+04  0.25500000920E-02 0.  1.
       -2    1    3    3    0  502  0.41467258279E+02  0.11346098558E+04 -0.36558564190E+03  0.11927748823E+04  0.25500000920E-02 0. -1.
</event>
<event>
 5   0  0.1000421E-05  0.2631165E+04  0.7818609E-02  0.8357692E-01
        1   -1    0    0  501    0  0.00000000000E+00  0.00000000000E+00  0.13165779182E+04  0.13165779183E+04  0.50400001928E-02 0. -1.
       -1   -1    0    0    0  501  0.00000000000E+00  0.00000000000E+00 -0.13145873808E+04  0.13145873808E+04  0.50400001928E-02 0.  1.
    10030    2    1    2    0    0  0.00000000000E+00  0.00000000000E+00  0.19905374238E+01  0.26311652991E+04  0.26311645461E+04 0.  0.
        3    1    3    3  502    0  0.16928217299E+03  0.11320013696E+04 -0.64759812692E+03  0.13150919736E+04  0.10100000352E+00 0.  1.
       -3    1    3    3    0  502 -0.16928217299E+03 -0.11320013696E+04  0.64958866435E+03  0.13160733255E+04  0.10100000352E+00 0. -1.
</event>
<event>
 5   0  0.1034714E-05  0.2613128E+04  0.7818609E-02  0.8363755E-01
        1   -1    0    0  501    0  0.00000000000E+00  0.00000000000E+00  0.22624488742E+04  0.22624488743E+04  0.50400001928E-02 0.  1.
       -1   -1    0    0    0  501  0.00000000000E+00  0.00000000000E+00 -0.75454069612E+03  0.75454069614E+03  0.50400001928E-02 0. -1.
    10030    2    1    2    0    0  0.00000000000E+00  0.00000000000E+00  0.15079081781E+04  0.30169895704E+04  0.26131282009E+04 0.  0.
        5    1    3    3  502    0 -0.11089492248E+04 -0.68857184594E+03  0.68876449719E+03  0.14759126644E+04  0.46999998093E+01 0. -1.
       -5    1    3    3    0  502  0.11089492248E+04  0.68857184594E+03  0.81914368093E+03  0.15410769060E+04  0.46999998093E+01 0.  1.
</event>
<event>
 5   0  0.9855352E-06  0.2588517E+04  0.7818609E-02  0.8372112E-01
       -1   -1    0    0    0  501  0.00000000000E+00  0.00000000000E+00  0.11335888426E+04  0.11335888426E+04  0.50400001928E-02 0. -1.
        1   -1    0    0  501    0  0.00000000000E+00  0.00000000000E+00 -0.14777007718E+04  0.14777007718E+04  0.50400001928E-02 0.  1.
    10030    2    1    2    0    0  0.00000000000E+00  0.00000000000E+00 -0.34411192923E+03  0.26112896144E+04  0.25885170331E+04 0.  0.
        2    1    3    3  502    0 -0.57830125590E+03 -0.11575886236E+04 -0.19799880886E+03  0.13090635173E+04  0.25500000920E-02 0. -1.
       -2    1    3    3    0  502  0.57830125590E+03  0.11575886236E+04 -0.14611312037E+03  0.13022260971E+04  0.25500000920E-02 0.  1.
</event>
<event>
 5   0  0.2517854E-05  0.2564359E+04  0.7818609E-02  0.8380409E-01
       -2   -1    0    0    0  501  0.00000000000E+00  0.00000000000E+00  0.10471082825E+04  0.10471082825E+04  0.25500000920E-02 0.  1.
        2   -1    0    0  501    0  0.00000000000E+00  0.00000000000E+00 -0.15700232077E+04  0.15700232077E+04  0.25500000920E-02 0. -1.
    10030    2    1    2    0    0  0.00000000000E+00  0.00000000000E+00 -0.52291492521E+03  0.26171314902E+04  0.25643590268E+04 0.  0.
        4    1    3    3  502    0 -0.67584474093E+03 -0.13650721551E+03  0.84179873722E+03  0.10881300752E+04  0.12699999809E+01 0.  1.
       -4    1    3    3    0  502  0.67584474093E+03  0.13650721551E+03 -0.13647136624E+04  0.15290014150E+04  0.12699999809E+01 0. -1.
</event>
<event>
 5   0  0.1005492E-05  0.2618846E+04  0.7818609E-02  0.8361828E-01
        1   -1    0    0  501    0  0.00000000000E+00  0.00000000000E+00  0.17407274941E+04  0.17407274941E+04  0.50400001928E-02 0.  1.
       -1   -1    0    0    0  501  0.00000000000E+00  0.00000000000E+00 -0.98498407279E+03  0.98498407280E+03  0.50400001928E-02 0. -1.
    10030    2    1    2    0    0  0.00000000000E+00  0.00000000000E+00  0.75574342135E+03  0.27257115669E+04  0.26188462015E+04 0.  0.
        4    1    3    3  502    0  0.53088917505E+03 -0.57369065359E+03 -0.71553130386E+03  0.10596937963E+04  0.12699999809E+01 0. -1.
       -4    1    3    3    0  502 -0.53088917505E+03  0.57369065359E+03  0.14712747252E+04  0.16660177707E+04  0.12699999809E+01 0.  1.
</event>
<event>
 5   0  0.1034714E-05  0.2603962E+04  0.7818609E-02  0.8366857E-01
       -1   -1    0    0    0  501  0.00000000000E+00  0.00000000000E+00  0.94049602355E+03  0.94049602357E+03  0.50400001928E-02 0.  1.
        1   -1    0    0  501    0  0.00000000000E+00  0.00000000000E+00 -0.18024047305E+04  0.18024047305E+04  0.50400001928E-02 0. -1.
    10030    2    1    2    0    0  0.00000000000E+00  0.00000000000E+00 -0.86190870692E+03  0.27429007540E+04  0.26039619674E+04 0.  0.
        5    1    3    3  502    0 -0.60765482585E+03  0.69613590568E+03 -0.13971085918E+04  0.16750474901E+04  0.46999998093E+01 0. -1.
       -5    1    3    3    0  502  0.60765482585E+03 -0.69613590568E+03  0.53519988493E+03  0.10678532640E+04  0.46999998093E+01 0.  1.
</event>
<event>
 5   0  0.9855352E-06  0.2592228E+04  0.7818609E-02  0.8370846E-01
        1   -1    0    0  501    0  0.00000000000E+00  0.00000000000E+00  0.15289355332E+04  0.15289355332E+04  0.50400001928E-02 0. -1.
       -1   -1    0    0    0  501  0.00000000000E+00  0.00000000000E+00 -0.10987458031E+04  0.10987458031E+04  0.50400001928E-02 0.  1.
    10030    2    1    2    0    0  0.00000000000E+00  0.00000000000E+00  0.43018973011E+03  0.26276813364E+04  0.25922279995E+04 0.  0.
        2    1    3    3  502    0  0.10213575346E+04 -0.29912028643E+03 -0.53479807523E+03  0.11910722651E+04  0.25500000920E-02 0.  1.
       -2    1    3    3    0  502 -0.10213575346E+04  0.29912028643E+03  0.96498780534E+03  0.14366090713E+04  0.25500000920E-02 0. -1.
</event>
<event>
 5   0  0.2555801E-05  0.2621333E+04  0.7818609E-02  0.8360991E-01
        2   -1    0    0  501    0  0.00000000000E+00  0.00000000000E+00  0.14477280830E+04  0.14477280830E+04  0.25500000920E-02 0.  1.
       -2   -1    0    0    0  501  0.00000000000E+00  0.00000000000E+00 -0.11865812948E+04  0.11865812948E+04  0.25500000920E-02 0. -1.
    10030    2    1    2    0    0  0.00000000000E+00  0.00000000000E+00  0.26114678822E+03  0.26343093778E+04  0.26213332968E+04 0.  0.
        1    1    3    3  502    0  0.62776440777E+03  0.35823578088E+03  0.12293411068E+04  0.14260787437E+04  0.50400001928E-02 0.  1.
       -1    1    3    3    0  502 -0.62776440777E+03 -0.35823578088E+03 -0.96819431863E+03  0.12082306340E+04  0.50400001928E-02 0. -1.
</event>
<event>
 5   0  0.2484618E-05  0.2594120E+04  0.7818609E-02  0.8370201E-01
       -2   -1    0    0    0  501  0.00000000000E+00  0.00000000000E+00  0.92181003839E+03  0.92181003840E+03  0.25500000920E-02 0. -1.
        2   -1    0    0  501    0  0.00000000000E+00  0.00000000000E+00 -0.18250659170E+04  0.18250659170E+04  0.25500000920E-02 0.  1.
    10030    2    1    2    0    0  0.00000000000E+00  0.00000000000E+00 -0.90325587859E+03  0.27468759554E+04  0.25941195678E+04 0.  0.
        3    1    3    3  502    0  0.15891007400E+03  0.11749555787E+04 -0.10085162718E+04  0.15565597015E+04  0.10100000352E+00 0.  1.
       -3    1    3    3    0  502 -0.15891007400E+03 -0.11749555787E+04  0.10526039323E+03  0.11903162539E+04  0.10100000352E+00 0. -1.
</event>
<event>
 5   0  0.2484618E-05  0.2625272E+04  0.7818609E-02  0.8359667E-01
       -2   -1    0    0    0  501  0.00000000000E+00  0.00000000000E+00  0.99243858556E+03  0.99243858556E+03  0.25500000920E-02 0.  1.
        2   -1    0    0  501    0  0.00000000000E+00  0.00000000000E+00 -0.17361405923E+04  0.17361405923E+04  0.25500000920E-02 0. -1.
    10030    2    1    2    0    0  0.00000000000E+00  0.00000000000E+00 -0.74370200674E+03  0.27285791779E+04  0.26252717298E+04 0.  0.
        3    1    3    3  502    0  0.80196499605E+03 -0.57056974175E+02 -0.14502796429E+04  0.16582262831E+04  0.10100000352E+00 0.  1.
       -3    1    3    3    0  502 -0.80196499605E+03  0.57056974175E+02  0.70657763616E+03  0.10703528948E+04  0.10100000352E+00 0. -1.
</event>
<event>
 5   0  0.1005492E-05  0.2608539E+04  0.7818609E-02  0.8365307E-01
       -1   -1    0    0    0  501  0.00000000000E+00  0.00000000000E+00  0.89647213061E+03  0.89647213062E+03  0.50400001928E-02 0. -1.
        1   -1    0    0  501    0  0.00000000000E+00  0.00000000000E+00 -0.18975697712E+04  0.18975697713E+04  0.50400001928E-02 0.  1.
    10030    2    1    2    0    0  0.00000000000E+00  0.00000000000E+00 -0.10010976406E+04  0.27940419019E+04  0.26085386068E+04 0.  0.
        4    1    3    3  502    0 -0.76502204743E+03  0.10563014409E+04 -0.49065414966E+03  0.13934757173E+04  0.12699999809E+01 0.  1.
       -4    1    3    3    0  502  0.76502204743E+03 -0.10563014409E+04 -0.51044349098E+03  0.14005661846E+04  0.12699999809E+01 0. -1.
</event>
<event>
 5   0  0.2555801E-05  0.2554089E+04  0.7818609E-02  0.8383966E-01
        2   -1    0    0  501    0  0.00000000000E+00  0.00000000000E+00  0.21442713380E+04  0.21442713380E+04  0.25500000920E-02 0. -1.
       -2   -1    0    0    0  501  0.00000000000E+00  0.00000000000E+00 -0.76055788509E+03  0.76055788509E+03  0.25500000920E-02 0.  1.
    10030    2    1    2    0    0  0.00000000000E+00  0.00000000000E+00  0.13837134529E+04  0.29048292231E+04  0.25540888582E+04 0.  0.
        1    1    3    3  502    0  0.12130894329E+03  0.69901247543E+03 -0.51580263390E+03  0.87714688491E+03  0.50400001928E-02 0.  1.
       -1    1    3    3    0  502 -0.12130894329E+03 -0.69901247543E+03  0.18995160869E+04  0.20276823382E+04  0.50400001928E-02 0. -1.
</event>
<event>
 5   0  0.9855352E-06  0.2621176E+04  0.7818609E-02  0.8361044E-01
       -1   -1    0    0    0  501  0.00000000000E+00  0.00000000000E+00  0.10465730642E+04  0.10465730642E+04  0.50400001928E-02 0. -1.
        1   -1    0    0  501    0  0.00000000000E+00  0.00000000000E+00 -0.16412051658E+04  0.16412051658E+04  0.50400001928E-02 0.  1.
    10030    2    1    2    0    0  0.00000000000E+00  0.00000000000E+00 -0.59463210160E+03  0.26877782299E+04  0.26211761629E+04 0.  0.
        2    1    3    3  502    0 -0.33308119610E+02  0.65611887414E+03  0.86553586263E+03  0.10866249295E+04  0.25500000920E-02 0. -1.
       -2    1    3    3    0  502  0.33308119610E+02 -0.65611887414E+03 -0.14601679642E+04  0.16011533005E+04  0.25500000920E-02 0.  1.
</event>
<event>
 5   0  0.1025153E-05  0.2658827E+04  0.7818609E-02  0.8348489E-01
        1   -1    0    0  501    0  0.00000000000E+00  0.00000000000E+00  0.11651469788E+04  0.11651469788E+04  0.50400001928E-02 0.  1.
       -1   -1    0    0    0  501  0.00000000000E+00  0.00000000000E+00 -0.15168383745E+04  0.15168383745E+04  0.50400001928E-02 0. -1.
    10030    2    1    2    0    0  0.00000000000E+00  0.00000000000E+00 -0.35169139575E+03  0.26819853533E+04  0.26588265452E+04 0.  0.
        1    1    3    3  502    0 -0.49205899154E+03 -0.48290917588E+03 -0.13224152285E+04  0.14913434748E+04  0.50400001928E-02 0. -1.
       -1    1    3    3    0  502  0.49205899154E+03  0.48290917588E+03  0.97072383277E+03  0.11906418785E+04  0.50400001928E-02 0.  1.
</event>
<event>
 5   0  0.1034714E-05  0.2557894E+04  0.7818609E-02  0.8382646E-01
       -1   -1    0    0    0  501  0.00000000000E+00  0.00000000000E+00  0.83822882953E+03  0.83822882954E+03  0.50400001928E-02 0. -1.
        1   -1    0    0  501    0  0.00000000000E+00  0.00000000000E+00 -0.19513822498E+04  0.19513822498E+04  0.50400001928E-02 0.  1.
    10030    2    1    2    0    0  0.00000000000E+00  0.00000000000E+00 -0.11131534203E+04  0.27896110793E+04  0.25578935547E+04 0.  0.
        5    1    3    3  502    0 -0.44687500247E+03  0.42499900113E+03 -0.17785045747E+04  0.18823979470E+04  0.46999998093E+01 0.  1.
       -5    1    3    3    0  502  0.44687500247E+03 -0.42499900113E+03  0.66535115441E+03  0.90721313233E+03  0.46999998093E+01 0. -1.
</event>
<event>
 5   0  0.2662024E-05  0.2633314E+04  0.7818609E-02  0.8356972E-01
        2   -1    0    0  501    0  0.00000000000E+00  0.00000000000E+00  0.19447848753E+04  0.19447848753E+04  0.25500000920E-02 0. -1.
       -2   -1    0    0    0  501  0.00000000000E+00  0.00000000000E+00 -0.89140254228E+03  0.89140254228E+03  0.25500000920E-02 0.  1.
    10030    2    1    2    0    0  0.00000000000E+00  0.00000000000E+00  0.10533823331E+04  0.28361874176E+04  0.26333143998E+04 0.  0.
        2    1    3    3  502    0  0.82871664815E+03  0.33239628823E+03 -0.51549697233E+03  0.10310168300E+04  0.25500000920E-02 0.  1.
       -2    1    3    3    0  502 -0.82871664815E+03 -0.33239628823E+03  0.15688793054E+04  0.18051705876E+04  0.25500000920E-02 0. -1.
</event>
<event>
 5   0  0.2555801E-05  0.2595414E+04  0.7818609E-02  0.8369760E-01
       -2   -1    0    0    0  501  0.00000000000E+00  0.00000000000E+00  0.15789505458E+04  0.15789505458E+04  0.25500000920E-02 0.  1.
        2   -1    0    0  501    0  0.00000000000E+00  0.00000000000E+00 -0.10665591146E+04  0.10665591146E+04  0.25500000920E-02 0. -1.
    10030    2    1    2    0    0  0.00000000000E+00  0.00000000000E+00  0.51239143118E+03  0.26455096604E+04  0.25954144918E+04 0.  0.
        1    1    3    3  502    0 -0.88478357005E+03  0.86495669247E+03  0.65496546240E+03  0.13999899295E+04  0.50400001928E-02 0.  1.
       -1    1    3    3    0  502  0.88478357005E+03 -0.86495669247E+03 -0.14257403122E+03  0.12455197309E+04  0.50400001928E-02 0. -1.
</event>
<event>
 5   0  0.2528460E-05  0.2290868E+04  0.7818609E-02  0.8481530E-01
        2   -1    0    0  501    0  0.00000000000E+00  0.00000000000E+00  0.13789041707E+04  0.13789041707E+04  0.25500000920E-02 0. -1.
       -2   -1    0    0    0  501  0.00000000000E+00  0.00000000000E+00 -0.95149425827E+03  0.95149425827E+03  0.25500000920E-02 0.  1.
    10030    2    1    2    0    0  0.00000000000E+00  0.00000000000E+00  0.42740991245E+03  0.23303984290E+04  0.22908683080E+04 0.  0.
        5    1    3    3  502    0  0.68898065499E+03  0.45112800822E+01  0.11445257831E+04  0.13359176818E+04  0.46999998093E+01 0. -1.
       -5    1    3    3    0  502 -0.68898065499E+03 -0.45112800822E+01 -0.71711587060E+03  0.99448074715E+03  0.46999998093E+01 0.  1.
</event>
<event>
 5   0  0.8605000E-06  0.2753823E+04  0.7818609E-02  0.8317749E-01
       -3   -1    0    0    0  501  0.00000000000E+00  0.00000000000E+00  0.11263518730E+04  0.11263518775E+04  0.10100000352E+00 0. -1.
        3   -1    0    0  501    0  0.00000000000E+00  0.00000000000E+00 -0.16832091637E+04  0.16832091667E+04  0.10100000352E+00 0.  1.
    10030    2    1    2    0    0  0.00000000000E+00  0.00000000000E+00 -0.55685729072E+03  0.28095610442E+04  0.27538233820E+04 0.  0.
        1    1    3    3  502    0  0.10403075339E+04 -0.62438622600E+03 -0.94259467031E+03  0.15364187700E+04  0.50400001928E-02 0.  1.
       -1    1    3    3    0  502 -0.10403075339E+04  0.62438622600E+03  0.38573737959E+03  0.12731422742E+04  0.50400001928E-02 0. -1.
</event>
<event>
 5   0  0.9855352E-06  0.2660878E+04  0.7818609E-02  0.8347812E-01
        1   -1    0    0  501    0  0.00000000000E+00  0.00000000000E+00  0.34871545977E+04  0.34871545977E+04  0.50400001928E-02 0.  1.
       -1   -1    0    0    0  501  0.00000000000E+00  0.00000000000E+00 -0.50759650449E+03  0.50759650451E+03  0.50400001928E-02 0. -1.
    10030    2    1    2    0    0  0.00000000000E+00  0.00000000000E+00  0.29795580932E+04  0.39947511022E+04  0.26608776631E+04 0.  0.
        2    1    3    3  502    0 -0.37424672651E+03 -0.20825969595E+03 -0.40127221337E+03  0.58690041957E+03  0.25500000920E-02 0. -1.
       -2    1    3    3    0  502  0.37424672651E+03  0.20825969595E+03  0.33808303066E+04  0.34078506826E+04  0.25500000920E-02 0.  1.
</event>
<event>
 5   0  0.2517854E-05  0.2587386E+04  0.7818609E-02  0.8372498E-01
        2   -1    0    0  501    0  0.00000000000E+00  0.00000000000E+00  0.22112227423E+04  0.22112227423E+04  0.25500000920E-02 0. -1.
       -2   -1    0    0    0  501  0.00000000000E+00  0.00000000000E+00 -0.75688530594E+03  0.75688530595E+03  0.25500000920E-02 0.  1.
    10030    2    1    2    0    0  0.00000000000E+00  0.00000000000E+00  0.14543374363E+04  0.29681080482E+04  0.25873863274E+04 0.  0.
        4    1    3    3  502    0  0.11830202933E+04 -0.37051225487E+03  0.30284272315E+03  0.12761393627E+04  0.12699999809E+01 0.  1.
       -4    1    3    3    0  502 -0.11830202933E+04  0.37051225487E+03  0.11514947132E+04  0.16919686855E+04  0.12699999809E+01 0. -1.
</event>
<event>
 5   0  0.2555801E-05  0.2754501E+04  0.7818609E-02  0.8317535E-01
        2   -1    0    0  501    0  0.00000000000E+00  0.00000000000E+00  0.12588958118E+04  0.12588958118E+04  0.25500000920E-02 0.  1.
       -2   -1    0    0    0  501  0.00000000000E+00  0.00000000000E+00 -0.15067323590E+04  0.15067323590E+04  0.25500000920E-02 0. -1.
    10030    2    1    2    0    0  0.00000000000E+00  0.00000000000E+00 -0.24783654724E+03  0.27656281708E+04  0.27545010845E+04 0.  0.
        1    1    3    3  502    0  0.98758148101E+03 -0.69086537233E+02 -0.10852456493E+04  0.14689616232E+04  0.50400001928E-02 0. -1.
       -1    1    3    3    0  502 -0.98758148101E+03  0.69086537233E+02  0.83740910203E+03  0.12966665475E+04  0.50400001928E-02 0.  1.
</event>
<event>
 5   0  0.1025153E-05  0.2453038E+04  0.7818609E-02  0.8419910E-01
        1   -1    0    0  501    0  0.00000000000E+00  0.00000000000E+00  0.14495964710E+04  0.14495964710E+04  0.50400001928E-02 0. -1.
       -1   -1    0    0    0  501  0.00000000000E+00  0.00000000000E+00 -0.10377705694E+04  0.10377705694E+04  0.50400001928E-02 0.  1.
    10030    2    1    2    0    0  0.00000000000E+00  0.00000000000E+00  0.41182590167E+03  0.24873670404E+04  0.24530377536E+04 0.  0.
        1    1    3    3  502    0  0.28232336285E+03 -0.11766461024E+04  0.27442001001E+01  0.12100454794E+04  0.50400001928E-02 0.  1.
       -1    1    3    3    0  502 -0.28232336285E+03  0.11766461024E+04  0.40908170157E+03  0.12773215610E+04  0.50400001928E-02 0. -1.
</event>
<event>
 5   0  0.1034714E-05  0.2614396E+04  0.7818609E-02  0.8363328E-01
        1   -1    0    0  501    0  0.00000000000E+00  0.00000000000E+00  0.21317528270E+04  0.21317528270E+04  0.50400001928E-02 0. -1.
       -1   -1    0    0    0  501  0.00000000000E+00  0.00000000000E+00 -0.80157817003E+03  0.80157817004E+03  0.50400001928E-02 0.  1.
    10030    2    1    2    0    0  0.00000000000E+00  0.00000000000E+00  0.13301746570E+04  0.29333309971E+04  0.26143959379E+04 0.  0.
        5    1    3    3  502    0  0.10071270325E+04 -0.74268833481E+02  0.15963566164E+04  0.18889672459E+04  0.46999998093E+01 0. -1.
       -5    1    3    3    0  502 -0.10071270325E+04  0.74268833481E+02 -0.26618195940E+03  0.10443637512E+04  0.46999998093E+01 0.  1.
</event>
<event>
 5   0  0.2528460E-05  0.2571154E+04  0.7818609E-02  0.8378066E-01
       -2   -1    0    0    0  501  0.00000000000E+00  0.00000000000E+00  0.97056115373E+03  0.97056115374E+03  0.25500000920E-02 0.  1.
        2   -1    0    0  501    0  0.00000000000E+00  0.00000000000E+00 -0.17028371935E+04  0.17028371935E+04  0.25500000920E-02 0. -1.
    10030    2    1    2    0    0  0.00000000000E+00  0.00000000000E+00 -0.73227603975E+03  0.26733983472E+04  0.25711535397E+04 0.  0.
        5    1    3    3  502    0  0.55616655149E+03  0.32264800884E+02  0.83852124820E+03  0.10067284758E+04  0.46999998093E+01 0.  1.
       -5    1    3    3    0  502 -0.55616655149E+03 -0.32264800884E+02 -0.15707972879E+04  0.16666698714E+04  0.46999998093E+01 0. -1.
</event>
<event>
 5   0  0.2528460E-05  0.2619817E+04  0.7818609E-02  0.8361501E-01
        2   -1    0    0  501    0  0.00000000000E+00  0.00000000000E+00  0.14110836048E+04  0.14110836048E+04  0.25500000920E-02 0.  1.
       -2   -1    0    0    0  501  0.00000000000E+00  0.00000000000E+00 -0.12159880749E+04  0.12159880749E+04  0.25500000920E-02 0. -1.
    10030    2    1    2    0    0  0.00000000000E+00  0.00000000000E+00  0.19509552987E+03  0.26270716797E+04  0.26198174258E+04 0.  0.
        5    1    3    3  502    0 -0.24262056823E+02  0.84445569811E+03 -0.90629595693E+03  0.12389868946E+04  0.46999998093E+01 0. -1.
       -5    1    3    3    0  502  0.24262056823E+02 -0.84445569811E+03  0.11013914868E+04  0.13880847851E+04  0.46999998093E+01 0.  1.
</event>
<event>
 5   0  0.2528460E-05  0.2645710E+04  0.7818609E-02  0.8352838E-01
       -2   -1    0    0    0  501  0.00000000000E+00  0.00000000000E+00  0.77726741248E+03  0.77726741248E+03  0.25500000920E-02 0. -1.
        2   -1    0    0  501    0  0.00000000000E+00  0.00000000000E+00 -0.22514075716E+04  0.22514075716E+04  0.25500000920E-02 0.  1.
    10030    2    1    2    0    0  0.00000000000E+00  0.00000000000E+00 -0.14741401591E+04  0.30286749841E+04  0.26457102923E+04 0.  0.
        5    1    3    3  502    0 -0.50607081202E+03 -0.46997571683E+03  0.55448861350E+03  0.88570003596E+03  0.46999998093E+01 0. -1.
       -5    1    3    3    0  502  0.50607081202E+03  0.46997571683E+03 -0.20286287726E+04  0.21429749482E+04  0.46999998093E+01 0.  1.
</event>
<event>
 5   0  0.2517854E-05  0.1934390E+04  0.7818609E-02  0.8637925E-01
        2   -1    0    0  501    0  0.00000000000E+00  0.00000000000E+00  0.14366613687E+04  0.14366613687E+04  0.25500000920E-02 0. -1.
       -2   -1    0    0    0  501  0.00000000000E+00  0.00000000000E+00 -0.65113899361E+03  0.65113899361E+03  0.25500000920E-02 0.  1.
    10030    2    1    2    0    0  0.00000000000E+00  0.00000000000E+00  0.78552237510E+03  0.20878003623E+04  0.19343900721E+04 0.  0.
        4    1    3    3  502    0 -0.45666849602E+03  0.76570243688E+03 -0.11969203650E+02  0.89162279683E+03  0.12699999809E+01 0.  1.
       -4    1    3    3    0  502  0.45666849602E+03 -0.76570243688E+03  0.79749157875E+03  0.11961775655E+04  0.12699999809E+01 0. -1.
</event>
<event>
 5   0  0.2517854E-05  0.2530635E+04  0.7818609E-02  0.8392152E-01
       -2   -1    0    0    0  501  0.00000000000E+00  0.00000000000E+00  0.68541904448E+03  0.68541904448E+03  0.25500000920E-02 0. -1.
        2   -1    0    0  501    0  0.00000000000E+00  0.00000000000E+00 -0.23358380099E+04  0.23358380099E+04  0.25500000920E-02 0.  1.
    10030    2    1    2    0    0  0.00000000000E+00  0.00000000000E+00 -0.16504189654E+04  0.30212570543E+04  0.25306345898E+04 0.  0.
        4    1    3    3  502    0 -0.15637774997E+03 -0.12418164772E+04 -0.10468461360E+04  0.16317017525E+04  0.12699999809E+01 0.  1.
       -4    1    3    3    0  502  0.15637774997E+03  0.12418164772E+04 -0.60357282938E+03  0.13895553019E+04  0.12699999809E+01 0. -1.
</event>
<event>
 5   0  0.1034714E-05  0.2165341E+04  0.7818609E-02  0.8532994E-01
       -1   -1    0    0    0  501  0.00000000000E+00  0.00000000000E+00  0.12203627793E+04  0.12203627793E+04  0.50400001928E-02 0. -1.
        1   -1    0    0  501    0  0.00000000000E+00  0.00000000000E+00 -0.96051367915E+03  0.96051367916E+03  0.50400001928E-02 0.  1.
    10030    2    1    2    0    0  0.00000000000E+00  0.00000000000E+00  0.25984910013E+03  0.21808764585E+04  0.21653407520E+04 0.  0.
        5    1    3    3  502    0  0.18052846082E+03 -0.68888419032E+03  0.95125135542E+03  0.11882984406E+04  0.46999998093E+01 0. -1.
       -5    1    3    3    0  502 -0.18052846082E+03  0.68888419032E+03 -0.69140225529E+03  0.99257801781E+03  0.46999998093E+01 0.  1.
</event>
<event>
 5   0  0.2484618E-05  0.2046043E+04  0.7818609E-02  0.8585392E-01
       -2   -1    0    0    0  501  0.00000000000E+00  0.00000000000E+00  0.14969479513E+04  0.14969479513E+04  0.25500000920E-02 0.  1.
        2   -1    0    0  501    0  0.00000000000E+00  0.00000000000E+00 -0.69913785705E+03  0.69913785705E+03  0.25500000920E-02 0. -1.
    10030    2    1    2    0    0  0.00000000000E+00  0.00000000000E+00  0.79781009421E+03  0.21960858083E+04  0.20460429935E+04 0.  0.
        3    1    3    3  502    0  0.97078349967E+03 -0.32519373153E+02  0.54275066081E+02  0.97284320723E+03  0.10100000352E+00 0.  1.
       -3    1    3    3    0  502 -0.97078349967E+03  0.32519373153E+02  0.74353502813E+03  0.12232426011E+04  0.10100000352E+00 0. -1.
</event>
<event>
 5   0  0.2517854E-05  0.2426620E+04  0.7818609E-02  0.8429604E-01
       -2   -1    0    0    0  501  0.00000000000E+00  0.00000000000E+00  0.13166152071E+04  0.13166152071E+04  0.25500000920E-02 0. -1.
        2   -1    0    0  501    0  0.00000000000E+00  0.00000000000E+00 -0.11181107849E+04  0.11181107849E+04  0.25500000920E-02 0.  1.
    10030    2    1    2    0    0  0.00000000000E+00  0.00000000000E+00  0.19850442224E+03  0.24347259920E+04  0.24266204174E+04 0.  0.
        4    1    3    3  502    0  0.10025958213E+03 -0.25739598892E+03  0.12846448689E+04  0.13140086495E+04  0.12699999809E+01 0. -1.
       -4    1    3    3    0  502 -0.10025958213E+03  0.25739598892E+03 -0.10861404467E+04  0.11207173425E+04  0.12699999809E+01 0.  1.
</event>
<event>
 5   0  0.1000421E-05  0.2576560E+04  0.7818609E-02  0.8376207E-01
       -1   -1    0    0    0  501  0.00000000000E+00  0.00000000000E+00  0.16327452709E+04  0.16327452709E+04  0.50400001928E-02 0. -1.
        1   -1    0    0  501    0  0.00000000000E+00  0.00000000000E+00 -0.10164877476E+04  0.10164877477E+04  0.50400001928E-02 0.  1.
    10030    2    1    2    0    0  0.00000000000E+00  0.00000000000E+00  0.61625752321E+03  0.26492330185E+04  0.25765601587E+04 0.  0.
        3    1    3    3  502    0 -0.10943771263E+04  0.13315103879E+03  0.99346838049E+03  0.14840383846E+04  0.10100000352E+00 0. -1.
       -3    1    3    3    0  502  0.10943771263E+04 -0.13315103879E+03 -0.37721085728E+03  0.11651946339E+04  0.10100000352E+00 0.  1.
</event>
<event>
 5   0  0.2528460E-05  0.2571164E+04  0.7818609E-02  0.8378063E-01
        2   -1    0    0  501    0  0.00000000000E+00  0.00000000000E+00  0.11375925941E+04  0.11375925941E+04  0.25500000920E-02 0.  1.
       -2   -1    0    0    0  501  0.00000000000E+00  0.00000000000E+00 -0.14528234322E+04  0.14528234322E+04  0.25500000920E-02 0. -1.
    10030    2    1    2    0    0  0.00000000000E+00  0.00000000000E+00 -0.31523083815E+03  0.25904160263E+04  0.25711640764E+04 0.  0.
        5    1    3    3  502    0  0.82491437858E+03 -0.65622368892E+03 -0.89905091046E+03  0.13854341888E+04  0.46999998093E+01 0. -1.
       -5    1    3    3    0  502 -0.82491437858E+03  0.65622368892E+03  0.58382007230E+03  0.12049818375E+04  0.46999998093E+01 0.  1.
</event>
<event>
 5   0  0.2662024E-05  0.2578796E+04  0.7818609E-02  0.8375439E-01
       -2   -1    0    0    0  501  0.00000000000E+00  0.00000000000E+00  0.92689329408E+03  0.92689329408E+03  0.25500000920E-02 0.  1.
        2   -1    0    0  501    0  0.00000000000E+00  0.00000000000E+00 -0.17936775335E+04  0.17936775335E+04  0.25500000920E-02 0. -1.
    10030    2    1    2    0    0  0.00000000000E+00  0.00000000000E+00 -0.86678423945E+03  0.27205708276E+04  0.25787963685E+04 0.  0.
        2    1    3    3  502    0 -0.63775557503E+03  0.68245594034E+03  0.50433312068E+03  0.10615225766E+04  0.25500000920E-02 0.  1.
       -2    1    3    3    0  502  0.63775557503E+03 -0.68245594034E+03 -0.13711173601E+04  0.16590482510E+04  0.25500000920E-02 0. -1.
</event>
<event>
 5   0  0.1025153E-05  0.2209784E+04  0.7818609E-02  0.8514367E-01
        1   -1    0    0  501    0  0.00000000000E+00  0.00000000000E+00  0.12377917357E+04  0.12377917357E+04  0.50400001928E-02 0. -1.
       -1   -1    0    0    0  501  0.00000000000E+00  0.00000000000E+00 -0.98626109908E+03  0.98626109909E+03  0.50400001928E-02 0.  1.
    10030    2    1    2    0    0  0.00000000000E+00  0.00000000000E+00  0.25153063665E+03  0.22240528348E+04  0.22097835530E+04 0.  0.
        1    1    3    3  502    0 -0.18645238553E+01 -0.92165295184E+03  0.73907550187E+03  0.11813891135E+04  0.50400001928E-02 0. -1.
       -1    1    3    3    0  502  0.18645238553E+01  0.92165295184E+03 -0.48754486523E+03  0.10426637213E+04  0.50400001928E-02 0.  1.
</event>
<event>
 5   0  0.2528460E-05  0.2603803E+04  0.7818609E-02  0.8366910E-01
        2   -1    0    0  501    0  0.00000000000E+00  0.00000000000E+00  0.93270073440E+03  0.93270073440E+03  0.25500000920E-02 0.  1.
       -2   -1    0    0    0  501  0.00000000000E+00  0.00000000000E+00 -0.18172474653E+04  0.18172474653E+04  0.25500000920E-02 0. -1.
    10030    2    1    2    0    0  0.00000000000E+00  0.00000000000E+00 -0.88454673089E+03  0.27499481997E+04  0.26038034069E+04 0.  0.
        5    1    3    3  502    0  0.60518147678E+03  0.11293396746E+04 -0.68603808934E+03  0.14533833185E+04  0.46999998093E+01 0. -1.
       -5    1    3    3    0  502 -0.60518147678E+03 -0.11293396746E+04 -0.19850864155E+03  0.12965648812E+04  0.46999998093E+01 0.  1.
</event>
<event>
 5   0  0.8605000E-06  0.2609899E+04  0.7818609E-02  0.8364847E-01
        4   -1    0    0  501    0  0.00000000000E+00  0.00000000000E+00  0.12394917252E+04  0.12394923758E+04  0.12699999809E+01 0.  1.
       -4   -1    0    0    0  501  0.00000000000E+00  0.00000000000E+00 -0.13738627193E+04  0.13738633063E+04  0.12699999809E+01 0. -1.
    10030    2    1    2    0    0  0.00000000000E+00  0.00000000000E+00 -0.13437099416E+03  0.26133556821E+04  0.26098989170E+04 0.  0.
        2    1    3    3  502    0 -0.27706740092E+03  0.58756100679E+03 -0.12004525048E+04  0.13649470677E+04  0.25500000920E-02 0. -1.
       -2    1    3    3    0  502  0.27706740092E+03 -0.58756100679E+03  0.10660815106E+04  0.12484086144E+04  0.25500000920E-02 0.  1.
</event>
<event>
 5   0  0.2484618E-05  0.2595078E+04  0.7818609E-02  0.8369875E-01
       -2   -1    0    0    0  501  0.00000000000E+00  0.00000000000E+00  0.11765536903E+04  0.11765536903E+04  0.25500000920E-02 0.  1.
        2   -1    0    0  501    0  0.00000000000E+00  0.00000000000E+00 -0.14309650296E+04  0.14309650296E+04  0.25500000920E-02 0. -1.
    10030    2    1    2    0    0  0.00000000000E+00  0.00000000000E+00 -0.25441133925E+03  0.26075187199E+04  0.25950777917E+04 0.  0.
        3    1    3    3  502    0  0.79926891700E+03  0.69323205726E+03  0.62753157928E+03  0.12301208803E+04  0.10100000352E+00 0.  1.
       -3    1    3    3    0  502 -0.79926891700E+03 -0.69323205726E+03 -0.88194291853E+03  0.13773978396E+04  0.10100000352E+00 0. -1.
</event>
<event>
 5   0  0.9855352E-06  0.2632022E+04  0.7818609E-02  0.8357405E-01
        1   -1    0    0  501    0  0.00000000000E+00  0.00000000000E+00  0.20619277434E+04  0.20619277434E+04  0.50400001928E-02 0. -1.
       -1   -1    0    0    0  501  0.00000000000E+00  0.00000000000E+00 -0.83993458023E+03  0.83993458025E+03  0.50400001928E-02 0.  1.
    10030    2    1    2    0    0  0.00000000000E+00  0.00000000000E+00  0.12219931631E+04  0.29018623236E+04  0.26320215908E+04 0.  0.
        2    1    3    3  502    0 -0.49886944554E+03 -0.98054677306E+03 -0.18522121793E+03  0.11156386500E+04  0.25500000920E-02 0.  1.
       -2    1    3    3    0  502  0.49886944554E+03  0.98054677306E+03  0.14072143811E+04  0.17862236736E+04  0.25500000920E-02 0. -1.
</event>
<event>
 5   0  0.1034714E-05  0.2689268E+04  0.7818609E-02  0.8338495E-01
       -1   -1    0    0    0  501  0.00000000000E+00  0.00000000000E+00  0.93172052915E+03  0.93172052917E+03  0.50400001928E-02 0. -1.
        1   -1    0    0  501    0  0.00000000000E+00  0.00000000000E+00 -0.19405399256E+04  0.19405399256E+04  0.50400001928E-02 0.  1.
    10030    2    1    2    0    0  0.00000000000E+00  0.00000000000E+00 -0.10088193964E+04  0.28722604548E+04  0.26892682174E+04 0.  0.
        5    1    3    3  502    0 -0.10795177953E+04 -0.41679287544E+03  0.22698214123E+03  0.11792446539E+04  0.46999998093E+01 0. -1.
       -5    1    3    3    0  502  0.10795177953E+04  0.41679287544E+03 -0.12358015377E+04  0.16930158008E+04  0.46999998093E+01 0.  1.
</event>
<event>
 5   0  0.2662024E-05  0.2586339E+04  0.7818609E-02  0.8372856E-01
        2   -1    0    0  501    0  0.00000000000E+00  0.00000000000E+00  0.13558418941E+04  0.13558418941E+04  0.25500000920E-02 0.  1.
       -2   -1    0    0    0  501  0.00000000000E+00  0.00000000000E+00 -0.12333937066E+04  0.12333937066E+04  0.25500000920E-02 0. -1.
    10030    2    1    2    0    0  0.00000000000E+00  0.00000000000E+00  0.12244818751E+03  0.25892356008E+04  0.25863386162E+04 0.  0.
        2    1    3    3  502    0 -0.12258794696E+04  0.27918031312E+03  0.36415969452E+03  0.13089440035E+04  0.25500000920E-02 0.  1.
       -2    1    3    3    0  502  0.12258794696E+04 -0.27918031312E+03 -0.24171150701E+03  0.12802915972E+04  0.25500000920E-02 0. -1.
</event>
<event>
 5   0  0.2555801E-05  0.2719491E+04  0.7818609E-02  0.8328709E-01
       -2   -1    0    0    0  501  0.00000000000E+00  0.00000000000E+00  0.26183302241E+04  0.26183302241E+04  0.25500000920E-02 0. -1.
        2   -1    0    0  501    0  0.00000000000E+00  0.00000000000E+00 -0.70613985286E+03  0.70613985287E+03  0.25500000920E-02 0.  1.
    10030    2    1    2    0    0  0.00000000000E+00  0.00000000000E+00  0.19121903713E+04  0.33244700770E+04  0.27194906282E+04 0.  0.
        1    1    3    3  502    0  0.11838638854E+04 -0.83835246166E+02  0.14488848293E+03  0.11956398789E+04  0.50400001928E-02 0. -1.
       -1    1    3    3    0  502 -0.11838638854E+04  0.83835246166E+02  0.17673018883E+04  0.21288301980E+04  0.50400001928E-02 0.  1.
</event>
<event>
 5   0  0.9855352E-06  0.2610823E+04  0.7818609E-02  0.8364534E-01
        1   -1    0    0  501    0  0.00000000000E+00  0.00000000000E+00  0.21905600422E+04  0.21905600422E+04  0.50400001928E-02 0. -1.
       -1   -1    0    0    0  501  0.00000000000E+00  0.00000000000E+00 -0.77792872698E+03  0.77792872700E+03  0.50400001928E-02 0.  1.
    10030    2    1    2    0    0  0.00000000000E+00  0.00000000000E+00  0.14126313152E+04  0.29684887692E+04  0.26108233069E+04 0.  0.
        2    1    3    3  502    0 -0.11222047651E+04 -0.37783117044E+02  0.14633590063E+04  0.18445028273E+04  0.25500000920E-02 0.  1.
       -2    1    3    3    0  502  0.11222047651E+04  0.37783117044E+02 -0.50727691079E+02  0.11239859418E+04  0.25500000920E-02 0. -1.
</event>
<event>
 5   0  0.1000421E-05  0.2587495E+04  0.7818609E-02  0.8372461E-01
       -1   -1    0    0    0  501  0.00000000000E+00  0.00000000000E+00  0.10971254810E+04  0.10971254810E+04  0.50400001928E-02 0.  1.
        1   -1    0    0  501    0  0.00000000000E+00  0.00000000000E+00 -0.15256072233E+04  0.15256072233E+04  0.50400001928E-02 0. -1.
    10030    2    1    2    0    0  0.00000000000E+00  0.00000000000E+00 -0.42848174223E+03  0.26227327043E+04  0.25874949729E+04 0.  0.
        3    1    3    3  502    0  0.46876165423E+03 -0.18159285645E+02  0.10078801036E+04  0.11117056991E+04  0.10100000352E+00 0.  1.
       -3    1    3    3    0  502 -0.46876165423E+03  0.18159285645E+02 -0.14363618458E+04  0.15110270052E+04  0.10100000352E+00 0. -1.
</event>
<event>
 5   0  0.2662024E-05  0.2547131E+04  0.7818609E-02  0.8386385E-01
        2   -1    0    0  501    0  0.00000000000E+00  0.00000000000E+00  0.12579866315E+04  0.12579866315E+04  0.25500000920E-02 0. -1.
       -2   -1    0    0    0  501  0.00000000000E+00  0.00000000000E+00 -0.12893371180E+04  0.12893371180E+04  0.25500000920E-02 0.  1.
    10030    2    1    2    0    0  0.00000000000E+00  0.00000000000E+00 -0.31350486470E+02  0.25473237495E+04  0.25471308235E+04 0.  0.
        2    1    3    3  502    0 -0.17319195876E+03  0.18732051376E+03  0.12321710142E+04  0.12583043501E+04  0.25500000920E-02 0. -1.
       -2    1    3    3    0  502  0.17319195876E+03 -0.18732051376E+03 -0.12635215006E+04  0.12890193994E+04  0.25500000920E-02 0.  1.
</event>
<event>
 5   0  0.1025153E-05  0.2731886E+04  0.7818609E-02  0.8324732E-01
        1   -1    0    0  501    0  0.00000000000E+00  0.00000000000E+00  0.19647815937E+04  0.19647815937E+04  0.50400001928E-02 0. -1.
       -1   -1    0    0    0  501  0.00000000000E+00  0.00000000000E+00 -0.94962257555E+03  0.94962257556E+03  0.50400001928E-02 0.  1.
    10030    2    1    2    0    0  0.00000000000E+00  0.00000000000E+00  0.10151590182E+04  0.29144041693E+04  0.27318864965E+04 0.  0.
        1    1    3    3  502    0  0.64503275452E+02  0.10535769193E+04 -0.41729993000E+03  0.11350437124E+04  0.50400001928E-02 0.  1.
       -1    1    3    3    0  502 -0.64503275452E+02 -0.10535769193E+04  0.14324589482E+04  0.17793604569E+04  0.50400001928E-02 0. -1.
</event>
<event>
 5   0  0.1025153E-05  0.2589493E+04  0.7818609E-02  0.8371779E-01
        1   -1    0    0  501    0  0.00000000000E+00  0.00000000000E+00  0.18945772969E+04  0.18945772969E+04  0.50400001928E-02 0. -1.
       -1   -1    0    0    0  501  0.00000000000E+00  0.00000000000E+00 -0.88482465919E+03  0.88482465921E+03  0.50400001928E-02 0.  1.
    10030    2    1    2    0    0  0.00000000000E+00  0.00000000000E+00  0.10097526377E+04  0.27794019561E+04  0.25894931636E+04 0.  0.
        1    1    3    3  502    0  0.34325977464E+03  0.24916582837E+03 -0.80813609234E+03  0.91268550261E+03  0.50400001928E-02 0.  1.
       -1    1    3    3    0  502 -0.34325977464E+03 -0.24916582837E+03  0.18178887301E+04  0.18667164535E+04  0.50400001928E-02 0. -1.
</event>
<event>
 5   0  0.9855352E-06  0.2609624E+04  0.7818609E-02  0.8364939E-01
        1   -1    0    0  501    0  0.00000000000E+00  0.00000000000E+00  0.15132140707E+04  0.15132140707E+04  0.50400001928E-02 0. -1.
       -1   -1    0    0    0  501  0.00000000000E+00  0.00000000000E+00 -0.11251113501E+04  0.11251113501E+04  0.50400001928E-02 0.  1.
    10030    2    1    2    0    0  0.00000000000E+00  0.00000000000E+00  0.38810272063E+03  0.26383254209E+04  0.26096239776E+04 0.  0.
        2    1    3    3  502    0 -0.19982669898E+03  0.10432389270E+04 -0.57208003270E+03  0.12064633157E+04  0.25500000920E-02 0.  1.
       -2    1    3    3    0  502  0.19982669898E+03 -0.10432389270E+04  0.96018275333E+03  0.14318621051E+04  0.25500000920E-02 0. -1.
</event>
<event>
 5   0  0.2517854E-05  0.2598257E+04  0.7818609E-02  0.8368794E-01
        2   -1    0    0  501    0  0.00000000000E+00  0.00000000000E+00  0.99278756145E+03  0.99278756145E+03  0.25500000920E-02 0.  1.
       -2   -1    0    0    0  501  0.00000000000E+00  0.00000000000E+00 -0.16999959184E+04  0.16999959184E+04  0.25500000920E-02 0. -1.
    10030    2    1    2    0    0  0.00000000000E+00  0.00000000000E+00 -0.70720835698E+03  0.26927834799E+04  0.25982569560E+04 0.  0.
        4    1    3    3  502    0  0.12582507016E+03  0.12555360302E+04 -0.33279497809E+02  0.12622645560E+04  0.12699999809E+01 0.  1.
       -4    1    3    3    0  502 -0.12582507016E+03 -0.12555360302E+04 -0.67392885917E+03  0.14305189239E+04  0.12699999809E+01 0. -1.
</event>
<event>
 5   0  0.8605000E-06  0.2559552E+04  0.7818609E-02  0.8382072E-01
        4   -1    0    0  501    0  0.00000000000E+00  0.00000000000E+00  0.15155567274E+04  0.15155572596E+04  0.12699999809E+01 0. -1.
       -4   -1    0    0    0  501  0.00000000000E+00  0.00000000000E+00 -0.10806750414E+04  0.10806757876E+04  0.12699999809E+01 0.  1.
    10030    2    1    2    0    0  0.00000000000E+00  0.00000000000E+00  0.43488168608E+03  0.25962330472E+04  0.25595515143E+04 0.  0.
        1    1    3    3  502    0  0.48353285941E+03 -0.11157077460E+04 -0.18729916626E+03  0.12303205998E+04  0.50400001928E-02 0.  1.
       -1    1    3    3    0  502 -0.48353285941E+03  0.11157077460E+04  0.62218085234E+03  0.13659124473E+04  0.50400001928E-02 0. -1.
</event>
<event>
 5   0  0.2517854E-05  0.2365940E+04  0.7818609E-02  0.8452366E-01
       -2   -1    0    0    0  501  0.00000000000E+00  0.00000000000E+00  0.11305328191E+04  0.11305328191E+04  0.25500000920E-02 0.  1.
        2   -1    0    0  501    0  0.00000000000E+00  0.00000000000E+00 -0.12378397863E+04  0.12378397863E+04  0.25500000920E-02 0. -1.
    10030    2    1    2    0    0  0.00000000000E+00  0.00000000000E+00 -0.10730696717E+03  0.23683726054E+04  0.23659404077E+04 0.  0.
        4    1    3    3  502    0 -0.78333950459E+03 -0.14681725670E+03 -0.92876084716E+03  0.12238359410E+04  0.12699999809E+01 0. -1.
       -4    1    3    3    0  502  0.78333950459E+03  0.14681725670E+03  0.82145387999E+03  0.11445366644E+04  0.12699999809E+01 0.  1.
</event>
<event>
 5   0  0.2555801E-05  0.2627222E+04  0.7818609E-02  0.8359013E-01
       -2   -1    0    0    0  501  0.00000000000E+00  0.00000000000E+00  0.10890769418E+04  0.10890769418E+04  0.25500000920E-02 0. -1.
        2   -1    0    0  501    0  0.00000000000E+00  0.00000000000E+00 -0.15844374747E+04  0.15844374747E+04  0.25500000920E-02 0.  1.
    10030    2    1    2    0    0  0.00000000000E+00  0.00000000000E+00 -0.49536053288E+03  0.26735144165E+04  0.26272223503E+04 0.  0.
        1    1    3    3  502    0  0.12191246930E+04  0.39153717905E+03  0.50758318804E+02  0.12814611920E+04  0.50400001928E-02 0.  1.
       -1    1    3    3    0  502 -0.12191246930E+04 -0.39153717905E+03 -0.54611885168E+03  0.13920532245E+04  0.50400001928E-02 0. -1.
</event>
<event>
 5   0  0.2528460E-05  0.2614393E+04  0.7818609E-02  0.8363329E-01
        2   -1    0    0  501    0  0.00000000000E+00  0.00000000000E+00  0.27406720761E+04  0.27406720761E+04  0.25500000920E-02 0.  1.
       -2   -1    0    0    0  501  0.00000000000E+00  0.00000000000E+00 -0.62348315956E+03  0.62348315957E+03  0.25500000920E-02 0. -1.
    10030    2    1    2    0    0  0.00000000000E+00  0.00000000000E+00  0.21171889165E+04  0.33641552356E+04  0.26143931497E+04 0.  0.
        5    1    3    3  502    0 -0.12829121905E+04  0.20175401942E+03  0.12502016049E+04  0.18026631731E+04  0.46999998093E+01 0.  1.
       -5    1    3    3    0  502  0.12829121905E+04 -0.20175401942E+03  0.86698731161E+03  0.15614920625E+04  0.46999998093E+01 0. -1.
</event>
<event>
 5   0  0.2484618E-05  0.2593074E+04  0.7818609E-02  0.8370558E-01
        2   -1    0    0  501    0  0.00000000000E+00  0.00000000000E+00  0.18373111523E+04  0.18373111523E+04  0.25500000920E-02 0.  1.
       -2   -1    0    0    0  501  0.00000000000E+00  0.00000000000E+00 -0.91492851277E+03  0.91492851277E+03  0.25500000920E-02 0. -1.
    10030    2    1    2    0    0  0.00000000000E+00  0.00000000000E+00  0.92238263956E+03  0.27522396651E+04  0.25930741294E+04 0.  0.
        3    1    3    3  502    0  0.55452236486E+03 -0.96831316425E+03  0.11619302397E+04  0.16109647201E+04  0.10100000352E+00 0.  1.
       -3    1    3    3    0  502 -0.55452236486E+03  0.96831316425E+03 -0.23954760016E+03  0.11412749450E+04  0.10100000352E+00 0. -1.
</event>
<event>
 5   0  0.2517854E-05  0.2526527E+04  0.7818609E-02  0.8393596E-01
       -2   -1    0    0    0  501  0.00000000000E+00  0.00000000000E+00  0.11981508813E+04  0.11981508813E+04  0.25500000920E-02 0. -1.
        2   -1    0    0  501    0  0.00000000000E+00  0.00000000000E+00 -0.13319145196E+04  0.13319145196E+04  0.25500000920E-02 0.  1.
    10030    2    1    2    0    0  0.00000000000E+00  0.00000000000E+00 -0.13376363832E+03  0.25300654010E+04  0.25265269091E+04 0.  0.
        4    1    3    3  502    0 -0.22264531809E+03 -0.67697547658E+03 -0.11113988438E+04  0.13202559360E+04  0.12699999809E+01 0.  1.
       -4    1    3    3    0  502  0.22264531809E+03  0.67697547658E+03  0.97763520551E+03  0.12098094650E+04  0.12699999809E+01 0. -1.
</event>
<event>
 5   0  0.1000421E-05  0.2607850E+04  0.7818609E-02  0.8365540E-01
       -1   -1    0    0    0  501  0.00000000000E+00  0.00000000000E+00  0.98937747812E+03  0.98937747814E+03  0.50400001928E-02 0. -1.
        1   -1    0    0  501    0  0.00000000000E+00  0.00000000000E+00 -0.17184749377E+04  0.17184749377E+04  0.50400001928E-02 0.  1.
    10030    2    1    2    0    0  0.00000000000E+00  0.00000000000E+00 -0.72909745960E+03  0.27078524159E+04  0.26078499958E+04 0.  0.
        3    1    3    3  502    0 -0.60316359690E+03  0.76220306611E+03 -0.12670509505E+04  0.15969276627E+04  0.10100000352E+00 0.  1.
       -3    1    3    3    0  502  0.60316359690E+03 -0.76220306611E+03  0.53795349089E+03  0.11109247532E+04  0.10100000352E+00 0. -1.
</event>
<event>
 5   0  0.9855352E-06  0.2635092E+04  0.7818609E-02  0.8356378E-01
       -1   -1    0    0    0  501  0.00000000000E+00  0.00000000000E+00  0.82713730791E+03  0.82713730793E+03  0.50400001928E-02 0.  1.
        1   -1    0    0  501    0  0.00000000000E+00  0.00000000000E+00 -0.20987169863E+04  0.20987169863E+04  0.50400001928E-02 0. -1.
    10030    2    1    2    0    0  0.00000000000E+00  0.00000000000E+00 -0.12715796784E+04  0.29258542942E+04  0.26350917389E+04 0.  0.
        2    1    3    3  502    0  0.71948295907E+03  0.81417135066E+03 -0.14632717069E+04  0.18225517290E+04  0.25500000920E-02 0. -1.
       -2    1    3    3    0  502 -0.71948295907E+03 -0.81417135066E+03  0.19169202854E+03  0.11033025652E+04  0.25500000920E-02 0.  1.
</event>
<event>
 5   0  0.1034714E-05  0.1982204E+04  0.7818609E-02  0.8614986E-01
       -1   -1    0    0    0  501  0.00000000000E+00  0.00000000000E+00  0.13002637143E+04  0.13002637143E+04  0.50400001928E-02 0. -1.
        1   -1    0    0  501    0  0.00000000000E+00  0.00000000000E+00 -0.75544950635E+03  0.75544950637E+03  0.50400001928E-02 0.  1.
    10030    2    1    2    0    0  0.00000000000E+00  0.00000000000E+00  0.54481420799E+03  0.20557132207E+04  0.19822044104E+04 0.  0.
        5    1    3    3  502    0  0.61077521199E+03 -0.27562679197E+03 -0.48490951627E+03  0.82714921085E+03  0.46999998093E+01 0.  1.
       -5    1    3    3    0  502 -0.61077521199E+03  0.27562679197E+03  0.10297237243E+04  0.12285640099E+04  0.46999998093E+01 0. -1.
</event>
<event>
 5   0  0.2517854E-05  0.2670624E+04  0.7818609E-02  0.8344600E-01
        2   -1    0    0  501    0  0.00000000000E+00  0.00000000000E+00  0.20313135339E+04  0.20313135339E+04  0.25500000920E-02 0.  1.
       -2   -1    0    0    0  501  0.00000000000E+00  0.00000000000E+00 -0.87778592102E+03  0.87778592103E+03  0.25500000920E-02 0. -1.
    10030    2    1    2    0    0  0.00000000000E+00  0.00000000000E+00  0.11535276128E+04  0.29090994549E+04  0.26706242126E+04 0.  0.
        4    1    3    3  502    0  0.60782099509E+03  0.68173016156E+03  0.16378375850E+04  0.18752908956E+04  0.12699999809E+01 0.  1.
       -4    1    3    3    0  502 -0.60782099509E+03 -0.68173016156E+03 -0.48430997218E+03  0.10338085593E+04  0.12699999809E+01 0. -1.
</event>
<event>
 5   0  0.1025153E-05  0.2652366E+04  0.7818609E-02  0.8350628E-01
        1   -1    0    0  501    0  0.00000000000E+00  0.00000000000E+00  0.20312096594E+04  0.20312096594E+04  0.50400001928E-02 0. -1.
       -1   -1    0    0    0  501  0.00000000000E+00  0.00000000000E+00 -0.86586914163E+03  0.86586914165E+03  0.50400001928E-02 0.  1.
    10030    2    1    2    0    0  0.00000000000E+00  0.00000000000E+00  0.11653405178E+04  0.28970788011E+04  0.26523663128E+04 0.  0.
        1    1    3    3  502    0  0.35336672141E+03 -0.10861041144E+04 -0.15351071161E+03  0.11524130014E+04  0.50400001928E-02 0.  1.
       -1    1    3    3    0  502 -0.35336672141E+03  0.10861041144E+04  0.13188512294E+04  0.17446657997E+04  0.50400001928E-02 0. -1.
</event>
<event>
 5   0  0.1034714E-05  0.2574223E+04  0.7818609E-02  0.8377010E-01
        1   -1    0    0  501    0  0.00000000000E+00  0.00000000000E+00  0.21928302094E+04  0.21928302094E+04  0.50400001928E-02 0. -1.
       -1   -1    0    0    0  501  0.00000000000E+00  0.00000000000E+00 -0.75548761812E+03  0.75548761814E+03  0.50400001928E-02 0.  1.
    10030    2    1    2    0    0  0.00000000000E+00  0.00000000000E+00  0.14373425913E+04  0.29483178275E+04  0.25742230454E+04 0.  0.
        5    1    3    3  502    0  0.56446858790E+03 -0.14315708901E+03  0.20333085911E+04  0.21150613834E+04  0.46999998093E+01 0. -1.
       -5    1    3    3    0  502 -0.56446858790E+03  0.14315708901E+03 -0.59596599980E+03  0.83325644418E+03  0.46999998093E+01 0.  1.
</event>
<event>
 5   0  0.1025153E-05  0.2603065E+04  0.7818609E-02  0.8367161E-01
        1   -1    0    0  501    0  0.00000000000E+00  0.00000000000E+00  0.21106256521E+04  0.21106256521E+04  0.50400001928E-02 0. -1.
       -1   -1    0    0    0  501  0.00000000000E+00  0.00000000000E+00 -0.80259949371E+03  0.80259949372E+03  0.50400001928E-02 0.  1.
    10030    2    1    2    0    0  0.00000000000E+00  0.00000000000E+00  0.13080261584E+04  0.29132251458E+04  0.26030651777E+04 0.  0.
        1    1    3    3  502    0 -0.10098509528E+04 -0.29906543875E+03  0.15098152399E+04  0.18408642378E+04  0.50400001928E-02 0. -1.
       -1    1    3    3    0  502  0.10098509528E+04  0.29906543875E+03 -0.20178908147E+03  0.10723609080E+04  0.50400001928E-02 0.  1.
</event>
<event>
 5   0  0.9855352E-06  0.2564340E+04  0.7818609E-02  0.8380416E-01
       -1   -1    0    0    0  501  0.00000000000E+00  0.00000000000E+00  0.14655694450E+04  0.14655694450E+04  0.50400001928E-02 0. -1.
        1   -1    0    0  501    0  0.00000000000E+00  0.00000000000E+00 -0.11217211657E+04  0.11217211657E+04  0.50400001928E-02 0.  1.
    10030    2    1    2    0    0  0.00000000000E+00  0.00000000000E+00  0.34384827930E+03  0.25872906108E+04  0.25643402788E+04 0.  0.
        2    1    3    3  502    0  0.15270438356E+03  0.11965951413E+04  0.61032612776E+03  0.13519084818E+04  0.25500000920E-02 0. -1.
       -2    1    3    3    0  502 -0.15270438356E+03 -0.11965951413E+04 -0.26647784847E+03  0.12353821290E+04  0.25500000920E-02 0.  1.
</event>
<event>
 5   0  0.2528460E-05  0.2597847E+04  0.7818609E-02  0.8368933E-01
        2   -1    0    0  501    0  0.00000000000E+00  0.00000000000E+00  0.24116141128E+04  0.24116141128E+04  0.25500000920E-02 0. -1.
       -2   -1    0    0    0  501  0.00000000000E+00  0.00000000000E+00 -0.69961510283E+03  0.69961510284E+03  0.25500000920E-02 0.  1.
    10030    2    1    2    0    0  0.00000000000E+00  0.00000000000E+00  0.17119990100E+04  0.31112292157E+04  0.25978465355E+04 0.  0.
        5    1    3    3  502    0  0.58371392713E+03 -0.10042745421E+04  0.15521551568E+04  0.19386843542E+04  0.46999998093E+01 0. -1.
       -5    1    3    3    0  502 -0.58371392713E+03  0.10042745421E+04  0.15984385323E+03  0.11725448614E+04  0.46999998093E+01 0.  1.
</event>
<event>
 5   0  0.2517854E-05  0.1912986E+04  0.7818609E-02  0.8648419E-01
        2   -1    0    0  501    0  0.00000000000E+00  0.00000000000E+00  0.12567188867E+04  0.12567188867E+04  0.25500000920E-02 0.  1.
       -2   -1    0    0    0  501  0.00000000000E+00  0.00000000000E+00 -0.72798993062E+03  0.72798993062E+03  0.25500000920E-02 0. -1.
    10030    2    1    2    0    0  0.00000000000E+00  0.00000000000E+00  0.52872895606E+03  0.19847088173E+04  0.19129858286E+04 0.  0.
        4    1    3    3  502    0 -0.83618590433E+02  0.26512181653E+03 -0.68515132547E+03  0.73940218958E+03  0.12699999809E+01 0. -1.
       -4    1    3    3    0  502  0.83618590433E+02 -0.26512181653E+03  0.12138802815E+04  0.12453066277E+04  0.12699999809E+01 0.  1.
</event>
<event>
 5   0  0.1000421E-05  0.2344508E+04  0.7818609E-02  0.8460576E-01
       -1   -1    0    0    0  501  0.00000000000E+00  0.00000000000E+00  0.85337081501E+03  0.85337081503E+03  0.50400001928E-02 0.  1.
        1   -1    0    0  501    0  0.00000000000E+00  0.00000000000E+00 -0.16102958480E+04  0.16102958480E+04  0.50400001928E-02 0. -1.
    10030    2    1    2    0    0  0.00000000000E+00  0.00000000000E+00 -0.75692503297E+03  0.24636666630E+04  0.23445080339E+04 0.  0.
        3    1    3    3  502    0  0.57796795967E+03  0.65993350890E+03 -0.11955556739E+04  0.14828730823E+04  0.10100000352E+00 0. -1.
       -3    1    3    3    0  502 -0.57796795967E+03 -0.65993350890E+03  0.43863064095E+03  0.98079358071E+03  0.10100000352E+00 0.  1.
</event>
<event>
 5   0  0.9855352E-06  0.2640001E+04  0.7818609E-02  0.8354739E-01
       -1   -1    0    0    0  501  0.00000000000E+00  0.00000000000E+00  0.12774886909E+04  0.12774886909E+04  0.50400001928E-02 0.  1.
        1   -1    0    0  501    0  0.00000000000E+00  0.00000000000E+00 -0.13639270155E+04  0.13639270155E+04  0.50400001928E-02 0. -1.
    10030    2    1    2    0    0  0.00000000000E+00  0.00000000000E+00 -0.86438324605E+02  0.26414157063E+04  0.26400010132E+04 0.  0.
        2    1    3    3  502    0 -0.47570285504E+03  0.12022698305E+04  0.22273408560E+03  0.13120047349E+04  0.25500000920E-02 0.  1.
       -2    1    3    3    0  502  0.47570285504E+03 -0.12022698305E+04 -0.30917241021E+03  0.13294109714E+04  0.25500000920E-02 0. -1.
</event>
<event>
 5   0  0.2517854E-05  0.2590681E+04  0.7818609E-02  0.8371374E-01
       -2   -1    0    0    0  501  0.00000000000E+00  0.00000000000E+00  0.94058621916E+03  0.94058621916E+03  0.25500000920E-02 0. -1.
        2   -1    0    0  501    0  0.00000000000E+00  0.00000000000E+00 -0.17838946943E+04  0.17838946943E+04  0.25500000920E-02 0.  1.
    10030    2    1    2    0    0  0.00000000000E+00  0.00000000000E+00 -0.84330847511E+03  0.27244809134E+04  0.25906808108E+04 0.  0.
        4    1    3    3  502    0  0.17794562195E+03 -0.38193082011E+03  0.86650322659E+03  0.96351712508E+03  0.12699999809E+01 0. -1.
       -4    1    3    3    0  502 -0.17794562195E+03  0.38193082011E+03 -0.17098117017E+04  0.17609637884E+04  0.12699999809E+01 0.  1.
</event>
<event>
 5   0  0.1025153E-05  0.2591566E+04  0.7818609E-02  0.8371072E-01
       -1   -1    0    0    0  501  0.00000000000E+00  0.00000000000E+00  0.57246311071E+03  0.57246311073E+03  0.50400001928E-02 0. -1.
        1   -1    0    0  501    0  0.00000000000E+00  0.00000000000E+00 -0.29330342679E+04  0.29330342679E+04  0.50400001928E-02 0.  1.
    10030    2    1    2    0    0  0.00000000000E+00  0.00000000000E+00 -0.23605711572E+04  0.35054973787E+04  0.25915662607E+04 0.  0.
        1    1    3    3  502    0 -0.12502530946E+04 -0.34041934785E+03 -0.11721935936E+04  0.17472996177E+04  0.50400001928E-02 0.  1.
       -1    1    3    3    0  502  0.12502530946E+04  0.34041934785E+03 -0.11883775636E+04  0.17581977610E+04  0.50400001928E-02 0. -1.
</event>
<event>
 5   0  0.2555801E-05  0.1905176E+04  0.7818609E-02  0.8652284E-01
       -2   -1    0    0    0  501  0.00000000000E+00  0.00000000000E+00  0.11033063647E+04  0.11033063647E+04  0.25500000920E-02 0. -1.
        2   -1    0    0  501    0  0.00000000000E+00  0.00000000000E+00 -0.82245851788E+03  0.82245851788E+03  0.25500000920E-02 0.  1.
    10030    2    1    2    0    0  0.00000000000E+00  0.00000000000E+00  0.28084784683E+03  0.19257648826E+04  0.19051758108E+04 0.  0.
        1    1    3    3  502    0 -0.44296212330E+01 -0.30618177176E+03 -0.77135350785E+03  0.82991152118E+03  0.50400001928E-02 0.  1.
       -1    1    3    3    0  502  0.44296212330E+01  0.30618177176E+03  0.10522013547E+04  0.10958533614E+04  0.50400001928E-02 0. -1.
</event>
<event>
 5   0  0.1025153E-05  0.3117119E+04  0.7818609E-02  0.8211055E-01
       -1   -1    0    0    0  501  0.00000000000E+00  0.00000000000E+00  0.81644680203E+03  0.81644680204E+03  0.50400001928E-02 0.  1.
        1   -1    0    0  501    0  0.00000000000E+00  0.00000000000E+00 -0.29752195145E+04  0.29752195145E+04  0.50400001928E-02 0. -1.
    10030    2    1    2    0    0  0.00000000000E+00  0.00000000000E+00 -0.21587727124E+04  0.37916663165E+04  0.31171194767E+04 0.  0.
        1    1    3    3  502    0  0.30631836279E+03  0.14187405954E+04 -0.38865426881E+03  0.15025671223E+04  0.50400001928E-02 0.  1.
       -1    1    3    3    0  502 -0.30631836279E+03 -0.14187405954E+04 -0.17701184436E+04  0.22890991942E+04  0.50400001928E-02 0. -1.
</event>
<event>
 5   0  0.1025153E-05  0.2637672E+04  0.7818609E-02  0.8355516E-01
       -1   -1    0    0    0  501  0.00000000000E+00  0.00000000000E+00  0.13249209402E+04  0.13249209402E+04  0.50400001928E-02 0. -1.
        1   -1    0    0  501    0  0.00000000000E+00  0.00000000000E+00 -0.13127787468E+04  0.13127787468E+04  0.50400001928E-02 0.  1.
    10030    2    1    2    0    0  0.00000000000E+00  0.00000000000E+00  0.12142193416E+02  0.26376996870E+04  0.26376717396E+04 0.  0.
        1    1    3    3  502    0 -0.63737889261E+03  0.10265891370E+04  0.53446191683E+03  0.13212821991E+04  0.50400001928E-02 0. -1.
       -1    1    3    3    0  502  0.63737889261E+03 -0.10265891370E+04 -0.52231972341E+03  0.13164174879E+04  0.50400001928E-02 0.  1.
</event>
<event>
 5   0  0.2484618E-05  0.2588797E+04  0.7818609E-02  0.8372017E-01
       -2   -1    0    0    0  501  0.00000000000E+00  0.00000000000E+00  0.10896739976E+04  0.10896739976E+04  0.25500000920E-02 0.  1.
        2   -1    0    0  501    0  0.00000000000E+00  0.00000000000E+00 -0.15375860107E+04  0.15375860107E+04  0.25500000920E-02 0. -1.
    10030    2    1    2    0    0  0.00000000000E+00  0.00000000000E+00 -0.44791201316E+03  0.26272600083E+04  0.25887970140E+04 0.  0.
        3    1    3    3  502    0 -0.94454241857E+03  0.74789552986E+03  0.25631866642E+03  0.12317497201E+04  0.10100000352E+00 0.  1.
       -3    1    3    3    0  502  0.94454241857E+03 -0.74789552986E+03 -0.70423067958E+03  0.13955102882E+04  0.10100000352E+00 0. -1.
</event>
<event>
 5   0  0.1034714E-05  0.2584064E+04  0.7818609E-02  0.8373634E-01
        1   -1    0    0  501    0  0.00000000000E+00  0.00000000000E+00  0.18083491904E+04  0.18083491904E+04  0.50400001928E-02 0. -1.
       -1   -1    0    0    0  501  0.00000000000E+00  0.00000000000E+00 -0.92313305149E+03  0.92313305151E+03  0.50400001928E-02 0.  1.
    10030    2    1    2    0    0  0.00000000000E+00  0.00000000000E+00  0.88521613887E+03  0.27314822419E+04  0.25840641682E+04 0.  0.
        5    1    3    3  502    0 -0.36935377507E+03  0.92296010313E+03  0.13149438981E+04  0.16484468776E+04  0.46999998093E+01 0. -1.
       -5    1    3    3    0  502  0.36935377507E+03 -0.92296010313E+03 -0.42972775926E+03  0.10830353642E+04  0.46999998093E+01 0.  1.
</event>
<event>
 5   0  0.2484618E-05  0.2609713E+04  0.7818609E-02  0.8364909E-01
        2   -1    0    0  501    0  0.00000000000E+00  0.00000000000E+00  0.24171718961E+04  0.24171718961E+04  0.25500000920E-02 0.  1.
       -2   -1    0    0    0  501  0.00000000000E+00  0.00000000000E+00 -0.70439789448E+03  0.70439789448E+03  0.25500000920E-02 0. -1.
    10030    2    1    2    0    0  0.00000000000E+00  0.00000000000E+00  0.17127740016E+04  0.31215697906E+04  0.26097132365E+04 0.  0.
        3    1    3    3  502    0 -0.43166359399E+03 -0.12251166622E+04  0.10048547451E+04  0.16422476559E+04  0.10100000352E+00 0. -1.
       -3    1    3    3    0  502  0.43166359399E+03  0.12251166622E+04  0.70791925650E+03  0.14793221347E+04  0.10100000352E+00 0.  1.
</event>
<event>
 5   0  0.2517854E-05  0.2698599E+04  0.7818609E-02  0.8335460E-01
       -2   -1    0    0    0  501  0.00000000000E+00  0.00000000000E+00  0.17887377500E+04  0.17887377500E+04  0.25500000920E-02 0.  1.
        2   -1    0    0  501    0  0.00000000000E+00  0.00000000000E+00 -0.10178177957E+04  0.10178177957E+04  0.25500000920E-02 0. -1.
    10030    2    1    2    0    0  0.00000000000E+00  0.00000000000E+00  0.77091995434E+03  0.28065555457E+04  0.26985989800E+04 0.  0.
        4    1    3    3  502    0 -0.10243756851E+04  0.28643348000E+03 -0.47794299315E+03  0.11661135452E+04  0.12699999809E+01 0. -1.
       -4    1    3    3    0  502  0.10243756851E+04 -0.28643348000E+03  0.12488629475E+04  0.16404420005E+04  0.12699999809E+01 0.  1.
</event>
<event>
 5   0  0.2484618E-05  0.2626446E+04  0.7818609E-02  0.8359273E-01
       -2   -1    0    0    0  501  0.00000000000E+00  0.00000000000E+00  0.11661200182E+04  0.11661200182E+04  0.25500000920E-02 0.  1.
        2   -1    0    0  501    0  0.00000000000E+00  0.00000000000E+00 -0.14788824117E+04  0.14788824117E+04  0.25500000920E-02 0. -1.
    10030    2    1    2    0    0  0.00000000000E+00  0.00000000000E+00 -0.31276239346E+03  0.26450024299E+04  0.26264457998E+04 0.  0.
        3    1    3    3  502    0 -0.27956900829E+03 -0.54671700847E+03  0.10126373028E+04  0.11842688187E+04  0.10100000352E+00 0.  1.
       -3    1    3    3    0  502  0.27956900829E+03  0.54671700847E+03 -0.13253996963E+04  0.14607336112E+04  0.10100000352E+00 0. -1.
</event>
<event>
 5   0  0.2555801E-05  0.2337419E+04  0.7818609E-02  0.8463312E-01
       -2   -1    0    0    0  501  0.00000000000E+00  0.00000000000E+00  0.27895865213E+04  0.27895865213E+04  0.25500000920E-02 0.  1.
        2   -1    0    0  501    0  0.00000000000E+00  0.00000000000E+00 -0.48963583512E+03  0.48963583513E+03  0.25500000920E-02 0. -1.
    10030    2    1    2    0    0  0.00000000000E+00  0.00000000000E+00  0.22999506861E+04  0.32792223564E+04  0.23374186839E+04 0.  0.
        1    1    3    3  502    0  0.43225451565E+03 -0.73402331215E+03  0.27418749085E+02  0.85228280336E+03  0.50400001928E-02 0.  1.
       -1    1    3    3    0  502 -0.43225451565E+03  0.73402331215E+03  0.22725319371E+04  0.24269395530E+04  0.50400001928E-02 0. -1.
</event>
<event>
 5   0  0.9855352E-06  0.2503566E+04  0.7818609E-02  0.8401716E-01
       -1   -1    0    0    0  501  0.00000000000E+00  0.00000000000E+00  0.11034903236E+04  0.11034903236E+04  0.50400001928E-02 0. -1.
        1   -1    0    0  501    0  0.00000000000E+00  0.00000000000E+00 -0.14200038833E+04  0.14200038833E+04  0.50400001928E-02 0.  1.
    10030    2    1    2    0    0  0.00000000000E+00  0.00000000000E+00 -0.31651355975E+03  0.25234942069E+04  0.25035658926E+04 0.  0.
        2    1    3    3  502    0  0.66792465629E+03  0.10547823981E+04 -0.24992734994E+03  0.12732450409E+04  0.25500000920E-02 0.  1.
       -2    1    3    3    0  502 -0.66792465629E+03 -0.10547823981E+04 -0.66586209808E+02  0.12502491660E+04  0.25500000920E-02 0. -1.
</event>
<event>
 5   0  0.1005492E-05  0.2605610E+04  0.7818609E-02  0.8366298E-01
        1   -1    0    0  501    0  0.00000000000E+00  0.00000000000E+00  0.25520542250E+04  0.25520542250E+04  0.50400001928E-02 0.  1.
       -1   -1    0    0    0  501  0.00000000000E+00  0.00000000000E+00 -0.66507221467E+03  0.66507221469E+03  0.50400001928E-02 0. -1.
    10030    2    1    2    0    0  0.00000000000E+00  0.00000000000E+00  0.18869820104E+04  0.32171264397E+04  0.26056096066E+04 0.  0.
        4    1    3    3  502    0  0.92405401461E+03  0.52129757859E+03  0.99526825375E+01  0.10610031367E+04  0.12699999809E+01 0. -1.
       -4    1    3    3    0  502 -0.92405401461E+03 -0.52129757859E+03  0.18770293278E+04  0.21561233030E+04  0.12699999809E+01 0.  1.
</event>
<event>
 5   0  0.2528460E-05  0.2625909E+04  0.7818609E-02  0.8359453E-01
        2   -1    0    0  501    0  0.00000000000E+00  0.00000000000E+00  0.19480458561E+04  0.19480458561E+04  0.25500000920E-02 0.  1.
       -2   -1    0    0    0  501  0.00000000000E+00  0.00000000000E+00 -0.88491250292E+03  0.88491250292E+03  0.25500000920E-02 0. -1.
    10030    2    1    2    0    0  0.00000000000E+00  0.00000000000E+00  0.10631333532E+04  0.28329583590E+04  0.26259094686E+04 0.  0.
        5    1    3    3  502    0  0.92736722845E+03  0.19893578122E+02 -0.47090491847E+03  0.10402784546E+04  0.46999998093E+01 0. -1.
       -5    1    3    3    0  502 -0.92736722845E+03 -0.19893578122E+02  0.15340382716E+04  0.17926799044E+04  0.46999998093E+01 0.  1.
</event>
<event>
 5   0  0.1025153E-05  0.2593935E+04  0.7818609E-02  0.8370264E-01
        1   -1    0    0  501    0  0.00000000000E+00  0.00000000000E+00  0.24838912837E+04  0.24838912837E+04  0.50400001928E-02 0. -1.
       -1   -1    0    0    0  501  0.00000000000E+00  0.00000000000E+00 -0.67721364361E+03  0.67721364363E+03  0.50400001928E-02 0.  1.
    10030    2    1    2    0    0  0.00000000000E+00  0.00000000000E+00  0.18066776401E+04  0.31611049274E+04  0.25939352857E+04 0.  0.
        1    1    3    3  502    0 -0.54962230702E+03  0.21459825627E+03 -0.50418493110E+03  0.77610536446E+03  0.50400001928E-02 0.  1.
       -1    1    3    3    0  502  0.54962230702E+03 -0.21459825627E+03  0.23108625712E+04  0.23849995629E+04  0.50400001928E-02 0. -1.
</event>
<event>
 5   0  0.1005492E-05  0.2518413E+04  0.7818609E-02  0.8396455E-01
        1   -1    0    0  501    0  0.00000000000E+00  0.00000000000E+00  0.20516825676E+04  0.20516825676E+04  0.50400001928E-02 0. -1.
       -1   -1    0    0    0  501  0.00000000000E+00  0.00000000000E+00 -0.77282937005E+03  0.77282937007E+03  0.50400001928E-02 0.  1.
    10030    2    1    2    0    0  0.00000000000E+00  0.00000000000E+00  0.12788531976E+04  0.28245119377E+04  0.25184126320E+04 0.  0.
        4    1    3    3  502    0  0.10574290022E+04  0.32584403538E+03  0.13135378495E+04  0.17174730639E+04  0.12699999809E+01 0.  1.
       -4    1    3    3    0  502 -0.10574290022E+04 -0.32584403538E+03 -0.34684651955E+02  0.11070388738E+04  0.12699999809E+01 0. -1.
</event>
<event>
 5   0  0.1034714E-05  0.2573993E+04  0.7818609E-02  0.8377089E-01
        1   -1    0    0  501    0  0.00000000000E+00  0.00000000000E+00  0.19317102121E+04  0.19317102121E+04  0.50400001928E-02 0.  1.
       -1   -1    0    0    0  501  0.00000000000E+00  0.00000000000E+00 -0.85745755796E+03  0.85745755797E+03  0.50400001928E-02 0. -1.
    10030    2    1    2    0    0  0.00000000000E+00  0.00000000000E+00  0.10742526542E+04  0.27891677701E+04  0.25739926350E+04 0.  0.
        5    1    3    3  502    0 -0.18592072364E+03 -0.14817711082E+03 -0.83344659411E+03  0.86670542105E+03  0.46999998093E+01 0. -1.
       -5    1    3    3    0  502  0.18592072364E+03  0.14817711082E+03  0.19076992483E+04  0.19224623491E+04  0.46999998093E+01 0.  1.
</event>
<event>
 5   0  0.2517854E-05  0.2615167E+04  0.7818609E-02  0.8363068E-01
        2   -1    0    0  501    0  0.00000000000E+00  0.00000000000E+00  0.12111695667E+04  0.12111695667E+04  0.25500000920E-02 0.  1.
       -2   -1    0    0    0  501  0.00000000000E+00  0.00000000000E+00 -0.14116719492E+04  0.14116719492E+04  0.25500000920E-02 0. -1.
    10030    2    1    2    0    0  0.00000000000E+00  0.00000000000E+00 -0.20050238250E+03  0.26228415159E+04  0.26151666127E+04 0.  0.
        4    1    3    3  502    0  0.78691752434E+03 -0.24160644269E+03  0.91868296347E+03  0.12335286229E+04  0.12699999809E+01 0.  1.
       -4    1    3    3    0  502 -0.78691752434E+03  0.24160644269E+03 -0.11191853460E+04  0.13893128930E+04  0.12699999809E+01 0. -1.
</event>
<event>
 5   0  0.1025153E-05  0.2621856E+04  0.7818609E-02  0.8360815E-01
       -1   -1    0    0    0  501  0.00000000000E+00  0.00000000000E+00  0.10786166867E+04  0.10786166867E+04  0.50400001928E-02 0.  1.
        1   -1    0    0  501    0  0.00000000000E+00  0.00000000000E+00 -0.15932739186E+04  0.15932739187E+04  0.50400001928E-02 0. -1.
    10030    2    1    2    0    0  0.00000000000E+00  0.00000000000E+00 -0.51465723198E+03  0.26718906053E+04  0.26218557055E+04 0.  0.
        1    1    3    3  502    0  0.10057256244E+04 -0.72905128942E+03 -0.68428947435E+03  0.14181861299E+04  0.50400001928E-02 0. -1.
       -1    1    3    3    0  502 -0.10057256244E+04  0.72905128942E+03  0.16963224237E+03  0.12537044755E+04  0.50400001928E-02 0.  1.
</event>
<event>
 5   0  0.2662024E-05  0.2623508E+04  0.7818609E-02  0.8360260E-01
       -2   -1    0    0    0  501  0.00000000000E+00  0.00000000000E+00  0.19200115570E+04  0.19200115570E+04  0.25500000920E-02 0. -1.
        2   -1    0    0  501    0  0.00000000000E+00  0.00000000000E+00 -0.89619179803E+03  0.89619179803E+03  0.25500000920E-02 0.  1.
    10030    2    1    2    0    0  0.00000000000E+00  0.00000000000E+00  0.10238197590E+04  0.28162033551E+04  0.26235080404E+04 0.  0.
        2    1    3    3  502    0  0.84442621260E+03  0.22947573830E+03  0.15609198821E+04  0.17894651775E+04  0.25500000920E-02 0. -1.
       -2    1    3    3    0  502 -0.84442621260E+03 -0.22947573830E+03 -0.53710012314E+03  0.10267381776E+04  0.25500000920E-02 0.  1.
</event>
<event>
 5   0  0.2528460E-05  0.2556401E+04  0.7818609E-02  0.8383163E-01
        2   -1    0    0  501    0  0.00000000000E+00  0.00000000000E+00  0.14330901214E+04  0.14330901214E+04  0.25500000920E-02 0.  1.
       -2   -1    0    0    0  501  0.00000000000E+00  0.00000000000E+00 -0.11400512900E+04  0.11400512900E+04  0.25500000920E-02 0. -1.
    10030    2    1    2    0    0  0.00000000000E+00  0.00000000000E+00  0.29303883140E+03  0.25731414114E+04  0.25564007835E+04 0.  0.
        5    1    3    3  502    0  0.99440791523E+03 -0.50674348629E+03  0.77360648235E+03  0.13579856930E+04  0.46999998093E+01 0.  1.
       -5    1    3    3    0  502 -0.99440791523E+03  0.50674348629E+03 -0.48056765095E+03  0.12151557184E+04  0.46999998093E+01 0. -1.
</event>
<event>
 5   0  0.1000421E-05  0.2546171E+04  0.7818609E-02  0.8386719E-01
        1   -1    0    0  501    0  0.00000000000E+00  0.00000000000E+00  0.17612991583E+04  0.17612991583E+04  0.50400001928E-02 0. -1.
       -1   -1    0    0    0  501  0.00000000000E+00  0.00000000000E+00 -0.92019921416E+03  0.92019921418E+03  0.50400001928E-02 0.  1.
    10030    2    1    2    0    0  0.00000000000E+00  0.00000000000E+00  0.84109994414E+03  0.26814983725E+04  0.25461705374E+04 0.  0.
        3    1    3    3  502    0  0.39944278228E+03 -0.69483584014E+03  0.14622606052E+04  0.16675003655E+04  0.10100000352E+00 0. -1.
       -3    1    3    3    0  502 -0.39944278228E+03  0.69483584014E+03 -0.62116066111E+03  0.10139980070E+04  0.10100000352E+00 0.  1.
</event>
<event>
 5   0  0.1034714E-05  0.2931304E+04  0.7818609E-02  0.8263624E-01
       -1   -1    0    0    0  501  0.00000000000E+00  0.00000000000E+00  0.17808054071E+04  0.17808054071E+04  0.50400001928E-02 0. -1.
        1   -1    0    0  501    0  0.00000000000E+00  0.00000000000E+00 -0.12062718943E+04  0.12062718943E+04  0.50400001928E-02 0.  1.
    10030    2    1    2    0    0  0.00000000000E+00  0.00000000000E+00  0.57453351287E+03  0.29870773014E+04  0.29313038135E+04 0.  0.
        5    1    3    3  502    0 -0.14407342115E+04 -0.13672901724E+03  0.51117249212E+02  0.14481177284E+04  0.46999998093E+01 0. -1.
       -5    1    3    3    0  502  0.14407342115E+04  0.13672901724E+03  0.52341626366E+03  0.15389595730E+04  0.46999998093E+01 0.  1.
</event>
<event>
 5   0  0.2662024E-05  0.2622013E+04  0.7818609E-02  0.8360762E-01
        2   -1    0    0  501    0  0.00000000000E+00  0.00000000000E+00  0.95485823104E+03  0.95485823104E+03  0.25500000920E-02 0.  1.
       -2   -1    0    0    0  501  0.00000000000E+00  0.00000000000E+00 -0.17999932412E+04  0.17999932412E+04  0.25500000920E-02 0. -1.
    10030    2    1    2    0    0  0.00000000000E+00  0.00000000000E+00 -0.84513501013E+03  0.27548514722E+04  0.26220132434E+04 0.  0.
        2    1    3    3  502    0 -0.11430793434E+04  0.58266097999E+03 -0.13944527865E+03  0.12905693273E+04  0.25500000920E-02 0. -1.
       -2    1    3    3    0  502  0.11430793434E+04 -0.58266097999E+03 -0.70568973148E+03  0.14642821449E+04  0.25500000920E-02 0.  1.
</event>
<event>
 5   0  0.1005492E-05  0.2515477E+04  0.7818609E-02  0.8397493E-01
        1   -1    0    0  501    0  0.00000000000E+00  0.00000000000E+00  0.16887204788E+04  0.16887204788E+04  0.50400001928E-02 0. -1.
       -1   -1    0    0    0  501  0.00000000000E+00  0.00000000000E+00 -0.93674810975E+03  0.93674810976E+03  0.50400001928E-02 0.  1.
    10030    2    1    2    0    0  0.00000000000E+00  0.00000000000E+00  0.75197236905E+03  0.26254685886E+04  0.25154766677E+04 0.  0.
        4    1    3    3  502    0  0.77482917939E+03 -0.93443426901E+03  0.71958683732E+03  0.14111465160E+04  0.12699999809E+01 0. -1.
       -4    1    3    3    0  502 -0.77482917939E+03  0.93443426901E+03  0.32385531723E+02  0.12143220726E+04  0.12699999809E+01 0.  1.
</event>
<event>
 5   0  0.2484618E-05  0.2592092E+04  0.7818609E-02  0.8370892E-01
        2   -1    0    0  501    0  0.00000000000E+00  0.00000000000E+00  0.11608317766E+04  0.11608317766E+04  0.25500000920E-02 0. -1.
       -2   -1    0    0    0  501  0.00000000000E+00  0.00000000000E+00 -0.14470096983E+04  0.14470096983E+04  0.25500000920E-02 0.  1.
    10030    2    1    2    0    0  0.00000000000E+00  0.00000000000E+00 -0.28617792174E+03  0.26078414749E+04  0.25920916950E+04 0.  0.
        3    1    3    3  502    0 -0.42044459557E+03 -0.12259497430E+04 -0.14600453069E+03  0.13042406847E+04  0.10100000352E+00 0. -1.
       -3    1    3    3    0  502  0.42044459557E+03  0.12259497430E+04 -0.14017339104E+03  0.13036007902E+04  0.10100000352E+00 0.  1.
</event>
<event>
 5   0  0.2528460E-05  0.2598564E+04  0.7818609E-02  0.8368689E-01
       -2   -1    0    0    0  501  0.00000000000E+00  0.00000000000E+00  0.58080538821E+03  0.58080538821E+03  0.25500000920E-02 0. -1.
        2   -1    0    0  501    0  0.00000000000E+00  0.00000000000E+00 -0.29065396043E+04  0.29065396043E+04  0.25500000920E-02 0.  1.
    10030    2    1    2    0    0  0.00000000000E+00  0.00000000000E+00 -0.23257342161E+04  0.34873449925E+04  0.25985641137E+04 0.  0.
        5    1    3    3  502    0  0.68962094679E+03  0.70675939857E+03 -0.29647392471E+02  0.98792052089E+03  0.46999998093E+01 0. -1.
       -5    1    3    3    0  502 -0.68962094679E+03 -0.70675939857E+03 -0.22960868237E+04  0.24994244717E+04  0.46999998093E+01 0.  1.
</event>
<event>
 5   0  0.2555801E-05  0.2602381E+04  0.7818609E-02  0.8367393E-01
       -2   -1    0    0    0  501  0.00000000000E+00  0.00000000000E+00  0.77480651443E+03  0.77480651443E+03  0.25500000920E-02 0.  1.
        2   -1    0    0  501    0  0.00000000000E+00  0.00000000000E+00 -0.21851857723E+04  0.21851857723E+04  0.25500000920E-02 0. -1.
    10030    2    1    2    0    0  0.00000000000E+00  0.00000000000E+00 -0.14103792578E+04  0.29599922867E+04  0.26023805806E+04 0.  0.
        1    1    3    3  502    0  0.12022773571E+04 -0.33908758494E+03 -0.11194421026E+04  0.16773794605E+04  0.50400001928E-02 0. -1.
       -1    1    3    3    0  502 -0.12022773571E+04  0.33908758494E+03 -0.29093715529E+03  0.12826128262E+04  0.50400001928E-02 0.  1.
</event>
<event>
 5   0  0.1005492E-05  0.2615318E+04  0.7818609E-02  0.8363017E-01
        1   -1    0    0  501    0  0.00000000000E+00  0.00000000000E+00  0.21710329875E+04  0.21710329875E+04  0.50400001928E-02 0.  1.
       -1   -1    0    0    0  501  0.00000000000E+00  0.00000000000E+00 -0.78763062985E+03  0.78763062987E+03  0.50400001928E-02 0. -1.
    10030    2    1    2    0    0  0.00000000000E+00  0.00000000000E+00  0.13834023577E+04  0.29586636174E+04  0.26153180147E+04 0.  0.
        4    1    3    3  502    0  0.16279742852E+03  0.53749718904E+03  0.20276516196E+04  0.21039911916E+04  0.12699999809E+01 0.  1.
       -4    1    3    3    0  502 -0.16279742852E+03 -0.53749718904E+03 -0.64424926195E+03  0.85467242578E+03  0.12699999809E+01 0. -1.
</event>
<event>
 5   0  0.2555801E-05  0.2572862E+04  0.7818609E-02  0.8377478E-01
        2   -1    0    0  501    0  0.00000000000E+00  0.00000000000E+00  0.15622682015E+04  0.15622682015E+04  0.25500000920E-02 0. -1.
       -2   -1    0    0    0  501  0.00000000000E+00  0.00000000000E+00 -0.10592960077E+04  0.10592960077E+04  0.25500000920E-02 0.  1.
    10030    2    1    2    0    0  0.00000000000E+00  0.00000000000E+00  0.50297219379E+03  0.26215642092E+04  0.25728618065E+04 0.  0.
        1    1    3    3  502    0 -0.50555425381E+03  0.11492602671E+04  0.53700492218E+03  0.13655616250E+04  0.50400001928E-02 0. -1.
       -1    1    3    3    0  502  0.50555425381E+03 -0.11492602671E+04 -0.34032728396E+02  0.12560025843E+04  0.50400001928E-02 0.  1.
</event>
<event>
 5   0  0.1005492E-05  0.1985356E+04  0.7818609E-02  0.8613498E-01
       -1   -1    0    0    0  501  0.00000000000E+00  0.00000000000E+00  0.62080896870E+03  0.62080896872E+03  0.50400001928E-02 0. -1.
        1   -1    0    0  501    0  0.00000000000E+00  0.00000000000E+00 -0.15872993371E+04  0.15872993371E+04  0.50400001928E-02 0.  1.
    10030    2    1    2    0    0  0.00000000000E+00  0.00000000000E+00 -0.96649036844E+03  0.22081083059E+04  0.19853560532E+04 0.  0.
        4    1    3    3  502    0 -0.56625371631E+03 -0.35312395907E+03  0.33410147182E+03  0.74630101707E+03  0.12699999809E+01 0. -1.
       -4    1    3    3    0  502  0.56625371631E+03  0.35312395907E+03 -0.13005918403E+04  0.14618072888E+04  0.12699999809E+01 0.  1.
</event>
<event>
 5   0  0.2517854E-05  0.2458281E+04  0.7818609E-02  0.8418001E-01
       -2   -1    0    0    0  501  0.00000000000E+00  0.00000000000E+00  0.75990765824E+03  0.75990765825E+03  0.25500000920E-02 0. -1.
        2   -1    0    0  501    0  0.00000000000E+00  0.00000000000E+00 -0.19881187759E+04  0.19881187759E+04  0.25500000920E-02 0.  1.
    10030    2    1    2    0    0  0.00000000000E+00  0.00000000000E+00 -0.12282111176E+04  0.27480264341E+04  0.24582812559E+04 0.  0.
        4    1    3    3  502    0 -0.20870830284E+03 -0.10837040415E+04 -0.92058505141E+01  0.11036575401E+04  0.12699999809E+01 0. -1.
       -4    1    3    3    0  502  0.20870830284E+03  0.10837040415E+04 -0.12190052671E+04  0.16443688940E+04  0.12699999809E+01 0.  1.
</event>
<event>
 5   0  0.1025153E-05  0.2630576E+04  0.7818609E-02  0.8357889E-01
        1   -1    0    0  501    0  0.00000000000E+00  0.00000000000E+00  0.92970670910E+03  0.92970670911E+03  0.50400001928E-02 0. -1.
       -1   -1    0    0    0  501  0.00000000000E+00  0.00000000000E+00 -0.18607831017E+04  0.18607831017E+04  0.50400001928E-02 0.  1.
    10030    2    1    2    0    0  0.00000000000E+00  0.00000000000E+00 -0.93107639263E+03  0.27904898109E+04  0.26305760083E+04 0.  0.
        1    1    3    3  502    0  0.93071627731E+03  0.17091938868E+03 -0.14346016251E+04  0.17185831516E+04  0.50400001928E-02 0.  1.
       -1    1    3    3    0  502 -0.93071627731E+03 -0.17091938868E+03  0.50352523250E+03  0.10719066592E+04  0.50400001928E-02 0. -1.
</event>
<event>
 5   0  0.2528460E-05  0.2635366E+04  0.7818609E-02  0.8356287E-01
       -2   -1    0    0    0  501  0.00000000000E+00  0.00000000000E+00  0.65816197348E+03  0.65816197349E+03  0.25500000920E-02 0. -1.
        2   -1    0    0  501    0  0.00000000000E+00  0.00000000000E+00 -0.26380866292E+04  0.26380866292E+04  0.25500000920E-02 0.  1.
    10030    2    1    2    0    0  0.00000000000E+00  0.00000000000E+00 -0.19799246557E+04  0.32962486027E+04  0.26353658585E+04 0.  0.
        5    1    3    3  502    0  0.91704131770E+03 -0.14674650430E+03 -0.21591301039E+04  0.23503966071E+04  0.46999998093E+01 0.  1.
       -5    1    3    3    0  502 -0.91704131770E+03  0.14674650430E+03  0.17920544822E+03  0.94585199560E+03  0.46999998093E+01 0. -1.
</event>
<event>
 5   0  0.2528460E-05  0.2365970E+04  0.7818609E-02  0.8452355E-01
        2   -1    0    0  501    0  0.00000000000E+00  0.00000000000E+00  0.12629697502E+04  0.12629697502E+04  0.25500000920E-02 0. -1.
       -2   -1    0    0    0  501  0.00000000000E+00  0.00000000000E+00 -0.11080653816E+04  0.11080653816E+04  0.25500000920E-02 0.  1.
    10030    2    1    2    0    0  0.00000000000E+00  0.00000000000E+00  0.15490436860E+03  0.23710351319E+04  0.23659696180E+04 0.  0.
        5    1    3    3  502    0  0.11438072693E+04  0.42498645814E+02 -0.22206856900E+03  0.11659492885E+04  0.46999998093E+01 0. -1.
       -5    1    3    3    0  502 -0.11438072693E+04 -0.42498645814E+02  0.37697293760E+03  0.12050858433E+04  0.46999998093E+01 0.  1.
</event>
<event>
 5   0  0.2662024E-05  0.2493797E+04  0.7818609E-02  0.8405199E-01
        2   -1    0    0  501    0  0.00000000000E+00  0.00000000000E+00  0.22012666202E+04  0.22012666202E+04  0.25500000920E-02 0. -1.
       -2   -1    0    0    0  501  0.00000000000E+00  0.00000000000E+00 -0.70630082077E+03  0.70630082078E+03  0.25500000920E-02 0.  1.
    10030    2    1    2    0    0  0.00000000000E+00  0.00000000000E+00  0.14949657994E+04  0.29075674410E+04  0.24937974421E+04 0.  0.
        2    1    3    3  502    0 -0.46019283545E+03 -0.19039853689E+03 -0.58530522966E+03  0.76851236849E+03  0.25500000920E-02 0.  1.
       -2    1    3    3    0  502  0.46019283545E+03  0.19039853689E+03  0.20802710291E+04  0.21390550725E+04  0.25500000920E-02 0. -1.
</event>
<event>
 5   0  0.2662024E-05  0.2473566E+04  0.7818609E-02  0.8412464E-01
        2   -1    0    0  501    0  0.00000000000E+00  0.00000000000E+00  0.23311244268E+04  0.23311244268E+04  0.25500000920E-02 0.  1.
       -2   -1    0    0    0  501  0.00000000000E+00  0.00000000000E+00 -0.65617780808E+03  0.65617780809E+03  0.25500000920E-02 0. -1.
    10030    2    1    2    0    0  0.00000000000E+00  0.00000000000E+00  0.16749466187E+04  0.29873022349E+04  0.24735659415E+04 0.  0.
        2    1    3    3  502    0 -0.37624965720E+03 -0.61181843382E+02  0.22584099627E+04  0.22903542481E+04  0.25500000920E-02 0.  1.
       -2    1    3    3    0  502  0.37624965720E+03  0.61181843382E+02 -0.58346334394E+03  0.69694798675E+03  0.25500000920E-02 0. -1.
</event>
<event>
 5   0  0.2555801E-05  0.2595145E+04  0.7818609E-02  0.8369852E-01
        2   -1    0    0  501    0  0.00000000000E+00  0.00000000000E+00  0.12343383141E+04  0.12343383141E+04  0.25500000920E-02 0.  1.
       -2   -1    0    0    0  501  0.00000000000E+00  0.00000000000E+00 -0.13640464549E+04  0.13640464549E+04  0.25500000920E-02 0. -1.
    10030    2    1    2    0    0  0.00000000000E+00  0.00000000000E+00 -0.12970814085E+03  0.25983847690E+04  0.25951453151E+04 0.  0.
        1    1    3    3  502    0  0.72241770010E+00  0.10470989598E+04 -0.83215136068E+03  0.13374949124E+04  0.50400001928E-02 0. -1.
       -1    1    3    3    0  502 -0.72241770010E+00 -0.10470989598E+04  0.70244321983E+03  0.12608898567E+04  0.50400001928E-02 0.  1.
</event>
<event>
 5   0  0.1000421E-05  0.2555064E+04  0.7818609E-02  0.8383627E-01
       -1   -1    0    0    0  501  0.00000000000E+00  0.00000000000E+00  0.60164219934E+03  0.60164219936E+03  0.50400001928E-02 0.  1.
        1   -1    0    0  501    0  0.00000000000E+00  0.00000000000E+00 -0.27127217025E+04  0.27127217025E+04  0.50400001928E-02 0. -1.
    10030    2    1    2    0    0  0.00000000000E+00  0.00000000000E+00 -0.21110795031E+04  0.33143639019E+04  0.25550638750E+04 0.  0.
        3    1    3    3  502    0 -0.28340906393E+03  0.38551493410E+03  0.48102109884E+03  0.67847164249E+03  0.10100000352E+00 0.  1.
       -3    1    3    3    0  502  0.28340906393E+03 -0.38551493410E+03 -0.25921006020E+04  0.26358922594E+04  0.10100000352E+00 0. -1.
</event>
<event>
 5   0  0.1000421E-05  0.2611378E+04  0.7818609E-02  0.8364347E-01
       -1   -1    0    0    0  501  0.00000000000E+00  0.00000000000E+00  0.75502426291E+03  0.75502426293E+03  0.50400001928E-02 0. -1.
        1   -1    0    0  501    0  0.00000000000E+00  0.00000000000E+00 -0.22579718986E+04  0.22579718986E+04  0.50400001928E-02 0.  1.
    10030    2    1    2    0    0  0.00000000000E+00  0.00000000000E+00 -0.15029476357E+04  0.30129961615E+04  0.26113778497E+04 0.  0.
        3    1    3    3  502    0 -0.95554103625E+03 -0.83623115420E+03 -0.11023535432E+04  0.16815244749E+04  0.10100000352E+00 0.  1.
       -3    1    3    3    0  502  0.95554103625E+03  0.83623115420E+03 -0.40059409249E+03  0.13314716867E+04  0.10100000352E+00 0. -1.
</event>
<event>
 5   0  0.8605000E-06  0.2602267E+04  0.7818609E-02  0.8367432E-01
       -3   -1    0    0    0  501  0.00000000000E+00  0.00000000000E+00  0.14297798134E+04  0.14297798169E+04  0.10100000352E+00 0. -1.
        3   -1    0    0  501    0  0.00000000000E+00  0.00000000000E+00 -0.11840618732E+04  0.11840618775E+04  0.10100000352E+00 0.  1.
    10030    2    1    2    0    0  0.00000000000E+00  0.00000000000E+00  0.24571794021E+03  0.26138416944E+04  0.26022665308E+04 0.  0.
        5    1    3    3  502    0 -0.69917224073E+01  0.13342107202E+03 -0.11771451053E+04  0.11847120982E+04  0.46999998093E+01 0.  1.
       -5    1    3    3    0  502  0.69917224073E+01 -0.13342107202E+03  0.14228630455E+04  0.14291295962E+04  0.46999998093E+01 0. -1.
</event>
<event>
 5   0  0.2484618E-05  0.2599551E+04  0.7818609E-02  0.8368354E-01
        2   -1    0    0  501    0  0.00000000000E+00  0.00000000000E+00  0.15544781196E+04  0.15544781196E+04  0.25500000920E-02 0. -1.
       -2   -1    0    0    0  501  0.00000000000E+00  0.00000000000E+00 -0.10868061394E+04  0.10868061394E+04  0.25500000920E-02 0.  1.
    10030    2    1    2    0    0  0.00000000000E+00  0.00000000000E+00  0.46767198021E+03  0.26412842589E+04  0.25995510104E+04 0.  0.
        3    1    3    3  502    0  0.94433153650E+03  0.39081795978E+03  0.10497948244E+04  0.14651177127E+04  0.10100000352E+00 0. -1.
       -3    1    3    3    0  502 -0.94433153650E+03 -0.39081795978E+03 -0.58212284422E+03  0.11761665462E+04  0.10100000352E+00 0.  1.
</event>
<event>
 5   0  0.1025153E-05  0.2648731E+04  0.7818609E-02  0.8351834E-01
        1   -1    0    0  501    0  0.00000000000E+00  0.00000000000E+00  0.15406212783E+04  0.15406212783E+04  0.50400001928E-02 0. -1.
       -1   -1    0    0    0  501  0.00000000000E+00  0.00000000000E+00 -0.11384652214E+04  0.11384652214E+04  0.50400001928E-02 0.  1.
    10030    2    1    2    0    0  0.00000000000E+00  0.00000000000E+00  0.40215605687E+03  0.26790864997E+04  0.26487308241E+04 0.  0.
        1    1    3    3  502    0 -0.37066130664E+02 -0.64174270044E+03 -0.97009367385E+03  0.11637393727E+04  0.50400001928E-02 0.  1.
       -1    1    3    3    0  502  0.37066130664E+02  0.64174270044E+03  0.13722497307E+04  0.15153471269E+04  0.50400001928E-02 0. -1.
</event>
<event>
 5   0  0.2662024E-05  0.2575382E+04  0.7818609E-02  0.8376612E-01
       -2   -1    0    0    0  501  0.00000000000E+00  0.00000000000E+00  0.11493651323E+04  0.11493651323E+04  0.25500000920E-02 0.  1.
        2   -1    0    0  501    0  0.00000000000E+00  0.00000000000E+00 -0.14426642079E+04  0.14426642079E+04  0.25500000920E-02 0. -1.
    10030    2    1    2    0    0  0.00000000000E+00  0.00000000000E+00 -0.29329907561E+03  0.25920293402E+04  0.25753818654E+04 0.  0.
        2    1    3    3  502    0 -0.54524303472E+03 -0.10459340214E+04  0.37329412526E+03  0.12371808470E+04  0.25500000920E-02 0.  1.
       -2    1    3    3    0  502  0.54524303472E+03  0.10459340214E+04 -0.66659320087E+03  0.13548484932E+04  0.25500000920E-02 0. -1.
</event>
<event>
 5   0  0.1005492E-05  0.2504807E+04  0.7818609E-02  0.8401275E-01
       -1   -1    0    0    0  501  0.00000000000E+00  0.00000000000E+00  0.95038115784E+03  0.95038115785E+03  0.50400001928E-02 0. -1.
        1   -1    0    0  501    0  0.00000000000E+00  0.00000000000E+00 -0.16504054750E+04  0.16504054750E+04  0.50400001928E-02 0.  1.
    10030    2    1    2    0    0  0.00000000000E+00  0.00000000000E+00 -0.70002431712E+03  0.26007866328E+04  0.25048067919E+04 0.  0.
        4    1    3    3  502    0  0.87699125451E+02 -0.10571602397E+04 -0.10412808706E+04  0.14864542958E+04  0.12699999809E+01 0.  1.
       -4    1    3    3    0  502 -0.87699125451E+02  0.10571602397E+04  0.34125655350E+03  0.11143323370E+04  0.12699999809E+01 0. -1.
</event>
<event>
 5   0  0.1025153E-05  0.2585057E+04  0.7818609E-02  0.8373295E-01
        1   -1    0    0  501    0  0.00000000000E+00  0.00000000000E+00  0.17143022336E+04  0.17143022336E+04  0.50400001928E-02 0.  1.
       -1   -1    0    0    0  501  0.00000000000E+00  0.00000000000E+00 -0.97452441997E+03  0.97452441999E+03  0.50400001928E-02 0. -1.
    10030    2    1    2    0    0  0.00000000000E+00  0.00000000000E+00  0.73977781358E+03  0.26888266536E+04  0.25850565873E+04 0.  0.
        1    1    3    3  502    0  0.46550845445E+03 -0.11956750553E+04  0.20777202705E+03  0.12998100532E+04  0.50400001928E-02 0.  1.
       -1    1    3    3    0  502 -0.46550845445E+03  0.11956750553E+04  0.53200578653E+03  0.13890166004E+04  0.50400001928E-02 0. -1.
</event>
<event>
 5   0  0.9855352E-06  0.2509098E+04  0.7818609E-02  0.8399751E-01
       -1   -1    0    0    0  501  0.00000000000E+00  0.00000000000E+00  0.87991714841E+03  0.87991714842E+03  0.50400001928E-02 0. -1.
        1   -1    0    0  501    0  0.00000000000E+00  0.00000000000E+00 -0.17886840315E+04  0.17886840315E+04  0.50400001928E-02 0.  1.
    10030    2    1    2    0    0  0.00000000000E+00  0.00000000000E+00 -0.90876688306E+03  0.26686011799E+04  0.25090984456E+04 0.  0.
        2    1    3    3  502    0  0.85047506561E+03  0.72566460861E+03  0.15100806929E+03  0.11281402388E+04  0.25500000920E-02 0. -1.
       -2    1    3    3    0  502 -0.85047506561E+03 -0.72566460861E+03 -0.10597749524E+04  0.15404609411E+04  0.25500000920E-02 0.  1.
</event>
<event>
 5   0  0.1000421E-05  0.2237710E+04  0.7818609E-02  0.8502894E-01
        1   -1    0    0  501    0  0.00000000000E+00  0.00000000000E+00  0.18756114581E+04  0.18756114581E+04  0.50400001928E-02 0. -1.
       -1   -1    0    0    0  501  0.00000000000E+00  0.00000000000E+00 -0.66742862251E+03  0.66742862253E+03  0.50400001928E-02 0.  1.
    10030    2    1    2    0    0  0.00000000000E+00  0.00000000000E+00  0.12081828356E+04  0.25430400807E+04  0.22377102332E+04 0.  0.
        3    1    3    3  502    0 -0.66272650473E+03 -0.90098145019E+03  0.57071064533E+03  0.12556610389E+04  0.10100000352E+00 0. -1.
       -3    1    3    3    0  502  0.66272650473E+03  0.90098145019E+03  0.63747219027E+03  0.12873790418E+04  0.10100000352E+00 0.  1.
</event>
<event>
 5   0  0.2517854E-05  0.2569185E+04  0.7818609E-02  0.8378744E-01
       -2   -1    0    0    0  501  0.00000000000E+00  0.00000000000E+00  0.10822579021E+04  0.10822579021E+04  0.25500000920E-02 0. -1.
        2   -1    0    0  501    0  0.00000000000E+00  0.00000000000E+00 -0.15247541870E+04  0.15247541870E+04  0.25500000920E-02 0.  1.
    10030    2    1    2    0    0  0.00000000000E+00  0.00000000000E+00 -0.44249628485E+03  0.26070120891E+04  0.25691845147E+04 0.  0.
        4    1    3    3  502    0 -0.75767553248E+03 -0.98217411870E+03  0.11748938894E+03  0.12460110679E+04  0.12699999809E+01 0. -1.
       -4    1    3    3    0  502  0.75767553248E+03  0.98217411870E+03 -0.55998567379E+03  0.13610010212E+04  0.12699999809E+01 0.  1.
</event>
<event>
 5   0  0.2517854E-05  0.2581154E+04  0.7818609E-02  0.8374631E-01
       -2   -1    0    0    0  501  0.00000000000E+00  0.00000000000E+00  0.10946781161E+04  0.10946781161E+04  0.25500000920E-02 0.  1.
        2   -1    0    0  501    0  0.00000000000E+00  0.00000000000E+00 -0.15215336308E+04  0.15215336308E+04  0.25500000920E-02 0. -1.
    10030    2    1    2    0    0  0.00000000000E+00  0.00000000000E+00 -0.42685551477E+03  0.26162117469E+04  0.25811544460E+04 0.  0.
        4    1    3    3  502    0  0.12609954219E+04 -0.10213326565E+03  0.45079969341E+02  0.12659283055E+04  0.12699999809E+01 0. -1.
       -4    1    3    3    0  502 -0.12609954219E+04  0.10213326565E+03 -0.47193548411E+03  0.13502834414E+04  0.12699999809E+01 0.  1.
</event>
<event>
 5   0  0.9855352E-06  0.2791224E+04  0.7818609E-02  0.8305998E-01
       -1   -1    0    0    0  501  0.00000000000E+00  0.00000000000E+00  0.12326340162E+04  0.12326340162E+04  0.50400001928E-02 0.  1.
        1   -1    0    0  501    0  0.00000000000E+00  0.00000000000E+00 -0.15801384473E+04  0.15801384473E+04  0.50400001928E-02 0. -1.
    10030    2    1    2    0    0  0.00000000000E+00  0.00000000000E+00 -0.34750443108E+03  0.28127724636E+04  0.27912236747E+04 0.  0.
        2    1    3    3  502    0  0.40830874234E+03 -0.72730777141E+03  0.95383209657E+03  0.12670786447E+04  0.25500000920E-02 0.  1.
       -2    1    3    3    0  502 -0.40830874234E+03  0.72730777141E+03 -0.13013365277E+04  0.15456938188E+04  0.25500000920E-02 0. -1.
</event>
<event>
 5   0  0.2517854E-05  0.2603731E+04  0.7818609E-02  0.8366935E-01
       -2   -1    0    0    0  501  0.00000000000E+00  0.00000000000E+00  0.72532998504E+03  0.72532998504E+03  0.25500000920E-02 0. -1.
        2   -1    0    0  501    0  0.00000000000E+00  0.00000000000E+00 -0.23366660553E+04  0.23366660553E+04  0.25500000920E-02 0.  1.
    10030    2    1    2    0    0  0.00000000000E+00  0.00000000000E+00 -0.16113360702E+04  0.30619960403E+04  0.26037311343E+04 0.  0.
        4    1    3    3  502    0  0.37602023221E+03  0.61590938114E+03 -0.20799458804E+04  0.22015703620E+04  0.12699999809E+01 0.  1.
       -4    1    3    3    0  502 -0.37602023221E+03 -0.61590938114E+03  0.46860981013E+03  0.86042567829E+03  0.12699999809E+01 0. -1.
</event>
<event>
 5   0  0.2555801E-05  0.2588014E+04  0.7818609E-02  0.8372284E-01
       -2   -1    0    0    0  501  0.00000000000E+00  0.00000000000E+00  0.13073865227E+04  0.13073865227E+04  0.25500000920E-02 0.  1.
        2   -1    0    0  501    0  0.00000000000E+00  0.00000000000E+00 -0.12807644392E+04  0.12807644392E+04  0.25500000920E-02 0. -1.
    10030    2    1    2    0    0  0.00000000000E+00  0.00000000000E+00  0.26622083547E+02  0.25881509619E+04  0.25880140391E+04 0.  0.
        1    1    3    3  502    0  0.24958760691E+03 -0.99737295252E+03 -0.77248328127E+03  0.12859926904E+04  0.50400001928E-02 0. -1.
       -1    1    3    3    0  502 -0.24958760691E+03  0.99737295252E+03  0.79910536482E+03  0.13021582715E+04  0.50400001928E-02 0.  1.
</event>
<event>
 5   0  0.2517854E-05  0.2394450E+04  0.7818609E-02  0.8441584E-01
        2   -1    0    0  501    0  0.00000000000E+00  0.00000000000E+00  0.12240321065E+04  0.12240321065E+04  0.25500000920E-02 0.  1.
       -2   -1    0    0    0  501  0.00000000000E+00  0.00000000000E+00 -0.11710047270E+04  0.11710047270E+04  0.25500000920E-02 0. -1.
    10030    2    1    2    0    0  0.00000000000E+00  0.00000000000E+00  0.53027379473E+02  0.23950368335E+04  0.23944497344E+04 0.  0.
        4    1    3    3  502    0 -0.10813299871E+04 -0.53339488153E+02 -0.48471448283E+03  0.11861995552E+04  0.12699999809E+01 0. -1.
       -4    1    3    3    0  502  0.10813299871E+04  0.53339488153E+02  0.53774186230E+03  0.12088372783E+04  0.12699999809E+01 0.  1.
</event>
<event>
 5   0  0.1000421E-05  0.2589775E+04  0.7818609E-02  0.8371683E-01
        1   -1    0    0  501    0  0.00000000000E+00  0.00000000000E+00  0.11641175537E+04  0.11641175537E+04  0.50400001928E-02 0.  1.
       -1   -1    0    0    0  501  0.00000000000E+00  0.00000000000E+00 -0.14403478860E+04  0.14403478860E+04  0.50400001928E-02 0. -1.
    10030    2    1    2    0    0  0.00000000000E+00  0.00000000000E+00 -0.27623033236E+03  0.26044654397E+04  0.25897754787E+04 0.  0.
        3    1    3    3  502    0  0.82862156640E+03  0.95333957204E+03 -0.42480093598E+03  0.13326386927E+04  0.10100000352E+00 0. -1.
       -3    1    3    3    0  502 -0.82862156640E+03 -0.95333957204E+03  0.14857060362E+03  0.12718267470E+04  0.10100000352E+00 0.  1.
</event>
<event>
 5   0  0.2528460E-05  0.2584338E+04  0.7818609E-02  0.8373541E-01
        2   -1    0    0  501    0  0.00000000000E+00  0.00000000000E+00  0.13424758087E+04  0.13424758087E+04  0.25500000920E-02 0. -1.
       -2   -1    0    0    0  501  0.00000000000E+00  0.00000000000E+00 -0.12437473188E+04  0.12437473188E+04  0.25500000920E-02 0.  1.
    10030    2    1    2    0    0  0.00000000000E+00  0.00000000000E+00  0.98728489920E+02  0.25862231275E+04  0.25843379714E+04 0.  0.
        5    1    3    3  502    0 -0.68097344336E+03 -0.73837919991E+02 -0.10471090969E+04  0.12512539390E+04  0.46999998093E+01 0.  1.
       -5    1    3    3    0  502  0.68097344336E+03  0.73837919991E+02  0.11458375868E+04  0.13349691885E+04  0.46999998093E+01 0. -1.
</event>
<event>
 5   0  0.1000421E-05  0.2594103E+04  0.7818609E-02  0.8370207E-01
       -1   -1    0    0    0  501  0.00000000000E+00  0.00000000000E+00  0.18631621504E+04  0.18631621504E+04  0.50400001928E-02 0.  1.
        1   -1    0    0  501    0  0.00000000000E+00  0.00000000000E+00 -0.90295023750E+03  0.90295023752E+03  0.50400001928E-02 0. -1.
    10030    2    1    2    0    0  0.00000000000E+00  0.00000000000E+00  0.96021191293E+03  0.27661123880E+04  0.25941030868E+04 0.  0.
        3    1    3    3  502    0  0.65270661240E+03  0.14847021456E+03 -0.70453916583E+03  0.97182548478E+03  0.10100000352E+00 0. -1.
       -3    1    3    3    0  502 -0.65270661240E+03 -0.14847021456E+03  0.16647510788E+04  0.17942869032E+04  0.10100000352E+00 0.  1.
</event>
<event>
 5   0  0.1000421E-05  0.2476714E+04  0.7818609E-02  0.8411329E-01
       -1   -1    0    0    0  501  0.00000000000E+00  0.00000000000E+00  0.11716331422E+04  0.11716331422E+04  0.50400001928E-02 0. -1.
        1   -1    0    0  501    0  0.00000000000E+00  0.00000000000E+00 -0.13088807324E+04  0.13088807324E+04  0.50400001928E-02 0.  1.
    10030    2    1    2    0    0  0.00000000000E+00  0.00000000000E+00 -0.13724759026E+03  0.24805138746E+04  0.24767139885E+04 0.  0.
        3    1    3    3  502    0 -0.73033531885E+03  0.76134473861E+03 -0.71807264844E+03  0.12761911407E+04  0.10100000352E+00 0. -1.
       -3    1    3    3    0  502  0.73033531885E+03 -0.76134473861E+03  0.58082505818E+03  0.12043227339E+04  0.10100000352E+00 0.  1.
</event>
<event>
 5   0  0.2484618E-05  0.2585754E+04  0.7818609E-02  0.8373056E-01
        2   -1    0    0  501    0  0.00000000000E+00  0.00000000000E+00  0.18758750782E+04  0.18758750782E+04  0.25500000920E-02 0.  1.
       -2   -1    0    0    0  501  0.00000000000E+00  0.00000000000E+00 -0.89106712216E+03  0.89106712217E+03  0.25500000920E-02 0. -1.
    10030    2    1    2    0    0  0.00000000000E+00  0.00000000000E+00  0.98480795605E+03  0.27669422004E+04  0.25857537450E+04 0.  0.
        3    1    3    3  502    0 -0.82018367609E+03 -0.10453139834E+03  0.15559835118E+04  0.17620195161E+04  0.10100000352E+00 0.  1.
       -3    1    3    3    0  502  0.82018367609E+03  0.10453139834E+03 -0.57117555576E+03  0.10049226843E+04  0.10100000352E+00 0. -1.
</event>
<event>
 5   0  0.1025153E-05  0.2623534E+04  0.7818609E-02  0.8360251E-01
       -1   -1    0    0    0  501  0.00000000000E+00  0.00000000000E+00  0.85603639156E+03  0.85603639158E+03  0.50400001928E-02 0.  1.
        1   -1    0    0  501    0  0.00000000000E+00  0.00000000000E+00 -0.20101155265E+04  0.20101155266E+04  0.50400001928E-02 0. -1.
    10030    2    1    2    0    0  0.00000000000E+00  0.00000000000E+00 -0.11540791350E+04  0.28661519181E+04  0.26235335271E+04 0.  0.
        1    1    3    3  502    0  0.70016556444E+03  0.64977917785E+03  0.40515030137E+03  0.10375893043E+04  0.50400001928E-02 0.  1.
       -1    1    3    3    0  502 -0.70016556444E+03 -0.64977917785E+03 -0.15592294364E+04  0.18285626139E+04  0.50400001928E-02 0. -1.
</event>
<event>
 5   0  0.1005492E-05  0.2577158E+04  0.7818609E-02  0.8376002E-01
        1   -1    0    0  501    0  0.00000000000E+00  0.00000000000E+00  0.20482320910E+04  0.20482320910E+04  0.50400001928E-02 0. -1.
       -1   -1    0    0    0  501  0.00000000000E+00  0.00000000000E+00 -0.81066767822E+03  0.81066767824E+03  0.50400001928E-02 0.  1.
    10030    2    1    2    0    0  0.00000000000E+00  0.00000000000E+00  0.12375644127E+04  0.28588997692E+04  0.25771577784E+04 0.  0.
        4    1    3    3  502    0  0.11805055742E+04  0.49940128911E+03  0.76527533296E+03  0.14928640281E+04  0.12699999809E+01 0.  1.
       -4    1    3    3    0  502 -0.11805055742E+04 -0.49940128911E+03  0.47228907979E+03  0.13660357411E+04  0.12699999809E+01 0. -1.
</event>
<event>
 5   0  0.1034714E-05  0.2607214E+04  0.7818609E-02  0.8365755E-01
       -1   -1    0    0    0  501  0.00000000000E+00  0.00000000000E+00  0.12629460449E+04  0.12629460449E+04  0.50400001928E-02 0. -1.
        1   -1    0    0  501    0  0.00000000000E+00  0.00000000000E+00 -0.13455769070E+04  0.13455769070E+04  0.50400001928E-02 0.  1.
    10030    2    1    2    0    0  0.00000000000E+00  0.00000000000E+00 -0.82630862022E+02  0.26085229519E+04  0.26072138637E+04 0.  0.
        5    1    3    3  502    0  0.50441912293E+03 -0.11773842120E+04 -0.28371111363E+03  0.13119399072E+04  0.46999998093E+01 0. -1.
       -5    1    3    3    0  502 -0.50441912293E+03  0.11773842120E+04  0.20108025161E+03  0.12965830447E+04  0.46999998093E+01 0.  1.
</event>
<event>
 5   0  0.1005492E-05  0.2583591E+04  0.7818609E-02  0.8373796E-01
       -1   -1    0    0    0  501  0.00000000000E+00  0.00000000000E+00  0.15539134782E+04  0.15539134783E+04  0.50400001928E-02 0.  1.
        1   -1    0    0  501    0  0.00000000000E+00  0.00000000000E+00 -0.10738926358E+04  0.10738926358E+04  0.50400001928E-02 0. -1.
    10030    2    1    2    0    0  0.00000000000E+00  0.00000000000E+00  0.48002084245E+03  0.26278061141E+04  0.25835914855E+04 0.  0.
        4    1    3    3  502    0  0.83550401530E+03 -0.84595046648E+03  0.75366335477E+03  0.14077319406E+04  0.12699999809E+01 0.  1.
       -4    1    3    3    0  502 -0.83550401530E+03  0.84595046648E+03 -0.27364251232E+03  0.12200741735E+04  0.12699999809E+01 0. -1.
</event>
<event>
 5   0  0.1025153E-05  0.2590017E+04  0.7818609E-02  0.8371600E-01
        1   -1    0    0  501    0  0.00000000000E+00  0.00000000000E+00  0.11984950871E+04  0.11984950871E+04  0.50400001928E-02 0.  1.
       -1   -1    0    0    0  501  0.00000000000E+00  0.00000000000E+00 -0.13992937317E+04  0.13992937317E+04  0.50400001928E-02 0. -1.
    10030    2    1    2    0    0  0.00000000000E+00  0.00000000000E+00 -0.20079864457E+03  0.25977888188E+04  0.25900167280E+04 0.  0.
        1    1    3    3  502    0  0.91811239837E+03  0.67009637183E+03  0.52201672548E+03  0.12507841482E+04  0.50400001928E-02 0.  1.
       -1    1    3    3    0  502 -0.91811239837E+03 -0.67009637183E+03 -0.72281537006E+03  0.13470046707E+04  0.50400001928E-02 0. -1.
</event>
<event>
 5   0  0.2517854E-05  0.2613791E+04  0.7818609E-02  0.8363532E-01
        2   -1    0    0  501    0  0.00000000000E+00  0.00000000000E+00  0.85822202898E+03  0.85822202898E+03  0.25500000920E-02 0. -1.
       -2   -1    0    0    0  501  0.00000000000E+00  0.00000000000E+00 -0.19901335200E+04  0.19901335200E+04  0.25500000920E-02 0.  1.
    10030    2    1    2    0    0  0.00000000000E+00  0.00000000000E+00 -0.11319114911E+04  0.28483555490E+04  0.26137914435E+04 0.  0.
        4    1    3    3  502    0  0.67747360728E+03  0.11331947828E+03  0.64564949125E+03  0.94269648942E+03  0.12699999809E+01 0. -1.
       -4    1    3    3    0  502 -0.67747360728E+03 -0.11331947828E+03 -0.17775609823E+04  0.19056590596E+04  0.12699999809E+01 0.  1.
</event>
<event>
 5   0  0.1005492E-05  0.2600180E+04  0.7818609E-02  0.8368140E-01
       -1   -1    0    0    0  501  0.00000000000E+00  0.00000000000E+00  0.13484316546E+04  0.13484316546E+04  0.50400001928E-02 0.  1.
        1   -1    0    0  501    0  0.00000000000E+00  0.00000000000E+00 -0.12534814666E+04  0.12534814666E+04  0.50400001928E-02 0. -1.
    10030    2    1    2    0    0  0.00000000000E+00  0.00000000000E+00  0.94950188001E+02  0.26019131213E+04  0.26001800616E+04 0.  0.
        4    1    3    3  502    0 -0.92163421178E+03  0.25165114717E+03  0.92981931506E+03  0.13331554642E+04  0.12699999809E+01 0.  1.
       -4    1    3    3    0  502  0.92163421178E+03 -0.25165114717E+03 -0.83486912706E+03  0.12687576571E+04  0.12699999809E+01 0. -1.
</event>
<event>
 5   0  0.1025153E-05  0.2595370E+04  0.7818609E-02  0.8369776E-01
       -1   -1    0    0    0  501  0.00000000000E+00  0.00000000000E+00  0.11980503113E+04  0.11980503113E+04  0.50400001928E-02 0. -1.
        1   -1    0    0  501    0  0.00000000000E+00  0.00000000000E+00 -0.14056056499E+04  0.14056056499E+04  0.50400001928E-02 0.  1.
    10030    2    1    2    0    0  0.00000000000E+00  0.00000000000E+00 -0.20755533857E+03  0.26036559612E+04  0.25953699439E+04 0.  0.
        1    1    3    3  502    0 -0.98421733101E+03  0.84526914297E+03 -0.75004962324E+02  0.12995343101E+04  0.50400001928E-02 0.  1.
       -1    1    3    3    0  502  0.98421733101E+03 -0.84526914297E+03 -0.13255037625E+03  0.13041216511E+04  0.50400001928E-02 0. -1.
</event>
<event>
 5   0  0.1000421E-05  0.2245993E+04  0.7818609E-02  0.8499525E-01
       -1   -1    0    0    0  501  0.00000000000E+00  0.00000000000E+00  0.13466563302E+04  0.13466563302E+04  0.50400001928E-02 0. -1.
        1   -1    0    0  501    0  0.00000000000E+00  0.00000000000E+00 -0.93648358947E+03  0.93648358949E+03  0.50400001928E-02 0.  1.
    10030    2    1    2    0    0  0.00000000000E+00  0.00000000000E+00  0.41017274076E+03  0.22831399197E+04  0.22459933695E+04 0.  0.
        3    1    3    3  502    0 -0.70126557235E+03  0.81434315026E+02  0.10928669798E+04  0.13010623338E+04  0.10100000352E+00 0. -1.
       -3    1    3    3    0  502  0.70126557235E+03 -0.81434315026E+02 -0.68269423904E+03  0.98207758596E+03  0.10100000352E+00 0.  1.
</event>
<event>
 5   0  0.1000421E-05  0.2618848E+04  0.7818609E-02  0.8361827E-01
        1   -1    0    0  501    0  0.00000000000E+00  0.00000000000E+00  0.20638060552E+04  0.20638060552E+04  0.50400001928E-02 0. -1.
       -1   -1    0    0    0  501  0.00000000000E+00  0.00000000000E+00 -0.83079059957E+03  0.83079059959E+03  0.50400001928E-02 0.  1.
    10030    2    1    2    0    0  0.00000000000E+00  0.00000000000E+00  0.12330154556E+04  0.28945966548E+04  0.26188475863E+04 0.  0.
        3    1    3    3  502    0  0.59092213969E+02 -0.10788558219E+04  0.14341032964E+04  0.17955706751E+04  0.10100000352E+00 0. -1.
       -3    1    3    3    0  502 -0.59092213969E+02  0.10788558219E+04 -0.20108784073E+03  0.10990259797E+04  0.10100000352E+00 0.  1.
</event>
<event>
 5   0  0.2517854E-05  0.2630434E+04  0.7818609E-02  0.8357936E-01
        2   -1    0    0  501    0  0.00000000000E+00  0.00000000000E+00  0.12688606900E+04  0.12688606900E+04  0.25500000920E-02 0. -1.
       -2   -1    0    0    0  501  0.00000000000E+00  0.00000000000E+00 -0.13632668225E+04  0.13632668225E+04  0.25500000920E-02 0.  1.
    10030    2    1    2    0    0  0.00000000000E+00  0.00000000000E+00 -0.94406132408E+02  0.26321275125E+04  0.26304339422E+04 0.  0.
        4    1    3    3  502    0  0.10913855419E+04 -0.49418564242E+02 -0.77995144282E+03  0.13423451351E+04  0.12699999809E+01 0.  1.
       -4    1    3    3    0  502 -0.10913855419E+04  0.49418564242E+02  0.68554531041E+03  0.12897823774E+04  0.12699999809E+01 0. -1.
</event>
<event>
 5   0  0.9855352E-06  0.2218865E+04  0.7818609E-02  0.8510617E-01
       -1   -1    0    0    0  501  0.00000000000E+00  0.00000000000E+00  0.93911120337E+03  0.93911120339E+03  0.50400001928E-02 0.  1.
        1   -1    0    0  501    0  0.00000000000E+00  0.00000000000E+00 -0.13106441166E+04  0.13106441166E+04  0.50400001928E-02 0. -1.
    10030    2    1    2    0    0  0.00000000000E+00  0.00000000000E+00 -0.37153291325E+03  0.22497553200E+04  0.22188650915E+04 0.  0.
        2    1    3    3  502    0  0.10534231653E+04  0.31678256540E+03 -0.39575219340E+02  0.11007350985E+04  0.25500000920E-02 0. -1.
       -2    1    3    3    0  502 -0.10534231653E+04 -0.31678256540E+03 -0.33195769391E+03  0.11490202216E+04  0.25500000920E-02 0.  1.
</event>
<event>
 5   0  0.1005492E-05  0.2566153E+04  0.7818609E-02  0.8379790E-01
        1   -1    0    0  501    0  0.00000000000E+00  0.00000000000E+00  0.50846247015E+03  0.50846247018E+03  0.50400001928E-02 0.  1.
       -1   -1    0    0    0  501  0.00000000000E+00  0.00000000000E+00 -0.32377726702E+04  0.32377726702E+04  0.50400001928E-02 0. -1.
    10030    2    1    2    0    0  0.00000000000E+00  0.00000000000E+00 -0.27293102000E+04  0.37462351404E+04  0.25661534558E+04 0.  0.
        4    1    3    3  502    0  0.89227962808E+03 -0.90632030979E+03 -0.16119925969E+04  0.20533146822E+04  0.12699999809E+01 0. -1.
       -4    1    3    3    0  502 -0.89227962808E+03  0.90632030979E+03 -0.11173176031E+04  0.16929204582E+04  0.12699999809E+01 0.  1.
</event>
<event>
 5   0  0.2517854E-05  0.2615598E+04  0.7818609E-02  0.8362922E-01
        2   -1    0    0  501    0  0.00000000000E+00  0.00000000000E+00  0.23816909689E+04  0.23816909689E+04  0.25500000920E-02 0.  1.
       -2   -1    0    0    0  501  0.00000000000E+00  0.00000000000E+00 -0.71811908844E+03  0.71811908844E+03  0.25500000920E-02 0. -1.
    10030    2    1    2    0    0  0.00000000000E+00  0.00000000000E+00  0.16635718805E+04  0.30998100574E+04  0.26155976354E+04 0.  0.
        4    1    3    3  502    0 -0.37820082527E+03 -0.72139472838E+03  0.20443778191E+04  0.22006654672E+04  0.12699999809E+01 0.  1.
       -4    1    3    3    0  502  0.37820082527E+03  0.72139472838E+03 -0.38080593857E+03  0.89914459022E+03  0.12699999809E+01 0. -1.
</event>
<event>
 5   0  0.2528460E-05  0.2556498E+04  0.7818609E-02  0.8383130E-01
        2   -1    0    0  501    0  0.00000000000E+00  0.00000000000E+00  0.12774844689E+04  0.12774844689E+04  0.25500000920E-02 0.  1.
       -2   -1    0    0    0  501  0.00000000000E+00  0.00000000000E+00 -0.12790135225E+04  0.12790135225E+04  0.25500000920E-02 0. -1.
    10030    2    1    2    0    0  0.00000000000E+00  0.00000000000E+00 -0.15290536144E+01  0.25564979914E+04  0.25564975341E+04 0.  0.
        5    1    3    3  502    0 -0.27582280936E+03 -0.10598101315E+04 -0.66002338253E+03  0.12786433015E+04  0.46999998093E+01 0. -1.
       -5    1    3    3    0  502  0.27582280936E+03  0.10598101315E+04  0.65849432892E+03  0.12778546898E+04  0.46999998093E+01 0.  1.
</event>
<event>
 5   0  0.1005492E-05  0.2596538E+04  0.7818609E-02  0.8369378E-01
        1   -1    0    0  501    0  0.00000000000E+00  0.00000000000E+00  0.15459368638E+04  0.15459368638E+04  0.50400001928E-02 0.  1.
       -1   -1    0    0    0  501  0.00000000000E+00  0.00000000000E+00 -0.10902788999E+04  0.10902788999E+04  0.50400001928E-02 0. -1.
    10030    2    1    2    0    0  0.00000000000E+00  0.00000000000E+00  0.45565796391E+03  0.26362157638E+04  0.25965379591E+04 0.  0.
        4    1    3    3  502    0  0.61910445829E+03  0.61063014980E+03  0.12065837187E+04  0.14872812085E+04  0.12699999809E+01 0.  1.
       -4    1    3    3    0  502 -0.61910445829E+03 -0.61063014980E+03 -0.75092575480E+03  0.11489345552E+04  0.12699999809E+01 0. -1.
</event>
<event>
 5   0  0.2517854E-05  0.2599650E+04  0.7818609E-02  0.8368320E-01
       -2   -1    0    0    0  501  0.00000000000E+00  0.00000000000E+00  0.12887636161E+04  0.12887636161E+04  0.25500000920E-02 0.  1.
        2   -1    0    0  501    0  0.00000000000E+00  0.00000000000E+00 -0.13109808662E+04  0.13109808662E+04  0.25500000920E-02 0. -1.
    10030    2    1    2    0    0  0.00000000000E+00  0.00000000000E+00 -0.22217250097E+02  0.25997444823E+04  0.25996495469E+04 0.  0.
        4    1    3    3  502    0 -0.47903056190E+03  0.68641453310E+03 -0.10055832937E+04  0.13083709581E+04  0.12699999809E+01 0. -1.
       -4    1    3    3    0  502  0.47903056190E+03 -0.68641453310E+03  0.98336604357E+03  0.12913735242E+04  0.12699999809E+01 0.  1.
</event>
<event>
 5   0  0.2484618E-05  0.2635082E+04  0.7818609E-02  0.8356381E-01
       -2   -1    0    0    0  501  0.00000000000E+00  0.00000000000E+00  0.94436831982E+03  0.94436831982E+03  0.25500000920E-02 0.  1.
        2   -1    0    0  501    0  0.00000000000E+00  0.00000000000E+00 -0.18381754100E+04  0.18381754100E+04  0.25500000920E-02 0. -1.
    10030    2    1    2    0    0  0.00000000000E+00  0.00000000000E+00 -0.89380709015E+03  0.27825437298E+04  0.26350822556E+04 0.  0.
        3    1    3    3  502    0 -0.41103585550E+03  0.12330393017E+04 -0.21900620215E+03  0.13180668120E+04  0.10100000352E+00 0. -1.
       -3    1    3    3    0  502  0.41103585550E+03 -0.12330393017E+04 -0.67480088800E+03  0.14644769178E+04  0.10100000352E+00 0.  1.
</event>
<event>
 5   0  0.1034714E-05  0.2590070E+04  0.7818609E-02  0.8371582E-01
        1   -1    0    0  501    0  0.00000000000E+00  0.00000000000E+00  0.21634916910E+04  0.21634916910E+04  0.50400001928E-02 0.  1.
       -1   -1    0    0    0  501  0.00000000000E+00  0.00000000000E+00 -0.77518928829E+03  0.77518928831E+03  0.50400001928E-02 0. -1.
    10030    2    1    2    0    0  0.00000000000E+00  0.00000000000E+00  0.13883024027E+04  0.29386809793E+04  0.25900699482E+04 0.  0.
        5    1    3    3  502    0  0.95409095548E+03 -0.78206831329E+03  0.11410911369E+04  0.16804854866E+04  0.46999998093E+01 0.  1.
       -5    1    3    3    0  502 -0.95409095548E+03  0.78206831329E+03  0.24721126585E+03  0.12581954927E+04  0.46999998093E+01 0. -1.
</event>
<event>
 5   0  0.2662024E-05  0.2615355E+04  0.7818609E-02  0.8363004E-01
       -2   -1    0    0    0  501  0.00000000000E+00  0.00000000000E+00  0.10372332514E+04  0.10372332514E+04  0.25500000920E-02 0.  1.
        2   -1    0    0  501    0  0.00000000000E+00  0.00000000000E+00 -0.16486363250E+04  0.16486363250E+04  0.25500000920E-02 0. -1.
    10030    2    1    2    0    0  0.00000000000E+00  0.00000000000E+00 -0.61140307368E+03  0.26858695764E+04  0.26153549784E+04 0.  0.
        2    1    3    3  502    0 -0.43166552957E+03 -0.24486975105E+03 -0.15481657454E+04  0.16257655119E+04  0.25500000920E-02 0. -1.
       -2    1    3    3    0  502  0.43166552957E+03  0.24486975105E+03  0.93676267174E+03  0.10601040645E+04  0.25500000920E-02 0.  1.
</event>
<event>
 5   0  0.1034714E-05  0.2583510E+04  0.7818609E-02  0.8373824E-01
       -1   -1    0    0    0  501  0.00000000000E+00  0.00000000000E+00  0.17409577435E+04  0.17409577435E+04  0.50400001928E-02 0.  1.
        1   -1    0    0  501    0  0.00000000000E+00  0.00000000000E+00 -0.95845588053E+03  0.95845588055E+03  0.50400001928E-02 0. -1.
    10030    2    1    2    0    0  0.00000000000E+00  0.00000000000E+00  0.78250186300E+03  0.26994136241E+04  0.25835101603E+04 0.  0.
        5    1    3    3  502    0 -0.93874169238E+03 -0.44179281632E+03  0.11953149304E+04  0.15827876454E+04  0.46999998093E+01 0.  1.
       -5    1    3    3    0  502  0.93874169238E+03  0.44179281632E+03 -0.41281306744E+03  0.11166259787E+04  0.46999998093E+01 0. -1.
</event>
<event>
 5   0  0.2662024E-05  0.2641988E+04  0.7818609E-02  0.8354077E-01
        2   -1    0    0  501    0  0.00000000000E+00  0.00000000000E+00  0.14254492534E+04  0.14254492534E+04  0.25500000920E-02 0.  1.
       -2   -1    0    0    0  501  0.00000000000E+00  0.00000000000E+00 -0.12241927135E+04  0.12241927135E+04  0.25500000920E-02 0. -1.
    10030    2    1    2    0    0  0.00000000000E+00  0.00000000000E+00  0.20125653985E+03  0.26496419669E+04  0.26419875772E+04 0.  0.
        2    1    3    3  502    0 -0.13594825468E+03  0.84469869792E+03  0.11100365989E+04  0.14014917300E+04  0.25500000920E-02 0.  1.
       -2    1    3    3    0  502  0.13594825468E+03 -0.84469869792E+03 -0.90878005907E+03  0.12481502369E+04  0.25500000920E-02 0. -1.
</event>
<event>
 5   0  0.1000421E-05  0.2597693E+04  0.7818609E-02  0.8368985E-01
       -1   -1    0    0    0  501  0.00000000000E+00  0.00000000000E+00  0.10254299029E+04  0.10254299029E+04  0.50400001928E-02 0. -1.
        1   -1    0    0  501    0  0.00000000000E+00  0.00000000000E+00 -0.16451662798E+04  0.16451662798E+04  0.50400001928E-02 0.  1.
    10030    2    1    2    0    0  0.00000000000E+00  0.00000000000E+00 -0.61973637688E+03  0.26705961827E+04  0.25976933603E+04 0.  0.
        3    1    3    3  502    0 -0.43902958316E+03 -0.51890636055E+03  0.82798688042E+03  0.10712483700E+04  0.10100000352E+00 0. -1.
       -3    1    3    3    0  502  0.43902958316E+03  0.51890636055E+03 -0.14477232573E+04  0.15993478126E+04  0.10100000352E+00 0.  1.
</event>
<event>
 5   0  0.2484618E-05  0.2591606E+04  0.7818609E-02  0.8371058E-01
        2   -1    0    0  501    0  0.00000000000E+00  0.00000000000E+00  0.17146027485E+04  0.17146027485E+04  0.25500000920E-02 0. -1.
       -2   -1    0    0    0  501  0.00000000000E+00  0.00000000000E+00 -0.97929703871E+03  0.97929703871E+03  0.25500000920E-02 0.  1.
    10030    2    1    2    0    0  0.00000000000E+00  0.00000000000E+00  0.73530570979E+03  0.26938997872E+04  0.25916059841E+04 0.  0.
        3    1    3    3  502    0  0.24128357903E+03 -0.79751507894E+03  0.13992238439E+04  0.16285194018E+04  0.10100000352E+00 0. -1.
       -3    1    3    3    0  502 -0.24128357903E+03  0.79751507894E+03 -0.66391813406E+03  0.10653803854E+04  0.10100000352E+00 0.  1.
</event>
<event>
 5   0  0.1005492E-05  0.2587664E+04  0.7818609E-02  0.8372403E-01
       -1   -1    0    0    0  501  0.00000000000E+00  0.00000000000E+00  0.13282732162E+04  0.13282732162E+04  0.50400001928E-02 0.  1.
        1   -1    0    0  501    0  0.00000000000E+00  0.00000000000E+00 -0.12602840210E+04  0.12602840210E+04  0.50400001928E-02 0. -1.
    10030    2    1    2    0    0  0.00000000000E+00  0.00000000000E+00  0.67989195138E+02  0.25885572372E+04  0.25876642054E+04 0.  0.
        4    1    3    3  502    0  0.76491500306E+03  0.91350482321E+03 -0.47057403558E+03  0.12810259794E+04  0.12699999809E+01 0. -1.
       -4    1    3    3    0  502 -0.76491500306E+03 -0.91350482321E+03  0.53856323072E+03  0.13075312579E+04  0.12699999809E+01 0.  1.
</event>
<event>
 5   0  0.1025153E-05  0.2590016E+04  0.7818609E-02  0.8371600E-01
       -1   -1    0    0    0  501  0.00000000000E+00  0.00000000000E+00  0.10454340725E+04  0.10454340725E+04  0.50400001928E-02 0.  1.
        1   -1    0    0  501    0  0.00000000000E+00  0.00000000000E+00 -0.16041620534E+04  0.16041620534E+04  0.50400001928E-02 0. -1.
    10030    2    1    2    0    0  0.00000000000E+00  0.00000000000E+00 -0.55872798095E+03  0.26495961259E+04  0.25900159602E+04 0.  0.
        1    1    3    3  502    0 -0.30817469079E+03 -0.12484240497E+04 -0.12250237794E+03  0.12917202021E+04  0.50400001928E-02 0. -1.
       -1    1    3    3    0  502  0.30817469079E+03  0.12484240497E+04 -0.43622560301E+03  0.13578759239E+04  0.50400001928E-02 0.  1.
</event>
<event>
 5   0  0.2662024E-05  0.2627154E+04  0.7818609E-02  0.8359036E-01
        2   -1    0    0  501    0  0.00000000000E+00  0.00000000000E+00  0.16430355824E+04  0.16430355824E+04  0.25500000920E-02 0. -1.
       -2   -1    0    0    0  501  0.00000000000E+00  0.00000000000E+00 -0.10501812045E+04  0.10501812045E+04  0.25500000920E-02 0.  1.
    10030    2    1    2    0    0  0.00000000000E+00  0.00000000000E+00  0.59285437788E+03  0.26932167869E+04  0.26271544203E+04 0.  0.
        2    1    3    3  502    0  0.11593615613E+03  0.10114494998E+04 -0.55451425028E+03  0.11592917393E+04  0.25500000920E-02 0.  1.
       -2    1    3    3    0  502 -0.11593615613E+03 -0.10114494998E+04  0.11473686282E+04  0.15339250477E+04  0.25500000920E-02 0. -1.
</event>
<event>
 5   0  0.1000421E-05  0.2442421E+04  0.7818609E-02  0.8423790E-01
       -1   -1    0    0    0  501  0.00000000000E+00  0.00000000000E+00  0.88401046151E+03  0.88401046152E+03  0.50400001928E-02 0.  1.
        1   -1    0    0  501    0  0.00000000000E+00  0.00000000000E+00 -0.16870339734E+04  0.16870339734E+04  0.50400001928E-02 0. -1.
    10030    2    1    2    0    0  0.00000000000E+00  0.00000000000E+00 -0.80302351193E+03  0.25710444350E+04  0.24424214882E+04 0.  0.
        3    1    3    3  502    0 -0.91959823349E+03 -0.79809620378E+03 -0.49990728177E+03  0.13162544443E+04  0.10100000352E+00 0. -1.
       -3    1    3    3    0  502  0.91959823349E+03  0.79809620378E+03 -0.30311623016E+03  0.12547899907E+04  0.10100000352E+00 0.  1.
</event>
<event>
 5   0  0.2517854E-05  0.2649498E+04  0.7818609E-02  0.8351580E-01
        2   -1    0    0  501    0  0.00000000000E+00  0.00000000000E+00  0.22936538864E+04  0.22936538864E+04  0.25500000920E-02 0. -1.
       -2   -1    0    0    0  501  0.00000000000E+00  0.00000000000E+00 -0.76513730834E+03  0.76513730834E+03  0.25500000920E-02 0.  1.
    10030    2    1    2    0    0  0.00000000000E+00  0.00000000000E+00  0.15285165781E+04  0.30587911948E+04  0.26494981871E+04 0.  0.
        4    1    3    3  502    0 -0.54136262411E+03 -0.76453832500E+03 -0.31711753521E+03  0.98901844534E+03  0.12699999809E+01 0.  1.
       -4    1    3    3    0  502  0.54136262411E+03  0.76453832500E+03  0.18456341133E+04  0.20697727494E+04  0.12699999809E+01 0. -1.
</event>
<event>
 5   0  0.2484618E-05  0.2597536E+04  0.7818609E-02  0.8369039E-01
       -2   -1    0    0    0  501  0.00000000000E+00  0.00000000000E+00  0.16560961800E+04  0.16560961800E+04  0.25500000920E-02 0.  1.
        2   -1    0    0  501    0  0.00000000000E+00  0.00000000000E+00 -0.10185385730E+04  0.10185385730E+04  0.25500000920E-02 0. -1.
    10030    2    1    2    0    0  0.00000000000E+00  0.00000000000E+00  0.63755760699E+03  0.26746347530E+04  0.25975356320E+04 0.  0.
        3    1    3    3  502    0  0.77131257900E+03 -0.93679985151E+03 -0.15786568127E+03  0.12236987537E+04  0.10100000352E+00 0.  1.
       -3    1    3    3    0  502 -0.77131257900E+03  0.93679985151E+03  0.79542328826E+03  0.14509359993E+04  0.10100000352E+00 0. -1.
</event>
<event>
 5   0  0.2528460E-05  0.2567252E+04  0.7818609E-02  0.8379411E-01
        2   -1    0    0  501    0  0.00000000000E+00  0.00000000000E+00  0.12030465448E+04  0.12030465448E+04  0.25500000920E-02 0. -1.
       -2   -1    0    0    0  501  0.00000000000E+00  0.00000000000E+00 -0.13696027659E+04  0.13696027659E+04  0.25500000920E-02 0.  1.
    10030    2    1    2    0    0  0.00000000000E+00  0.00000000000E+00 -0.16655622107E+03  0.25726493106E+04  0.25672521304E+04 0.  0.
        5    1    3    3  502    0  0.89227801549E+03  0.34139114249E+03  0.77582568305E+03  0.12307053057E+04  0.46999998093E+01 0. -1.
       -5    1    3    3    0  502 -0.89227801549E+03 -0.34139114249E+03 -0.94238190412E+03  0.13419440049E+04  0.46999998093E+01 0.  1.
</event>
<event>
 5   0  0.1005492E-05  0.2578801E+04  0.7818609E-02  0.8375438E-01
       -1   -1    0    0    0  501  0.00000000000E+00  0.00000000000E+00  0.15060961365E+04  0.15060961365E+04  0.50400001928E-02 0.  1.
        1   -1    0    0  501    0  0.00000000000E+00  0.00000000000E+00 -0.11038829718E+04  0.11038829718E+04  0.50400001928E-02 0. -1.
    10030    2    1    2    0    0  0.00000000000E+00  0.00000000000E+00  0.40221316469E+03  0.26099791083E+04  0.25788011781E+04 0.  0.
        4    1    3    3  502    0  0.64351290622E+03  0.30263629914E+03 -0.88746896431E+03  0.11372336460E+04  0.12699999809E+01 0. -1.
       -4    1    3    3    0  502 -0.64351290622E+03 -0.30263629914E+03  0.12896821290E+04  0.14727454623E+04  0.12699999809E+01 0.  1.
</event>
<event>
 5   0  0.1000421E-05  0.2575193E+04  0.7818609E-02  0.8376677E-01
        1   -1    0    0  501    0  0.00000000000E+00  0.00000000000E+00  0.10548240836E+04  0.10548240836E+04  0.50400001928E-02 0.  1.
       -1   -1    0    0    0  501  0.00000000000E+00  0.00000000000E+00 -0.15717362796E+04  0.15717362796E+04  0.50400001928E-02 0. -1.
    10030    2    1    2    0    0  0.00000000000E+00  0.00000000000E+00 -0.51691219599E+03  0.26265603632E+04  0.25751934147E+04 0.  0.
        3    1    3    3  502    0 -0.36755161180E+03  0.53827615343E+02  0.99898309792E+03  0.10658136984E+04  0.10100000352E+00 0.  1.
       -3    1    3    3    0  502  0.36755161180E+03 -0.53827615343E+02 -0.15158952939E+04  0.15607466648E+04  0.10100000352E+00 0. -1.
</event>
<event>
 5   0  0.1034714E-05  0.2610232E+04  0.7818609E-02  0.8364734E-01
       -1   -1    0    0    0  501  0.00000000000E+00  0.00000000000E+00  0.13106017817E+04  0.13106017817E+04  0.50400001928E-02 0.  1.
        1   -1    0    0  501    0  0.00000000000E+00  0.00000000000E+00 -0.12996535927E+04  0.12996535927E+04  0.50400001928E-02 0. -1.
    10030    2    1    2    0    0  0.00000000000E+00  0.00000000000E+00  0.10948188941E+02  0.26102553744E+04  0.26102324143E+04 0.  0.
        5    1    3    3  502    0 -0.59051951674E+03 -0.18003653173E+03  0.11553449708E+04  0.13099505883E+04  0.46999998093E+01 0.  1.
       -5    1    3    3    0  502  0.59051951674E+03  0.18003653173E+03 -0.11443967818E+04  0.13003047861E+04  0.46999998093E+01 0. -1.
</event>
<event>
 5   0  0.2517854E-05  0.2635730E+04  0.7818609E-02  0.8356165E-01
       -2   -1    0    0    0  501  0.00000000000E+00  0.00000000000E+00  0.11953922717E+04  0.11953922717E+04  0.25500000920E-02 0. -1.
        2   -1    0    0  501    0  0.00000000000E+00  0.00000000000E+00 -0.14528857602E+04  0.14528857602E+04  0.25500000920E-02 0.  1.
    10030    2    1    2    0    0  0.00000000000E+00  0.00000000000E+00 -0.25749348842E+03  0.26482780319E+04  0.26357301906E+04 0.  0.
        4    1    3    3  502    0 -0.79728671450E+03  0.27634973894E+03 -0.11458561555E+04  0.14230331076E+04  0.12699999809E+01 0.  1.
       -4    1    3    3    0  502  0.79728671450E+03 -0.27634973894E+03  0.88836266710E+03  0.12252449243E+04  0.12699999809E+01 0. -1.
</event>
<event>
 5   0  0.2555801E-05  0.2632813E+04  0.7818609E-02  0.8357140E-01
        2   -1    0    0  501    0  0.00000000000E+00  0.00000000000E+00  0.22677486734E+04  0.22677486734E+04  0.25500000920E-02 0.  1.
       -2   -1    0    0    0  501  0.00000000000E+00  0.00000000000E+00 -0.76416162481E+03  0.76416162481E+03  0.25500000920E-02 0. -1.
    10030    2    1    2    0    0  0.00000000000E+00  0.00000000000E+00  0.15035870486E+04  0.30319102982E+04  0.26328133325E+04 0.  0.
        1    1    3    3  502    0  0.48324843052E+03  0.99858079497E+01 -0.65827501868E+03  0.81667298364E+03  0.50400001928E-02 0. -1.
       -1    1    3    3    0  502 -0.48324843052E+03 -0.99858079497E+01  0.21618620673E+04  0.22152373146E+04  0.50400001928E-02 0.  1.
</event>
<event>
 5   0  0.2528460E-05  0.2592259E+04  0.7818609E-02  0.8370835E-01
        2   -1    0    0  501    0  0.00000000000E+00  0.00000000000E+00  0.21389682589E+04  0.21389682589E+04  0.25500000920E-02 0. -1.
       -2   -1    0    0    0  501  0.00000000000E+00  0.00000000000E+00 -0.78540262486E+03  0.78540262486E+03  0.25500000920E-02 0.  1.
    10030    2    1    2    0    0  0.00000000000E+00  0.00000000000E+00  0.13535656341E+04  0.29243708838E+04  0.25922586947E+04 0.  0.
        5    1    3    3  502    0 -0.69402189575E+03 -0.81812688803E+03  0.14972358097E+04  0.18419378808E+04  0.46999998093E+01 0. -1.
       -5    1    3    3    0  502  0.69402189575E+03  0.81812688803E+03 -0.14367017564E+03  0.10824330030E+04  0.46999998093E+01 0.  1.
</event>
<event>
 5   0  0.2517854E-05  0.2592782E+04  0.7818609E-02  0.8370657E-01
       -2   -1    0    0    0  501  0.00000000000E+00  0.00000000000E+00  0.15021216025E+04  0.15021216025E+04  0.25500000920E-02 0. -1.
        2   -1    0    0  501    0  0.00000000000E+00  0.00000000000E+00 -0.11188376031E+04  0.11188376031E+04  0.25500000920E-02 0.  1.
    10030    2    1    2    0    0  0.00000000000E+00  0.00000000000E+00  0.38328399935E+03  0.26209592056E+04  0.25927823922E+04 0.  0.
        4    1    3    3  502    0  0.29901660446E+03  0.55346199620E+03  0.13374937155E+04  0.14780467391E+04  0.12699999809E+01 0. -1.
       -4    1    3    3    0  502 -0.29901660446E+03 -0.55346199620E+03 -0.95420971613E+03  0.11429124666E+04  0.12699999809E+01 0.  1.
</event>
<event>
 5   0  0.2662024E-05  0.2623007E+04  0.7818609E-02  0.8360428E-01
        2   -1    0    0  501    0  0.00000000000E+00  0.00000000000E+00  0.13550298917E+04  0.13550298917E+04  0.25500000920E-02 0.  1.
       -2   -1    0    0    0  501  0.00000000000E+00  0.00000000000E+00 -0.12693757135E+04  0.12693757135E+04  0.25500000920E-02 0. -1.
    10030    2    1    2    0    0  0.00000000000E+00  0.00000000000E+00  0.85654178188E+02  0.26244056051E+04  0.26230074613E+04 0.  0.
        2    1    3    3  502    0  0.12597408963E+04 -0.12010084432E+03  0.38749684524E+03  0.13234519801E+04  0.25500000920E-02 0.  1.
       -2    1    3    3    0  502 -0.12597408963E+04  0.12010084432E+03 -0.30184266705E+03  0.13009536250E+04  0.25500000920E-02 0. -1.
</event>
<event>
 5   0  0.2528460E-05  0.2741085E+04  0.7818609E-02  0.8321796E-01
       -2   -1    0    0    0  501  0.00000000000E+00  0.00000000000E+00  0.17114751388E+04  0.17114751388E+04  0.25500000920E-02 0. -1.
        2   -1    0    0  501    0  0.00000000000E+00  0.00000000000E+00 -0.10975246394E+04  0.10975246394E+04  0.25500000920E-02 0.  1.
    10030    2    1    2    0    0  0.00000000000E+00  0.00000000000E+00  0.61395049934E+03  0.28089997782E+04  0.27410845551E+04 0.  0.
        5    1    3    3  502    0  0.22946561831E+03 -0.94154365375E+03  0.13001130193E+04  0.16215655629E+04  0.46999998093E+01 0. -1.
       -5    1    3    3    0  502 -0.22946561831E+03  0.94154365375E+03 -0.68616251995E+03  0.11874342153E+04  0.46999998093E+01 0.  1.
</event>
<event>
 5   0  0.2528460E-05  0.2644005E+04  0.7818609E-02  0.8353405E-01
       -2   -1    0    0    0  501  0.00000000000E+00  0.00000000000E+00  0.14067898831E+04  0.14067898831E+04  0.25500000920E-02 0.  1.
        2   -1    0    0  501    0  0.00000000000E+00  0.00000000000E+00 -0.12423256172E+04  0.12423256172E+04  0.25500000920E-02 0. -1.
    10030    2    1    2    0    0  0.00000000000E+00  0.00000000000E+00  0.16446426590E+03  0.26491155003E+04  0.26440053781E+04 0.  0.
        5    1    3    3  502    0  0.23913652355E+01 -0.54750835642E+01 -0.12423037196E+04  0.12423269767E+04  0.46999998093E+01 0. -1.
       -5    1    3    3    0  502 -0.23913652355E+01  0.54750835642E+01  0.14067679855E+04  0.14067885236E+04  0.46999998093E+01 0.  1.
</event>
<event>
 5   0  0.9855352E-06  0.2489115E+04  0.7818609E-02  0.8406874E-01
        1   -1    0    0  501    0  0.00000000000E+00  0.00000000000E+00  0.12990149971E+04  0.12990149971E+04  0.50400001928E-02 0. -1.
       -1   -1    0    0    0  501  0.00000000000E+00  0.00000000000E+00 -0.11923825034E+04  0.11923825034E+04  0.50400001928E-02 0.  1.
    10030    2    1    2    0    0  0.00000000000E+00  0.00000000000E+00  0.10663249371E+03  0.24913975005E+04  0.24891145045E+04 0.  0.
        2    1    3    3  502    0 -0.83299737481E+03 -0.29508480182E+03 -0.82382255215E+03  0.12081569700E+04  0.25500000920E-02 0.  1.
       -2    1    3    3    0  502  0.83299737481E+03  0.29508480182E+03  0.93045504587E+03  0.12832405305E+04  0.25500000920E-02 0. -1.
</event>
<event>
 5   0  0.9855352E-06  0.2608829E+04  0.7818609E-02  0.8365208E-01
        1   -1    0    0  501    0  0.00000000000E+00  0.00000000000E+00  0.11586381557E+04  0.11586381557E+04  0.50400001928E-02 0.  1.
       -1   -1    0    0    0  501  0.00000000000E+00  0.00000000000E+00 -0.14685317586E+04  0.14685317586E+04  0.50400001928E-02 0. -1.
    10030    2    1    2    0    0  0.00000000000E+00  0.00000000000E+00 -0.30989360290E+03  0.26271699144E+04  0.26088288012E+04 0.  0.
        2    1    3    3  502    0  0.80146332234E+03  0.83388446533E+02  0.87803268481E+03  0.11917375909E+04  0.25500000920E-02 0.  1.
       -2    1    3    3    0  502 -0.80146332234E+03 -0.83388446533E+02 -0.11879262877E+04  0.14354323234E+04  0.25500000920E-02 0. -1.
</event>
<event>
 5   0  0.9855352E-06  0.2679313E+04  0.7818609E-02  0.8341749E-01
        1   -1    0    0  501    0  0.00000000000E+00  0.00000000000E+00  0.26040189594E+04  0.26040189594E+04  0.50400001928E-02 0. -1.
       -1   -1    0    0    0  501  0.00000000000E+00  0.00000000000E+00 -0.68919595068E+03  0.68919595070E+03  0.50400001928E-02 0.  1.
    10030    2    1    2    0    0  0.00000000000E+00  0.00000000000E+00  0.19148230087E+04  0.32932149101E+04  0.26793128390E+04 0.  0.
        2    1    3    3  502    0  0.27394818247E+03 -0.61545756149E+02 -0.65262427456E+03  0.71046036520E+03  0.25500000920E-02 0.  1.
       -2    1    3    3    0  502 -0.27394818247E+03  0.61545756149E+02  0.25674472833E+04  0.25827545449E+04  0.25500000920E-02 0. -1.
</event>
<event>
 5   0  0.1034714E-05  0.2526013E+04  0.7818609E-02  0.8393777E-01
        1   -1    0    0  501    0  0.00000000000E+00  0.00000000000E+00  0.12221233087E+04  0.12221233088E+04  0.50400001928E-02 0.  1.
       -1   -1    0    0    0  501  0.00000000000E+00  0.00000000000E+00 -0.13052569742E+04  0.13052569742E+04  0.50400001928E-02 0. -1.
    10030    2    1    2    0    0  0.00000000000E+00  0.00000000000E+00 -0.83133665450E+02  0.25273802830E+04  0.25260126461E+04 0.  0.
        5    1    3    3  502    0  0.56921719822E+02 -0.66818435557E+03 -0.11124044241E+04  0.12989134336E+04  0.46999998093E+01 0. -1.
       -5    1    3    3    0  502 -0.56921719822E+02  0.66818435557E+03  0.10292707587E+04  0.12284668493E+04  0.46999998093E+01 0.  1.
</event>
<event>
 5   0  0.2484618E-05  0.2562144E+04  0.7818609E-02  0.8381175E-01
       -2   -1    0    0    0  501  0.00000000000E+00  0.00000000000E+00  0.13828514306E+04  0.13828514306E+04  0.25500000920E-02 0. -1.
        2   -1    0    0  501    0  0.00000000000E+00  0.00000000000E+00 -0.11867839976E+04  0.11867839976E+04  0.25500000920E-02 0.  1.
    10030    2    1    2    0    0  0.00000000000E+00  0.00000000000E+00  0.19606743304E+03  0.25696354282E+04  0.25621443744E+04 0.  0.
        3    1    3    3  502    0 -0.11108813053E+04 -0.52112525037E+03  0.46723654797E+03  0.13129885007E+04  0.10100000352E+00 0. -1.
       -3    1    3    3    0  502  0.11108813053E+04  0.52112525037E+03 -0.27116911493E+03  0.12566469274E+04  0.10100000352E+00 0.  1.
</event>
<event>
 5   0  0.1025153E-05  0.2635849E+04  0.7818609E-02  0.8356125E-01
       -1   -1    0    0    0  501  0.00000000000E+00  0.00000000000E+00  0.87832384499E+03  0.87832384501E+03  0.50400001928E-02 0. -1.
        1   -1    0    0  501    0  0.00000000000E+00  0.00000000000E+00 -0.19775454793E+04  0.19775454793E+04  0.50400001928E-02 0.  1.
    10030    2    1    2    0    0  0.00000000000E+00  0.00000000000E+00 -0.10992216343E+04  0.28558693243E+04  0.26358492742E+04 0.  0.
        1    1    3    3  502    0  0.70109518373E+03 -0.74411576625E+03  0.35148544974E+03  0.10811034879E+04  0.50400001928E-02 0. -1.
       -1    1    3    3    0  502 -0.70109518373E+03  0.74411576625E+03 -0.14507070840E+04  0.17747658363E+04  0.50400001928E-02 0.  1.
</event>
<event>
 5   0  0.9855352E-06  0.2609269E+04  0.7818609E-02  0.8365060E-01
        1   -1    0    0  501    0  0.00000000000E+00  0.00000000000E+00  0.15786403291E+04  0.15786403291E+04  0.50400001928E-02 0. -1.
       -1   -1    0    0    0  501  0.00000000000E+00  0.00000000000E+00 -0.10781880456E+04  0.10781880456E+04  0.50400001928E-02 0.  1.
    10030    2    1    2    0    0  0.00000000000E+00  0.00000000000E+00  0.50045228347E+03  0.26568283748E+04  0.26092689637E+04 0.  0.
        2    1    3    3  502    0  0.79017903748E+03  0.31210495106E+03 -0.75791059244E+03  0.11385169643E+04  0.25500000920E-02 0.  1.
       -2    1    3    3    0  502 -0.79017903748E+03 -0.31210495106E+03  0.12583628759E+04  0.15183114105E+04  0.25500000920E-02 0. -1.
</event>
<event>
 5   0  0.1034714E-05  0.2571017E+04  0.7818609E-02  0.8378113E-01
        1   -1    0    0  501    0  0.00000000000E+00  0.00000000000E+00  0.13580069380E+04  0.13580069380E+04  0.50400001928E-02 0.  1.
       -1   -1    0    0    0  501  0.00000000000E+00  0.00000000000E+00 -0.12168801363E+04  0.12168801363E+04  0.50400001928E-02 0. -1.
    10030    2    1    2    0    0  0.00000000000E+00  0.00000000000E+00  0.14112680176E+03  0.25748870743E+04  0.25710166610E+04 0.  0.
        5    1    3    3  502    0  0.11985874952E+04 -0.37609934179E+03 -0.20269690163E+03  0.12724664327E+04  0.46999998093E+01 0.  1.
       -5    1    3    3    0  502 -0.11985874952E+04  0.37609934179E+03  0.34382370339E+03  0.13024206416E+04  0.46999998093E+01 0. -1.
</event>
<event>
 5   0  0.2662024E-05  0.2599031E+04  0.7818609E-02  0.8368530E-01
        2   -1    0    0  501    0  0.00000000000E+00  0.00000000000E+00  0.71815347922E+03  0.71815347922E+03  0.25500000920E-02 0.  1.
       -2   -1    0    0    0  501  0.00000000000E+00  0.00000000000E+00 -0.23515035568E+04  0.23515035568E+04  0.25500000920E-02 0. -1.
    10030    2    1    2    0    0  0.00000000000E+00  0.00000000000E+00 -0.16333500776E+04  0.30696570360E+04  0.25990309430E+04 0.  0.
        2    1    3    3  502    0 -0.10014795182E+04  0.39517081954E+03  0.42853478544E+02  0.10774774348E+04  0.25500000920E-02 0.  1.
       -2    1    3    3    0  502  0.10014795182E+04 -0.39517081954E+03 -0.16762035561E+04  0.19921796012E+04  0.25500000920E-02 0. -1.
</event>
<event>
 5   0  0.2517854E-05  0.2421202E+04  0.7818609E-02  0.8431608E-01
        2   -1    0    0  501    0  0.00000000000E+00  0.00000000000E+00  0.14397477977E+04  0.14397477977E+04  0.25500000920E-02 0. -1.
       -2   -1    0    0    0  501  0.00000000000E+00  0.00000000000E+00 -0.10179242815E+04  0.10179242815E+04  0.25500000920E-02 0.  1.
    10030    2    1    2    0    0  0.00000000000E+00  0.00000000000E+00  0.42182351621E+03  0.24576720793E+04  0.24212015551E+04 0.  0.
        4    1    3    3  502    0 -0.10467331949E+04 -0.49311477331E+03  0.57227998153E+03  0.12908596171E+04  0.12699999809E+01 0. -1.
       -4    1    3    3    0  502  0.10467331949E+04  0.49311477331E+03 -0.15045646532E+03  0.11668124622E+04  0.12699999809E+01 0.  1.
</event>
<event>
 5   0  0.1000421E-05  0.2846935E+04  0.7818609E-02  0.8288843E-01
        1   -1    0    0  501    0  0.00000000000E+00  0.00000000000E+00  0.20920240797E+04  0.20920240797E+04  0.50400001928E-02 0. -1.
       -1   -1    0    0    0  501  0.00000000000E+00  0.00000000000E+00 -0.96856393255E+03  0.96856393257E+03  0.50400001928E-02 0.  1.
    10030    2    1    2    0    0  0.00000000000E+00  0.00000000000E+00  0.11234601471E+04  0.30605880123E+04  0.28469345406E+04 0.  0.
        3    1    3    3  502    0 -0.25594356224E+03 -0.91387773901E+03  0.17022830581E+04  0.19489605560E+04  0.10100000352E+00 0. -1.
       -3    1    3    3    0  502  0.25594356224E+03  0.91387773901E+03 -0.57882291098E+03  0.11116274562E+04  0.10100000352E+00 0.  1.
</event>
<event>
 5   0  0.2662024E-05  0.2608427E+04  0.7818609E-02  0.8365345E-01
        2   -1    0    0  501    0  0.00000000000E+00  0.00000000000E+00  0.14009055760E+04  0.14009055760E+04  0.25500000920E-02 0. -1.
       -2   -1    0    0    0  501  0.00000000000E+00  0.00000000000E+00 -0.12141948264E+04  0.12141948264E+04  0.25500000920E-02 0.  1.
    10030    2    1    2    0    0  0.00000000000E+00  0.00000000000E+00  0.18671074960E+03  0.26151004023E+04  0.26084265775E+04 0.  0.
        2    1    3    3  502    0  0.47369811331E+03  0.21449638808E+02 -0.11247109129E+04  0.12205837239E+04  0.25500000920E-02 0.  1.
       -2    1    3    3    0  502 -0.47369811331E+03 -0.21449638808E+02  0.13114216625E+04  0.13945166784E+04  0.25500000920E-02 0. -1.
</event>
<event>
 5   0  0.1034714E-05  0.2604674E+04  0.7818609E-02  0.8366615E-01
        1   -1    0    0  501    0  0.00000000000E+00  0.00000000000E+00  0.16786768345E+04  0.16786768346E+04  0.50400001928E-02 0.  1.
       -1   -1    0    0    0  501  0.00000000000E+00  0.00000000000E+00 -0.10103682122E+04  0.10103682123E+04  0.50400001928E-02 0. -1.
    10030    2    1    2    0    0  0.00000000000E+00  0.00000000000E+00  0.66830862229E+03  0.26890450468E+04  0.26046740389E+04 0.  0.
        5    1    3    3  502    0 -0.42667659544E+03  0.37938832667E+03 -0.87426112766E+03  0.10441949190E+04  0.46999998093E+01 0. -1.
       -5    1    3    3    0  502  0.42667659544E+03 -0.37938832667E+03  0.15425697500E+04  0.16448501278E+04  0.46999998093E+01 0.  1.
</event>
<event>
 5   0  0.1005492E-05  0.2620352E+04  0.7818609E-02  0.8361321E-01
        1   -1    0    0  501    0  0.00000000000E+00  0.00000000000E+00  0.22420878995E+04  0.22420878996E+04  0.50400001928E-02 0.  1.
       -1   -1    0    0    0  501  0.00000000000E+00  0.00000000000E+00 -0.76560826603E+03  0.76560826604E+03  0.50400001928E-02 0. -1.
    10030    2    1    2    0    0  0.00000000000E+00  0.00000000000E+00  0.14764796335E+04  0.30076961656E+04  0.26203519070E+04 0.  0.
        4    1    3    3  502    0  0.65763536795E+03 -0.37987342294E+03 -0.48717521910E+03  0.90229119559E+03  0.12699999809E+01 0. -1.
       -4    1    3    3    0  502 -0.65763536795E+03  0.37987342294E+03  0.19636548526E+04  0.21054049700E+04  0.12699999809E+01 0.  1.
</event>
<event>
 5   0  0.9855352E-06  0.2589514E+04  0.7818609E-02  0.8371772E-01
       -1   -1    0    0    0  501  0.00000000000E+00  0.00000000000E+00  0.14730391174E+04  0.14730391174E+04  0.50400001928E-02 0. -1.
        1   -1    0    0  501    0  0.00000000000E+00  0.00000000000E+00 -0.11380521279E+04  0.11380521279E+04  0.50400001928E-02 0.  1.
    10030    2    1    2    0    0  0.00000000000E+00  0.00000000000E+00  0.33498698955E+03  0.26110912453E+04  0.25895137011E+04 0.  0.
        2    1    3    3  502    0 -0.82375314618E+02  0.54977128551E+03  0.13465794128E+04  0.14568151131E+04  0.25500000920E-02 0. -1.
       -2    1    3    3    0  502  0.82375314618E+02 -0.54977128551E+03 -0.10115924232E+04  0.11542761323E+04  0.25500000920E-02 0.  1.
</event>
<event>
 5   0  0.1034714E-05  0.2586475E+04  0.7818609E-02  0.8372810E-01
        1   -1    0    0  501    0  0.00000000000E+00  0.00000000000E+00  0.27673125883E+04  0.27673125883E+04  0.50400001928E-02 0.  1.
       -1   -1    0    0    0  501  0.00000000000E+00  0.00000000000E+00 -0.60436388713E+03  0.60436388715E+03  0.50400001928E-02 0. -1.
    10030    2    1    2    0    0  0.00000000000E+00  0.00000000000E+00  0.21629487012E+04  0.33716764755E+04  0.25864754341E+04 0.  0.
        5    1    3    3  502    0 -0.60459916131E+03  0.82211454113E+03  0.45945318903E+02  0.10215407613E+04  0.46999998093E+01 0. -1.
       -5    1    3    3    0  502  0.60459916131E+03 -0.82211454113E+03  0.21170033823E+04  0.23501357142E+04  0.46999998093E+01 0.  1.
</event>
<event>
 5   0  0.1025153E-05  0.2536699E+04  0.7818609E-02  0.8390027E-01
        1   -1    0    0  501    0  0.00000000000E+00  0.00000000000E+00  0.13224897385E+04  0.13224897386E+04  0.50400001928E-02 0. -1.
       -1   -1    0    0    0  501  0.00000000000E+00  0.00000000000E+00 -0.12164261032E+04  0.12164261032E+04  0.50400001928E-02 0.  1.
    10030    2    1    2    0    0  0.00000000000E+00  0.00000000000E+00  0.10606363536E+03  0.25389158417E+04  0.25366994612E+04 0.  0.
        1    1    3    3  502    0 -0.13378322473E+03 -0.24033472714E+03 -0.11862148941E+04  0.12176881815E+04  0.50400001928E-02 0.  1.
       -1    1    3    3    0  502  0.13378322473E+03  0.24033472714E+03  0.12922785295E+04  0.13212276602E+04  0.50400001928E-02 0. -1.
</event>
<event>
 5   0  0.2484618E-05  0.2600825E+04  0.7818609E-02  0.8367921E-01
        2   -1    0    0  501    0  0.00000000000E+00  0.00000000000E+00  0.19723360602E+04  0.19723360602E+04  0.25500000920E-02 0.  1.
       -2   -1    0    0    0  501  0.00000000000E+00  0.00000000000E+00 -0.85739582534E+03  0.85739582535E+03  0.25500000920E-02 0. -1.
    10030    2    1    2    0    0  0.00000000000E+00  0.00000000000E+00  0.11149402348E+04  0.28297318855E+04  0.26008250261E+04 0.  0.
        3    1    3    3  502    0  0.16995385220E+03  0.62141302749E+02 -0.84363015662E+03  0.86281962468E+03  0.10100000352E+00 0. -1.
       -3    1    3    3    0  502 -0.16995385220E+03 -0.62141302749E+02  0.19585703914E+04  0.19669122608E+04  0.10100000352E+00 0.  1.
</event>
<event>
 5   0  0.2484618E-05  0.2529373E+04  0.7818609E-02  0.8392595E-01
       -2   -1    0    0    0  501  0.00000000000E+00  0.00000000000E+00  0.11877723009E+04  0.11877723009E+04  0.25500000920E-02 0. -1.
        2   -1    0    0  501    0  0.00000000000E+00  0.00000000000E+00 -0.13465812287E+04  0.13465812287E+04  0.25500000920E-02 0.  1.
    10030    2    1    2    0    0  0.00000000000E+00  0.00000000000E+00 -0.15880892775E+03  0.25343535296E+04  0.25293729535E+04 0.  0.
        3    1    3    3  502    0 -0.20374790759E+03 -0.10072741666E+04 -0.81795656885E+03  0.13134562860E+04  0.10100000352E+00 0.  1.
       -3    1    3    3    0  502  0.20374790759E+03  0.10072741666E+04  0.65914764110E+03  0.12208972436E+04  0.10100000352E+00 0. -1.
</event>
<event>
 5   0  0.1034714E-05  0.2624178E+04  0.7818609E-02  0.8360034E-01
       -1   -1    0    0    0  501  0.00000000000E+00  0.00000000000E+00  0.12008712754E+04  0.12008712754E+04  0.50400001928E-02 0.  1.
        1   -1    0    0  501    0  0.00000000000E+00  0.00000000000E+00 -0.14336073993E+04  0.14336073993E+04  0.50400001928E-02 0. -1.
    10030    2    1    2    0    0  0.00000000000E+00  0.00000000000E+00 -0.23273612386E+03  0.26344786747E+04  0.26241783064E+04 0.  0.
        5    1    3    3  502    0  0.83454491463E+03  0.77941138914E+03 -0.76513099095E+03  0.13745526004E+04  0.46999998093E+01 0. -1.
       -5    1    3    3    0  502 -0.83454491463E+03 -0.77941138914E+03  0.53239486709E+03  0.12599260742E+04  0.46999998093E+01 0.  1.
</event>
<event>
 5   0  0.1000421E-05  0.2580418E+04  0.7818609E-02  0.8374883E-01
        1   -1    0    0  501    0  0.00000000000E+00  0.00000000000E+00  0.15476707317E+04  0.15476707317E+04  0.50400001928E-02 0. -1.
       -1   -1    0    0    0  501  0.00000000000E+00  0.00000000000E+00 -0.10755769047E+04  0.10755769047E+04  0.50400001928E-02 0.  1.
    10030    2    1    2    0    0  0.00000000000E+00  0.00000000000E+00  0.47209382699E+03  0.26232476363E+04  0.25804177143E+04 0.  0.
        3    1    3    3  502    0  0.33064573941E+03  0.49290909767E+03 -0.92854720762E+03  0.11020371639E+04  0.10100000352E+00 0.  1.
       -3    1    3    3    0  502 -0.33064573941E+03 -0.49290909767E+03  0.14006410346E+04  0.15212104725E+04  0.10100000352E+00 0. -1.
</event>
<event>
 5   0  0.1000421E-05  0.2524911E+04  0.7818609E-02  0.8394164E-01
        1   -1    0    0  501    0  0.00000000000E+00  0.00000000000E+00  0.19006475830E+04  0.19006475830E+04  0.50400001928E-02 0.  1.
       -1   -1    0    0    0  501  0.00000000000E+00  0.00000000000E+00 -0.83855324696E+03  0.83855324698E+03  0.50400001928E-02 0. -1.
    10030    2    1    2    0    0  0.00000000000E+00  0.00000000000E+00  0.10620943361E+04  0.27392008300E+04  0.25249112476E+04 0.  0.
        3    1    3    3  502    0 -0.27398733509E+03 -0.84527495533E+03 -0.44185539054E+03  0.99236838233E+03  0.10100000352E+00 0. -1.
       -3    1    3    3    0  502  0.27398733509E+03  0.84527495533E+03  0.15039497266E+04  0.17468324477E+04  0.10100000352E+00 0.  1.
</event>
<event>
 5   0  0.2662024E-05  0.2633539E+04  0.7818609E-02  0.8356897E-01
        2   -1    0    0  501    0  0.00000000000E+00  0.00000000000E+00  0.18872124949E+04  0.18872124949E+04  0.25500000920E-02 0.  1.
       -2   -1    0    0    0  501  0.00000000000E+00  0.00000000000E+00 -0.91875274605E+03  0.91875274606E+03  0.25500000920E-02 0. -1.
    10030    2    1    2    0    0  0.00000000000E+00  0.00000000000E+00  0.96845974881E+03  0.28059652409E+04  0.26335388070E+04 0.  0.
        2    1    3    3  502    0  0.43684736198E+03 -0.80251517714E+03  0.14944735458E+04  0.17516613275E+04  0.25500000920E-02 0.  1.
       -2    1    3    3    0  502 -0.43684736198E+03  0.80251517714E+03 -0.52601379699E+03  0.10543039134E+04  0.25500000920E-02 0. -1.
</event>
<event>
 5   0  0.2662024E-05  0.2493037E+04  0.7818609E-02  0.8405470E-01
       -2   -1    0    0    0  501  0.00000000000E+00  0.00000000000E+00  0.11403120839E+04  0.11403120839E+04  0.25500000920E-02 0.  1.
        2   -1    0    0  501    0  0.00000000000E+00  0.00000000000E+00 -0.13626168186E+04  0.13626168186E+04  0.25500000920E-02 0. -1.
    10030    2    1    2    0    0  0.00000000000E+00  0.00000000000E+00 -0.22230473470E+03  0.25029289025E+04  0.24930370426E+04 0.  0.
        2    1    3    3  502    0  0.67442936190E+03  0.54171528230E+03 -0.10122088561E+04  0.13314943408E+04  0.25500000920E-02 0. -1.
       -2    1    3    3    0  502 -0.67442936190E+03 -0.54171528230E+03  0.78990412139E+03  0.11714345617E+04  0.25500000920E-02 0.  1.
</event>
<event>
 5   0  0.1005492E-05  0.2641675E+04  0.7818609E-02  0.8354181E-01
       -1   -1    0    0    0  501  0.00000000000E+00  0.00000000000E+00  0.11663503344E+04  0.11663503344E+04  0.50400001928E-02 0. -1.
        1   -1    0    0  501    0  0.00000000000E+00  0.00000000000E+00 -0.14957869179E+04  0.14957869179E+04  0.50400001928E-02 0.  1.
    10030    2    1    2    0    0  0.00000000000E+00  0.00000000000E+00 -0.32943658356E+03  0.26621372523E+04  0.26416749019E+04 0.  0.
        4    1    3    3  502    0  0.38517048949E+03 -0.11425057304E+04 -0.70827960887E+03  0.13983337467E+04  0.12699999809E+01 0.  1.
       -4    1    3    3    0  502 -0.38517048949E+03  0.11425057304E+04  0.37884302531E+03  0.12638035056E+04  0.12699999809E+01 0. -1.
</event>
<event>
 5   0  0.2555801E-05  0.2597929E+04  0.7818609E-02  0.8368905E-01
       -2   -1    0    0    0  501  0.00000000000E+00  0.00000000000E+00  0.95378409104E+03  0.95378409105E+03  0.25500000920E-02 0. -1.
        2   -1    0    0  501    0  0.00000000000E+00  0.00000000000E+00 -0.17690673696E+04  0.17690673696E+04  0.25500000920E-02 0.  1.
    10030    2    1    2    0    0  0.00000000000E+00  0.00000000000E+00 -0.81528327853E+03  0.27228514606E+04  0.25979286465E+04 0.  0.
        1    1    3    3  502    0 -0.66028098104E+03 -0.41694024061E+03 -0.14955817850E+04  0.16871796033E+04  0.50400001928E-02 0.  1.
       -1    1    3    3    0  502  0.66028098104E+03  0.41694024061E+03  0.68029850645E+03  0.10356718573E+04  0.50400001928E-02 0. -1.
</event>
<event>
 5   0  0.8605000E-06  0.2610141E+04  0.7818609E-02  0.8364765E-01
       -3   -1    0    0    0  501  0.00000000000E+00  0.00000000000E+00  0.77538988546E+03  0.77538989204E+03  0.10100000352E+00 0. -1.
        3   -1    0    0  501    0  0.00000000000E+00  0.00000000000E+00 -0.21965839933E+04  0.21965839956E+04  0.10100000352E+00 0.  1.
    10030    2    1    2    0    0  0.00000000000E+00  0.00000000000E+00 -0.14211941078E+04  0.29719738876E+04  0.26101410109E+04 0.  0.
        5    1    3    3  502    0  0.79552815525E+03 -0.10299236753E+04 -0.59915640545E+03  0.14326961684E+04  0.46999998093E+01 0. -1.
       -5    1    3    3    0  502 -0.79552815525E+03  0.10299236753E+04 -0.82203770237E+03  0.15392777192E+04  0.46999998093E+01 0.  1.
</event>
<event>
 5   0  0.2528460E-05  0.2608910E+04  0.7818609E-02  0.8365181E-01
       -2   -1    0    0    0  501  0.00000000000E+00  0.00000000000E+00  0.13433386579E+04  0.13433386579E+04  0.25500000920E-02 0.  1.
        2   -1    0    0  501    0  0.00000000000E+00  0.00000000000E+00 -0.12666969327E+04  0.12666969327E+04  0.25500000920E-02 0. -1.
    10030    2    1    2    0    0  0.00000000000E+00  0.00000000000E+00  0.76641725210E+02  0.26100355905E+04  0.26089100847E+04 0.  0.
        5    1    3    3  502    0  0.46345837612E+03 -0.43182061859E+02  0.12574205317E+04  0.13408157370E+04  0.46999998093E+01 0.  1.
       -5    1    3    3    0  502 -0.46345837612E+03  0.43182061859E+02 -0.11807788065E+04  0.12692198536E+04  0.46999998093E+01 0. -1.
</event>
<event>
 5   0  0.2528460E-05  0.2794055E+04  0.7818609E-02  0.8305116E-01
        2   -1    0    0  501    0  0.00000000000E+00  0.00000000000E+00  0.11133865482E+04  0.11133865482E+04  0.25500000920E-02 0. -1.
       -2   -1    0    0    0  501  0.00000000000E+00  0.00000000000E+00 -0.17529279208E+04  0.17529279208E+04  0.25500000920E-02 0.  1.
    10030    2    1    2    0    0  0.00000000000E+00  0.00000000000E+00 -0.63954137258E+03  0.28663144690E+04  0.27940553802E+04 0.  0.
        5    1    3    3  502    0  0.33970657193E+03  0.11339281730E+04 -0.10808955310E+04  0.16029818763E+04  0.46999998093E+01 0.  1.
       -5    1    3    3    0  502 -0.33970657193E+03 -0.11339281730E+04  0.44135415846E+03  0.12633325927E+04  0.46999998093E+01 0. -1.
</event>
<event>
 5   0  0.2662024E-05  0.2598443E+04  0.7818609E-02  0.8368730E-01
       -2   -1    0    0    0  501  0.00000000000E+00  0.00000000000E+00  0.15213430425E+04  0.15213430425E+04  0.25500000920E-02 0.  1.
        2   -1    0    0  501    0  0.00000000000E+00  0.00000000000E+00 -0.11095302502E+04  0.11095302502E+04  0.25500000920E-02 0. -1.
    10030    2    1    2    0    0  0.00000000000E+00  0.00000000000E+00  0.41181279231E+03  0.26308732927E+04  0.25984427079E+04 0.  0.
        2    1    3    3  502    0 -0.94957742108E+03 -0.87921431258E+03  0.32250023109E+03  0.13336871766E+04  0.25500000920E-02 0. -1.
       -2    1    3    3    0  502  0.94957742108E+03  0.87921431258E+03  0.89312561220E+02  0.12971861161E+04  0.25500000920E-02 0.  1.
</event>
<event>
 5   0  0.1034714E-05  0.2627259E+04  0.7818609E-02  0.8359000E-01
       -1   -1    0    0    0  501  0.00000000000E+00  0.00000000000E+00  0.99220041054E+03  0.99220041055E+03  0.50400001928E-02 0.  1.
        1   -1    0    0  501    0  0.00000000000E+00  0.00000000000E+00 -0.17391873872E+04  0.17391873873E+04  0.50400001928E-02 0. -1.
    10030    2    1    2    0    0  0.00000000000E+00  0.00000000000E+00 -0.74698697671E+03  0.27313877978E+04  0.26272589820E+04 0.  0.
        5    1    3    3  502    0 -0.25671767503E+03  0.65405690245E+03  0.78040938938E+03  0.10501215650E+04  0.46999998093E+01 0.  1.
       -5    1    3    3    0  502  0.25671767503E+03 -0.65405690245E+03 -0.15273963661E+04  0.16812662328E+04  0.46999998093E+01 0. -1.
</event>
<event>
 5   0  0.2484618E-05  0.2608174E+04  0.7818609E-02  0.8365430E-01
        2   -1    0    0  501    0  0.00000000000E+00  0.00000000000E+00  0.14057199726E+04  0.14057199726E+04  0.25500000920E-02 0. -1.
       -2   -1    0    0    0  501  0.00000000000E+00  0.00000000000E+00 -0.12098018291E+04  0.12098018291E+04  0.25500000920E-02 0.  1.
    10030    2    1    2    0    0  0.00000000000E+00  0.00000000000E+00  0.19591814346E+03  0.26155218018E+04  0.26081737627E+04 0.  0.
        3    1    3    3  502    0 -0.53758055283E+03 -0.78198847919E+03  0.99498672547E+03  0.13749536088E+04  0.10100000352E+00 0. -1.
       -3    1    3    3    0  502  0.53758055283E+03  0.78198847919E+03 -0.79906858201E+03  0.12405681929E+04  0.10100000352E+00 0.  1.
</event>
<event>
 5   0  0.1000421E-05  0.2650108E+04  0.7818609E-02  0.8351377E-01
       -1   -1    0    0    0  501  0.00000000000E+00  0.00000000000E+00  0.75224640479E+03  0.75224640480E+03  0.50400001928E-02 0.  1.
        1   -1    0    0  501    0  0.00000000000E+00  0.00000000000E+00 -0.23340335104E+04  0.23340335104E+04  0.50400001928E-02 0. -1.
    10030    2    1    2    0    0  0.00000000000E+00  0.00000000000E+00 -0.15817871056E+04  0.30862799152E+04  0.26501081615E+04 0.  0.
        3    1    3    3  502    0 -0.84914058629E+03 -0.10381870730E+03 -0.19693434982E+04  0.21471217672E+04  0.10100000352E+00 0. -1.
       -3    1    3    3    0  502  0.84914058629E+03  0.10381870730E+03  0.38755639258E+03  0.93915814797E+03  0.10100000352E+00 0.  1.
</event>
<event>
 5   0  0.2517854E-05  0.2586628E+04  0.7818609E-02  0.8372758E-01
        2   -1    0    0  501    0  0.00000000000E+00  0.00000000000E+00  0.13659451453E+04  0.13659451453E+04  0.25500000920E-02 0.  1.
       -2   -1    0    0    0  501  0.00000000000E+00  0.00000000000E+00 -0.12245446507E+04  0.12245446507E+04  0.25500000920E-02 0. -1.
    10030    2    1    2    0    0  0.00000000000E+00  0.00000000000E+00  0.14140049459E+03  0.25904897960E+04  0.25866277821E+04 0.  0.
        4    1    3    3  502    0  0.12827351682E+04  0.42262749079E+02 -0.89111049671E+02  0.12865216842E+04  0.12699999809E+01 0.  1.
       -4    1    3    3    0  502 -0.12827351682E+04 -0.42262749079E+02  0.23051154426E+03  0.13039681118E+04  0.12699999809E+01 0. -1.
</event>
<event>
 5   0  0.9855352E-06  0.2647921E+04  0.7818609E-02  0.8352103E-01
       -1   -1    0    0    0  501  0.00000000000E+00  0.00000000000E+00  0.17911845833E+04  0.17911845833E+04  0.50400001928E-02 0.  1.
        1   -1    0    0  501    0  0.00000000000E+00  0.00000000000E+00 -0.97860984461E+03  0.97860984463E+03  0.50400001928E-02 0. -1.
    10030    2    1    2    0    0  0.00000000000E+00  0.00000000000E+00  0.81257473869E+03  0.27697944279E+04  0.26479205930E+04 0.  0.
        2    1    3    3  502    0 -0.82769321244E+02  0.96725393019E+03  0.13479666136E+04  0.16611577040E+04  0.25500000920E-02 0.  1.
       -2    1    3    3    0  502  0.82769321244E+02 -0.96725393019E+03 -0.53539187493E+03  0.11086367240E+04  0.25500000920E-02 0. -1.
</event>
<event>
 5   0  0.1025153E-05  0.2597657E+04  0.7818609E-02  0.8368997E-01
       -1   -1    0    0    0  501  0.00000000000E+00  0.00000000000E+00  0.19267644313E+04  0.19267644313E+04  0.50400001928E-02 0.  1.
        1   -1    0    0  501    0  0.00000000000E+00  0.00000000000E+00 -0.87553802322E+03  0.87553802323E+03  0.50400001928E-02 0. -1.
    10030    2    1    2    0    0  0.00000000000E+00  0.00000000000E+00  0.10512264081E+04  0.28023024545E+04  0.25976570377E+04 0.  0.
        1    1    3    3  502    0  0.92667790305E+03 -0.90701003465E+03  0.60602675868E+03  0.14313167264E+04  0.50400001928E-02 0. -1.
       -1    1    3    3    0  502 -0.92667790305E+03  0.90701003465E+03  0.44519964940E+03  0.13709857282E+04  0.50400001928E-02 0.  1.
</event>
<event>
 5   0  0.2528460E-05  0.2588973E+04  0.7818609E-02  0.8371956E-01
       -2   -1    0    0    0  501  0.00000000000E+00  0.00000000000E+00  0.94384011892E+03  0.94384011892E+03  0.25500000920E-02 0.  1.
        2   -1    0    0  501    0  0.00000000000E+00  0.00000000000E+00 -0.17754021489E+04  0.17754021489E+04  0.25500000920E-02 0. -1.
    10030    2    1    2    0    0  0.00000000000E+00  0.00000000000E+00 -0.83156202997E+03  0.27192422678E+04  0.25889733682E+04 0.  0.
        5    1    3    3  502    0 -0.10515345957E+03  0.15960358262E+03 -0.17604913985E+04  0.17708423441E+04  0.46999998093E+01 0. -1.
       -5    1    3    3    0  502  0.10515345957E+03 -0.15960358262E+03  0.92892936849E+03  0.94839992370E+03  0.46999998093E+01 0.  1.
</event>
<event>
 5   0  0.1034714E-05  0.2625139E+04  0.7818609E-02  0.8359712E-01
       -1   -1    0    0    0  501  0.00000000000E+00  0.00000000000E+00  0.96993800204E+03  0.96993800205E+03  0.50400001928E-02 0. -1.
        1   -1    0    0  501    0  0.00000000000E+00  0.00000000000E+00 -0.17762363049E+04  0.17762363049E+04  0.50400001928E-02 0.  1.
    10030    2    1    2    0    0  0.00000000000E+00  0.00000000000E+00 -0.80629830287E+03  0.27461743070E+04  0.26251393051E+04 0.  0.
        5    1    3    3  502    0  0.12985485414E+04 -0.10511004282E+03 -0.57033172855E+03  0.14221732686E+04  0.46999998093E+01 0. -1.
       -5    1    3    3    0  502 -0.12985485414E+04  0.10511004282E+03 -0.23596657433E+03  0.13240010384E+04  0.46999998093E+01 0.  1.
</event>
<event>
 5   0  0.2484618E-05  0.2660741E+04  0.7818609E-02  0.8347857E-01
        2   -1    0    0  501    0  0.00000000000E+00  0.00000000000E+00  0.12708709616E+04  0.12708709616E+04  0.25500000920E-02 0.  1.
       -2   -1    0    0    0  501  0.00000000000E+00  0.00000000000E+00 -0.13926554449E+04  0.13926554449E+04  0.25500000920E-02 0. -1.
    10030    2    1    2    0    0  0.00000000000E+00  0.00000000000E+00 -0.12178448329E+03  0.26635264066E+04  0.26607407725E+04 0.  0.
        3    1    3    3  502    0 -0.58305390371E+03  0.10059562191E+04  0.58630267043E+03  0.13021714944E+04  0.10100000352E+00 0.  1.
       -3    1    3    3    0  502  0.58305390371E+03 -0.10059562191E+04 -0.70808715371E+03  0.13613549121E+04  0.10100000352E+00 0. -1.
</event>
<event>
 5   0  0.2555801E-05  0.2599070E+04  0.7818609E-02  0.8368517E-01
       -2   -1    0    0    0  501  0.00000000000E+00  0.00000000000E+00  0.75884670560E+03  0.75884670561E+03  0.25500000920E-02 0.  1.
        2   -1    0    0  501    0  0.00000000000E+00  0.00000000000E+00 -0.22254714272E+04  0.22254714272E+04  0.25500000920E-02 0. -1.
    10030    2    1    2    0    0  0.00000000000E+00  0.00000000000E+00 -0.14666247216E+04  0.29843181328E+04  0.25990703422E+04 0.  0.
        1    1    3    3  502    0 -0.45768480889E+03  0.32279019082E+03  0.61316117107E+03  0.83044296211E+03  0.50400001928E-02 0.  1.
       -1    1    3    3    0  502  0.45768480889E+03 -0.32279019082E+03 -0.20797858926E+04  0.21538751707E+04  0.50400001928E-02 0. -1.
</event>
<event>
 5   0  0.9855352E-06  0.2598056E+04  0.7818609E-02  0.8368862E-01
       -1   -1    0    0    0  501  0.00000000000E+00  0.00000000000E+00  0.10177680561E+04  0.10177680561E+04  0.50400001928E-02 0. -1.
        1   -1    0    0  501    0  0.00000000000E+00  0.00000000000E+00 -0.16580136438E+04  0.16580136438E+04  0.50400001928E-02 0.  1.
    10030    2    1    2    0    0  0.00000000000E+00  0.00000000000E+00 -0.64024558765E+03  0.26757816999E+04  0.25980556755E+04 0.  0.
        2    1    3    3  502    0 -0.39024147122E+03  0.10893853843E+04  0.28781131013E+03  0.11924278895E+04  0.25500000920E-02 0. -1.
       -2    1    3    3    0  502  0.39024147122E+03 -0.10893853843E+04 -0.92805689778E+03  0.14833538104E+04  0.25500000920E-02 0.  1.
</event>
<event>
 5   0  0.9855352E-06  0.2684716E+04  0.7818609E-02  0.8339981E-01
        1   -1    0    0  501    0  0.00000000000E+00  0.00000000000E+00  0.16040569705E+04  0.16040569705E+04  0.50400001928E-02 0. -1.
       -1   -1    0    0    0  501  0.00000000000E+00  0.00000000000E+00 -0.11233551266E+04  0.11233551266E+04  0.50400001928E-02 0.  1.
    10030    2    1    2    0    0  0.00000000000E+00  0.00000000000E+00  0.48070184395E+03  0.27274120971E+04  0.26847164626E+04 0.  0.
        2    1    3    3  502    0 -0.13033071718E+04 -0.31848450164E+03  0.19625955840E+03  0.13559350191E+04  0.25500000920E-02 0.  1.
       -2    1    3    3    0  502  0.13033071718E+04  0.31848450164E+03  0.28444228555E+03  0.13714770780E+04  0.25500000920E-02 0. -1.
</event>
<event>
 5   0  0.2484618E-05  0.2661753E+04  0.7818609E-02  0.8347523E-01
        2   -1    0    0  501    0  0.00000000000E+00  0.00000000000E+00  0.93253666401E+03  0.93253666401E+03  0.25500000920E-02 0. -1.
       -2   -1    0    0    0  501  0.00000000000E+00  0.00000000000E+00 -0.18993699610E+04  0.18993699610E+04  0.25500000920E-02 0.  1.
    10030    2    1    2    0    0  0.00000000000E+00  0.00000000000E+00 -0.96683329696E+03  0.28319066250E+04  0.26617529015E+04 0.  0.
        3    1    3    3  502    0  0.97705003599E+03 -0.89925001307E+03 -0.38852572316E+03  0.13835568679E+04  0.10100000352E+00 0. -1.
       -3    1    3    3    0  502 -0.97705003599E+03  0.89925001307E+03 -0.57830757380E+03  0.14483497571E+04  0.10100000352E+00 0.  1.
</event>
<event>
 5   0  0.2484618E-05  0.2675136E+04  0.7818609E-02  0.8343118E-01
        2   -1    0    0  501    0  0.00000000000E+00  0.00000000000E+00  0.14526041280E+04  0.14526041280E+04  0.25500000920E-02 0. -1.
       -2   -1    0    0    0  501  0.00000000000E+00  0.00000000000E+00 -0.12316423887E+04  0.12316423887E+04  0.25500000920E-02 0.  1.
    10030    2    1    2    0    0  0.00000000000E+00  0.00000000000E+00  0.22096173925E+03  0.26842465167E+04  0.26751364960E+04 0.  0.
        3    1    3    3  502    0  0.27520284226E+03 -0.13004617824E+04  0.25982102864E+03  0.13544166379E+04  0.10100000352E+00 0.  1.
       -3    1    3    3    0  502 -0.27520284226E+03  0.13004617824E+04 -0.38859289396E+02  0.13298298788E+04  0.10100000352E+00 0. -1.
</event>
<event>
 5   0  0.1005492E-05  0.2626348E+04  0.7818609E-02  0.8359306E-01
        1   -1    0    0  501    0  0.00000000000E+00  0.00000000000E+00  0.71432799705E+03  0.71432799707E+03  0.50400001928E-02 0. -1.
       -1   -1    0    0    0  501  0.00000000000E+00  0.00000000000E+00 -0.24140540896E+04  0.24140540896E+04  0.50400001928E-02 0.  1.
    10030    2    1    2    0    0  0.00000000000E+00  0.00000000000E+00 -0.16997260926E+04  0.31283820867E+04  0.26263483567E+04 0.  0.
        4    1    3    3  502    0 -0.19854692531E+03 -0.92264502195E+03  0.23776450083E+03  0.97325653804E+03  0.12699999809E+01 0. -1.
       -4    1    3    3    0  502  0.19854692531E+03  0.92264502195E+03 -0.19374905934E+04  0.21551255487E+04  0.12699999809E+01 0.  1.
</event>
<event>
 5   0  0.1005492E-05  0.2073246E+04  0.7818609E-02  0.8573121E-01
        1   -1    0    0  501    0  0.00000000000E+00  0.00000000000E+00  0.26024153082E+04  0.26024153082E+04  0.50400001928E-02 0.  1.
       -1   -1    0    0    0  501  0.00000000000E+00  0.00000000000E+00 -0.41291937020E+03  0.41291937024E+03  0.50400001928E-02 0. -1.
    10030    2    1    2    0    0  0.00000000000E+00  0.00000000000E+00  0.21894959380E+04  0.30153346785E+04  0.20732464303E+04 0.  0.
        4    1    3    3  502    0  0.54986381293E+02 -0.23373726771E+02 -0.41041188100E+03  0.41474010923E+03  0.12699999809E+01 0. -1.
       -4    1    3    3    0  502 -0.54986381293E+02  0.23373726771E+02  0.25999078190E+04  0.26005945692E+04  0.12699999809E+01 0.  1.
</event>
<event>
 5   0  0.1025153E-05  0.2634276E+04  0.7818609E-02  0.8356651E-01
       -1   -1    0    0    0  501  0.00000000000E+00  0.00000000000E+00  0.99098399106E+03  0.99098399108E+03  0.50400001928E-02 0. -1.
        1   -1    0    0  501    0  0.00000000000E+00  0.00000000000E+00 -0.17506367938E+04  0.17506367938E+04  0.50400001928E-02 0.  1.
    10030    2    1    2    0    0  0.00000000000E+00  0.00000000000E+00 -0.75965280276E+03  0.27416207849E+04  0.26342763992E+04 0.  0.
        1    1    3    3  502    0  0.35221852736E+03 -0.52102699488E+02  0.93994869637E+03  0.10051249346E+04  0.50400001928E-02 0. -1.
       -1    1    3    3    0  502 -0.35221852736E+03  0.52102699488E+02 -0.16996014991E+04  0.17364958503E+04  0.50400001928E-02 0.  1.
</event>
<event>
 5   0  0.1025153E-05  0.2604982E+04  0.7818609E-02  0.8366511E-01
       -1   -1    0    0    0  501  0.00000000000E+00  0.00000000000E+00  0.99667000597E+03  0.99667000598E+03  0.50400001928E-02 0. -1.
        1   -1    0    0  501    0  0.00000000000E+00  0.00000000000E+00 -0.17021505745E+04  0.17021505745E+04  0.50400001928E-02 0.  1.
    10030    2    1    2    0    0  0.00000000000E+00  0.00000000000E+00 -0.70548056854E+03  0.26988205805E+04  0.26049817069E+04 0.  0.
        1    1    3    3  502    0 -0.75187867023E+03  0.10031504373E+04 -0.71880996707E+03  0.14451021083E+04  0.50400001928E-02 0.  1.
       -1    1    3    3    0  502  0.75187867023E+03 -0.10031504373E+04  0.13329398526E+02  0.12537184722E+04  0.50400001928E-02 0. -1.
</event>
<event>
 5   0  0.9855352E-06  0.2669672E+04  0.7818609E-02  0.8344913E-01
       -1   -1    0    0    0  501  0.00000000000E+00  0.00000000000E+00  0.65403057095E+03  0.65403057097E+03  0.50400001928E-02 0. -1.
        1   -1    0    0  501    0  0.00000000000E+00  0.00000000000E+00 -0.27243168671E+04  0.27243168671E+04  0.50400001928E-02 0.  1.
    10030    2    1    2    0    0  0.00000000000E+00  0.00000000000E+00 -0.20702862962E+04  0.33783474381E+04  0.26696715274E+04 0.  0.
        2    1    3    3  502    0  0.33925405726E+03  0.12435608961E+04 -0.14739648714E+04  0.19580882155E+04  0.25500000920E-02 0.  1.
       -2    1    3    3    0  502 -0.33925405726E+03 -0.12435608961E+04 -0.59632142483E+03  0.14202592226E+04  0.25500000920E-02 0. -1.
</event>
<event>
 5   0  0.1034714E-05  0.2603706E+04  0.7818609E-02  0.8366944E-01
        1   -1    0    0  501    0  0.00000000000E+00  0.00000000000E+00  0.18276195358E+04  0.18276195359E+04  0.50400001928E-02 0. -1.
       -1   -1    0    0    0  501  0.00000000000E+00  0.00000000000E+00 -0.92733794631E+03  0.92733794633E+03  0.50400001928E-02 0.  1.
    10030    2    1    2    0    0  0.00000000000E+00  0.00000000000E+00  0.90028158953E+03  0.27549574822E+04  0.26037057799E+04 0.  0.
        5    1    3    3  502    0 -0.16833145804E+03  0.11286732391E+04  0.11130836118E+04  0.15941191854E+04  0.46999998093E+01 0.  1.
       -5    1    3    3    0  502  0.16833145804E+03 -0.11286732391E+04 -0.21280202232E+03  0.11608382967E+04  0.46999998093E+01 0. -1.
</event>
<event>
 5   0  0.9855352E-06  0.2544503E+04  0.7818609E-02  0.8387300E-01
       -1   -1    0    0    0  501  0.00000000000E+00  0.00000000000E+00  0.13452111842E+04  0.13452111842E+04  0.50400001928E-02 0.  1.
        1   -1    0    0  501    0  0.00000000000E+00  0.00000000000E+00 -0.12032493245E+04  0.12032493245E+04  0.50400001928E-02 0. -1.
    10030    2    1    2    0    0  0.00000000000E+00  0.00000000000E+00  0.14196185969E+03  0.25484605087E+04  0.25445034476E+04 0.  0.
        2    1    3    3  502    0  0.12144163310E+04  0.36773484095E+03  0.16379926779E+03  0.12794006950E+04  0.25500000920E-02 0.  1.
       -2    1    3    3    0  502 -0.12144163310E+04 -0.36773484095E+03 -0.21837408099E+02  0.12690598137E+04  0.25500000920E-02 0. -1.
</event>
<event>
 5   0  0.2555801E-05  0.2574787E+04  0.7818609E-02  0.8376816E-01
        2   -1    0    0  501    0  0.00000000000E+00  0.00000000000E+00  0.13719104289E+04  0.13719104289E+04  0.25500000920E-02 0.  1.
       -2   -1    0    0    0  501  0.00000000000E+00  0.00000000000E+00 -0.12080832136E+04  0.12080832136E+04  0.25500000920E-02 0. -1.
    10030    2    1    2    0    0  0.00000000000E+00  0.00000000000E+00  0.16382721528E+03  0.25799936425E+04  0.25747869502E+04 0.  0.
        1    1    3    3  502    0  0.71561485731E+03 -0.94605058466E+03  0.58319079291E+03  0.13218274599E+04  0.50400001928E-02 0.  1.
       -1    1    3    3    0  502 -0.71561485731E+03  0.94605058466E+03 -0.41936357763E+03  0.12581661826E+04  0.50400001928E-02 0. -1.
</event>
<event>
 5   0  0.2555801E-05  0.2470624E+04  0.7818609E-02  0.8413526E-01
       -2   -1    0    0    0  501  0.00000000000E+00  0.00000000000E+00  0.87204235075E+03  0.87204235076E+03  0.25500000920E-02 0.  1.
        2   -1    0    0  501    0  0.00000000000E+00  0.00000000000E+00 -0.17499094861E+04  0.17499094861E+04  0.25500000920E-02 0. -1.
    10030    2    1    2    0    0  0.00000000000E+00  0.00000000000E+00 -0.87786713534E+03  0.26219518369E+04  0.24706235503E+04 0.  0.
        1    1    3    3  502    0  0.97321573373E+03  0.37128655906E+03  0.26581432851E+03  0.10750162001E+04  0.50400001928E-02 0.  1.
       -1    1    3    3    0  502 -0.97321573373E+03 -0.37128655906E+03 -0.11436814639E+04  0.15469356367E+04  0.50400001928E-02 0. -1.
</event>
<event>
 5   0  0.2662024E-05  0.2573607E+04  0.7818609E-02  0.8377222E-01
       -2   -1    0    0    0  501  0.00000000000E+00  0.00000000000E+00  0.78771479274E+03  0.78771479274E+03  0.25500000920E-02 0.  1.
        2   -1    0    0  501    0  0.00000000000E+00  0.00000000000E+00 -0.21021108237E+04  0.21021108237E+04  0.25500000920E-02 0. -1.
    10030    2    1    2    0    0  0.00000000000E+00  0.00000000000E+00 -0.13143960310E+04  0.28898256165E+04  0.25736074229E+04 0.  0.
        2    1    3    3  502    0  0.90253872721E+03 -0.35310368726E+03 -0.16077357921E+04  0.18772513804E+04  0.25500000920E-02 0. -1.
       -2    1    3    3    0  502 -0.90253872721E+03  0.35310368726E+03  0.29333976111E+03  0.10125742361E+04  0.25500000920E-02 0.  1.
</event>
<event>
 5   0  0.1005492E-05  0.2547129E+04  0.7818609E-02  0.8386385E-01
       -1   -1    0    0    0  501  0.00000000000E+00  0.00000000000E+00  0.14679592931E+04  0.14679592931E+04  0.50400001928E-02 0. -1.
        1   -1    0    0  501    0  0.00000000000E+00  0.00000000000E+00 -0.11049123623E+04  0.11049123623E+04  0.50400001928E-02 0.  1.
    10030    2    1    2    0    0  0.00000000000E+00  0.00000000000E+00  0.36304693083E+03  0.25728716554E+04  0.25471288702E+04 0.  0.
        4    1    3    3  502    0 -0.13949736695E+03  0.10136799539E+04  0.94744686484E+03  0.13945120074E+04  0.12699999809E+01 0. -1.
       -4    1    3    3    0  502  0.13949736695E+03 -0.10136799539E+04 -0.58439993401E+03  0.11783596480E+04  0.12699999809E+01 0.  1.
</event>
<event>
 5   0  0.1005492E-05  0.2593009E+04  0.7818609E-02  0.8370580E-01
       -1   -1    0    0    0  501  0.00000000000E+00  0.00000000000E+00  0.95486669371E+03  0.95486669373E+03  0.50400001928E-02 0. -1.
        1   -1    0    0  501    0  0.00000000000E+00  0.00000000000E+00 -0.17603756322E+04  0.17603756323E+04  0.50400001928E-02 0.  1.
    10030    2    1    2    0    0  0.00000000000E+00  0.00000000000E+00 -0.80550893853E+03  0.27152423260E+04  0.25930091089E+04 0.  0.
        4    1    3    3  502    0  0.44068738042E+03 -0.64843435727E+03  0.67851531582E+03  0.10368496177E+04  0.12699999809E+01 0. -1.
       -4    1    3    3    0  502 -0.44068738042E+03  0.64843435727E+03 -0.14840242543E+04  0.16783927083E+04  0.12699999809E+01 0.  1.
</event>
<event>
 5   0  0.1025153E-05  0.2332003E+04  0.7818609E-02  0.8465409E-01
        1   -1    0    0  501    0  0.00000000000E+00  0.00000000000E+00  0.79672388269E+03  0.79672388271E+03  0.50400001928E-02 0. -1.
       -1   -1    0    0    0  501  0.00000000000E+00  0.00000000000E+00 -0.17064378284E+04  0.17064378284E+04  0.50400001928E-02 0.  1.
    10030    2    1    2    0    0  0.00000000000E+00  0.00000000000E+00 -0.90971394566E+03  0.25031617111E+04  0.23320032352E+04 0.  0.
        1    1    3    3  502    0  0.91311569031E+02 -0.17189617281E+03  0.77916211809E+03  0.80310628385E+03  0.50400001928E-02 0. -1.
       -1    1    3    3    0  502 -0.91311569031E+02  0.17189617281E+03 -0.16888760638E+04  0.17000554272E+04  0.50400001928E-02 0.  1.
</event>
<event>
 5   0  0.9855352E-06  0.2739540E+04  0.7818609E-02  0.8322289E-01
        1   -1    0    0  501    0  0.00000000000E+00  0.00000000000E+00  0.17058017793E+04  0.17058017794E+04  0.50400001928E-02 0.  1.
       -1   -1    0    0    0  501  0.00000000000E+00  0.00000000000E+00 -0.10999341136E+04  0.10999341136E+04  0.50400001928E-02 0. -1.
    10030    2    1    2    0    0  0.00000000000E+00  0.00000000000E+00  0.60586766572E+03  0.28057358930E+04  0.27395397922E+04 0.  0.
        2    1    3    3  502    0 -0.35622733013E+03 -0.12384215181E+04 -0.17270569483E+03  0.13001588458E+04  0.25500000920E-02 0.  1.
       -2    1    3    3    0  502  0.35622733013E+03  0.12384215181E+04  0.77857336055E+03  0.15055770472E+04  0.25500000920E-02 0. -1.
</event>
<event>
 5   0  0.9855352E-06  0.2600987E+04  0.7818609E-02  0.8367866E-01
        1   -1    0    0  501    0  0.00000000000E+00  0.00000000000E+00  0.11928304364E+04  0.11928304364E+04  0.50400001928E-02 0.  1.
       -1   -1    0    0    0  501  0.00000000000E+00  0.00000000000E+00 -0.14178742448E+04  0.14178742448E+04  0.50400001928E-02 0. -1.
    10030    2    1    2    0    0  0.00000000000E+00  0.00000000000E+00 -0.22504380843E+03  0.26107046812E+04  0.26009871620E+04 0.  0.
        2    1    3    3  502    0 -0.83583442192E+03 -0.72593665205E+03  0.57243539157E+03  0.12463087423E+04  0.25500000920E-02 0.  1.
       -2    1    3    3    0  502  0.83583442192E+03  0.72593665205E+03 -0.79747919999E+03  0.13643959389E+04  0.25500000920E-02 0. -1.
</event>
<event>
 5   0  0.2484618E-05  0.2337159E+04  0.7818609E-02  0.8463412E-01
        2   -1    0    0  501    0  0.00000000000E+00  0.00000000000E+00  0.49409980048E+03  0.49409980049E+03  0.25500000920E-02 0.  1.
       -2   -1    0    0    0  501  0.00000000000E+00  0.00000000000E+00 -0.27637706178E+04  0.27637706178E+04  0.25500000920E-02 0. -1.
    10030    2    1    2    0    0  0.00000000000E+00  0.00000000000E+00 -0.22696708173E+04  0.32578704183E+04  0.23371593962E+04 0.  0.
        3    1    3    3  502    0  0.74947350831E+03  0.28691273143E+03  0.49237383363E+02  0.80402349794E+03  0.10100000352E+00 0.  1.
       -3    1    3    3    0  502 -0.74947350831E+03 -0.28691273143E+03 -0.23189082007E+04  0.24538469203E+04  0.10100000352E+00 0. -1.
</event>
<event>
 5   0  0.2555801E-05  0.2450049E+04  0.7818609E-02  0.8421000E-01
        2   -1    0    0  501    0  0.00000000000E+00  0.00000000000E+00  0.19288195789E+04  0.19288195789E+04  0.25500000920E-02 0. -1.
       -2   -1    0    0    0  501  0.00000000000E+00  0.00000000000E+00 -0.77803265750E+03  0.77803265750E+03  0.25500000920E-02 0.  1.
    10030    2    1    2    0    0  0.00000000000E+00  0.00000000000E+00  0.11507869214E+04  0.27068522364E+04  0.24500486712E+04 0.  0.
        1    1    3    3  502    0 -0.10902391595E+04  0.33958710661E+03  0.85343499766E+02  0.11450870451E+04  0.50400001928E-02 0.  1.
       -1    1    3    3    0  502  0.10902391595E+04 -0.33958710661E+03  0.10654434217E+04  0.15617651913E+04  0.50400001928E-02 0. -1.
</event>
<event>
 5   0  0.2484618E-05  0.2595249E+04  0.7818609E-02  0.8369817E-01
       -2   -1    0    0    0  501  0.00000000000E+00  0.00000000000E+00  0.15949107197E+04  0.15949107197E+04  0.25500000920E-02 0.  1.
        2   -1    0    0  501    0  0.00000000000E+00  0.00000000000E+00 -0.10557517247E+04  0.10557517247E+04  0.25500000920E-02 0. -1.
    10030    2    1    2    0    0  0.00000000000E+00  0.00000000000E+00  0.53915899505E+03  0.26506624444E+04  0.25952493083E+04 0.  0.
        3    1    3    3  502    0 -0.30823213860E+03 -0.38590221602E+03 -0.95600097522E+03  0.10760415635E+04  0.10100000352E+00 0. -1.
       -3    1    3    3    0  502  0.30823213860E+03  0.38590221602E+03  0.14951599703E+04  0.15746208809E+04  0.10100000352E+00 0.  1.
</event>
<event>
 5   0  0.1025153E-05  0.2598643E+04  0.7818609E-02  0.8368662E-01
       -1   -1    0    0    0  501  0.00000000000E+00  0.00000000000E+00  0.71797320308E+03  0.71797320310E+03  0.50400001928E-02 0.  1.
        1   -1    0    0  501    0  0.00000000000E+00  0.00000000000E+00 -0.23513919891E+04  0.23513919892E+04  0.50400001928E-02 0. -1.
    10030    2    1    2    0    0  0.00000000000E+00  0.00000000000E+00 -0.16334187861E+04  0.30693651923E+04  0.25986430599E+04 0.  0.
        1    1    3    3  502    0 -0.34718736604E+03  0.29017797093E+03  0.62190647847E+03  0.76909686642E+03  0.50400001928E-02 0.  1.
       -1    1    3    3    0  502  0.34718736604E+03 -0.29017797093E+03 -0.22553252645E+04  0.23002683258E+04  0.50400001928E-02 0. -1.
</event>
<event>
 5   0  0.2662024E-05  0.2581764E+04  0.7818609E-02  0.8374422E-01
        2   -1    0    0  501    0  0.00000000000E+00  0.00000000000E+00  0.17499846979E+04  0.17499846979E+04  0.25500000920E-02 0.  1.
       -2   -1    0    0    0  501  0.00000000000E+00  0.00000000000E+00 -0.95222359154E+03  0.95222359154E+03  0.25500000920E-02 0. -1.
    10030    2    1    2    0    0  0.00000000000E+00  0.00000000000E+00  0.79776110637E+03  0.27022082895E+04  0.25817642915E+04 0.  0.
        2    1    3    3  502    0  0.54616612298E+03  0.21295357347E+03 -0.80487372361E+03  0.99572504704E+03  0.25500000920E-02 0. -1.
       -2    1    3    3    0  502 -0.54616612298E+03 -0.21295357347E+03  0.16026348300E+04  0.17064832424E+04  0.25500000920E-02 0.  1.
</event>
<event>
 5   0  0.2662024E-05  0.2605850E+04  0.7818609E-02  0.8366217E-01
       -2   -1    0    0    0  501  0.00000000000E+00  0.00000000000E+00  0.13033902593E+04  0.13033902593E+04  0.25500000920E-02 0.  1.
        2   -1    0    0  501    0  0.00000000000E+00  0.00000000000E+00 -0.13024594661E+04  0.13024594661E+04  0.25500000920E-02 0. -1.
    10030    2    1    2    0    0  0.00000000000E+00  0.00000000000E+00  0.93079327076E+00  0.26058497254E+04  0.26058495591E+04 0.  0.
        2    1    3    3  502    0  0.57536150008E+03 -0.30965545263E+03  0.11277123919E+04  0.13033275083E+04  0.25500000920E-02 0.  1.
       -2    1    3    3    0  502 -0.57536150008E+03  0.30965545263E+03 -0.11267815986E+04  0.13025222171E+04  0.25500000920E-02 0. -1.
</event>
<event>
 5   0  0.1025153E-05  0.2552392E+04  0.7818609E-02  0.8384555E-01
        1   -1    0    0  501    0  0.00000000000E+00  0.00000000000E+00  0.10141722923E+04  0.10141722923E+04  0.50400001928E-02 0. -1.
       -1   -1    0    0    0  501  0.00000000000E+00  0.00000000000E+00 -0.16059167379E+04  0.16059167379E+04  0.50400001928E-02 0.  1.
    10030    2    1    2    0    0  0.00000000000E+00  0.00000000000E+00 -0.59174444561E+03  0.26200890302E+04  0.25523920227E+04 0.  0.
        1    1    3    3  502    0  0.11980701844E+04 -0.43466722250E+03 -0.36371986323E+03  0.13253678358E+04  0.50400001928E-02 0. -1.
       -1    1    3    3    0  502 -0.11980701844E+04  0.43466722250E+03 -0.22802458237E+03  0.12947211945E+04  0.50400001928E-02 0.  1.
</event>
<event>
 5   0  0.1005492E-05  0.2598684E+04  0.7818609E-02  0.8368649E-01
        1   -1    0    0  501    0  0.00000000000E+00  0.00000000000E+00  0.19491027119E+04  0.19491027119E+04  0.50400001928E-02 0. -1.
       -1   -1    0    0    0  501  0.00000000000E+00  0.00000000000E+00 -0.86618783042E+03  0.86618783043E+03  0.50400001928E-02 0.  1.
    10030    2    1    2    0    0  0.00000000000E+00  0.00000000000E+00  0.10829148815E+04  0.28152905424E+04  0.25986835508E+04 0.  0.
        4    1    3    3  502    0 -0.24638511119E+03 -0.66530423434E+03  0.17207463642E+04  0.18612643580E+04  0.12699999809E+01 0. -1.
       -4    1    3    3    0  502  0.24638511119E+03  0.66530423434E+03 -0.63783148274E+03  0.95402618440E+03  0.12699999809E+01 0.  1.
</event>
<event>
 5   0  0.1034714E-05  0.2203983E+04  0.7818609E-02  0.8516772E-01
       -1   -1    0    0    0  501  0.00000000000E+00  0.00000000000E+00  0.11087799016E+04  0.11087799016E+04  0.50400001928E-02 0. -1.
        1   -1    0    0  501    0  0.00000000000E+00  0.00000000000E+00 -0.10952445161E+04  0.10952445161E+04  0.50400001928E-02 0.  1.
    10030    2    1    2    0    0  0.00000000000E+00  0.00000000000E+00  0.13535385452E+02  0.22040244177E+04  0.22039828555E+04 0.  0.
        5    1    3    3  502    0 -0.27034742155E+03 -0.79408618130E+03  0.72141563877E+03  0.11064010148E+04  0.46999998093E+01 0. -1.
       -5    1    3    3    0  502  0.27034742155E+03  0.79408618130E+03 -0.70788025332E+03  0.10976234030E+04  0.46999998093E+01 0.  1.
</event>
<event>
 5   0  0.2517854E-05  0.2726641E+04  0.7818609E-02  0.8326412E-01
       -2   -1    0    0    0  501  0.00000000000E+00  0.00000000000E+00  0.74746309234E+03  0.74746309235E+03  0.25500000920E-02 0. -1.
        2   -1    0    0  501    0  0.00000000000E+00  0.00000000000E+00 -0.24866011927E+04  0.24866011927E+04  0.25500000920E-02 0.  1.
    10030    2    1    2    0    0  0.00000000000E+00  0.00000000000E+00 -0.17391381004E+04  0.32340642851E+04  0.27266408762E+04 0.  0.
        4    1    3    3  502    0  0.11763394526E+04  0.31642524625E+03 -0.15956526666E+04  0.20074881045E+04  0.12699999809E+01 0.  1.
       -4    1    3    3    0  502 -0.11763394526E+04 -0.31642524625E+03 -0.14348543377E+03  0.12265761806E+04  0.12699999809E+01 0. -1.
</event>
<event>
 5   0  0.1034714E-05  0.2374335E+04  0.7818609E-02  0.8449175E-01
        1   -1    0    0  501    0  0.00000000000E+00  0.00000000000E+00  0.15798832364E+04  0.15798832364E+04  0.50400001928E-02 0. -1.
       -1   -1    0    0    0  501  0.00000000000E+00  0.00000000000E+00 -0.89207016284E+03  0.89207016286E+03  0.50400001928E-02 0.  1.
    10030    2    1    2    0    0  0.00000000000E+00  0.00000000000E+00  0.68781307355E+03  0.24719533993E+04  0.23743350193E+04 0.  0.
        5    1    3    3  502    0  0.55602815797E+03 -0.79372674328E+03 -0.36997823416E+03  0.10373405609E+04  0.46999998093E+01 0.  1.
       -5    1    3    3    0  502 -0.55602815797E+03  0.79372674328E+03  0.10577913077E+04  0.14346128384E+04  0.46999998093E+01 0. -1.
</event>
<event>
 5   0  0.2484618E-05  0.2566637E+04  0.7818609E-02  0.8379623E-01
       -2   -1    0    0    0  501  0.00000000000E+00  0.00000000000E+00  0.11822809368E+04  0.11822809368E+04  0.25500000920E-02 0.  1.
        2   -1    0    0  501    0  0.00000000000E+00  0.00000000000E+00 -0.13929902547E+04  0.13929902547E+04  0.25500000920E-02 0. -1.
    10030    2    1    2    0    0  0.00000000000E+00  0.00000000000E+00 -0.21070931784E+03  0.25752711915E+04  0.25666365721E+04 0.  0.
        3    1    3    3  502    0  0.17653221906E+03  0.12279021340E+04  0.22438222510E+03  0.12606564434E+04  0.10100000352E+00 0.  1.
       -3    1    3    3    0  502 -0.17653221906E+03 -0.12279021340E+04 -0.43509154294E+03  0.13146147481E+04  0.10100000352E+00 0. -1.
</event>
<event>
 5   0  0.1034714E-05  0.2592283E+04  0.7818609E-02  0.8370827E-01
       -1   -1    0    0    0  501  0.00000000000E+00  0.00000000000E+00  0.11863448811E+04  0.11863448811E+04  0.50400001928E-02 0. -1.
        1   -1    0    0  501    0  0.00000000000E+00  0.00000000000E+00 -0.14160996760E+04  0.14160996760E+04  0.50400001928E-02 0.  1.
    10030    2    1    2    0    0  0.00000000000E+00  0.00000000000E+00 -0.22975479488E+03  0.26024445572E+04  0.25922828564E+04 0.  0.
        5    1    3    3  502    0  0.34698950752E+03  0.12137852508E+04 -0.40977051192E+03  0.13272566880E+04  0.46999998093E+01 0.  1.
       -5    1    3    3    0  502 -0.34698950752E+03 -0.12137852508E+04  0.18001571704E+03  0.12751878692E+04  0.46999998093E+01 0. -1.
</event>
<event>
 5   0  0.1000421E-05  0.2606017E+04  0.7818609E-02  0.8366160E-01
       -1   -1    0    0    0  501  0.00000000000E+00  0.00000000000E+00  0.14187294560E+04  0.14187294560E+04  0.50400001928E-02 0.  1.
        1   -1    0    0  501    0  0.00000000000E+00  0.00000000000E+00 -0.11967262717E+04  0.11967262717E+04  0.50400001928E-02 0. -1.
    10030    2    1    2    0    0  0.00000000000E+00  0.00000000000E+00  0.22200318434E+03  0.26154557277E+04  0.26060167401E+04 0.  0.
        3    1    3    3  502    0  0.82710628980E+03 -0.23399970157E+03  0.10938187083E+04  0.13911506216E+04  0.10100000352E+00 0.  1.
       -3    1    3    3    0  502 -0.82710628980E+03  0.23399970157E+03 -0.87181552398E+03  0.12243051062E+04  0.10100000352E+00 0. -1.
</event>
<event>
 5   0  0.1000421E-05  0.2679011E+04  0.7818609E-02  0.8341847E-01
       -1   -1    0    0    0  501  0.00000000000E+00  0.00000000000E+00  0.92219969570E+03  0.92219969571E+03  0.50400001928E-02 0. -1.
        1   -1    0    0  501    0  0.00000000000E+00  0.00000000000E+00 -0.19456469239E+04  0.19456469240E+04  0.50400001928E-02 0.  1.
    10030    2    1    2    0    0  0.00000000000E+00  0.00000000000E+00 -0.10234472282E+04  0.28678466197E+04  0.26790110125E+04 0.  0.
        3    1    3    3  502    0 -0.44104176647E+03  0.80546698141E+03 -0.15556434131E+04  0.18064665335E+04  0.10100000352E+00 0.  1.
       -3    1    3    3    0  502  0.44104176647E+03 -0.80546698141E+03  0.53219618483E+03  0.10613800861E+04  0.10100000352E+00 0. -1.
</event>
<event>
 5   0  0.1034714E-05  0.2586677E+04  0.7818609E-02  0.8372741E-01
        1   -1    0    0  501    0  0.00000000000E+00  0.00000000000E+00  0.13124057914E+04  0.13124057914E+04  0.50400001928E-02 0.  1.
       -1   -1    0    0    0  501  0.00000000000E+00  0.00000000000E+00 -0.12745481796E+04  0.12745481797E+04  0.50400001928E-02 0. -1.
    10030    2    1    2    0    0  0.00000000000E+00  0.00000000000E+00  0.37857611774E+02  0.25869539711E+04  0.25866769512E+04 0.  0.
        5    1    3    3  502    0 -0.27613093056E+03 -0.80431815543E+03 -0.95561197121E+03  0.12792155078E+04  0.46999998093E+01 0. -1.
       -5    1    3    3    0  502  0.27613093056E+03  0.80431815543E+03  0.99346958298E+03  0.13077384633E+04  0.46999998093E+01 0.  1.
</event>
<event>
 5   0  0.2517854E-05  0.2496673E+04  0.7818609E-02  0.8404172E-01
       -2   -1    0    0    0  501  0.00000000000E+00  0.00000000000E+00  0.60778054427E+03  0.60778054428E+03  0.25500000920E-02 0. -1.
        2   -1    0    0  501    0  0.00000000000E+00  0.00000000000E+00 -0.25639919327E+04  0.25639919327E+04  0.25500000920E-02 0.  1.
    10030    2    1    2    0    0  0.00000000000E+00  0.00000000000E+00 -0.19562113884E+04  0.31717724770E+04  0.24966733165E+04 0.  0.
        4    1    3    3  502    0 -0.13005218848E+03  0.11836884973E+04 -0.50223845300E+03  0.12923920098E+04  0.12699999809E+01 0.  1.
       -4    1    3    3    0  502  0.13005218848E+03 -0.11836884973E+04 -0.14539729354E+04  0.18793804671E+04  0.12699999809E+01 0. -1.
</event>
<event>
 5   0  0.2484618E-05  0.2610737E+04  0.7818609E-02  0.8364563E-01
       -2   -1    0    0    0  501  0.00000000000E+00  0.00000000000E+00  0.13268935700E+04  0.13268935700E+04  0.25500000920E-02 0.  1.
        2   -1    0    0  501    0  0.00000000000E+00  0.00000000000E+00 -0.12841925663E+04  0.12841925663E+04  0.25500000920E-02 0. -1.
    10030    2    1    2    0    0  0.00000000000E+00  0.00000000000E+00  0.42701003765E+02  0.26110861363E+04  0.26107369525E+04 0.  0.
        3    1    3    3  502    0  0.11938065164E+04 -0.37699716381E+03  0.39111063239E+03  0.13115900263E+04  0.10100000352E+00 0. -1.
       -3    1    3    3    0  502 -0.11938065164E+04  0.37699716381E+03 -0.34840962863E+03  0.12994961099E+04  0.10100000352E+00 0.  1.
</event>
<event>
 5   0  0.2662024E-05  0.2586089E+04  0.7818609E-02  0.8372942E-01
        2   -1    0    0  501    0  0.00000000000E+00  0.00000000000E+00  0.16528942741E+04  0.16528942741E+04  0.25500000920E-02 0. -1.
       -2   -1    0    0    0  501  0.00000000000E+00  0.00000000000E+00 -0.10115373386E+04  0.10115373386E+04  0.25500000920E-02 0.  1.
    10030    2    1    2    0    0  0.00000000000E+00  0.00000000000E+00  0.64135693556E+03  0.26644316127E+04  0.25860891516E+04 0.  0.
        2    1    3    3  502    0  0.68253253758E+03  0.10218871113E+04 -0.93828000604E+02  0.12324397051E+04  0.25500000920E-02 0.  1.
       -2    1    3    3    0  502 -0.68253253758E+03 -0.10218871113E+04  0.73518493616E+03  0.14319919076E+04  0.25500000920E-02 0. -1.
</event>
<event>
 5   0  0.2555801E-05  0.2631014E+04  0.7818609E-02  0.8357742E-01
       -2   -1    0    0    0  501  0.00000000000E+00  0.00000000000E+00  0.11371486813E+04  0.11371486814E+04  0.25500000920E-02 0. -1.
        2   -1    0    0  501    0  0.00000000000E+00  0.00000000000E+00 -0.15218403549E+04  0.15218403549E+04  0.25500000920E-02 0.  1.
    10030    2    1    2    0    0  0.00000000000E+00  0.00000000000E+00 -0.38469167357E+03  0.26589890363E+04  0.26310140652E+04 0.  0.
        1    1    3    3  502    0  0.10795183736E+04 -0.73712480855E+03 -0.34172081491E+03  0.13511054799E+04  0.50400001928E-02 0. -1.
       -1    1    3    3    0  502 -0.10795183736E+04  0.73712480855E+03 -0.42970858661E+02  0.13078835564E+04  0.50400001928E-02 0.  1.
</event>
<event>
 5   0  0.2528460E-05  0.2595262E+04  0.7818609E-02  0.8369812E-01
       -2   -1    0    0    0  501  0.00000000000E+00  0.00000000000E+00  0.14134700449E+04  0.14134700449E+04  0.25500000920E-02 0.  1.
        2   -1    0    0  501    0  0.00000000000E+00  0.00000000000E+00 -0.11912857131E+04  0.11912857131E+04  0.25500000920E-02 0. -1.
    10030    2    1    2    0    0  0.00000000000E+00  0.00000000000E+00  0.22218433175E+03  0.26047557580E+04  0.25952623532E+04 0.  0.
        5    1    3    3  502    0  0.46922224181E+03 -0.28647050190E+02 -0.11028089883E+04  0.11988327324E+04  0.46999998093E+01 0. -1.
       -5    1    3    3    0  502 -0.46922224181E+03  0.28647050190E+02  0.13249933201E+04  0.14059230256E+04  0.46999998093E+01 0.  1.
</event>
<event>
 5   0  0.2484618E-05  0.2518729E+04  0.7818609E-02  0.8396344E-01
        2   -1    0    0  501    0  0.00000000000E+00  0.00000000000E+00  0.16160261658E+04  0.16160261658E+04  0.25500000920E-02 0. -1.
       -2   -1    0    0    0  501  0.00000000000E+00  0.00000000000E+00 -0.98141890633E+03  0.98141890633E+03  0.25500000920E-02 0.  1.
    10030    2    1    2    0    0  0.00000000000E+00  0.00000000000E+00  0.63460725943E+03  0.25974450721E+04  0.25187287525E+04 0.  0.
        3    1    3    3  502    0  0.90523985029E+03  0.43215323359E+02 -0.58448037930E+03  0.10783988477E+04  0.10100000352E+00 0.  1.
       -3    1    3    3    0  502 -0.90523985029E+03 -0.43215323359E+02  0.12190876387E+04  0.15190462244E+04  0.10100000352E+00 0. -1.
</event>
<event>
 5   0  0.1025153E-05  0.2584539E+04  0.7818609E-02  0.8373472E-01
       -1   -1    0    0    0  501  0.00000000000E+00  0.00000000000E+00  0.62906125339E+03  0.62906125341E+03  0.50400001928E-02 0.  1.
        1   -1    0    0  501    0  0.00000000000E+00  0.00000000000E+00 -0.26546867165E+04  0.26546867165E+04  0.50400001928E-02 0. -1.
    10030    2    1    2    0    0  0.00000000000E+00  0.00000000000E+00 -0.20256254631E+04  0.32837479699E+04  0.25845390717E+04 0.  0.
        1    1    3    3  502    0  0.53528965505E+02 -0.68898058133E+03  0.37457507775E+03  0.78604457920E+03  0.50400001928E-02 0.  1.
       -1    1    3    3    0  502 -0.53528965505E+02  0.68898058133E+03 -0.24002005409E+04  0.24977033907E+04  0.50400001928E-02 0. -1.
</event>
<event>
 5   0  0.1000421E-05  0.2598198E+04  0.7818609E-02  0.8368814E-01
        1   -1    0    0  501    0  0.00000000000E+00  0.00000000000E+00  0.11958014750E+04  0.11958014750E+04  0.50400001928E-02 0.  1.
       -1   -1    0    0    0  501  0.00000000000E+00  0.00000000000E+00 -0.14113193996E+04  0.14113193996E+04  0.50400001928E-02 0. -1.
    10030    2    1    2    0    0  0.00000000000E+00  0.00000000000E+00 -0.21551792455E+03  0.26071208746E+04  0.25981976982E+04 0.  0.
        3    1    3    3  502    0 -0.11761696922E+04 -0.45711612354E+03  0.20205294674E+03  0.12779498029E+04  0.10100000352E+00 0.  1.
       -3    1    3    3    0  502  0.11761696922E+04  0.45711612354E+03 -0.41757087129E+03  0.13291710717E+04  0.10100000352E+00 0. -1.
</event>
<event>
 5   0  0.1034714E-05  0.2597100E+04  0.7818609E-02  0.8369187E-01
       -1   -1    0    0    0  501  0.00000000000E+00  0.00000000000E+00  0.87159250898E+03  0.87159250899E+03  0.50400001928E-02 0. -1.
        1   -1    0    0  501    0  0.00000000000E+00  0.00000000000E+00 -0.19346557443E+04  0.19346557443E+04  0.50400001928E-02 0.  1.
    10030    2    1    2    0    0  0.00000000000E+00  0.00000000000E+00 -0.10630632353E+04  0.28062482532E+04  0.25970995007E+04 0.  0.
        5    1    3    3  502    0  0.12054600697E+02 -0.33921355413E+03 -0.18858642572E+04  0.19161725484E+04  0.46999998093E+01 0.  1.
       -5    1    3    3    0  502 -0.12054600697E+02  0.33921355413E+03  0.82280102191E+03  0.89007570485E+03  0.46999998093E+01 0. -1.
</event>
<event>
 5   0  0.1000421E-05  0.2496739E+04  0.7818609E-02  0.8404148E-01
       -1   -1    0    0    0  501  0.00000000000E+00  0.00000000000E+00  0.64220248265E+03  0.64220248267E+03  0.50400001928E-02 0. -1.
        1   -1    0    0  501    0  0.00000000000E+00  0.00000000000E+00 -0.24266908557E+04  0.24266908557E+04  0.50400001928E-02 0.  1.
    10030    2    1    2    0    0  0.00000000000E+00  0.00000000000E+00 -0.17844883730E+04  0.30688933384E+04  0.24967393874E+04 0.  0.
        3    1    3    3  502    0  0.27355378957E+03  0.12177686957E+04 -0.86127983200E+03  0.15164416346E+04  0.10100000352E+00 0.  1.
       -3    1    3    3    0  502 -0.27355378957E+03 -0.12177686957E+04 -0.92320854103E+03  0.15524517037E+04  0.10100000352E+00 0. -1.
</event>
<event>
 5   0  0.2662024E-05  0.2648590E+04  0.7818609E-02  0.8351881E-01
       -2   -1    0    0    0  501  0.00000000000E+00  0.00000000000E+00  0.13622525456E+04  0.13622525456E+04  0.25500000920E-02 0.  1.
        2   -1    0    0  501    0  0.00000000000E+00  0.00000000000E+00 -0.12873948296E+04  0.12873948296E+04  0.25500000920E-02 0. -1.
    10030    2    1    2    0    0  0.00000000000E+00  0.00000000000E+00  0.74857716008E+02  0.26496473752E+04  0.26485897257E+04 0.  0.
        2    1    3    3  502    0 -0.34355655261E+03  0.11413483445E+04 -0.53990620851E+03  0.13085128438E+04  0.25500000920E-02 0.  1.
       -2    1    3    3    0  502  0.34355655261E+03 -0.11413483445E+04  0.61476392452E+03  0.13411345314E+04  0.25500000920E-02 0. -1.
</event>
<event>
 5   0  0.2484618E-05  0.2602883E+04  0.7818609E-02  0.8367223E-01
        2   -1    0    0  501    0  0.00000000000E+00  0.00000000000E+00  0.16909914729E+04  0.16909914729E+04  0.25500000920E-02 0.  1.
       -2   -1    0    0    0  501  0.00000000000E+00  0.00000000000E+00 -0.10016311586E+04  0.10016311586E+04  0.25500000920E-02 0. -1.
    10030    2    1    2    0    0  0.00000000000E+00  0.00000000000E+00  0.68936031433E+03  0.26926226315E+04  0.26028828235E+04 0.  0.
        3    1    3    3  502    0 -0.87124542839E+03  0.95745046993E+03  0.48335310896E+03  0.13818141109E+04  0.10100000352E+00 0.  1.
       -3    1    3    3    0  502  0.87124542839E+03 -0.95745046993E+03  0.20600720537E+03  0.13108085206E+04  0.10100000352E+00 0. -1.
</event>
<event>
 5   0  0.1000421E-05  0.2616791E+04  0.7818609E-02  0.8362520E-01
       -1   -1    0    0    0  501  0.00000000000E+00  0.00000000000E+00  0.12037519041E+04  0.12037519041E+04  0.50400001928E-02 0.  1.
        1   -1    0    0  501    0  0.00000000000E+00  0.00000000000E+00 -0.14221360786E+04  0.14221360786E+04  0.50400001928E-02 0. -1.
    10030    2    1    2    0    0  0.00000000000E+00  0.00000000000E+00 -0.21838417453E+03  0.26258879827E+04  0.26167911743E+04 0.  0.
        3    1    3    3  502    0  0.29502237344E+03  0.88489904197E+03 -0.10298861170E+04  0.13895142819E+04  0.10100000352E+00 0. -1.
       -3    1    3    3    0  502 -0.29502237344E+03 -0.88489904197E+03  0.81150194248E+03  0.12363737009E+04  0.10100000352E+00 0.  1.
</event>
<event>
 5   0  0.9855352E-06  0.2550733E+04  0.7818609E-02  0.8385131E-01
       -1   -1    0    0    0  501  0.00000000000E+00  0.00000000000E+00  0.55890032992E+03  0.55890032994E+03  0.50400001928E-02 0. -1.
        1   -1    0    0  501    0  0.00000000000E+00  0.00000000000E+00 -0.29102858866E+04  0.29102858866E+04  0.50400001928E-02 0.  1.
    10030    2    1    2    0    0  0.00000000000E+00  0.00000000000E+00 -0.23513855567E+04  0.34691862166E+04  0.25507330258E+04 0.  0.
        2    1    3    3  502    0 -0.24381438771E+03  0.28959293467E+03 -0.28321103063E+04  0.28572991286E+04  0.25500000920E-02 0.  1.
       -2    1    3    3    0  502  0.24381438771E+03 -0.28959293467E+03  0.48072474961E+03  0.61188708792E+03  0.25500000920E-02 0. -1.
</event>
<event>
 5   0  0.2662024E-05  0.2349633E+04  0.7818609E-02  0.8458605E-01
       -2   -1    0    0    0  501  0.00000000000E+00  0.00000000000E+00  0.13757031107E+04  0.13757031107E+04  0.25500000920E-02 0.  1.
        2   -1    0    0  501    0  0.00000000000E+00  0.00000000000E+00 -0.10032639609E+04  0.10032639609E+04  0.25500000920E-02 0. -1.
    10030    2    1    2    0    0  0.00000000000E+00  0.00000000000E+00  0.37243914988E+03  0.23789670716E+04  0.23496326111E+04 0.  0.
        2    1    3    3  502    0 -0.11138910143E+04 -0.28704156882E+03  0.42804725435E+03  0.12273428641E+04  0.25500000920E-02 0.  1.
       -2    1    3    3    0  502  0.11138910143E+04  0.28704156882E+03 -0.55608104472E+02  0.11516242075E+04  0.25500000920E-02 0. -1.
</event>
<event>
 5   0  0.1005492E-05  0.2589196E+04  0.7818609E-02  0.8371880E-01
        1   -1    0    0  501    0  0.00000000000E+00  0.00000000000E+00  0.11493561777E+04  0.11493561777E+04  0.50400001928E-02 0.  1.
       -1   -1    0    0    0  501  0.00000000000E+00  0.00000000000E+00 -0.14581936992E+04  0.14581936992E+04  0.50400001928E-02 0. -1.
    10030    2    1    2    0    0  0.00000000000E+00  0.00000000000E+00 -0.30883752153E+03  0.26075498769E+04  0.25891959651E+04 0.  0.
        4    1    3    3  502    0 -0.35572632248E+03  0.27371470203E+03  0.10684876963E+04  0.11589342193E+04  0.12699999809E+01 0.  1.
       -4    1    3    3    0  502  0.35572632248E+03 -0.27371470203E+03 -0.13773252179E+04  0.14486156575E+04  0.12699999809E+01 0. -1.
</event>
<event>
 5   0  0.2555801E-05  0.2611880E+04  0.7818609E-02  0.8364177E-01
        2   -1    0    0  501    0  0.00000000000E+00  0.00000000000E+00  0.15065550049E+04  0.15065550049E+04  0.25500000920E-02 0. -1.
       -2   -1    0    0    0  501  0.00000000000E+00  0.00000000000E+00 -0.11320393766E+04  0.11320393766E+04  0.25500000920E-02 0.  1.
    10030    2    1    2    0    0  0.00000000000E+00  0.00000000000E+00  0.37451562831E+03  0.26385943816E+04  0.26118802336E+04 0.  0.
        1    1    3    3  502    0  0.31564794354E+03  0.15796191323E+03 -0.10829382129E+04  0.11390086756E+04  0.50400001928E-02 0.  1.
       -1    1    3    3    0  502 -0.31564794354E+03 -0.15796191323E+03  0.14574538412E+04  0.14995857059E+04  0.50400001928E-02 0. -1.
</event>
<event>
 5   0  0.1005492E-05  0.2623140E+04  0.7818609E-02  0.8360383E-01
        1   -1    0    0  501    0  0.00000000000E+00  0.00000000000E+00  0.22035583993E+04  0.22035583993E+04  0.50400001928E-02 0. -1.
       -1   -1    0    0    0  501  0.00000000000E+00  0.00000000000E+00 -0.78065379834E+03  0.78065379835E+03  0.50400001928E-02 0.  1.
    10030    2    1    2    0    0  0.00000000000E+00  0.00000000000E+00  0.14229046010E+04  0.29842121977E+04  0.26231402817E+04 0.  0.
        4    1    3    3  502    0 -0.52851644549E+03  0.11691018111E+04  0.10211058715E+04  0.16397522653E+04  0.12699999809E+01 0.  1.
       -4    1    3    3    0  502  0.52851644549E+03 -0.11691018111E+04  0.40179872947E+03  0.13444599324E+04  0.12699999809E+01 0. -1.
</event>
<event>
 5   0  0.1000421E-05  0.2584744E+04  0.7818609E-02  0.8373402E-01
       -1   -1    0    0    0  501  0.00000000000E+00  0.00000000000E+00  0.10303916360E+04  0.10303916360E+04  0.50400001928E-02 0.  1.
        1   -1    0    0  501    0  0.00000000000E+00  0.00000000000E+00 -0.16209622137E+04  0.16209622137E+04  0.50400001928E-02 0. -1.
    10030    2    1    2    0    0  0.00000000000E+00  0.00000000000E+00 -0.59057057771E+03  0.26513538498E+04  0.25847444031E+04 0.  0.
        3    1    3    3  502    0 -0.33525868447E+03  0.39926032511E+03  0.91773677687E+03  0.10554847202E+04  0.10100000352E+00 0.  1.
       -3    1    3    3    0  502  0.33525868447E+03 -0.39926032511E+03 -0.15083073546E+04  0.15958691296E+04  0.10100000352E+00 0. -1.
</event>
<event>
 5   0  0.9855352E-06  0.2580599E+04  0.7818609E-02  0.8374821E-01
       -1   -1    0    0    0  501  0.00000000000E+00  0.00000000000E+00  0.13569389772E+04  0.13569389772E+04  0.50400001928E-02 0. -1.
        1   -1    0    0  501    0  0.00000000000E+00  0.00000000000E+00 -0.12269328016E+04  0.12269328016E+04  0.50400001928E-02 0.  1.
    10030    2    1    2    0    0  0.00000000000E+00  0.00000000000E+00  0.13000617564E+03  0.25838717788E+04  0.25805991094E+04 0.  0.
        2    1    3    3  502    0 -0.93119110933E+03  0.86828939007E+03  0.27462377417E+03  0.13024828461E+04  0.25500000920E-02 0. -1.
       -2    1    3    3    0  502  0.93119110933E+03 -0.86828939007E+03 -0.14461759853E+03  0.12813889327E+04  0.25500000920E-02 0.  1.
</event>
<event>
 5   0  0.2555801E-05  0.2586227E+04  0.7818609E-02  0.8372895E-01
       -2   -1    0    0    0  501  0.00000000000E+00  0.00000000000E+00  0.11909361567E+04  0.11909361567E+04  0.25500000920E-02 0. -1.
        2   -1    0    0  501    0  0.00000000000E+00  0.00000000000E+00 -0.14040569702E+04  0.14040569702E+04  0.25500000920E-02 0.  1.
    10030    2    1    2    0    0  0.00000000000E+00  0.00000000000E+00 -0.21312081346E+03  0.25949931269E+04  0.25862267587E+04 0.  0.
        1    1    3    3  502    0  0.93934639835E+03  0.34684564115E+03  0.71442367320E+03  0.12300710304E+04  0.50400001928E-02 0. -1.
       -1    1    3    3    0  502 -0.93934639835E+03 -0.34684564115E+03 -0.92754448666E+03  0.13649220966E+04  0.50400001928E-02 0.  1.
</event>
<event>
 5   0  0.2528460E-05  0.2559342E+04  0.7818609E-02  0.8382144E-01
       -2   -1    0    0    0  501  0.00000000000E+00  0.00000000000E+00  0.11410634741E+04  0.11410634741E+04  0.25500000920E-02 0. -1.
        2   -1    0    0  501    0  0.00000000000E+00  0.00000000000E+00 -0.14351153703E+04  0.14351153703E+04  0.25500000920E-02 0.  1.
    10030    2    1    2    0    0  0.00000000000E+00  0.00000000000E+00 -0.29405189622E+03  0.25761788444E+04  0.25593418921E+04 0.  0.
        5    1    3    3  502    0  0.44644025137E+03 -0.49170663091E+03 -0.12480459854E+04  0.14137627738E+04  0.46999998093E+01 0.  1.
       -5    1    3    3    0  502 -0.44644025137E+03  0.49170663091E+03  0.95399408921E+03  0.11624160706E+04  0.46999998093E+01 0. -1.
</event>
<event>
 5   0  0.1034714E-05  0.2613947E+04  0.7818609E-02  0.8363479E-01
       -1   -1    0    0    0  501  0.00000000000E+00  0.00000000000E+00  0.12832176412E+04  0.12832176413E+04  0.50400001928E-02 0.  1.
        1   -1    0    0  501    0  0.00000000000E+00  0.00000000000E+00 -0.13311688219E+04  0.13311688220E+04  0.50400001928E-02 0. -1.
    10030    2    1    2    0    0  0.00000000000E+00  0.00000000000E+00 -0.47951180706E+02  0.26143864632E+04  0.26139466833E+04 0.  0.
        5    1    3    3  502    0 -0.42575690487E+03 -0.10317632645E+04 -0.70405532007E+03  0.13196667609E+04  0.46999998093E+01 0. -1.
       -5    1    3    3    0  502  0.42575690487E+03  0.10317632645E+04  0.65610413937E+03  0.12947197024E+04  0.46999998093E+01 0.  1.
</event>
<event>
 5   0  0.2517854E-05  0.2588282E+04  0.7818609E-02  0.8372192E-01
        2   -1    0    0  501    0  0.00000000000E+00  0.00000000000E+00  0.10106369887E+04  0.10106369887E+04  0.25500000920E-02 0.  1.
       -2   -1    0    0    0  501  0.00000000000E+00  0.00000000000E+00 -0.16571734995E+04  0.16571734995E+04  0.25500000920E-02 0. -1.
    10030    2    1    2    0    0  0.00000000000E+00  0.00000000000E+00 -0.64653651078E+03  0.26678104883E+04  0.25882819285E+04 0.  0.
        4    1    3    3  502    0 -0.34704955588E+03  0.91039661819E+03 -0.12012231977E+04  0.15466752019E+04  0.12699999809E+01 0. -1.
       -4    1    3    3    0  502  0.34704955588E+03 -0.91039661819E+03  0.55468668695E+03  0.11211352863E+04  0.12699999809E+01 0.  1.
</event>
<event>
 5   0  0.1025153E-05  0.2628702E+04  0.7818609E-02  0.8358517E-01
        1   -1    0    0  501    0  0.00000000000E+00  0.00000000000E+00  0.11963276626E+04  0.11963276626E+04  0.50400001928E-02 0.  1.
       -1   -1    0    0    0  501  0.00000000000E+00  0.00000000000E+00 -0.14440179211E+04  0.14440179211E+04  0.50400001928E-02 0. -1.
    10030    2    1    2    0    0  0.00000000000E+00  0.00000000000E+00 -0.24769025853E+03  0.26403455837E+04  0.26287020252E+04 0.  0.
        1    1    3    3  502    0 -0.93758694888E+03  0.42207115794E+02  0.80037612145E+03  0.12334717926E+04  0.50400001928E-02 0.  1.
       -1    1    3    3    0  502  0.93758694888E+03 -0.42207115794E+02 -0.10480663800E+04  0.14068737911E+04  0.50400001928E-02 0. -1.
</event>
<event>
 5   0  0.1034714E-05  0.2604579E+04  0.7818609E-02  0.8366647E-01
        1   -1    0    0  501    0  0.00000000000E+00  0.00000000000E+00  0.13318556978E+04  0.13318556978E+04  0.50400001928E-02 0.  1.
       -1   -1    0    0    0  501  0.00000000000E+00  0.00000000000E+00 -0.12733798114E+04  0.12733798114E+04  0.50400001928E-02 0. -1.
    10030    2    1    2    0    0  0.00000000000E+00  0.00000000000E+00  0.58475886395E+02  0.26052355093E+04  0.26045791655E+04 0.  0.
        5    1    3    3  502    0 -0.60260514331E+03  0.10321441741E+03 -0.11208995833E+04  0.12768023107E+04  0.46999998093E+01 0. -1.
       -5    1    3    3    0  502  0.60260514331E+03 -0.10321441741E+03  0.11793754697E+04  0.13284331986E+04  0.46999998093E+01 0.  1.
</event>
<event>
 5   0  0.9855352E-06  0.2612055E+04  0.7818609E-02  0.8364118E-01
        1   -1    0    0  501    0  0.00000000000E+00  0.00000000000E+00  0.15221667288E+04  0.15221667288E+04  0.50400001928E-02 0.  1.
       -1   -1    0    0    0  501  0.00000000000E+00  0.00000000000E+00 -0.11205788953E+04  0.11205788953E+04  0.50400001928E-02 0. -1.
    10030    2    1    2    0    0  0.00000000000E+00  0.00000000000E+00  0.40158783344E+03  0.26427456241E+04  0.26120550618E+04 0.  0.
        2    1    3    3  502    0  0.69766958508E+03 -0.47205189628E+02  0.13168122894E+04  0.14909613628E+04  0.25500000920E-02 0.  1.
       -2    1    3    3    0  502 -0.69766958508E+03  0.47205189628E+02 -0.91522445593E+03  0.11517842613E+04  0.25500000920E-02 0. -1.
</event>
<event>
 5   0  0.9855352E-06  0.2144140E+04  0.7818609E-02  0.8542045E-01
       -1   -1    0    0    0  501  0.00000000000E+00  0.00000000000E+00  0.95728785706E+03  0.95728785707E+03  0.50400001928E-02 0. -1.
        1   -1    0    0  501    0  0.00000000000E+00  0.00000000000E+00 -0.12006152455E+04  0.12006152455E+04  0.50400001928E-02 0.  1.
    10030    2    1    2    0    0  0.00000000000E+00  0.00000000000E+00 -0.24332738844E+03  0.21579031026E+04  0.21441402898E+04 0.  0.
        2    1    3    3  502    0 -0.44151459963E+03 -0.80101880173E+03 -0.68451022143E+03  0.11424187086E+04  0.25500000920E-02 0.  1.
       -2    1    3    3    0  502  0.44151459963E+03  0.80101880173E+03  0.44118283298E+03  0.10154843940E+04  0.25500000920E-02 0. -1.
</event>
<event>
 5   0  0.1034714E-05  0.2592357E+04  0.7818609E-02  0.8370802E-01
       -1   -1    0    0    0  501  0.00000000000E+00  0.00000000000E+00  0.13066864698E+04  0.13066864699E+04  0.50400001928E-02 0. -1.
        1   -1    0    0  501    0  0.00000000000E+00  0.00000000000E+00 -0.12857551573E+04  0.12857551573E+04  0.50400001928E-02 0.  1.
    10030    2    1    2    0    0  0.00000000000E+00  0.00000000000E+00  0.20931312566E+02  0.25924416272E+04  0.25923571263E+04 0.  0.
        5    1    3    3  502    0 -0.67160005010E+03  0.65920405344E+03 -0.88088834732E+03  0.12890240424E+04  0.46999998093E+01 0.  1.
       -5    1    3    3    0  502  0.67160005010E+03 -0.65920405344E+03  0.90181965989E+03  0.13034175848E+04  0.46999998093E+01 0. -1.
</event>
<event>
 5   0  0.1034714E-05  0.2607557E+04  0.7818609E-02  0.8365639E-01
       -1   -1    0    0    0  501  0.00000000000E+00  0.00000000000E+00  0.15244664365E+04  0.15244664365E+04  0.50400001928E-02 0. -1.
        1   -1    0    0  501    0  0.00000000000E+00  0.00000000000E+00 -0.11150380883E+04  0.11150380883E+04  0.50400001928E-02 0.  1.
    10030    2    1    2    0    0  0.00000000000E+00  0.00000000000E+00  0.40942834817E+03  0.26395045248E+04  0.26075568189E+04 0.  0.
        5    1    3    3  502    0  0.10916333986E+04  0.59147194598E+03  0.60747536913E+03  0.13822268099E+04  0.46999998093E+01 0. -1.
       -5    1    3    3    0  502 -0.10916333986E+04 -0.59147194598E+03 -0.19804702096E+03  0.12572777149E+04  0.46999998093E+01 0.  1.
</event>
<event>
 5   0  0.9855352E-06  0.2504029E+04  0.7818609E-02  0.8401551E-01
        1   -1    0    0  501    0  0.00000000000E+00  0.00000000000E+00  0.16059420088E+04  0.16059420088E+04  0.50400001928E-02 0. -1.
       -1   -1    0    0    0  501  0.00000000000E+00  0.00000000000E+00 -0.97608807837E+03  0.97608807839E+03  0.50400001928E-02 0.  1.
    10030    2    1    2    0    0  0.00000000000E+00  0.00000000000E+00  0.62985393040E+03  0.25820300872E+04  0.25040294322E+04 0.  0.
        2    1    3    3  502    0 -0.44971828144E+03 -0.97398717973E+03 -0.35065886184E+03  0.11286537097E+04  0.25500000920E-02 0.  1.
       -2    1    3    3    0  502  0.44971828144E+03  0.97398717973E+03  0.98051279224E+03  0.14533763775E+04  0.25500000920E-02 0. -1.
</event>
<event>
 5   0  0.9855352E-06  0.2619569E+04  0.7818609E-02  0.8361584E-01
       -1   -1    0    0    0  501  0.00000000000E+00  0.00000000000E+00  0.15016380079E+04  0.15016380079E+04  0.50400001928E-02 0.  1.
        1   -1    0    0  501    0  0.00000000000E+00  0.00000000000E+00 -0.11424423056E+04  0.11424423056E+04  0.50400001928E-02 0. -1.
    10030    2    1    2    0    0  0.00000000000E+00  0.00000000000E+00  0.35919570235E+03  0.26440803135E+04  0.26195685049E+04 0.  0.
        2    1    3    3  502    0  0.32492494164E+02 -0.81760623781E+03  0.12119087932E+04  0.14622785799E+04  0.25500000920E-02 0.  1.
       -2    1    3    3    0  502 -0.32492494164E+02  0.81760623781E+03 -0.85271309081E+03  0.11818017336E+04  0.25500000920E-02 0. -1.
</event>
<event>
 5   0  0.9855352E-06  0.2601174E+04  0.7818609E-02  0.8367803E-01
       -1   -1    0    0    0  501  0.00000000000E+00  0.00000000000E+00  0.11214203959E+04  0.11214203959E+04  0.50400001928E-02 0. -1.
        1   -1    0    0  501    0  0.00000000000E+00  0.00000000000E+00 -0.15083781751E+04  0.15083781751E+04  0.50400001928E-02 0.  1.
    10030    2    1    2    0    0  0.00000000000E+00  0.00000000000E+00 -0.38695777922E+03  0.26297985710E+04  0.26011736200E+04 0.  0.
        2    1    3    3  502    0 -0.50765585221E+03  0.10439562731E+04 -0.78641986213E+03  0.14021466985E+04  0.25500000920E-02 0.  1.
       -2    1    3    3    0  502  0.50765585221E+03 -0.10439562731E+04  0.39946208291E+03  0.12276518725E+04  0.25500000920E-02 0. -1.
</event>
<event>
 5   0  0.2555801E-05  0.2590487E+04  0.7818609E-02  0.8371440E-01
       -2   -1    0    0    0  501  0.00000000000E+00  0.00000000000E+00  0.96552589710E+03  0.96552589710E+03  0.25500000920E-02 0.  1.
        2   -1    0    0  501    0  0.00000000000E+00  0.00000000000E+00 -0.17375568611E+04  0.17375568611E+04  0.25500000920E-02 0. -1.
    10030    2    1    2    0    0  0.00000000000E+00  0.00000000000E+00 -0.77203096398E+03  0.27030827582E+04  0.25904873264E+04 0.  0.
        1    1    3    3  502    0 -0.78846228772E+03  0.34381267972E+03  0.62446394492E+03  0.10629370426E+04  0.50400001928E-02 0.  1.
       -1    1    3    3    0  502  0.78846228772E+03 -0.34381267972E+03 -0.13964949089E+04  0.16401457156E+04  0.50400001928E-02 0. -1.
</event>
<event>
 5   0  0.1034714E-05  0.2593663E+04  0.7818609E-02  0.8370357E-01
       -1   -1    0    0    0  501  0.00000000000E+00  0.00000000000E+00  0.12433281199E+04  0.12433281199E+04  0.50400001928E-02 0. -1.
        1   -1    0    0  501    0  0.00000000000E+00  0.00000000000E+00 -0.13526372168E+04  0.13526372168E+04  0.50400001928E-02 0.  1.
    10030    2    1    2    0    0  0.00000000000E+00  0.00000000000E+00 -0.10930909691E+03  0.25959653367E+04  0.25936629601E+04 0.  0.
        5    1    3    3  502    0  0.85461346762E+03 -0.16041989606E+03 -0.10176162263E+04  0.13385303867E+04  0.46999998093E+01 0.  1.
       -5    1    3    3    0  502 -0.85461346762E+03  0.16041989606E+03  0.90830712941E+03  0.12574349500E+04  0.46999998093E+01 0. -1.
</event>
<event>
 5   0  0.9855352E-06  0.2604533E+04  0.7818609E-02  0.8366663E-01
        1   -1    0    0  501    0  0.00000000000E+00  0.00000000000E+00  0.11015061564E+04  0.11015061565E+04  0.50400001928E-02 0.  1.
       -1   -1    0    0    0  501  0.00000000000E+00  0.00000000000E+00 -0.15396172480E+04  0.15396172480E+04  0.50400001928E-02 0. -1.
    10030    2    1    2    0    0  0.00000000000E+00  0.00000000000E+00 -0.43811109151E+03  0.26411234044E+04  0.26045328773E+04 0.  0.
        2    1    3    3  502    0  0.10176351743E+04 -0.48368085427E+03 -0.88119862454E+03  0.14303983825E+04  0.25500000920E-02 0. -1.
       -2    1    3    3    0  502 -0.10176351743E+04  0.48368085427E+03  0.44308753303E+03  0.12107250219E+04  0.25500000920E-02 0.  1.
</event>
<event>
 5   0  0.1025153E-05  0.2275813E+04  0.7818609E-02  0.8487519E-01
       -1   -1    0    0    0  501  0.00000000000E+00  0.00000000000E+00  0.68507282600E+03  0.68507282602E+03  0.50400001928E-02 0.  1.
        1   -1    0    0  501    0  0.00000000000E+00  0.00000000000E+00 -0.18900641010E+04  0.18900641010E+04  0.50400001928E-02 0. -1.
    10030    2    1    2    0    0  0.00000000000E+00  0.00000000000E+00 -0.12049912750E+04  0.25751369271E+04  0.22758133096E+04 0.  0.
        1    1    3    3  502    0  0.31355136561E+03 -0.10059332831E+04 -0.10886761751E+04  0.15150683296E+04  0.50400001928E-02 0. -1.
       -1    1    3    3    0  502 -0.31355136561E+03  0.10059332831E+04 -0.11631509993E+03  0.10600685975E+04  0.50400001928E-02 0.  1.
</event>
<event>
 5   0  0.2528460E-05  0.2498468E+04  0.7818609E-02  0.8403532E-01
        2   -1    0    0  501    0  0.00000000000E+00  0.00000000000E+00  0.12218418123E+04  0.12218418123E+04  0.25500000920E-02 0.  1.
       -2   -1    0    0    0  501  0.00000000000E+00  0.00000000000E+00 -0.12772400848E+04  0.12772400848E+04  0.25500000920E-02 0. -1.
    10030    2    1    2    0    0  0.00000000000E+00  0.00000000000E+00 -0.55398272489E+02  0.24990818972E+04  0.24984678025E+04 0.  0.
        5    1    3    3  502    0 -0.15080717117E+03 -0.90626861433E+03 -0.87436902639E+03  0.12683094609E+04  0.46999998093E+01 0. -1.
       -5    1    3    3    0  502  0.15080717117E+03  0.90626861433E+03  0.81897075390E+03  0.12307724363E+04  0.46999998093E+01 0.  1.
</event>
<event>
 5   0  0.2528460E-05  0.2578168E+04  0.7818609E-02  0.8375655E-01
       -2   -1    0    0    0  501  0.00000000000E+00  0.00000000000E+00  0.13324749508E+04  0.13324749508E+04  0.25500000920E-02 0.  1.
        2   -1    0    0  501    0  0.00000000000E+00  0.00000000000E+00 -0.12471059819E+04  0.12471059819E+04  0.25500000920E-02 0. -1.
    10030    2    1    2    0    0  0.00000000000E+00  0.00000000000E+00  0.85368968908E+02  0.25795809327E+04  0.25781679401E+04 0.  0.
        5    1    3    3  502    0  0.82333084325E+03 -0.97620874583E+03 -0.13307680972E+03  0.12839738004E+04  0.46999998093E+01 0. -1.
       -5    1    3    3    0  502 -0.82333084325E+03  0.97620874583E+03  0.21844577862E+03  0.12956071322E+04  0.46999998093E+01 0.  1.
</event>
<event>
 5   0  0.2517854E-05  0.2619043E+04  0.7818609E-02  0.8361761E-01
        2   -1    0    0  501    0  0.00000000000E+00  0.00000000000E+00  0.10589089867E+04  0.10589089867E+04  0.25500000920E-02 0. -1.
       -2   -1    0    0    0  501  0.00000000000E+00  0.00000000000E+00 -0.16194469524E+04  0.16194469524E+04  0.25500000920E-02 0.  1.
    10030    2    1    2    0    0  0.00000000000E+00  0.00000000000E+00 -0.56053796570E+03  0.26783559390E+04  0.26190432843E+04 0.  0.
        4    1    3    3  502    0 -0.10313692041E+04 -0.52530869660E+03 -0.90665461001E+03  0.14702706746E+04  0.12699999809E+01 0.  1.
       -4    1    3    3    0  502  0.10313692041E+04  0.52530869660E+03  0.34611664431E+03  0.12080852644E+04  0.12699999809E+01 0. -1.
</event>
<event>
 5   0  0.1034714E-05  0.2602446E+04  0.7818609E-02  0.8367371E-01
        1   -1    0    0  501    0  0.00000000000E+00  0.00000000000E+00  0.13805640292E+04  0.13805640292E+04  0.50400001928E-02 0. -1.
       -1   -1    0    0    0  501  0.00000000000E+00  0.00000000000E+00 -0.12264419400E+04  0.12264419400E+04  0.50400001928E-02 0.  1.
    10030    2    1    2    0    0  0.00000000000E+00  0.00000000000E+00  0.15412208920E+03  0.26070059692E+04  0.26024462540E+04 0.  0.
        5    1    3    3  502    0 -0.64242810827E+03  0.11292910490E+04  0.14893205267E+03  0.13077518855E+04  0.46999998093E+01 0. -1.
       -5    1    3    3    0  502  0.64242810827E+03 -0.11292910490E+04  0.51900365327E+01  0.12992540837E+04  0.46999998093E+01 0.  1.
</event>
<event>
 5   0  0.2662024E-05  0.2569245E+04  0.7818609E-02  0.8378724E-01
       -2   -1    0    0    0  501  0.00000000000E+00  0.00000000000E+00  0.99952743636E+03  0.99952743636E+03  0.25500000920E-02 0.  1.
        2   -1    0    0  501    0  0.00000000000E+00  0.00000000000E+00 -0.16510345829E+04  0.16510345829E+04  0.25500000920E-02 0. -1.
    10030    2    1    2    0    0  0.00000000000E+00  0.00000000000E+00 -0.65150714653E+03  0.26505620193E+04  0.25692445302E+04 0.  0.
        2    1    3    3  502    0 -0.11535689512E+04  0.18480375459E+03  0.22536463744E+03  0.11898163609E+04  0.25500000920E-02 0.  1.
       -2    1    3    3    0  502  0.11535689512E+04 -0.18480375459E+03 -0.87687178397E+03  0.14607456583E+04  0.25500000920E-02 0. -1.
</event>
<event>
 5   0  0.9855352E-06  0.2276638E+04  0.7818609E-02  0.8487190E-01
        1   -1    0    0  501    0  0.00000000000E+00  0.00000000000E+00  0.15689231847E+04  0.15689231847E+04  0.50400001928E-02 0. -1.
       -1   -1    0    0    0  501  0.00000000000E+00  0.00000000000E+00 -0.82589773237E+03  0.82589773239E+03  0.50400001928E-02 0.  1.
    10030    2    1    2    0    0  0.00000000000E+00  0.00000000000E+00  0.74302545232E+03  0.23948209171E+04  0.22766379603E+04 0.  0.
        2    1    3    3  502    0  0.79281337097E+03  0.69680165804E+03  0.81988424644E+03  0.13365237631E+04  0.25500000920E-02 0.  1.
       -2    1    3    3    0  502 -0.79281337097E+03 -0.69680165804E+03 -0.76858794118E+02  0.10582971540E+04  0.25500000920E-02 0. -1.
</event>
<event>
 5   0  0.2662024E-05  0.2966135E+04  0.7818609E-02  0.8253468E-01
        2   -1    0    0  501    0  0.00000000000E+00  0.00000000000E+00  0.10434854074E+04  0.10434854074E+04  0.25500000920E-02 0. -1.
       -2   -1    0    0    0  501  0.00000000000E+00  0.00000000000E+00 -0.21078290180E+04  0.21078290180E+04  0.25500000920E-02 0.  1.
    10030    2    1    2    0    0  0.00000000000E+00  0.00000000000E+00 -0.10643436106E+04  0.31513144254E+04  0.29661347384E+04 0.  0.
        2    1    3    3  502    0  0.12128152989E+04 -0.54256518930E+03  0.16789778744E+03  0.13392115594E+04  0.25500000920E-02 0.  1.
       -2    1    3    3    0  502 -0.12128152989E+04  0.54256518930E+03 -0.12322413980E+04  0.18121028660E+04  0.25500000920E-02 0. -1.
</event>
<event>
 5   0  0.1034714E-05  0.2082582E+04  0.7818609E-02  0.8568955E-01
        1   -1    0    0  501    0  0.00000000000E+00  0.00000000000E+00  0.95740200360E+03  0.95740200362E+03  0.50400001928E-02 0.  1.
       -1   -1    0    0    0  501  0.00000000000E+00  0.00000000000E+00 -0.11325302108E+04  0.11325302108E+04  0.50400001928E-02 0. -1.
    10030    2    1    2    0    0  0.00000000000E+00  0.00000000000E+00 -0.17512820723E+03  0.20899322145E+04  0.20825817564E+04 0.  0.
        5    1    3    3  502    0  0.60401076314E+03 -0.84260721179E+03  0.99833388799E+01  0.10367920102E+04  0.46999998093E+01 0.  1.
       -5    1    3    3    0  502 -0.60401076314E+03  0.84260721179E+03 -0.18511154611E+03  0.10531402043E+04  0.46999998093E+01 0. -1.
</event>
<event>
 5   0  0.2517854E-05  0.2534741E+04  0.7818609E-02  0.8390712E-01
       -2   -1    0    0    0  501  0.00000000000E+00  0.00000000000E+00  0.81929049016E+03  0.81929049016E+03  0.25500000920E-02 0. -1.
        2   -1    0    0  501    0  0.00000000000E+00  0.00000000000E+00 -0.19605110044E+04  0.19605110044E+04  0.25500000920E-02 0.  1.
    10030    2    1    2    0    0  0.00000000000E+00  0.00000000000E+00 -0.11412205143E+04  0.27798014946E+04  0.25347410296E+04 0.  0.
        4    1    3    3  502    0  0.37253509657E+03 -0.61113107713E+03  0.57643742016E+03  0.91899146017E+03  0.12699999809E+01 0. -1.
       -4    1    3    3    0  502 -0.37253509657E+03  0.61113107713E+03 -0.17176579344E+04  0.18608100344E+04  0.12699999809E+01 0.  1.
</event>
<event>
 5   0  0.1025153E-05  0.2613838E+04  0.7818609E-02  0.8363516E-01
       -1   -1    0    0    0  501  0.00000000000E+00  0.00000000000E+00  0.74579242409E+03  0.74579242411E+03  0.50400001928E-02 0. -1.
        1   -1    0    0  501    0  0.00000000000E+00  0.00000000000E+00 -0.22902307359E+04  0.22902307359E+04  0.50400001928E-02 0.  1.
    10030    2    1    2    0    0  0.00000000000E+00  0.00000000000E+00 -0.15444383118E+04  0.30360231600E+04  0.26138375866E+04 0.  0.
        1    1    3    3  502    0 -0.49584922200E+03 -0.27354757104E+03  0.59588212572E+03  0.82205245110E+03  0.50400001928E-02 0. -1.
       -1    1    3    3    0  502  0.49584922200E+03  0.27354757104E+03 -0.21403204375E+04  0.22139707089E+04  0.50400001928E-02 0.  1.
</event>
<event>
 5   0  0.1034714E-05  0.2746552E+04  0.7818609E-02  0.8320057E-01
        1   -1    0    0  501    0  0.00000000000E+00  0.00000000000E+00  0.16145042686E+04  0.16145042686E+04  0.50400001928E-02 0. -1.
       -1   -1    0    0    0  501  0.00000000000E+00  0.00000000000E+00 -0.11680902031E+04  0.11680902032E+04  0.50400001928E-02 0.  1.
    10030    2    1    2    0    0  0.00000000000E+00  0.00000000000E+00  0.44641406547E+03  0.27825944718E+04  0.27465517429E+04 0.  0.
        5    1    3    3  502    0  0.10431528953E+04 -0.42950504234E+03 -0.57015422912E+03  0.12640175946E+04  0.46999998093E+01 0.  1.
       -5    1    3    3    0  502 -0.10431528953E+04  0.42950504234E+03  0.10165682946E+04  0.15185768772E+04  0.46999998093E+01 0. -1.
</event>
<event>
 5   0  0.1025153E-05  0.2434380E+04  0.7818609E-02  0.8426743E-01
        1   -1    0    0  501    0  0.00000000000E+00  0.00000000000E+00  0.20088557922E+04  0.20088557922E+04  0.50400001928E-02 0. -1.
       -1   -1    0    0    0  501  0.00000000000E+00  0.00000000000E+00 -0.73751041281E+03  0.73751041283E+03  0.50400001928E-02 0.  1.
    10030    2    1    2    0    0  0.00000000000E+00  0.00000000000E+00  0.12713453794E+04  0.27463662051E+04  0.24343804671E+04 0.  0.
        1    1    3    3  502    0  0.88655808116E+03 -0.23150211953E+03  0.15395897365E+04  0.17916235708E+04  0.50400001928E-02 0. -1.
       -1    1    3    3    0  502 -0.88655808116E+03  0.23150211953E+03 -0.26824435706E+03  0.95474263430E+03  0.50400001928E-02 0.  1.
</event>
<event>
 5   0  0.2662024E-05  0.2625758E+04  0.7818609E-02  0.8359504E-01
        2   -1    0    0  501    0  0.00000000000E+00  0.00000000000E+00  0.18341429586E+04  0.18341429586E+04  0.25500000920E-02 0. -1.
       -2   -1    0    0    0  501  0.00000000000E+00  0.00000000000E+00 -0.93975825005E+03  0.93975825005E+03  0.25500000920E-02 0.  1.
    10030    2    1    2    0    0  0.00000000000E+00  0.00000000000E+00  0.89438470852E+03  0.27739012086E+04  0.26257577779E+04 0.  0.
        2    1    3    3  502    0 -0.94382434193E+03  0.28861927170E+03 -0.46741635190E+03  0.10920547232E+04  0.25500000920E-02 0.  1.
       -2    1    3    3    0  502  0.94382434193E+03 -0.28861927170E+03  0.13618010604E+04  0.16818464854E+04  0.25500000920E-02 0. -1.
</event>
<event>
 5   0  0.2484618E-05  0.2618194E+04  0.7818609E-02  0.8362047E-01
       -2   -1    0    0    0  501  0.00000000000E+00  0.00000000000E+00  0.18320864919E+04  0.18320864919E+04  0.25500000920E-02 0.  1.
        2   -1    0    0  501    0  0.00000000000E+00  0.00000000000E+00 -0.93540081911E+03  0.93540081912E+03  0.25500000920E-02 0. -1.
    10030    2    1    2    0    0  0.00000000000E+00  0.00000000000E+00  0.89668567277E+03  0.27674873110E+04  0.26181941908E+04 0.  0.
        3    1    3    3  502    0 -0.10690282087E+04  0.67876999209E+03  0.79921214386E+03  0.14974278194E+04  0.10100000352E+00 0.  1.
       -3    1    3    3    0  502  0.10690282087E+04 -0.67876999209E+03  0.97473528907E+02  0.12700594916E+04  0.10100000352E+00 0. -1.
</event>
<event>
 5   0  0.1034714E-05  0.2614772E+04  0.7818609E-02  0.8363201E-01
       -1   -1    0    0    0  501  0.00000000000E+00  0.00000000000E+00  0.96924451604E+03  0.96924451605E+03  0.50400001928E-02 0.  1.
        1   -1    0    0  501    0  0.00000000000E+00  0.00000000000E+00 -0.17634959236E+04  0.17634959236E+04  0.50400001928E-02 0. -1.
    10030    2    1    2    0    0  0.00000000000E+00  0.00000000000E+00 -0.79425140754E+03  0.27327404396E+04  0.26147724589E+04 0.  0.
        5    1    3    3  502    0 -0.14322101069E+03  0.12700916883E+04 -0.68446894559E+03  0.14498844720E+04  0.46999998093E+01 0. -1.
       -5    1    3    3    0  502  0.14322101069E+03 -0.12700916883E+04 -0.10978246195E+03  0.12828559676E+04  0.46999998093E+01 0.  1.
</event>
<event>
 5   0  0.2528460E-05  0.2540746E+04  0.7818609E-02  0.8388612E-01
        2   -1    0    0  501    0  0.00000000000E+00  0.00000000000E+00  0.27240193944E+04  0.27240193944E+04  0.25500000920E-02 0.  1.
       -2   -1    0    0    0  501  0.00000000000E+00  0.00000000000E+00 -0.59245081131E+03  0.59245081131E+03  0.25500000920E-02 0. -1.
    10030    2    1    2    0    0  0.00000000000E+00  0.00000000000E+00  0.21315685831E+04  0.33164702057E+04  0.25407459536E+04 0.  0.
        5    1    3    3  502    0 -0.94626679369E+03 -0.81625817790E+03  0.76776329819E+03  0.14666904342E+04  0.46999998093E+01 0. -1.
       -5    1    3    3    0  502  0.94626679369E+03  0.81625817790E+03  0.13638052849E+04  0.18497797715E+04  0.46999998093E+01 0.  1.
</event>
<event>
 5   0  0.2528460E-05  0.2607947E+04  0.7818609E-02  0.8365507E-01
        2   -1    0    0  501    0  0.00000000000E+00  0.00000000000E+00  0.16070334338E+04  0.16070334338E+04  0.25500000920E-02 0. -1.
       -2   -1    0    0    0  501  0.00000000000E+00  0.00000000000E+00 -0.10580658088E+04  0.10580658088E+04  0.25500000920E-02 0.  1.
    10030    2    1    2    0    0  0.00000000000E+00  0.00000000000E+00  0.54896762499E+03  0.26650992426E+04  0.26079471850E+04 0.  0.
        5    1    3    3  502    0 -0.99357628771E+03  0.80632990156E+02 -0.58455044311E+03  0.11556023664E+04  0.46999998093E+01 0.  1.
       -5    1    3    3    0  502  0.99357628771E+03 -0.80632990156E+02  0.11335180681E+04  0.15094968762E+04  0.46999998093E+01 0. -1.
</event>
<event>
 5   0  0.2528460E-05  0.2333737E+04  0.7818609E-02  0.8464737E-01
       -2   -1    0    0    0  501  0.00000000000E+00  0.00000000000E+00  0.10947664723E+04  0.10947664723E+04  0.25500000920E-02 0. -1.
        2   -1    0    0  501    0  0.00000000000E+00  0.00000000000E+00 -0.12437191300E+04  0.12437191300E+04  0.25500000920E-02 0.  1.
    10030    2    1    2    0    0  0.00000000000E+00  0.00000000000E+00 -0.14895265778E+03  0.23384856023E+04  0.23337369213E+04 0.  0.
        5    1    3    3  502    0  0.16152671883E+03  0.69563459087E+03  0.85020231001E+03  0.11103442812E+04  0.46999998093E+01 0. -1.
       -5    1    3    3    0  502 -0.16152671883E+03 -0.69563459087E+03 -0.99915496779E+03  0.12281413211E+04  0.46999998093E+01 0.  1.
</event>
<event>
 5   0  0.1025153E-05  0.2662614E+04  0.7818609E-02  0.8347238E-01
        1   -1    0    0  501    0  0.00000000000E+00  0.00000000000E+00  0.20807163711E+04  0.20807163711E+04  0.50400001928E-02 0. -1.
       -1   -1    0    0    0  501  0.00000000000E+00  0.00000000000E+00 -0.85181127786E+03  0.85181127788E+03  0.50400001928E-02 0.  1.
    10030    2    1    2    0    0  0.00000000000E+00  0.00000000000E+00  0.12289050932E+04  0.29325276490E+04  0.26626135063E+04 0.  0.
        1    1    3    3  502    0  0.43100806826E+03  0.66260513673E+03 -0.56538570080E+03  0.97184078574E+03  0.50400001928E-02 0.  1.
       -1    1    3    3    0  502 -0.43100806826E+03 -0.66260513673E+03  0.17942907940E+04  0.19606868633E+04  0.50400001928E-02 0. -1.
</event>
<event>
 5   0  0.2517854E-05  0.2604200E+04  0.7818609E-02  0.8366776E-01
       -2   -1    0    0    0  501  0.00000000000E+00  0.00000000000E+00  0.20059694638E+04  0.20059694638E+04  0.25500000920E-02 0.  1.
        2   -1    0    0  501    0  0.00000000000E+00  0.00000000000E+00 -0.84520916798E+03  0.84520916798E+03  0.25500000920E-02 0. -1.
    10030    2    1    2    0    0  0.00000000000E+00  0.00000000000E+00  0.11607602959E+04  0.28511786318E+04  0.26041995173E+04 0.  0.
        4    1    3    3  502    0 -0.90740177297E+03 -0.42798232996E+03 -0.32834614413E+03  0.10556323487E+04  0.12699999809E+01 0. -1.
       -4    1    3    3    0  502  0.90740177297E+03  0.42798232996E+03  0.14891064400E+04  0.17955462831E+04  0.12699999809E+01 0.  1.
</event>
<event>
 5   0  0.1025153E-05  0.2775249E+04  0.7818609E-02  0.8310994E-01
       -1   -1    0    0    0  501  0.00000000000E+00  0.00000000000E+00  0.16486249672E+04  0.16486249672E+04  0.50400001928E-02 0.  1.
        1   -1    0    0  501    0  0.00000000000E+00  0.00000000000E+00 -0.11679438311E+04  0.11679438311E+04  0.50400001928E-02 0. -1.
    10030    2    1    2    0    0  0.00000000000E+00  0.00000000000E+00  0.48068113608E+03  0.28165687983E+04  0.27752487169E+04 0.  0.
        1    1    3    3  502    0  0.12668535773E+04 -0.39093187949E+03  0.65601854688E+03  0.14792248155E+04  0.50400001928E-02 0. -1.
       -1    1    3    3    0  502 -0.12668535773E+04  0.39093187949E+03 -0.17533741080E+03  0.13373439828E+04  0.50400001928E-02 0.  1.
</event>
<event>
 5   0  0.1025153E-05  0.2607877E+04  0.7818609E-02  0.8365531E-01
       -1   -1    0    0    0  501  0.00000000000E+00  0.00000000000E+00  0.80639247325E+03  0.80639247327E+03  0.50400001928E-02 0.  1.
        1   -1    0    0  501    0  0.00000000000E+00  0.00000000000E+00 -0.21084712799E+04  0.21084712799E+04  0.50400001928E-02 0. -1.
    10030    2    1    2    0    0  0.00000000000E+00  0.00000000000E+00 -0.13020788066E+04  0.29148637532E+04  0.26078768147E+04 0.  0.
        1    1    3    3  502    0  0.31342319624E+03 -0.12618857466E+04 -0.76092640657E+03  0.15065187466E+04  0.50400001928E-02 0.  1.
       -1    1    3    3    0  502 -0.31342319624E+03  0.12618857466E+04 -0.54115240008E+03  0.14083450066E+04  0.50400001928E-02 0. -1.
</event>
<event>
 5   0  0.9855352E-06  0.2606281E+04  0.7818609E-02  0.8366071E-01
       -1   -1    0    0    0  501  0.00000000000E+00  0.00000000000E+00  0.74120261689E+03  0.74120261690E+03  0.50400001928E-02 0.  1.
        1   -1    0    0  501    0  0.00000000000E+00  0.00000000000E+00 -0.22911071183E+04  0.22911071183E+04  0.50400001928E-02 0. -1.
    10030    2    1    2    0    0  0.00000000000E+00  0.00000000000E+00 -0.15499045014E+04  0.30323097352E+04  0.26062805618E+04 0.  0.
        2    1    3    3  502    0 -0.85317012908E+03  0.80051897773E+03 -0.14427480002E+04  0.18574853149E+04  0.25500000920E-02 0. -1.
       -2    1    3    3    0  502  0.85317012908E+03 -0.80051897773E+03 -0.10715650120E+03  0.11748244203E+04  0.25500000920E-02 0.  1.
</event>
<event>
 5   0  0.2517854E-05  0.2687570E+04  0.7818609E-02  0.8339049E-01
       -2   -1    0    0    0  501  0.00000000000E+00  0.00000000000E+00  0.11309076948E+04  0.11309076948E+04  0.25500000920E-02 0. -1.
        2   -1    0    0  501    0  0.00000000000E+00  0.00000000000E+00 -0.15967335468E+04  0.15967335468E+04  0.25500000920E-02 0.  1.
    10030    2    1    2    0    0  0.00000000000E+00  0.00000000000E+00 -0.46582585204E+03  0.27276412416E+04  0.26875700955E+04 0.  0.
        4    1    3    3  502    0 -0.64659210948E+03 -0.96812506582E+03  0.44821870188E+03  0.12474971410E+04  0.12699999809E+01 0. -1.
       -4    1    3    3    0  502  0.64659210948E+03  0.96812506582E+03 -0.91404455391E+03  0.14801441006E+04  0.12699999809E+01 0.  1.
</event>
<event>
 5   0  0.1005492E-05  0.2595234E+04  0.7818609E-02  0.8369822E-01
        1   -1    0    0  501    0  0.00000000000E+00  0.00000000000E+00  0.19374380430E+04  0.19374380430E+04  0.50400001928E-02 0. -1.
       -1   -1    0    0    0  501  0.00000000000E+00  0.00000000000E+00 -0.86909078068E+03  0.86909078069E+03  0.50400001928E-02 0.  1.
    10030    2    1    2    0    0  0.00000000000E+00  0.00000000000E+00  0.10683472623E+04  0.28065288237E+04  0.25952337400E+04 0.  0.
        4    1    3    3  502    0  0.86803088919E+03 -0.81760807690E+03  0.10875455393E+04  0.16139137229E+04  0.12699999809E+01 0. -1.
       -4    1    3    3    0  502 -0.86803088919E+03  0.81760807690E+03 -0.19198276944E+02  0.11926151008E+04  0.12699999809E+01 0.  1.
</event>
<event>
 5   0  0.1000421E-05  0.2578892E+04  0.7818609E-02  0.8375407E-01
        1   -1    0    0  501    0  0.00000000000E+00  0.00000000000E+00  0.10543723325E+04  0.10543723326E+04  0.50400001928E-02 0.  1.
       -1   -1    0    0    0  501  0.00000000000E+00  0.00000000000E+00 -0.15769300901E+04  0.15769300901E+04  0.50400001928E-02 0. -1.
    10030    2    1    2    0    0  0.00000000000E+00  0.00000000000E+00 -0.52255775759E+03  0.26313024227E+04  0.25788923649E+04 0.  0.
        3    1    3    3  502    0  0.27948221796E+03 -0.77877277439E+03 -0.12703538384E+04  0.15160462490E+04  0.10100000352E+00 0. -1.
       -3    1    3    3    0  502 -0.27948221796E+03  0.77877277439E+03  0.74779608079E+03  0.11152561737E+04  0.10100000352E+00 0.  1.
</event>
<event>
 5   0  0.2555801E-05  0.2568646E+04  0.7818609E-02  0.8378930E-01
        2   -1    0    0  501    0  0.00000000000E+00  0.00000000000E+00  0.93213804533E+03  0.93213804534E+03  0.25500000920E-02 0. -1.
       -2   -1    0    0    0  501  0.00000000000E+00  0.00000000000E+00 -0.17695720791E+04  0.17695720791E+04  0.25500000920E-02 0.  1.
    10030    2    1    2    0    0  0.00000000000E+00  0.00000000000E+00 -0.83743403379E+03  0.27017101245E+04  0.25686459148E+04 0.  0.
        1    1    3    3  502    0  0.25646306355E+03  0.12527522828E+04 -0.29283469227E+03  0.13118360195E+04  0.50400001928E-02 0.  1.
       -1    1    3    3    0  502 -0.25646306355E+03 -0.12527522828E+04 -0.54459934152E+03  0.13898741050E+04  0.50400001928E-02 0. -1.
</event>
<event>
 5   0  0.2528460E-05  0.2616692E+04  0.7818609E-02  0.8362553E-01
       -2   -1    0    0    0  501  0.00000000000E+00  0.00000000000E+00  0.91037305700E+03  0.91037305701E+03  0.25500000920E-02 0.  1.
        2   -1    0    0  501    0  0.00000000000E+00  0.00000000000E+00 -0.18802943879E+04  0.18802943879E+04  0.25500000920E-02 0. -1.
    10030    2    1    2    0    0  0.00000000000E+00  0.00000000000E+00 -0.96992133094E+03  0.27906674449E+04  0.26166920721E+04 0.  0.
        5    1    3    3  502    0 -0.91784352508E+03  0.80295328523E+03  0.20442160278E+02  0.12196764680E+04  0.46999998093E+01 0.  1.
       -5    1    3    3    0  502  0.91784352508E+03 -0.80295328523E+03 -0.99036349122E+03  0.15709909769E+04  0.46999998093E+01 0. -1.
</event>
<event>
 5   0  0.1005492E-05  0.2564479E+04  0.7818609E-02  0.8380368E-01
       -1   -1    0    0    0  501  0.00000000000E+00  0.00000000000E+00  0.78416464704E+03  0.78416464705E+03  0.50400001928E-02 0.  1.
        1   -1    0    0  501    0  0.00000000000E+00  0.00000000000E+00 -0.20966738610E+04  0.20966738610E+04  0.50400001928E-02 0. -1.
    10030    2    1    2    0    0  0.00000000000E+00  0.00000000000E+00 -0.13125092139E+04  0.28808385080E+04  0.25644785187E+04 0.  0.
        4    1    3    3  502    0 -0.91173068281E+03  0.80588779465E+03 -0.11103875298E+04  0.16473220859E+04  0.12699999809E+01 0.  1.
       -4    1    3    3    0  502  0.91173068281E+03 -0.80588779465E+03 -0.20212168416E+03  0.12335164221E+04  0.12699999809E+01 0. -1.
</event>
<event>
 5   0  0.2517854E-05  0.2724006E+04  0.7818609E-02  0.8327258E-01
        2   -1    0    0  501    0  0.00000000000E+00  0.00000000000E+00  0.15675383009E+04  0.15675383009E+04  0.25500000920E-02 0.  1.
       -2   -1    0    0    0  501  0.00000000000E+00  0.00000000000E+00 -0.11834170315E+04  0.11834170315E+04  0.25500000920E-02 0. -1.
    10030    2    1    2    0    0  0.00000000000E+00  0.00000000000E+00  0.38412126940E+03  0.27509553323E+04  0.27240055233E+04 0.  0.
        4    1    3    3  502    0  0.11701855519E+04  0.33390390675E+03  0.80985123314E+03  0.14617409748E+04  0.12699999809E+01 0.  1.
       -4    1    3    3    0  502 -0.11701855519E+04 -0.33390390675E+03 -0.42572996374E+03  0.12892143575E+04  0.12699999809E+01 0. -1.
</event>
<event>
 5   0  0.2662024E-05  0.2527653E+04  0.7818609E-02  0.8393200E-01
        2   -1    0    0  501    0  0.00000000000E+00  0.00000000000E+00  0.18582472205E+04  0.18582472205E+04  0.25500000920E-02 0. -1.
       -2   -1    0    0    0  501  0.00000000000E+00  0.00000000000E+00 -0.85955053670E+03  0.85955053671E+03  0.25500000920E-02 0.  1.
    10030    2    1    2    0    0  0.00000000000E+00  0.00000000000E+00  0.99869668384E+03  0.27177977573E+04  0.25276529792E+04 0.  0.
        2    1    3    3  502    0 -0.22094630441E+03 -0.14797413874E+02 -0.83852865356E+03  0.86727535174E+03  0.25500000920E-02 0.  1.
       -2    1    3    3    0  502  0.22094630441E+03  0.14797413874E+02  0.18372253374E+04  0.18505224055E+04  0.25500000920E-02 0. -1.
</event>
<event>
 5   0  0.1025153E-05  0.2528579E+04  0.7818609E-02  0.8392874E-01
        1   -1    0    0  501    0  0.00000000000E+00  0.00000000000E+00  0.16344996748E+04  0.16344996748E+04  0.50400001928E-02 0. -1.
       -1   -1    0    0    0  501  0.00000000000E+00  0.00000000000E+00 -0.97793080260E+03  0.97793080262E+03  0.50400001928E-02 0.  1.
    10030    2    1    2    0    0  0.00000000000E+00  0.00000000000E+00  0.65656887223E+03  0.26124304775E+04  0.25285787145E+04 0.  0.
        1    1    3    3  502    0  0.15983694263E+03  0.12015839040E+04 -0.42900860547E+02  0.12129271250E+04  0.50400001928E-02 0.  1.
       -1    1    3    3    0  502 -0.15983694263E+03 -0.12015839040E+04  0.69946973278E+03  0.13995033525E+04  0.50400001928E-02 0. -1.
</event>
<event>
 5   0  0.2662024E-05  0.2590037E+04  0.7818609E-02  0.8371593E-01
       -2   -1    0    0    0  501  0.00000000000E+00  0.00000000000E+00  0.12366469915E+04  0.12366469915E+04  0.25500000920E-02 0. -1.
        2   -1    0    0  501    0  0.00000000000E+00  0.00000000000E+00 -0.13561457505E+04  0.13561457505E+04  0.25500000920E-02 0.  1.
    10030    2    1    2    0    0  0.00000000000E+00  0.00000000000E+00 -0.11949875899E+03  0.25927927420E+04  0.25900374996E+04 0.  0.
        2    1    3    3  502    0 -0.10664210954E+04 -0.27995262319E+03 -0.73977027578E+03  0.13277377319E+04  0.25500000920E-02 0.  1.
       -2    1    3    3    0  502  0.10664210954E+04  0.27995262319E+03  0.62027151679E+03  0.12650550100E+04  0.25500000920E-02 0. -1.
</event>
<event>
 5   0  0.9855352E-06  0.2151243E+04  0.7818609E-02  0.8539000E-01
        1   -1    0    0  501    0  0.00000000000E+00  0.00000000000E+00  0.11580910686E+04  0.11580910687E+04  0.50400001928E-02 0. -1.
       -1   -1    0    0    0  501  0.00000000000E+00  0.00000000000E+00 -0.99902500853E+03  0.99902500854E+03  0.50400001928E-02 0.  1.
    10030    2    1    2    0    0  0.00000000000E+00  0.00000000000E+00  0.15906606012E+03  0.21571160772E+04  0.21512433054E+04 0.  0.
        2    1    3    3  502    0 -0.25330940768E+03  0.32868204627E+03 -0.91552899652E+03  0.10051820169E+04  0.25500000920E-02 0.  1.
       -2    1    3    3    0  502  0.25330940768E+03 -0.32868204627E+03  0.10745950566E+04  0.11519340603E+04  0.25500000920E-02 0. -1.
</event>
<event>
 5   0  0.1005492E-05  0.2586482E+04  0.7818609E-02  0.8372808E-01
        1   -1    0    0  501    0  0.00000000000E+00  0.00000000000E+00  0.25995113544E+04  0.25995113544E+04  0.50400001928E-02 0.  1.
       -1   -1    0    0    0  501  0.00000000000E+00  0.00000000000E+00 -0.64337936252E+03  0.64337936254E+03  0.50400001928E-02 0. -1.
    10030    2    1    2    0    0  0.00000000000E+00  0.00000000000E+00  0.19561319919E+04  0.32428907169E+04  0.25864817479E+04 0.  0.
        4    1    3    3  502    0 -0.61747378724E+03 -0.19516133537E+03  0.23815815726E+04  0.24680547450E+04  0.12699999809E+01 0.  1.
       -4    1    3    3    0  502  0.61747378724E+03  0.19516133537E+03 -0.42544958070E+03  0.77483597191E+03  0.12699999809E+01 0. -1.
</event>
<event>
 5   0  0.2555801E-05  0.2580304E+04  0.7818609E-02  0.8374922E-01
       -2   -1    0    0    0  501  0.00000000000E+00  0.00000000000E+00  0.15589724510E+04  0.15589724510E+04  0.25500000920E-02 0.  1.
        2   -1    0    0  501    0  0.00000000000E+00  0.00000000000E+00 -0.10676858069E+04  0.10676858069E+04  0.25500000920E-02 0. -1.
    10030    2    1    2    0    0  0.00000000000E+00  0.00000000000E+00  0.49128664413E+03  0.26266582579E+04  0.25803044466E+04 0.  0.
        1    1    3    3  502    0 -0.41888825355E+03 -0.32390528015E+03 -0.95197393141E+03  0.10893284012E+04  0.50400001928E-02 0. -1.
       -1    1    3    3    0  502  0.41888825355E+03  0.32390528015E+03  0.14432605755E+04  0.15373298567E+04  0.50400001928E-02 0.  1.
</event>
<event>
 5   0  0.2662024E-05  0.2592052E+04  0.7818609E-02  0.8370906E-01
       -2   -1    0    0    0  501  0.00000000000E+00  0.00000000000E+00  0.13364259844E+04  0.13364259844E+04  0.25500000920E-02 0.  1.
        2   -1    0    0  501    0  0.00000000000E+00  0.00000000000E+00 -0.12568474039E+04  0.12568474039E+04  0.25500000920E-02 0. -1.
    10030    2    1    2    0    0  0.00000000000E+00  0.00000000000E+00  0.79578580502E+02  0.25932733882E+04  0.25920521051E+04 0.  0.
        2    1    3    3  502    0 -0.30248592070E+03  0.10603365051E+04  0.72119189955E+03  0.13175465807E+04  0.25500000920E-02 0.  1.
       -2    1    3    3    0  502  0.30248592070E+03 -0.10603365051E+04 -0.64161331904E+03  0.12757268075E+04  0.25500000920E-02 0. -1.
</event>
<event>
 5   0  0.1025153E-05  0.2620772E+04  0.7818609E-02  0.8361180E-01
        1   -1    0    0  501    0  0.00000000000E+00  0.00000000000E+00  0.10261859334E+04  0.10261859334E+04  0.50400001928E-02 0.  1.
       -1   -1    0    0    0  501  0.00000000000E+00  0.00000000000E+00 -0.16732944215E+04  0.16732944215E+04  0.50400001928E-02 0. -1.
    10030    2    1    2    0    0  0.00000000000E+00  0.00000000000E+00 -0.64710848808E+03  0.26994803550E+04  0.26207717931E+04 0.  0.
        1    1    3    3  502    0  0.29398606517E+03 -0.50039230491E+03  0.88658761336E+03  0.10596498769E+04  0.50400001928E-02 0.  1.
       -1    1    3    3    0  502 -0.29398606517E+03  0.50039230491E+03 -0.15336961014E+04  0.16398304781E+04  0.50400001928E-02 0. -1.
</event>
<event>
 5   0  0.9855352E-06  0.2611662E+04  0.7818609E-02  0.8364251E-01
       -1   -1    0    0    0  501  0.00000000000E+00  0.00000000000E+00  0.53972215100E+03  0.53972215102E+03  0.50400001928E-02 0. -1.
        1   -1    0    0  501    0  0.00000000000E+00  0.00000000000E+00 -0.31593924557E+04  0.31593924557E+04  0.50400001928E-02 0.  1.
    10030    2    1    2    0    0  0.00000000000E+00  0.00000000000E+00 -0.26196703047E+04  0.36991146068E+04  0.26116616106E+04 0.  0.
        2    1    3    3  502    0  0.48351702731E+03  0.69572618694E+03 -0.27172461626E+04  0.28462695499E+04  0.25500000920E-02 0.  1.
       -2    1    3    3    0  502 -0.48351702731E+03 -0.69572618694E+03  0.97575857846E+02  0.85284505682E+03  0.25500000920E-02 0. -1.
</event>
<event>
 5   0  0.2555801E-05  0.2617825E+04  0.7818609E-02  0.8362172E-01
       -2   -1    0    0    0  501  0.00000000000E+00  0.00000000000E+00  0.11794674098E+04  0.11794674098E+04  0.25500000920E-02 0. -1.
        2   -1    0    0  501    0  0.00000000000E+00  0.00000000000E+00 -0.14525636301E+04  0.14525636301E+04  0.25500000920E-02 0.  1.
    10030    2    1    2    0    0  0.00000000000E+00  0.00000000000E+00 -0.27309622032E+03  0.26320310399E+04  0.26178246407E+04 0.  0.
        1    1    3    3  502    0 -0.11905512747E+04 -0.31801114648E+03  0.30710383791E+03  0.12699827535E+04  0.50400001928E-02 0. -1.
       -1    1    3    3    0  502  0.11905512747E+04  0.31801114648E+03 -0.58020005823E+03  0.13620482864E+04  0.50400001928E-02 0.  1.
</event>
<event>
 5   0  0.9855352E-06  0.2624145E+04  0.7818609E-02  0.8360046E-01
       -1   -1    0    0    0  501  0.00000000000E+00  0.00000000000E+00  0.99113054105E+03  0.99113054106E+03  0.50400001928E-02 0.  1.
        1   -1    0    0  501    0  0.00000000000E+00  0.00000000000E+00 -0.17369400192E+04  0.17369400192E+04  0.50400001928E-02 0. -1.
    10030    2    1    2    0    0  0.00000000000E+00  0.00000000000E+00 -0.74580947813E+03  0.27280705603E+04  0.26241450425E+04 0.  0.
        2    1    3    3  502    0  0.54829749595E+03 -0.10453956816E+04  0.22253679538E+03  0.12012513894E+04  0.25500000920E-02 0.  1.
       -2    1    3    3    0  502 -0.54829749595E+03  0.10453956816E+04 -0.96834627352E+03  0.15268191709E+04  0.25500000920E-02 0. -1.
</event>
<event>
 5   0  0.1000421E-05  0.2572331E+04  0.7818609E-02  0.8377661E-01
        1   -1    0    0  501    0  0.00000000000E+00  0.00000000000E+00  0.21106800251E+04  0.21106800251E+04  0.50400001928E-02 0.  1.
       -1   -1    0    0    0  501  0.00000000000E+00  0.00000000000E+00 -0.78373851526E+03  0.78373851528E+03  0.50400001928E-02 0. -1.
    10030    2    1    2    0    0  0.00000000000E+00  0.00000000000E+00  0.13269415099E+04  0.28944185404E+04  0.25723306390E+04 0.  0.
        3    1    3    3  502    0 -0.96826472471E+03  0.82579005076E+03  0.87324197203E+03  0.15433785462E+04  0.10100000352E+00 0.  1.
       -3    1    3    3    0  502  0.96826472471E+03 -0.82579005076E+03  0.45369953784E+03  0.13510399942E+04  0.10100000352E+00 0. -1.
</event>
<event>
 5   0  0.2517854E-05  0.2603575E+04  0.7818609E-02  0.8366988E-01
        2   -1    0    0  501    0  0.00000000000E+00  0.00000000000E+00  0.13878351777E+04  0.13878351777E+04  0.25500000920E-02 0.  1.
       -2   -1    0    0    0  501  0.00000000000E+00  0.00000000000E+00 -0.12210747592E+04  0.12210747592E+04  0.25500000920E-02 0. -1.
    10030    2    1    2    0    0  0.00000000000E+00  0.00000000000E+00  0.16676041850E+03  0.26089099370E+04  0.26035748543E+04 0.  0.
        4    1    3    3  502    0 -0.74889445413E+03  0.64217931954E+03 -0.76771983387E+03  0.12500530141E+04  0.12699999809E+01 0. -1.
       -4    1    3    3    0  502  0.74889445413E+03 -0.64217931954E+03  0.93448025237E+03  0.13588569229E+04  0.12699999809E+01 0.  1.
</event>
<event>
 5   0  0.2517854E-05  0.2592176E+04  0.7818609E-02  0.8370864E-01
       -2   -1    0    0    0  501  0.00000000000E+00  0.00000000000E+00  0.12053913832E+04  0.12053913832E+04  0.25500000920E-02 0.  1.
        2   -1    0    0  501    0  0.00000000000E+00  0.00000000000E+00 -0.13936092284E+04  0.13936092284E+04  0.25500000920E-02 0. -1.
    10030    2    1    2    0    0  0.00000000000E+00  0.00000000000E+00 -0.18821784528E+03  0.25990006116E+04  0.25921763485E+04 0.  0.
        4    1    3    3  502    0  0.88372370224E+03  0.94025699868E+02  0.85179116471E+03  0.12309988689E+04  0.12699999809E+01 0.  1.
       -4    1    3    3    0  502 -0.88372370224E+03 -0.94025699868E+02 -0.10400090100E+04  0.13680017427E+04  0.12699999809E+01 0. -1.
</event>
<event>
 5   0  0.2517854E-05  0.2546103E+04  0.7818609E-02  0.8386743E-01
        2   -1    0    0  501    0  0.00000000000E+00  0.00000000000E+00  0.16256236907E+04  0.16256236907E+04  0.25500000920E-02 0. -1.
       -2   -1    0    0    0  501  0.00000000000E+00  0.00000000000E+00 -0.99694631790E+03  0.99694631791E+03  0.25500000920E-02 0.  1.
    10030    2    1    2    0    0  0.00000000000E+00  0.00000000000E+00  0.62867737280E+03  0.26225700086E+04  0.25461025531E+04 0.  0.
        4    1    3    3  502    0  0.73659519357E+03  0.38628093258E+03 -0.67838698144E+03  0.10733107414E+04  0.12699999809E+01 0.  1.
       -4    1    3    3    0  502 -0.73659519357E+03 -0.38628093258E+03  0.13070643542E+04  0.15492592672E+04  0.12699999809E+01 0. -1.
</event>
<event>
 5   0  0.2484618E-05  0.2593152E+04  0.7818609E-02  0.8370531E-01
       -2   -1    0    0    0  501  0.00000000000E+00  0.00000000000E+00  0.96351708672E+03  0.96351708673E+03  0.25500000920E-02 0. -1.
        2   -1    0    0  501    0  0.00000000000E+00  0.00000000000E+00 -0.17447629150E+04  0.17447629150E+04  0.25500000920E-02 0.  1.
    10030    2    1    2    0    0  0.00000000000E+00  0.00000000000E+00 -0.78124582832E+03  0.27082800018E+04  0.25931516585E+04 0.  0.
        3    1    3    3  502    0  0.52436006776E+03 -0.14134084270E+02 -0.16289958488E+04  0.17113680897E+04  0.10100000352E+00 0.  1.
       -3    1    3    3    0  502 -0.52436006776E+03  0.14134084270E+02  0.84775002046E+03  0.99691191205E+03  0.10100000352E+00 0. -1.
</event>
<event>
 5   0  0.1025153E-05  0.2529554E+04  0.7818609E-02  0.8392532E-01
        1   -1    0    0  501    0  0.00000000000E+00  0.00000000000E+00  0.21425520393E+04  0.21425520393E+04  0.50400001928E-02 0.  1.
       -1   -1    0    0    0  501  0.00000000000E+00  0.00000000000E+00 -0.74661447085E+03  0.74661447087E+03  0.50400001928E-02 0. -1.
    10030    2    1    2    0    0  0.00000000000E+00  0.00000000000E+00  0.13959375685E+04  0.28891665102E+04  0.25295536026E+04 0.  0.
        1    1    3    3  502    0  0.18424198403E+03  0.52405098476E+02 -0.72995116492E+03  0.75466555919E+03  0.50400001928E-02 0. -1.
       -1    1    3    3    0  502 -0.18424198403E+03 -0.52405098476E+02  0.21258887334E+04  0.21345009510E+04  0.50400001928E-02 0.  1.
</event>
<event>
 5   0  0.2662024E-05  0.2544508E+04  0.7818609E-02  0.8387299E-01
       -2   -1    0    0    0  501  0.00000000000E+00  0.00000000000E+00  0.10327081078E+04  0.10327081078E+04  0.25500000920E-02 0.  1.
        2   -1    0    0  501    0  0.00000000000E+00  0.00000000000E+00 -0.15673646688E+04  0.15673646688E+04  0.25500000920E-02 0. -1.
    10030    2    1    2    0    0  0.00000000000E+00  0.00000000000E+00 -0.53465656096E+03  0.26000727766E+04  0.25445079692E+04 0.  0.
        2    1    3    3  502    0 -0.12257526148E+03  0.89217757118E+03  0.65097573194E+03  0.11112042642E+04  0.25500000920E-02 0.  1.
       -2    1    3    3    0  502  0.12257526148E+03 -0.89217757118E+03 -0.11856322929E+04  0.14888685124E+04  0.25500000920E-02 0. -1.
</event>
<event>
 5   0  0.2555801E-05  0.2632302E+04  0.7818609E-02  0.8357311E-01
        2   -1    0    0  501    0  0.00000000000E+00  0.00000000000E+00  0.19230311320E+04  0.19230311320E+04  0.25500000920E-02 0. -1.
       -2   -1    0    0    0  501  0.00000000000E+00  0.00000000000E+00 -0.90079332187E+03  0.90079332188E+03  0.25500000920E-02 0.  1.
    10030    2    1    2    0    0  0.00000000000E+00  0.00000000000E+00  0.10222378102E+04  0.28238244539E+04  0.26323021115E+04 0.  0.
        1    1    3    3  502    0 -0.12752888821E+04 -0.31223738569E+03  0.41280081673E+03  0.13763206139E+04  0.50400001928E-02 0.  1.
       -1    1    3    3    0  502  0.12752888821E+04  0.31223738569E+03  0.60943699344E+03  0.14475038400E+04  0.50400001928E-02 0. -1.
</event>
<event>
 5   0  0.9855352E-06  0.2538112E+04  0.7818609E-02  0.8389532E-01
        1   -1    0    0  501    0  0.00000000000E+00  0.00000000000E+00  0.78630862037E+03  0.78630862039E+03  0.50400001928E-02 0. -1.
       -1   -1    0    0    0  501  0.00000000000E+00  0.00000000000E+00 -0.20481821845E+04  0.20481821845E+04  0.50400001928E-02 0.  1.
    10030    2    1    2    0    0  0.00000000000E+00  0.00000000000E+00 -0.12618735641E+04  0.28344908049E+04  0.25381121392E+04 0.  0.
        2    1    3    3  502    0  0.11934768372E+04 -0.36097481566E+03 -0.89477274253E+03  0.15347012867E+04  0.25500000920E-02 0. -1.
       -2    1    3    3    0  502 -0.11934768372E+04  0.36097481566E+03 -0.36710082159E+03  0.12997895182E+04  0.25500000920E-02 0.  1.
</event>
<event>
 5   0  0.9855352E-06  0.2612072E+04  0.7818609E-02  0.8364112E-01
        1   -1    0    0  501    0  0.00000000000E+00  0.00000000000E+00  0.20978173272E+04  0.20978173272E+04  0.50400001928E-02 0.  1.
       -1   -1    0    0    0  501  0.00000000000E+00  0.00000000000E+00 -0.81309724262E+03  0.81309724264E+03  0.50400001928E-02 0. -1.
    10030    2    1    2    0    0  0.00000000000E+00  0.00000000000E+00  0.12847200846E+04  0.29109145699E+04  0.26120715797E+04 0.  0.
        2    1    3    3  502    0  0.57196118382E+03 -0.11736548550E+04  0.60499543994E+03  0.14389665725E+04  0.25500000920E-02 0.  1.
       -2    1    3    3    0  502 -0.57196118382E+03  0.11736548550E+04  0.67972464468E+03  0.14719479974E+04  0.25500000920E-02 0. -1.
</event>
<event>
 5   0  0.2555801E-05  0.2630700E+04  0.7818609E-02  0.8357847E-01
        2   -1    0    0  501    0  0.00000000000E+00  0.00000000000E+00  0.15293550196E+04  0.15293550196E+04  0.25500000920E-02 0. -1.
       -2   -1    0    0    0  501  0.00000000000E+00  0.00000000000E+00 -0.11312908038E+04  0.11312908038E+04  0.25500000920E-02 0.  1.
    10030    2    1    2    0    0  0.00000000000E+00  0.00000000000E+00  0.39806421573E+03  0.26606458234E+04  0.26306997316E+04 0.  0.
        1    1    3    3  502    0 -0.19813533861E+03  0.11073689766E+04  0.88842291377E+03  0.14334639642E+04  0.50400001928E-02 0. -1.
       -1    1    3    3    0  502  0.19813533861E+03 -0.11073689766E+04 -0.49035869804E+03  0.12271818592E+04  0.50400001928E-02 0.  1.
</event>
<event>
 5   0  0.2517854E-05  0.2571056E+04  0.7818609E-02  0.8378100E-01
       -2   -1    0    0    0  501  0.00000000000E+00  0.00000000000E+00  0.76411761197E+03  0.76411761197E+03  0.25500000920E-02 0. -1.
        2   -1    0    0  501    0  0.00000000000E+00  0.00000000000E+00 -0.21627335685E+04  0.21627335685E+04  0.25500000920E-02 0.  1.
    10030    2    1    2    0    0  0.00000000000E+00  0.00000000000E+00 -0.13986159565E+04  0.29268511805E+04  0.25710564441E+04 0.  0.
        4    1    3    3  502    0  0.44121843579E+03 -0.20886303687E+03 -0.20531166787E+04  0.21103523842E+04  0.12699999809E+01 0.  1.
       -4    1    3    3    0  502 -0.44121843579E+03  0.20886303687E+03  0.65450072211E+03  0.81649879632E+03  0.12699999809E+01 0. -1.
</event>
<event>
 5   0  0.2517854E-05  0.2577129E+04  0.7818609E-02  0.8376012E-01
       -2   -1    0    0    0  501  0.00000000000E+00  0.00000000000E+00  0.13649087730E+04  0.13649087730E+04  0.25500000920E-02 0. -1.
        2   -1    0    0  501    0  0.00000000000E+00  0.00000000000E+00 -0.12164904759E+04  0.12164904759E+04  0.25500000920E-02 0.  1.
    10030    2    1    2    0    0  0.00000000000E+00  0.00000000000E+00  0.14841829716E+03  0.25813992489E+04  0.25771290405E+04 0.  0.
        4    1    3    3  502    0 -0.89228783356E+02  0.97148148611E+03 -0.76900449305E+03  0.12422188120E+04  0.12699999809E+01 0.  1.
       -4    1    3    3    0  502  0.89228783356E+02 -0.97148148611E+03  0.91742279021E+03  0.13391804369E+04  0.12699999809E+01 0. -1.
</event>
<event>
 5   0  0.1000421E-05  0.2575294E+04  0.7818609E-02  0.8376642E-01
        1   -1    0    0  501    0  0.00000000000E+00  0.00000000000E+00  0.10069626428E+04  0.10069626428E+04  0.50400001928E-02 0. -1.
       -1   -1    0    0    0  501  0.00000000000E+00  0.00000000000E+00 -0.16465699939E+04  0.16465699939E+04  0.50400001928E-02 0.  1.
    10030    2    1    2    0    0  0.00000000000E+00  0.00000000000E+00 -0.63960735114E+03  0.26535326367E+04  0.25752937483E+04 0.  0.
        3    1    3    3  502    0  0.63442005333E+03 -0.82694694773E+03  0.45927878783E+03  0.11389763270E+04  0.10100000352E+00 0. -1.
       -3    1    3    3    0  502 -0.63442005333E+03  0.82694694773E+03 -0.10988861390E+04  0.15145563096E+04  0.10100000352E+00 0.  1.
</event>
<event>
 5   0  0.1034714E-05  0.2597101E+04  0.7818609E-02  0.8369187E-01
       -1   -1    0    0    0  501  0.00000000000E+00  0.00000000000E+00  0.92647983302E+03  0.92647983304E+03  0.50400001928E-02 0.  1.
        1   -1    0    0  501    0  0.00000000000E+00  0.00000000000E+00 -0.18200429684E+04  0.18200429684E+04  0.50400001928E-02 0. -1.
    10030    2    1    2    0    0  0.00000000000E+00  0.00000000000E+00 -0.89356313536E+03  0.27465228014E+04  0.25971007724E+04 0.  0.
        5    1    3    3  502    0 -0.43355401210E+03 -0.68900386188E+03 -0.15166777634E+04  0.17213450935E+04  0.46999998093E+01 0. -1.
       -5    1    3    3    0  502  0.43355401210E+03  0.68900386188E+03  0.62311462803E+03  0.10251777079E+04  0.46999998093E+01 0.  1.
</event>
<event>
 5   0  0.2662024E-05  0.2636954E+04  0.7818609E-02  0.8355756E-01
       -2   -1    0    0    0  501  0.00000000000E+00  0.00000000000E+00  0.16897757313E+04  0.16897757313E+04  0.25500000920E-02 0. -1.
        2   -1    0    0  501    0  0.00000000000E+00  0.00000000000E+00 -0.10287646562E+04  0.10287646562E+04  0.25500000920E-02 0.  1.
    10030    2    1    2    0    0  0.00000000000E+00  0.00000000000E+00  0.66101107513E+03  0.27185403876E+04  0.26369539619E+04 0.  0.
        2    1    3    3  502    0 -0.34010931872E+02  0.11222323629E+02  0.16892741625E+04  0.16896537753E+04  0.25500000920E-02 0. -1.
       -2    1    3    3    0  502  0.34010931872E+02 -0.11222323629E+02 -0.10282630874E+04  0.10288866123E+04  0.25500000920E-02 0.  1.
</event>
<event>
 5   0  0.9855352E-06  0.2541512E+04  0.7818609E-02  0.8388344E-01
        1   -1    0    0  501    0  0.00000000000E+00  0.00000000000E+00  0.19828221485E+04  0.19828221485E+04  0.50400001928E-02 0.  1.
       -1   -1    0    0    0  501  0.00000000000E+00  0.00000000000E+00 -0.81440537521E+03  0.81440537522E+03  0.50400001928E-02 0. -1.
    10030    2    1    2    0    0  0.00000000000E+00  0.00000000000E+00  0.11684167733E+04  0.27972275237E+04  0.25415121608E+04 0.  0.
        2    1    3    3  502    0 -0.86289867571E+03  0.83647738711E+03  0.10387138885E+04  0.15884631207E+04  0.25500000920E-02 0. -1.
       -2    1    3    3    0  502  0.86289867571E+03 -0.83647738711E+03  0.12970288480E+03  0.12087644030E+04  0.25500000920E-02 0.  1.
</event>
<event>
 5   0  0.9855352E-06  0.2618399E+04  0.7818609E-02  0.8361978E-01
       -1   -1    0    0    0  501  0.00000000000E+00  0.00000000000E+00  0.27206465760E+04  0.27206465760E+04  0.50400001928E-02 0. -1.
        1   -1    0    0  501    0  0.00000000000E+00  0.00000000000E+00 -0.62999838025E+03  0.62999838027E+03  0.50400001928E-02 0.  1.
    10030    2    1    2    0    0  0.00000000000E+00  0.00000000000E+00  0.20906481957E+04  0.33506449563E+04  0.26183986986E+04 0.  0.
        2    1    3    3  502    0  0.48913826385E+03  0.30313261603E+03  0.25501328900E+04  0.26142538860E+04  0.25500000920E-02 0. -1.
       -2    1    3    3    0  502 -0.48913826385E+03 -0.30313261603E+03 -0.45948469425E+03  0.73639107023E+03  0.25500000920E-02 0.  1.
</event>
<event>
 5   0  0.1025153E-05  0.2547723E+04  0.7818609E-02  0.8386179E-01
        1   -1    0    0  501    0  0.00000000000E+00  0.00000000000E+00  0.18441045844E+04  0.18441045844E+04  0.50400001928E-02 0. -1.
       -1   -1    0    0    0  501  0.00000000000E+00  0.00000000000E+00 -0.87995174951E+03  0.87995174953E+03  0.50400001928E-02 0.  1.
    10030    2    1    2    0    0  0.00000000000E+00  0.00000000000E+00  0.96415283490E+03  0.27240563339E+04  0.25477229483E+04 0.  0.
        1    1    3    3  502    0  0.12947616487E+03 -0.34790373612E+03 -0.82083743614E+03  0.90087467689E+03  0.50400001928E-02 0.  1.
       -1    1    3    3    0  502 -0.12947616487E+03  0.34790373612E+03  0.17849902710E+04  0.18231816571E+04  0.50400001928E-02 0. -1.
</event>
<event>
 5   0  0.2662024E-05  0.2251309E+04  0.7818609E-02  0.8497371E-01
       -2   -1    0    0    0  501  0.00000000000E+00  0.00000000000E+00  0.53781953881E+03  0.53781953882E+03  0.25500000920E-02 0. -1.
        2   -1    0    0  501    0  0.00000000000E+00  0.00000000000E+00 -0.23559903416E+04  0.23559903416E+04  0.25500000920E-02 0.  1.
    10030    2    1    2    0    0  0.00000000000E+00  0.00000000000E+00 -0.18181708028E+04  0.28938098804E+04  0.22513086319E+04 0.  0.
        2    1    3    3  502    0  0.18202330982E+03 -0.28759001493E+02  0.51829855846E+03  0.55008450369E+03  0.25500000920E-02 0. -1.
       -2    1    3    3    0  502 -0.18202330982E+03  0.28759001493E+02 -0.23364693613E+04  0.23437253767E+04  0.25500000920E-02 0.  1.
</event>
<event>
 5   0  0.2517854E-05  0.2587303E+04  0.7818609E-02  0.8372527E-01
       -2   -1    0    0    0  501  0.00000000000E+00  0.00000000000E+00  0.80568467112E+03  0.80568467112E+03  0.25500000920E-02 0. -1.
        2   -1    0    0  501    0  0.00000000000E+00  0.00000000000E+00 -0.20771575207E+04  0.20771575207E+04  0.25500000920E-02 0.  1.
    10030    2    1    2    0    0  0.00000000000E+00  0.00000000000E+00 -0.12714728496E+04  0.28828421918E+04  0.25873028226E+04 0.  0.
        4    1    3    3  502    0  0.65975956715E+02 -0.29597044657E+03 -0.20369983794E+04  0.20594453969E+04  0.12699999809E+01 0.  1.
       -4    1    3    3    0  502 -0.65975956715E+02  0.29597044657E+03  0.76552552986E+03  0.82339679492E+03  0.12699999809E+01 0. -1.
</event>
<event>
 5   0  0.1025153E-05  0.2586915E+04  0.7818609E-02  0.8372660E-01
       -1   -1    0    0    0  501  0.00000000000E+00  0.00000000000E+00  0.66100260043E+03  0.66100260045E+03  0.50400001928E-02 0. -1.
        1   -1    0    0  501    0  0.00000000000E+00  0.00000000000E+00 -0.25310519720E+04  0.25310519720E+04  0.50400001928E-02 0.  1.
    10030    2    1    2    0    0  0.00000000000E+00  0.00000000000E+00 -0.18700493715E+04  0.31920545724E+04  0.25869147147E+04 0.  0.
        1    1    3    3  502    0 -0.61763998923E+03 -0.98311623771E+03 -0.23154198452E+03  0.11838954277E+04  0.50400001928E-02 0.  1.
       -1    1    3    3    0  502  0.61763998923E+03  0.98311623771E+03 -0.16385073870E+04  0.20081591447E+04  0.50400001928E-02 0. -1.
</event>
<event>
 5   0  0.2555801E-05  0.2627117E+04  0.7818609E-02  0.8359048E-01
       -2   -1    0    0    0  501  0.00000000000E+00  0.00000000000E+00  0.73820269519E+03  0.73820269520E+03  0.25500000920E-02 0. -1.
        2   -1    0    0  501    0  0.00000000000E+00  0.00000000000E+00 -0.23373471695E+04  0.23373471695E+04  0.25500000920E-02 0.  1.
    10030    2    1    2    0    0  0.00000000000E+00  0.00000000000E+00 -0.15991444743E+04  0.30755498647E+04  0.26271170359E+04 0.  0.
        1    1    3    3  502    0  0.33571685947E+03 -0.35783951536E+03  0.62688886995E+03  0.79608076461E+03  0.50400001928E-02 0. -1.
       -1    1    3    3    0  502 -0.33571685947E+03  0.35783951536E+03 -0.22260333442E+04  0.22794691001E+04  0.50400001928E-02 0.  1.
</event>
<event>
 5   0  0.9855352E-06  0.2491296E+04  0.7818609E-02  0.8406093E-01
       -1   -1    0    0    0  501  0.00000000000E+00  0.00000000000E+00  0.16778785113E+04  0.16778785113E+04  0.50400001928E-02 0. -1.
        1   -1    0    0  501    0  0.00000000000E+00  0.00000000000E+00 -0.92476217357E+03  0.92476217358E+03  0.50400001928E-02 0.  1.
    10030    2    1    2    0    0  0.00000000000E+00  0.00000000000E+00  0.75311633777E+03  0.26026406849E+04  0.24912957104E+04 0.  0.
        2    1    3    3  502    0  0.43454241581E+03 -0.11254669609E+04  0.70047314457E+03  0.13950503997E+04  0.25500000920E-02 0.  1.
       -2    1    3    3    0  502 -0.43454241581E+03  0.11254669609E+04  0.52643193202E+02  0.12075902853E+04  0.25500000920E-02 0. -1.
</event>
<event>
 5   0  0.1025153E-05  0.2598054E+04  0.7818609E-02  0.8368862E-01
        1   -1    0    0  501    0  0.00000000000E+00  0.00000000000E+00  0.18402476153E+04  0.18402476153E+04  0.50400001928E-02 0.  1.
       -1   -1    0    0    0  501  0.00000000000E+00  0.00000000000E+00 -0.91698050934E+03  0.91698050935E+03  0.50400001928E-02 0. -1.
    10030    2    1    2    0    0  0.00000000000E+00  0.00000000000E+00  0.92326710592E+03  0.27572281246E+04  0.25980540376E+04 0.  0.
        1    1    3    3  502    0  0.66423955910E+03  0.13225004589E+03  0.16380450957E+04  0.17725394219E+04  0.50400001928E-02 0.  1.
       -1    1    3    3    0  502 -0.66423955910E+03 -0.13225004589E+03 -0.71477798981E+03  0.98468870272E+03  0.50400001928E-02 0. -1.
</event>
<event>
 5   0  0.1025153E-05  0.2638628E+04  0.7818609E-02  0.8355197E-01
        1   -1    0    0  501    0  0.00000000000E+00  0.00000000000E+00  0.12009350092E+04  0.12009350092E+04  0.50400001928E-02 0. -1.
       -1   -1    0    0    0  501  0.00000000000E+00  0.00000000000E+00 -0.14493616907E+04  0.14493616907E+04  0.50400001928E-02 0.  1.
    10030    2    1    2    0    0  0.00000000000E+00  0.00000000000E+00 -0.24842668150E+03  0.26502966999E+04  0.26386278216E+04 0.  0.
        1    1    3    3  502    0 -0.19668555048E+03  0.47821769727E+03  0.10949136778E+04  0.12108729635E+04  0.50400001928E-02 0. -1.
       -1    1    3    3    0  502  0.19668555048E+03 -0.47821769727E+03 -0.13433403593E+04  0.14394237364E+04  0.50400001928E-02 0.  1.
</event>
<event>
 5   0  0.1025153E-05  0.2579025E+04  0.7818609E-02  0.8375361E-01
       -1   -1    0    0    0  501  0.00000000000E+00  0.00000000000E+00  0.10225983539E+04  0.10225983539E+04  0.50400001928E-02 0. -1.
        1   -1    0    0  501    0  0.00000000000E+00  0.00000000000E+00 -0.16260948188E+04  0.16260948189E+04  0.50400001928E-02 0.  1.
    10030    2    1    2    0    0  0.00000000000E+00  0.00000000000E+00 -0.60349646497E+03  0.26486931728E+04  0.25790245327E+04 0.  0.
        1    1    3    3  502    0  0.11944372008E+04 -0.48595192520E+03 -0.29813398414E+03  0.13235230912E+04  0.50400001928E-02 0. -1.
       -1    1    3    3    0  502 -0.11944372008E+04  0.48595192520E+03 -0.30536248083E+03  0.13251700816E+04  0.50400001928E-02 0.  1.
</event>
<event>
 5   0  0.1025153E-05  0.2644469E+04  0.7818609E-02  0.8353251E-01
        1   -1    0    0  501    0  0.00000000000E+00  0.00000000000E+00  0.21417696834E+04  0.21417696834E+04  0.50400001928E-02 0.  1.
       -1   -1    0    0    0  501  0.00000000000E+00  0.00000000000E+00 -0.81628936431E+03  0.81628936432E+03  0.50400001928E-02 0. -1.
    10030    2    1    2    0    0  0.00000000000E+00  0.00000000000E+00  0.13254803191E+04  0.29580590478E+04  0.26444688037E+04 0.  0.
        1    1    3    3  502    0  0.93526322475E+03  0.14485937776E+03  0.16956005774E+04  0.19418452196E+04  0.50400001928E-02 0.  1.
       -1    1    3    3    0  502 -0.93526322475E+03 -0.14485937776E+03 -0.37012025827E+03  0.10162138281E+04  0.50400001928E-02 0. -1.
</event>
<event>
 5   0  0.9855352E-06  0.2593661E+04  0.7818609E-02  0.8370357E-01
        1   -1    0    0  501    0  0.00000000000E+00  0.00000000000E+00  0.13719158179E+04  0.13719158179E+04  0.50400001928E-02 0.  1.
       -1   -1    0    0    0  501  0.00000000000E+00  0.00000000000E+00 -0.12258549484E+04  0.12258549484E+04  0.50400001928E-02 0. -1.
    10030    2    1    2    0    0  0.00000000000E+00  0.00000000000E+00  0.14606086947E+03  0.25977707663E+04  0.25936613458E+04 0.  0.
        2    1    3    3  502    0 -0.20000464684E+03  0.12648224868E+04  0.27827463743E+03  0.13104253339E+04  0.25500000920E-02 0.  1.
       -2    1    3    3    0  502  0.20000464684E+03 -0.12648224868E+04 -0.13221376796E+03  0.12873454324E+04  0.25500000920E-02 0. -1.
</event>
<event>
 5   0  0.1025153E-05  0.2576970E+04  0.7818609E-02  0.8376066E-01
        1   -1    0    0  501    0  0.00000000000E+00  0.00000000000E+00  0.12041517714E+04  0.12041517714E+04  0.50400001928E-02 0. -1.
       -1   -1    0    0    0  501  0.00000000000E+00  0.00000000000E+00 -0.13787242429E+04  0.13787242429E+04  0.50400001928E-02 0.  1.
    10030    2    1    2    0    0  0.00000000000E+00  0.00000000000E+00 -0.17457247144E+03  0.25828760143E+04  0.25769697238E+04 0.  0.
        1    1    3    3  502    0 -0.65533434137E+02 -0.49601865024E+03  0.11028121612E+04  0.12110011541E+04  0.50400001928E-02 0. -1.
       -1    1    3    3    0  502  0.65533434137E+02  0.49601865024E+03 -0.12773846326E+04  0.13718748602E+04  0.50400001928E-02 0.  1.
</event>
<event>
 5   0  0.2662024E-05  0.2542469E+04  0.7818609E-02  0.8388010E-01
       -2   -1    0    0    0  501  0.00000000000E+00  0.00000000000E+00  0.22440033420E+04  0.22440033420E+04  0.25500000920E-02 0.  1.
        2   -1    0    0  501    0  0.00000000000E+00  0.00000000000E+00 -0.72015825466E+03  0.72015825467E+03  0.25500000920E-02 0. -1.
    10030    2    1    2    0    0  0.00000000000E+00  0.00000000000E+00  0.15238450873E+04  0.29641615966E+04  0.25424692960E+04 0.  0.
        2    1    3    3  502    0 -0.11389737658E+03  0.12568152435E+04  0.58327438340E+03  0.13902396107E+04  0.25500000920E-02 0. -1.
       -2    1    3    3    0  502  0.11389737658E+03 -0.12568152435E+04  0.94057070390E+03  0.15739219859E+04  0.25500000920E-02 0.  1.
</event>
<event>
 5   0  0.9855352E-06  0.2043677E+04  0.7818609E-02  0.8586468E-01
        1   -1    0    0  501    0  0.00000000000E+00  0.00000000000E+00  0.16572155263E+04  0.16572155263E+04  0.50400001928E-02 0.  1.
       -1   -1    0    0    0  501  0.00000000000E+00  0.00000000000E+00 -0.63006531108E+03  0.63006531110E+03  0.50400001928E-02 0. -1.
    10030    2    1    2    0    0  0.00000000000E+00  0.00000000000E+00  0.10271502152E+04  0.22872808374E+04  0.20436770940E+04 0.  0.
        2    1    3    3  502    0  0.77172921723E+03 -0.15204923671E+03  0.12436059467E+04  0.14714756898E+04  0.25500000920E-02 0.  1.
       -2    1    3    3    0  502 -0.77172921723E+03  0.15204923671E+03 -0.21645573147E+03  0.81580514757E+03  0.25500000920E-02 0. -1.
</event>
<event>
 5   0  0.1034714E-05  0.2724184E+04  0.7818609E-02  0.8327201E-01
        1   -1    0    0  501    0  0.00000000000E+00  0.00000000000E+00  0.12143340486E+04  0.12143340486E+04  0.50400001928E-02 0. -1.
       -1   -1    0    0    0  501  0.00000000000E+00  0.00000000000E+00 -0.15278289088E+04  0.15278289088E+04  0.50400001928E-02 0.  1.
    10030    2    1    2    0    0  0.00000000000E+00  0.00000000000E+00 -0.31349486024E+03  0.27421629574E+04  0.27241840351E+04 0.  0.
        5    1    3    3  502    0 -0.97235032185E+03 -0.25860332066E+03 -0.10809198893E+04  0.14767365110E+04  0.46999998093E+01 0.  1.
       -5    1    3    3    0  502  0.97235032185E+03  0.25860332066E+03  0.76742502907E+03  0.12654264463E+04  0.46999998093E+01 0. -1.
</event>
<event>
 5   0  0.2555801E-05  0.2587124E+04  0.7818609E-02  0.8372588E-01
        2   -1    0    0  501    0  0.00000000000E+00  0.00000000000E+00  0.20418746356E+04  0.20418746356E+04  0.25500000920E-02 0.  1.
       -2   -1    0    0    0  501  0.00000000000E+00  0.00000000000E+00 -0.81949342995E+03  0.81949342995E+03  0.25500000920E-02 0. -1.
    10030    2    1    2    0    0  0.00000000000E+00  0.00000000000E+00  0.12223812057E+04  0.28613680656E+04  0.25871241553E+04 0.  0.
        1    1    3    3  502    0  0.50332902367E+03  0.24051285932E+03 -0.67962305267E+03  0.87924628820E+03  0.50400001928E-02 0. -1.
       -1    1    3    3    0  502 -0.50332902367E+03 -0.24051285932E+03  0.19020042583E+04  0.19821217774E+04  0.50400001928E-02 0.  1.
</event>
<event>
 5   0  0.2555801E-05  0.2614281E+04  0.7818609E-02  0.8363366E-01
        2   -1    0    0  501    0  0.00000000000E+00  0.00000000000E+00  0.21289206216E+04  0.21289206216E+04  0.25500000920E-02 0.  1.
       -2   -1    0    0    0  501  0.00000000000E+00  0.00000000000E+00 -0.80257424246E+03  0.80257424246E+03  0.25500000920E-02 0. -1.
    10030    2    1    2    0    0  0.00000000000E+00  0.00000000000E+00  0.13263463791E+04  0.29314948641E+04  0.26142814348E+04 0.  0.
        1    1    3    3  502    0 -0.23199005652E+02 -0.11199148073E+04  0.14186172163E+04  0.18075458987E+04  0.50400001928E-02 0.  1.
       -1    1    3    3    0  502  0.23199005652E+02  0.11199148073E+04 -0.92270837125E+02  0.11239489654E+04  0.50400001928E-02 0. -1.
</event>
<event>
 5   0  0.2662024E-05  0.2609067E+04  0.7818609E-02  0.8365128E-01
        2   -1    0    0  501    0  0.00000000000E+00  0.00000000000E+00  0.16165988166E+04  0.16165988166E+04  0.25500000920E-02 0. -1.
       -2   -1    0    0    0  501  0.00000000000E+00  0.00000000000E+00 -0.10527083397E+04  0.10527083397E+04  0.25500000920E-02 0.  1.
    10030    2    1    2    0    0  0.00000000000E+00  0.00000000000E+00  0.56389047691E+03  0.26693071563E+04  0.26090665428E+04 0.  0.
        2    1    3    3  502    0  0.44039325202E+03 -0.10733485226E+04  0.89219339052E+03  0.14635683494E+04  0.25500000920E-02 0. -1.
       -2    1    3    3    0  502 -0.44039325202E+03  0.10733485226E+04 -0.32830291361E+03  0.12057388069E+04  0.25500000920E-02 0.  1.
</event>
<event>
 5   0  0.2528460E-05  0.2599404E+04  0.7818609E-02  0.8368404E-01
       -2   -1    0    0    0  501  0.00000000000E+00  0.00000000000E+00  0.83717525725E+03  0.83717525725E+03  0.25500000920E-02 0. -1.
        2   -1    0    0  501    0  0.00000000000E+00  0.00000000000E+00 -0.20177677804E+04  0.20177677804E+04  0.25500000920E-02 0.  1.
    10030    2    1    2    0    0  0.00000000000E+00  0.00000000000E+00 -0.11805925231E+04  0.28549430376E+04  0.25994039783E+04 0.  0.
        5    1    3    3  502    0  0.12779694578E+03 -0.11059691349E+04  0.14622747200E+03  0.11228999734E+04  0.46999998093E+01 0. -1.
       -5    1    3    3    0  502 -0.12779694578E+03  0.11059691349E+04 -0.13268199951E+04  0.17320430642E+04  0.46999998093E+01 0.  1.
</event>
<event>
 5   0  0.1005492E-05  0.2604426E+04  0.7818609E-02  0.8366699E-01
        1   -1    0    0  501    0  0.00000000000E+00  0.00000000000E+00  0.14181401996E+04  0.14181401996E+04  0.50400001928E-02 0.  1.
       -1   -1    0    0    0  501  0.00000000000E+00  0.00000000000E+00 -0.11957625530E+04  0.11957625530E+04  0.50400001928E-02 0. -1.
    10030    2    1    2    0    0  0.00000000000E+00  0.00000000000E+00  0.22237764663E+03  0.26139027526E+04  0.26044261906E+04 0.  0.
        4    1    3    3  502    0  0.35685491815E+03 -0.11453311652E+04  0.61961716161E+03  0.13502058919E+04  0.12699999809E+01 0.  1.
       -4    1    3    3    0  502 -0.35685491815E+03  0.11453311652E+04 -0.39723951498E+03  0.12636968607E+04  0.12699999809E+01 0. -1.
</event>
<event>
 5   0  0.2555801E-05  0.2622576E+04  0.7818609E-02  0.8360573E-01
       -2   -1    0    0    0  501  0.00000000000E+00  0.00000000000E+00  0.11074927275E+04  0.11074927275E+04  0.25500000920E-02 0.  1.
        2   -1    0    0  501    0  0.00000000000E+00  0.00000000000E+00 -0.15525849464E+04  0.15525849464E+04  0.25500000920E-02 0. -1.
    10030    2    1    2    0    0  0.00000000000E+00  0.00000000000E+00 -0.44509221895E+03  0.26600776739E+04  0.26225762425E+04 0.  0.
        1    1    3    3  502    0 -0.27143519645E+03  0.48586162446E+02 -0.15228443379E+04  0.15476086581E+04  0.50400001928E-02 0. -1.
       -1    1    3    3    0  502  0.27143519645E+03 -0.48586162446E+02  0.10777521190E+04  0.11124690158E+04  0.50400001928E-02 0.  1.
</event>
<event>
 5   0  0.1025153E-05  0.2173104E+04  0.7818609E-02  0.8529707E-01
        1   -1    0    0  501    0  0.00000000000E+00  0.00000000000E+00  0.13895116981E+04  0.13895116981E+04  0.50400001928E-02 0.  1.
       -1   -1    0    0    0  501  0.00000000000E+00  0.00000000000E+00 -0.84964763102E+03  0.84964763104E+03  0.50400001928E-02 0. -1.
    10030    2    1    2    0    0  0.00000000000E+00  0.00000000000E+00  0.53986406706E+03  0.22391593291E+04  0.21731040680E+04 0.  0.
        1    1    3    3  502    0 -0.59659358168E+03  0.90644128057E+03  0.21316076681E+03  0.11058920424E+04  0.50400001928E-02 0.  1.
       -1    1    3    3    0  502  0.59659358168E+03 -0.90644128057E+03  0.32670330025E+03  0.11332672868E+04  0.50400001928E-02 0. -1.
</event>
<event>
 5   0  0.9855352E-06  0.2000414E+04  0.7818609E-02  0.8606427E-01
        1   -1    0    0  501    0  0.00000000000E+00  0.00000000000E+00  0.87140317898E+03  0.87140317900E+03  0.50400001928E-02 0.  1.
       -1   -1    0    0    0  501  0.00000000000E+00  0.00000000000E+00 -0.11480494053E+04  0.11480494054E+04  0.50400001928E-02 0. -1.
    10030    2    1    2    0    0  0.00000000000E+00  0.00000000000E+00 -0.27664622636E+03  0.20194525844E+04  0.20004138587E+04 0.  0.
        2    1    3    3  502    0  0.25850946857E+03 -0.76363665765E+03  0.45929567516E+03  0.92785807508E+03  0.25500000920E-02 0.  1.
       -2    1    3    3    0  502 -0.25850946857E+03  0.76363665765E+03 -0.73594190153E+03  0.10915945093E+04  0.25500000920E-02 0. -1.
</event>
<event>
 5   0  0.1025153E-05  0.2620402E+04  0.7818609E-02  0.8361304E-01
       -1   -1    0    0    0  501  0.00000000000E+00  0.00000000000E+00  0.14049649188E+04  0.14049649188E+04  0.50400001928E-02 0.  1.
        1   -1    0    0  501    0  0.00000000000E+00  0.00000000000E+00 -0.12218284286E+04  0.12218284286E+04  0.50400001928E-02 0. -1.
    10030    2    1    2    0    0  0.00000000000E+00  0.00000000000E+00  0.18313649020E+03  0.26267933474E+04  0.26204015563E+04 0.  0.
        1    1    3    3  502    0  0.11252649874E+04 -0.10491916558E+03  0.75605523470E+03  0.13597238106E+04  0.50400001928E-02 0.  1.
       -1    1    3    3    0  502 -0.11252649874E+04  0.10491916558E+03 -0.57291874449E+03  0.12670695368E+04  0.50400001928E-02 0. -1.
</event>
<event>
 5   0  0.1034714E-05  0.2552573E+04  0.7818609E-02  0.8384492E-01
        1   -1    0    0  501    0  0.00000000000E+00  0.00000000000E+00  0.25146497812E+04  0.25146497812E+04  0.50400001928E-02 0.  1.
       -1   -1    0    0    0  501  0.00000000000E+00  0.00000000000E+00 -0.64776703896E+03  0.64776703898E+03  0.50400001928E-02 0. -1.
    10030    2    1    2    0    0  0.00000000000E+00  0.00000000000E+00  0.18668827423E+04  0.31624168202E+04  0.25525730100E+04 0.  0.
        5    1    3    3  502    0 -0.91641865444E+03  0.88644627194E+03  0.86254120903E+03  0.15393536210E+04  0.46999998093E+01 0. -1.
       -5    1    3    3    0  502  0.91641865444E+03 -0.88644627194E+03  0.10043415332E+04  0.16230631992E+04  0.46999998093E+01 0.  1.
</event>
<event>
 5   0  0.9855352E-06  0.2655615E+04  0.7818609E-02  0.8349552E-01
       -1   -1    0    0    0  501  0.00000000000E+00  0.00000000000E+00  0.12310037478E+04  0.12310037478E+04  0.50400001928E-02 0.  1.
        1   -1    0    0  501    0  0.00000000000E+00  0.00000000000E+00 -0.14322232370E+04  0.14322232370E+04  0.50400001928E-02 0. -1.
    10030    2    1    2    0    0  0.00000000000E+00  0.00000000000E+00 -0.20121948918E+03  0.26632269849E+04  0.26556145598E+04 0.  0.
        2    1    3    3  502    0 -0.75911475201E+03 -0.99293820371E+03  0.34888337272E+03  0.12976521456E+04  0.25500000920E-02 0.  1.
       -2    1    3    3    0  502  0.75911475201E+03  0.99293820371E+03 -0.55010286190E+03  0.13655748393E+04  0.25500000920E-02 0. -1.
</event>
<event>
 5   0  0.2555801E-05  0.2572124E+04  0.7818609E-02  0.8377732E-01
       -2   -1    0    0    0  501  0.00000000000E+00  0.00000000000E+00  0.11941803529E+04  0.11941803529E+04  0.25500000920E-02 0.  1.
        2   -1    0    0  501    0  0.00000000000E+00  0.00000000000E+00 -0.13850131329E+04  0.13850131329E+04  0.25500000920E-02 0. -1.
    10030    2    1    2    0    0  0.00000000000E+00  0.00000000000E+00 -0.19083278002E+03  0.25791934858E+04  0.25721240031E+04 0.  0.
        1    1    3    3  502    0  0.35951687641E+03  0.76747666448E+03 -0.10653819423E+04  0.13613638375E+04  0.50400001928E-02 0. -1.
       -1    1    3    3    0  502 -0.35951687641E+03 -0.76747666448E+03  0.87454916233E+03  0.12178296483E+04  0.50400001928E-02 0.  1.
</event>
<event>
 5   0  0.2484618E-05  0.2606095E+04  0.7818609E-02  0.8366134E-01
       -2   -1    0    0    0  501  0.00000000000E+00  0.00000000000E+00  0.17743780997E+04  0.17743780997E+04  0.25500000920E-02 0. -1.
        2   -1    0    0  501    0  0.00000000000E+00  0.00000000000E+00 -0.95691707540E+03  0.95691707540E+03  0.25500000920E-02 0.  1.
    10030    2    1    2    0    0  0.00000000000E+00  0.00000000000E+00  0.81746102428E+03  0.27312951751E+04  0.26060949344E+04 0.  0.
        3    1    3    3  502    0 -0.12787498122E+04  0.56055242037E+02  0.66456729294E+03  0.14422180728E+04  0.10100000352E+00 0. -1.
       -3    1    3    3    0  502  0.12787498122E+04 -0.56055242037E+02  0.15289373134E+03  0.12890771023E+04  0.10100000352E+00 0.  1.
</event>
<event>
 5   0  0.1025153E-05  0.2600186E+04  0.7818609E-02  0.8368138E-01
        1   -1    0    0  501    0  0.00000000000E+00  0.00000000000E+00  0.10709321647E+04  0.10709321647E+04  0.50400001928E-02 0.  1.
       -1   -1    0    0    0  501  0.00000000000E+00  0.00000000000E+00 -0.15782905638E+04  0.15782905638E+04  0.50400001928E-02 0. -1.
    10030    2    1    2    0    0  0.00000000000E+00  0.00000000000E+00 -0.50735839913E+03  0.26492227286E+04  0.26001862472E+04 0.  0.
        1    1    3    3  502    0  0.78925916396E+03 -0.72616928061E+03 -0.10023777390E+04  0.14679962478E+04  0.50400001928E-02 0. -1.
       -1    1    3    3    0  502 -0.78925916396E+03  0.72616928061E+03  0.49501933982E+03  0.11812264807E+04  0.50400001928E-02 0.  1.
</event>
<event>
 5   0  0.9855352E-06  0.2616450E+04  0.7818609E-02  0.8362635E-01
        1   -1    0    0  501    0  0.00000000000E+00  0.00000000000E+00  0.99779348363E+03  0.99779348364E+03  0.50400001928E-02 0. -1.
       -1   -1    0    0    0  501  0.00000000000E+00  0.00000000000E+00 -0.17152376150E+04  0.17152376151E+04  0.50400001928E-02 0.  1.
    10030    2    1    2    0    0  0.00000000000E+00  0.00000000000E+00 -0.71744413142E+03  0.27130310987E+04  0.26164502022E+04 0.  0.
        2    1    3    3  502    0  0.68203087525E+03 -0.10971496787E+04 -0.14483282859E+03  0.12999538763E+04  0.25500000920E-02 0.  1.
       -2    1    3    3    0  502 -0.68203087525E+03  0.10971496787E+04 -0.57261130283E+03  0.14130772224E+04  0.25500000920E-02 0. -1.
</event>
<event>
 5   0  0.1025153E-05  0.2556009E+04  0.7818609E-02  0.8383299E-01
       -1   -1    0    0    0  501  0.00000000000E+00  0.00000000000E+00  0.14762479052E+04  0.14762479052E+04  0.50400001928E-02 0.  1.
        1   -1    0    0  501    0  0.00000000000E+00  0.00000000000E+00 -0.11063833331E+04  0.11063833331E+04  0.50400001928E-02 0. -1.
    10030    2    1    2    0    0  0.00000000000E+00  0.00000000000E+00  0.36986457213E+03  0.25826312383E+04  0.25560094505E+04 0.  0.
        1    1    3    3  502    0 -0.93683088756E+03 -0.23905248955E+03  0.10293989081E+04  0.14122536304E+04  0.50400001928E-02 0.  1.
       -1    1    3    3    0  502  0.93683088756E+03  0.23905248955E+03 -0.65953433596E+03  0.11703776079E+04  0.50400001928E-02 0. -1.
</event>
<event>
 5   0  0.9855352E-06  0.2631685E+04  0.7818609E-02  0.8357518E-01
       -1   -1    0    0    0  501  0.00000000000E+00  0.00000000000E+00  0.16382118426E+04  0.16382118426E+04  0.50400001928E-02 0. -1.
        1   -1    0    0  501    0  0.00000000000E+00  0.00000000000E+00 -0.10569090212E+04  0.10569090212E+04  0.50400001928E-02 0.  1.
    10030    2    1    2    0    0  0.00000000000E+00  0.00000000000E+00  0.58130282135E+03  0.26951208638E+04  0.26316845367E+04 0.  0.
        2    1    3    3  502    0  0.81860298387E+03  0.10260166550E+04  0.38573254727E+03  0.13680682072E+04  0.25500000920E-02 0. -1.
       -2    1    3    3    0  502 -0.81860298387E+03 -0.10260166550E+04  0.19557027408E+03  0.13270526567E+04  0.25500000920E-02 0.  1.
</event>
<event>
 5   0  0.1000421E-05  0.2629950E+04  0.7818609E-02  0.8358098E-01
       -1   -1    0    0    0  501  0.00000000000E+00  0.00000000000E+00  0.13851722371E+04  0.13851722372E+04  0.50400001928E-02 0.  1.
        1   -1    0    0  501    0  0.00000000000E+00  0.00000000000E+00 -0.12483354674E+04  0.12483354674E+04  0.50400001928E-02 0. -1.
    10030    2    1    2    0    0  0.00000000000E+00  0.00000000000E+00  0.13683676975E+03  0.26335077046E+04  0.26299502901E+04 0.  0.
        3    1    3    3  502    0  0.16627990797E+03  0.90251070164E+03 -0.87465437971E+03  0.12677518955E+04  0.10100000352E+00 0. -1.
       -3    1    3    3    0  502 -0.16627990797E+03 -0.90251070164E+03  0.10114911495E+04  0.13657558091E+04  0.10100000352E+00 0.  1.
</event>
<event>
 5   0  0.2555801E-05  0.2563534E+04  0.7818609E-02  0.8380694E-01
        2   -1    0    0  501    0  0.00000000000E+00  0.00000000000E+00  0.17279376307E+04  0.17279376307E+04  0.25500000920E-02 0. -1.
       -2   -1    0    0    0  501  0.00000000000E+00  0.00000000000E+00 -0.95080229811E+03  0.95080229811E+03  0.25500000920E-02 0.  1.
    10030    2    1    2    0    0  0.00000000000E+00  0.00000000000E+00  0.77713533259E+03  0.26787399288E+04  0.25635343339E+04 0.  0.
        1    1    3    3  502    0 -0.46237291507E+03 -0.81615933260E+02  0.16348432006E+04  0.17009297939E+04  0.50400001928E-02 0. -1.
       -1    1    3    3    0  502  0.46237291507E+03  0.81615933260E+02 -0.85770786800E+03  0.97781013494E+03  0.50400001928E-02 0.  1.
</event>
<event>
 5   0  0.1034714E-05  0.2595496E+04  0.7818609E-02  0.8369733E-01
       -1   -1    0    0    0  501  0.00000000000E+00  0.00000000000E+00  0.10248532203E+04  0.10248532203E+04  0.50400001928E-02 0. -1.
        1   -1    0    0  501    0  0.00000000000E+00  0.00000000000E+00 -0.16433080872E+04  0.16433080872E+04  0.50400001928E-02 0.  1.
    10030    2    1    2    0    0  0.00000000000E+00  0.00000000000E+00 -0.61845486683E+03  0.26681613075E+04  0.25954957793E+04 0.  0.
        5    1    3    3  502    0  0.62391984105E+03  0.61051586849E+03 -0.12963837379E+04  0.15628942638E+04  0.46999998093E+01 0.  1.
       -5    1    3    3    0  502 -0.62391984105E+03 -0.61051586849E+03  0.67792887110E+03  0.11052670437E+04  0.46999998093E+01 0. -1.
</event>
<event>
 5   0  0.2662024E-05  0.2604890E+04  0.7818609E-02  0.8366542E-01
        2   -1    0    0  501    0  0.00000000000E+00  0.00000000000E+00  0.20718984581E+04  0.20718984581E+04  0.25500000920E-02 0.  1.
       -2   -1    0    0    0  501  0.00000000000E+00  0.00000000000E+00 -0.81874804120E+03  0.81874804120E+03  0.25500000920E-02 0. -1.
    10030    2    1    2    0    0  0.00000000000E+00  0.00000000000E+00  0.12531504169E+04  0.28906464993E+04  0.26048898665E+04 0.  0.
        2    1    3    3  502    0  0.50988109424E+02  0.56316841162E+02 -0.81628730349E+03  0.81981481796E+03  0.25500000920E-02 0. -1.
       -2    1    3    3    0  502 -0.50988109424E+02 -0.56316841162E+02  0.20694377204E+04  0.20708316814E+04  0.25500000920E-02 0.  1.
</event>
<event>
 5   0  0.9855352E-06  0.2509197E+04  0.7818609E-02  0.8399716E-01
       -1   -1    0    0    0  501  0.00000000000E+00  0.00000000000E+00  0.10915083182E+04  0.10915083182E+04  0.50400001928E-02 0.  1.
        1   -1    0    0  501    0  0.00000000000E+00  0.00000000000E+00 -0.14420570166E+04  0.14420570166E+04  0.50400001928E-02 0. -1.
    10030    2    1    2    0    0  0.00000000000E+00  0.00000000000E+00 -0.35054869832E+03  0.25335653348E+04  0.25091968667E+04 0.  0.
        2    1    3    3  502    0 -0.10916604802E+04  0.58959926877E+03  0.12725521724E+02  0.12407706640E+04  0.25500000920E-02 0.  1.
       -2    1    3    3    0  502  0.10916604802E+04 -0.58959926877E+03 -0.36327422005E+03  0.12927946708E+04  0.25500000920E-02 0. -1.
</event>
<event>
 5   0  0.2484618E-05  0.2608510E+04  0.7818609E-02  0.8365316E-01
       -2   -1    0    0    0  501  0.00000000000E+00  0.00000000000E+00  0.20748953752E+04  0.20748953752E+04  0.25500000920E-02 0. -1.
        2   -1    0    0  501    0  0.00000000000E+00  0.00000000000E+00 -0.81983972985E+03  0.81983972985E+03  0.25500000920E-02 0.  1.
    10030    2    1    2    0    0  0.00000000000E+00  0.00000000000E+00  0.12550556454E+04  0.28947351051E+04  0.26085104285E+04 0.  0.
        3    1    3    3  502    0 -0.73164791488E+03 -0.67922913406E+03  0.15589194418E+04  0.18511863018E+04  0.10100000352E+00 0.  1.
       -3    1    3    3    0  502  0.73164791488E+03  0.67922913406E+03 -0.30386379637E+03  0.10435488033E+04  0.10100000352E+00 0. -1.
</event>
<event>
 5   0  0.1025153E-05  0.2557103E+04  0.7818609E-02  0.8382920E-01
        1   -1    0    0  501    0  0.00000000000E+00  0.00000000000E+00  0.10832395302E+04  0.10832395302E+04  0.50400001928E-02 0. -1.
       -1   -1    0    0    0  501  0.00000000000E+00  0.00000000000E+00 -0.15090784618E+04  0.15090784618E+04  0.50400001928E-02 0.  1.
    10030    2    1    2    0    0  0.00000000000E+00  0.00000000000E+00 -0.42583893166E+03  0.25923179920E+04  0.25571026135E+04 0.  0.
        1    1    3    3  502    0 -0.12253263310E+04  0.10690570390E+03  0.14094345493E+03  0.12380300903E+04  0.50400001928E-02 0. -1.
       -1    1    3    3    0  502  0.12253263310E+04 -0.10690570390E+03 -0.56678238658E+03  0.13542879017E+04  0.50400001928E-02 0.  1.
</event>
<event>
 5   0  0.2484618E-05  0.2469027E+04  0.7818609E-02  0.8414104E-01
        2   -1    0    0  501    0  0.00000000000E+00  0.00000000000E+00  0.22218224818E+04  0.22218224818E+04  0.25500000920E-02 0.  1.
       -2   -1    0    0    0  501  0.00000000000E+00  0.00000000000E+00 -0.68593402871E+03  0.68593402871E+03  0.25500000920E-02 0. -1.
    10030    2    1    2    0    0  0.00000000000E+00  0.00000000000E+00  0.15358884531E+04  0.29077565105E+04  0.24690270521E+04 0.  0.
        3    1    3    3  502    0  0.22564843081E+03  0.11154827739E+03 -0.65539121168E+03  0.70206686509E+03  0.10100000352E+00 0. -1.
       -3    1    3    3    0  502 -0.22564843081E+03 -0.11154827739E+03  0.21912796648E+04  0.22056896454E+04  0.10100000352E+00 0.  1.
</event>
<event>
 5   0  0.1000421E-05  0.2603360E+04  0.7818609E-02  0.8367061E-01
        1   -1    0    0  501    0  0.00000000000E+00  0.00000000000E+00  0.12321433941E+04  0.12321433941E+04  0.50400001928E-02 0. -1.
       -1   -1    0    0    0  501  0.00000000000E+00  0.00000000000E+00 -0.13751406734E+04  0.13751406734E+04  0.50400001928E-02 0.  1.
    10030    2    1    2    0    0  0.00000000000E+00  0.00000000000E+00 -0.14299727929E+03  0.26072840675E+04  0.26033597497E+04 0.  0.
        3    1    3    3  502    0  0.42554681509E+03  0.84108212427E+02 -0.13006245695E+04  0.13710538152E+04  0.10100000352E+00 0.  1.
       -3    1    3    3    0  502 -0.42554681509E+03 -0.84108212427E+02  0.11576272902E+04  0.12362302522E+04  0.10100000352E+00 0. -1.
</event>
<event>
 5   0  0.1034714E-05  0.2545014E+04  0.7818609E-02  0.8387122E-01
        1   -1    0    0  501    0  0.00000000000E+00  0.00000000000E+00  0.29989570741E+04  0.29989570741E+04  0.50400001928E-02 0.  1.
       -1   -1    0    0    0  501  0.00000000000E+00  0.00000000000E+00 -0.53994592456E+03  0.53994592458E+03  0.50400001928E-02 0. -1.
    10030    2    1    2    0    0  0.00000000000E+00  0.00000000000E+00  0.24590111495E+04  0.35389029987E+04  0.25450144598E+04 0.  0.
        5    1    3    3  502    0 -0.98289990147E+03 -0.77930755456E+03  0.93179032262E+03  0.15625836862E+04  0.46999998093E+01 0. -1.
       -5    1    3    3    0  502  0.98289990147E+03  0.77930755456E+03  0.15272208269E+04  0.19763193125E+04  0.46999998093E+01 0.  1.
</event>
<event>
 5   0  0.1000421E-05  0.2576772E+04  0.7818609E-02  0.8376134E-01
        1   -1    0    0  501    0  0.00000000000E+00  0.00000000000E+00  0.14432193366E+04  0.14432193366E+04  0.50400001928E-02 0. -1.
       -1   -1    0    0    0  501  0.00000000000E+00  0.00000000000E+00 -0.11501632648E+04  0.11501632648E+04  0.50400001928E-02 0.  1.
    10030    2    1    2    0    0  0.00000000000E+00  0.00000000000E+00  0.29305607182E+03  0.25933826014E+04  0.25767715181E+04 0.  0.
        3    1    3    3  502    0 -0.12563734752E+04 -0.26933205674E+03  0.24160280935E+03  0.13074348908E+04  0.10100000352E+00 0. -1.
       -3    1    3    3    0  502  0.12563734752E+04  0.26933205674E+03  0.51453262477E+02  0.12859477106E+04  0.10100000352E+00 0.  1.
</event>
<event>
 5   0  0.2528460E-05  0.2556344E+04  0.7818609E-02  0.8383183E-01
       -2   -1    0    0    0  501  0.00000000000E+00  0.00000000000E+00  0.11543005999E+04  0.11543005999E+04  0.25500000920E-02 0.  1.
        2   -1    0    0  501    0  0.00000000000E+00  0.00000000000E+00 -0.14153361474E+04  0.14153361474E+04  0.25500000920E-02 0. -1.
    10030    2    1    2    0    0  0.00000000000E+00  0.00000000000E+00 -0.26103554754E+03  0.25696367473E+04  0.25563437672E+04 0.  0.
        5    1    3    3  502    0  0.16256487199E+03  0.36419599433E+03  0.10901424107E+04  0.11608180845E+04  0.46999998093E+01 0.  1.
       -5    1    3    3    0  502 -0.16256487199E+03 -0.36419599433E+03 -0.13511779582E+04  0.14088186628E+04  0.46999998093E+01 0. -1.
</event>
<event>
 5   0  0.2555801E-05  0.2598193E+04  0.7818609E-02  0.8368815E-01
        2   -1    0    0  501    0  0.00000000000E+00  0.00000000000E+00  0.14688212830E+04  0.14688212830E+04  0.25500000920E-02 0.  1.
       -2   -1    0    0    0  501  0.00000000000E+00  0.00000000000E+00 -0.11489840880E+04  0.11489840880E+04  0.25500000920E-02 0. -1.
    10030    2    1    2    0    0  0.00000000000E+00  0.00000000000E+00  0.31983719501E+03  0.26178053711E+04  0.25981934357E+04 0.  0.
        1    1    3    3  502    0 -0.39149676649E+03  0.11092740733E+04  0.71534516108E+03  0.13767633738E+04  0.50400001928E-02 0.  1.
       -1    1    3    3    0  502  0.39149676649E+03 -0.11092740733E+04 -0.39550796606E+03  0.12410419973E+04  0.50400001928E-02 0. -1.
</event>
<event>
 5   0  0.2555801E-05  0.2587557E+04  0.7818609E-02  0.8372440E-01
       -2   -1    0    0    0  501  0.00000000000E+00  0.00000000000E+00  0.76740322116E+03  0.76740322116E+03  0.25500000920E-02 0. -1.
        2   -1    0    0  501    0  0.00000000000E+00  0.00000000000E+00 -0.21812036894E+04  0.21812036894E+04  0.25500000920E-02 0.  1.
    10030    2    1    2    0    0  0.00000000000E+00  0.00000000000E+00 -0.14138004682E+04  0.29486069106E+04  0.25875569460E+04 0.  0.
        1    1    3    3  502    0  0.21274612940E+02  0.75197998195E+03 -0.19063563017E+04  0.20494196378E+04  0.50400001928E-02 0.  1.
       -1    1    3    3    0  502 -0.21274612940E+02 -0.75197998195E+03  0.49255583351E+03  0.89918727280E+03  0.50400001928E-02 0. -1.
</event>
<event>
 5   0  0.9855352E-06  0.2602906E+04  0.7818609E-02  0.8367215E-01
       -1   -1    0    0    0  501  0.00000000000E+00  0.00000000000E+00  0.12406295286E+04  0.12406295286E+04  0.50400001928E-02 0.  1.
        1   -1    0    0  501    0  0.00000000000E+00  0.00000000000E+00 -0.13652588694E+04  0.13652588694E+04  0.50400001928E-02 0. -1.
    10030    2    1    2    0    0  0.00000000000E+00  0.00000000000E+00 -0.12462934080E+03  0.26058883980E+04  0.26029064275E+04 0.  0.
        2    1    3    3  502    0  0.65834097735E+03 -0.11073852298E+04 -0.24709474468E+03  0.13117814995E+04  0.25500000920E-02 0.  1.
       -2    1    3    3    0  502 -0.65834097735E+03  0.11073852298E+04  0.12246540388E+03  0.12941068985E+04  0.25500000920E-02 0. -1.
</event>
<event>
 5   0  0.8605000E-06  0.2823090E+04  0.7818609E-02  0.8296136E-01
       -4   -1    0    0    0  501  0.00000000000E+00  0.00000000000E+00  0.15229751132E+04  0.15229756427E+04  0.12699999809E+01 0.  1.
        4   -1    0    0  501    0  0.00000000000E+00  0.00000000000E+00 -0.13082666882E+04  0.13082673046E+04  0.12699999809E+01 0. -1.
    10030    2    1    2    0    0  0.00000000000E+00  0.00000000000E+00  0.21470842499E+03  0.28312429474E+04  0.28230899595E+04 0.  0.
        5    1    3    3  502    0  0.58048159331E+03 -0.12864888479E+04  0.12802207396E+03  0.14171888291E+04  0.46999998093E+01 0. -1.
       -5    1    3    3    0  502 -0.58048159331E+03  0.12864888479E+04  0.86686351034E+02  0.14140541183E+04  0.46999998093E+01 0.  1.
</event>
<event>
 5   0  0.2662024E-05  0.2586499E+04  0.7818609E-02  0.8372802E-01
        2   -1    0    0  501    0  0.00000000000E+00  0.00000000000E+00  0.82134094522E+03  0.82134094522E+03  0.25500000920E-02 0. -1.
       -2   -1    0    0    0  501  0.00000000000E+00  0.00000000000E+00 -0.20362977887E+04  0.20362977887E+04  0.25500000920E-02 0.  1.
    10030    2    1    2    0    0  0.00000000000E+00  0.00000000000E+00 -0.12149568435E+04  0.28576387339E+04  0.25864993721E+04 0.  0.
        2    1    3    3  502    0  0.11927654167E+04  0.49623060599E+03 -0.54155247813E+03  0.14007902199E+04  0.25500000920E-02 0. -1.
       -2    1    3    3    0  502 -0.11927654167E+04 -0.49623060599E+03 -0.67340436534E+03  0.14568485140E+04  0.25500000920E-02 0.  1.
</event>
<event>
 5   0  0.1034714E-05  0.2503862E+04  0.7818609E-02  0.8401611E-01
        1   -1    0    0  501    0  0.00000000000E+00  0.00000000000E+00  0.20528782357E+04  0.20528782357E+04  0.50400001928E-02 0. -1.
       -1   -1    0    0    0  501  0.00000000000E+00  0.00000000000E+00 -0.76347981784E+03  0.76347981785E+03  0.50400001928E-02 0.  1.
    10030    2    1    2    0    0  0.00000000000E+00  0.00000000000E+00  0.12893984179E+04  0.28163580536E+04  0.25038618983E+04 0.  0.
        5    1    3    3  502    0  0.10465989322E+04 -0.41912238079E+03  0.12569450132E+04  0.16884803082E+04  0.46999998093E+01 0. -1.
       -5    1    3    3    0  502 -0.10465989322E+04  0.41912238079E+03  0.32453404673E+02  0.11278777454E+04  0.46999998093E+01 0.  1.
</event>
<event>
 5   0  0.1005492E-05  0.2624222E+04  0.7818609E-02  0.8360020E-01
        1   -1    0    0  501    0  0.00000000000E+00  0.00000000000E+00  0.24076320338E+04  0.24076320339E+04  0.50400001928E-02 0. -1.
       -1   -1    0    0    0  501  0.00000000000E+00  0.00000000000E+00 -0.71507405090E+03  0.71507405092E+03  0.50400001928E-02 0.  1.
    10030    2    1    2    0    0  0.00000000000E+00  0.00000000000E+00  0.16925579829E+04  0.31227060848E+04  0.26242219354E+04 0.  0.
        4    1    3    3  502    0  0.65101060435E+03  0.91739435763E+03  0.42547068931E+02  0.11257171405E+04  0.12699999809E+01 0.  1.
       -4    1    3    3    0  502 -0.65101060435E+03 -0.91739435763E+03  0.16500109140E+04  0.19969889443E+04  0.12699999809E+01 0. -1.
</event>
<event>
 5   0  0.1000421E-05  0.2600652E+04  0.7818609E-02  0.8367980E-01
       -1   -1    0    0    0  501  0.00000000000E+00  0.00000000000E+00  0.11180569802E+04  0.11180569803E+04  0.50400001928E-02 0. -1.
        1   -1    0    0  501    0  0.00000000000E+00  0.00000000000E+00 -0.15123089229E+04  0.15123089229E+04  0.50400001928E-02 0.  1.
    10030    2    1    2    0    0  0.00000000000E+00  0.00000000000E+00 -0.39425194264E+03  0.26303659031E+04  0.26006518779E+04 0.  0.
        3    1    3    3  502    0 -0.94016487390E+01  0.28738259232E+03 -0.14797517835E+04  0.15074291016E+04  0.10100000352E+00 0.  1.
       -3    1    3    3    0  502  0.94016487390E+01 -0.28738259232E+03  0.10854998409E+04  0.11229368015E+04  0.10100000352E+00 0. -1.
</event>
<event>
 5   0  0.1034714E-05  0.2595011E+04  0.7818609E-02  0.8369898E-01
        1   -1    0    0  501    0  0.00000000000E+00  0.00000000000E+00  0.18252174055E+04  0.18252174055E+04  0.50400001928E-02 0. -1.
       -1   -1    0    0    0  501  0.00000000000E+00  0.00000000000E+00 -0.92236714259E+03  0.92236714260E+03  0.50400001928E-02 0.  1.
    10030    2    1    2    0    0  0.00000000000E+00  0.00000000000E+00  0.90285026290E+03  0.27475845481E+04  0.25950110311E+04 0.  0.
        5    1    3    3  502    0  0.12512693441E+04  0.45019445215E+01  0.81482976742E+03  0.14932062413E+04  0.46999998093E+01 0. -1.
       -5    1    3    3    0  502 -0.12512693441E+04 -0.45019445215E+01  0.88020495484E+02  0.12543783068E+04  0.46999998093E+01 0.  1.
</event>
<event>
 5   0  0.2662024E-05  0.2597511E+04  0.7818609E-02  0.8369047E-01
       -2   -1    0    0    0  501  0.00000000000E+00  0.00000000000E+00  0.15177933679E+04  0.15177933679E+04  0.25500000920E-02 0. -1.
        2   -1    0    0  501    0  0.00000000000E+00  0.00000000000E+00 -0.11113273069E+04  0.11113273069E+04  0.25500000920E-02 0.  1.
    10030    2    1    2    0    0  0.00000000000E+00  0.00000000000E+00  0.40646606092E+03  0.26291206748E+04  0.25975105128E+04 0.  0.
        2    1    3    3  502    0  0.38759809164E+03 -0.11962044679E+04  0.53219245774E+03  0.13654179659E+04  0.25500000920E-02 0. -1.
       -2    1    3    3    0  502 -0.38759809164E+03  0.11962044679E+04 -0.12572639681E+03  0.12637027089E+04  0.25500000920E-02 0.  1.
</event>
<event>
 5   0  0.2662024E-05  0.2589089E+04  0.7818609E-02  0.8371917E-01
       -2   -1    0    0    0  501  0.00000000000E+00  0.00000000000E+00  0.10479834951E+04  0.10479834951E+04  0.25500000920E-02 0. -1.
        2   -1    0    0  501    0  0.00000000000E+00  0.00000000000E+00 -0.15991149113E+04  0.15991149113E+04  0.25500000920E-02 0.  1.
    10030    2    1    2    0    0  0.00000000000E+00  0.00000000000E+00 -0.55113141617E+03  0.26470984063E+04  0.25890894413E+04 0.  0.
        2    1    3    3  502    0  0.51542419652E+01 -0.12478202182E+04 -0.62790879330E+03  0.13969077693E+04  0.25500000920E-02 0.  1.
       -2    1    3    3    0  502 -0.51542419652E+01  0.12478202182E+04  0.76777377133E+02  0.12501906370E+04  0.25500000920E-02 0. -1.
</event>
<event>
 5   0  0.1005492E-05  0.2621081E+04  0.7818609E-02  0.8361076E-01
        1   -1    0    0  501    0  0.00000000000E+00  0.00000000000E+00  0.21878471935E+04  0.21878471935E+04  0.50400001928E-02 0. -1.
       -1   -1    0    0    0  501  0.00000000000E+00  0.00000000000E+00 -0.78502579141E+03  0.78502579143E+03  0.50400001928E-02 0.  1.
    10030    2    1    2    0    0  0.00000000000E+00  0.00000000000E+00  0.14028214021E+04  0.29728729849E+04  0.26210810553E+04 0.  0.
        4    1    3    3  502    0  0.57577550497E+02 -0.10364489548E+04  0.16087648184E+04  0.19145932895E+04  0.12699999809E+01 0. -1.
       -4    1    3    3    0  502 -0.57577550497E+02  0.10364489548E+04 -0.20594341632E+03  0.10582796955E+04  0.12699999809E+01 0.  1.
</event>
<event>
 5   0  0.1025153E-05  0.1923779E+04  0.7818609E-02  0.8643110E-01
       -1   -1    0    0    0  501  0.00000000000E+00  0.00000000000E+00  0.10217059906E+04  0.10217059906E+04  0.50400001928E-02 0. -1.
        1   -1    0    0  501    0  0.00000000000E+00  0.00000000000E+00 -0.90557460649E+03  0.90557460650E+03  0.50400001928E-02 0.  1.
    10030    2    1    2    0    0  0.00000000000E+00  0.00000000000E+00  0.11613138407E+03  0.19272805971E+04  0.19237785739E+04 0.  0.
        1    1    3    3  502    0  0.14769595385E+03 -0.87187906065E+03 -0.32109891922E+03  0.94079312664E+03  0.50400001928E-02 0.  1.
       -1    1    3    3    0  502 -0.14769595385E+03  0.87187906065E+03  0.43723030330E+03  0.98648747044E+03  0.50400001928E-02 0. -1.
</event>
<event>
 5   0  0.1025153E-05  0.2571846E+04  0.7818609E-02  0.8377828E-01
        1   -1    0    0  501    0  0.00000000000E+00  0.00000000000E+00  0.13317612856E+04  0.13317612856E+04  0.50400001928E-02 0.  1.
       -1   -1    0    0    0  501  0.00000000000E+00  0.00000000000E+00 -0.12416621823E+04  0.12416621823E+04  0.50400001928E-02 0. -1.
    10030    2    1    2    0    0  0.00000000000E+00  0.00000000000E+00  0.90099103310E+02  0.25734234679E+04  0.25718457373E+04 0.  0.
        1    1    3    3  502    0  0.10600236498E+04 -0.33427768273E+03 -0.60203559065E+03  0.12640563910E+04  0.50400001928E-02 0.  1.
       -1    1    3    3    0  502 -0.10600236498E+04  0.33427768273E+03  0.69213469396E+03  0.13093670768E+04  0.50400001928E-02 0. -1.
</event>
<event>
 5   0  0.1034714E-05  0.2602653E+04  0.7818609E-02  0.8367301E-01
       -1   -1    0    0    0  501  0.00000000000E+00  0.00000000000E+00  0.10434717733E+04  0.10434717734E+04  0.50400001928E-02 0. -1.
        1   -1    0    0  501    0  0.00000000000E+00  0.00000000000E+00 -0.16228998803E+04  0.16228998803E+04  0.50400001928E-02 0.  1.
    10030    2    1    2    0    0  0.00000000000E+00  0.00000000000E+00 -0.57942810700E+03  0.26663716537E+04  0.26026526592E+04 0.  0.
        5    1    3    3  502    0 -0.10606227394E+04  0.12364126573E+02 -0.10620641112E+04  0.15010248943E+04  0.46999998093E+01 0.  1.
       -5    1    3    3    0  502  0.10606227394E+04 -0.12364126573E+02  0.48263600423E+03  0.11653467594E+04  0.46999998093E+01 0. -1.
</event>
<event>
 5   0  0.2555801E-05  0.2337157E+04  0.7818609E-02  0.8463413E-01
        2   -1    0    0  501    0  0.00000000000E+00  0.00000000000E+00  0.10586743366E+04  0.10586743366E+04  0.25500000920E-02 0. -1.
       -2   -1    0    0    0  501  0.00000000000E+00  0.00000000000E+00 -0.12898923237E+04  0.12898923238E+04  0.25500000920E-02 0.  1.
    10030    2    1    2    0    0  0.00000000000E+00  0.00000000000E+00 -0.23121798716E+03  0.23485666603E+04  0.23371571621E+04 0.  0.
        1    1    3    3  502    0 -0.91289126302E+03  0.64293508578E+03  0.23080557228E+03  0.11401785802E+04  0.50400001928E-02 0. -1.
       -1    1    3    3    0  502  0.91289126302E+03 -0.64293508578E+03 -0.46202355944E+03  0.12083880801E+04  0.50400001928E-02 0.  1.
</event>
<event>
 5   0  0.2484618E-05  0.2523715E+04  0.7818609E-02  0.8394585E-01
       -2   -1    0    0    0  501  0.00000000000E+00  0.00000000000E+00  0.57172595145E+03  0.57172595145E+03  0.25500000920E-02 0.  1.
        2   -1    0    0  501    0  0.00000000000E+00  0.00000000000E+00 -0.27850486645E+04  0.27850486645E+04  0.25500000920E-02 0. -1.
    10030    2    1    2    0    0  0.00000000000E+00  0.00000000000E+00 -0.22133227131E+04  0.33567746160E+04  0.25237151959E+04 0.  0.
        3    1    3    3  502    0 -0.12254411605E+04 -0.24904406135E+03 -0.88189695776E+03  0.15301866673E+04  0.10100000352E+00 0.  1.
       -3    1    3    3    0  502  0.12254411605E+04  0.24904406135E+03 -0.13314257553E+04  0.18265879487E+04  0.10100000352E+00 0. -1.
</event>
<event>
 5   0  0.2555801E-05  0.2605292E+04  0.7818609E-02  0.8366406E-01
        2   -1    0    0  501    0  0.00000000000E+00  0.00000000000E+00  0.11583633499E+04  0.11583633499E+04  0.25500000920E-02 0.  1.
       -2   -1    0    0    0  501  0.00000000000E+00  0.00000000000E+00 -0.14649000601E+04  0.14649000601E+04  0.25500000920E-02 0. -1.
    10030    2    1    2    0    0  0.00000000000E+00  0.00000000000E+00 -0.30653671023E+03  0.26232634100E+04  0.26052919537E+04 0.  0.
        1    1    3    3  502    0  0.84081941420E+03  0.98373017751E+03 -0.30323936154E+03  0.13291562962E+04  0.50400001928E-02 0. -1.
       -1    1    3    3    0  502 -0.84081941420E+03 -0.98373017751E+03 -0.32973486894E+01  0.12941071138E+04  0.50400001928E-02 0.  1.
</event>
<event>
 5   0  0.2484618E-05  0.2609551E+04  0.7818609E-02  0.8364964E-01
        2   -1    0    0  501    0  0.00000000000E+00  0.00000000000E+00  0.17659738927E+04  0.17659738927E+04  0.25500000920E-02 0. -1.
       -2   -1    0    0    0  501  0.00000000000E+00  0.00000000000E+00 -0.96402303521E+03  0.96402303521E+03  0.25500000920E-02 0.  1.
    10030    2    1    2    0    0  0.00000000000E+00  0.00000000000E+00  0.80195085753E+03  0.27299969280E+04  0.26095513118E+04 0.  0.
        3    1    3    3  502    0 -0.20201806692E+03 -0.32910389132E+03  0.17048223961E+04  0.17480103212E+04  0.10100000352E+00 0. -1.
       -3    1    3    3    0  502  0.20201806692E+03  0.32910389132E+03 -0.90287153852E+03  0.98198660678E+03  0.10100000352E+00 0.  1.
</event>
<event>
 5   0  0.2528460E-05  0.2609453E+04  0.7818609E-02  0.8364997E-01
       -2   -1    0    0    0  501  0.00000000000E+00  0.00000000000E+00  0.10177050552E+04  0.10177050552E+04  0.25500000920E-02 0.  1.
        2   -1    0    0  501    0  0.00000000000E+00  0.00000000000E+00 -0.16726965206E+04  0.16726965206E+04  0.25500000920E-02 0. -1.
    10030    2    1    2    0    0  0.00000000000E+00  0.00000000000E+00 -0.65499146533E+03  0.26904015758E+04  0.26094533564E+04 0.  0.
        5    1    3    3  502    0  0.36227038650E+03  0.10768844100E+04 -0.98877323327E+03  0.15061920403E+04  0.46999998093E+01 0. -1.
       -5    1    3    3    0  502 -0.36227038650E+03 -0.10768844100E+04  0.33378176794E+03  0.11842095355E+04  0.46999998093E+01 0.  1.
</event>
<event>
 5   0  0.8605000E-06  0.2617252E+04  0.7818609E-02  0.8362365E-01
        4   -1    0    0  501    0  0.00000000000E+00  0.00000000000E+00  0.12959950968E+04  0.12959957190E+04  0.12699999809E+01 0.  1.
       -4   -1    0    0    0  501  0.00000000000E+00  0.00000000000E+00 -0.13213788698E+04  0.13213794801E+04  0.12699999809E+01 0. -1.
    10030    2    1    2    0    0  0.00000000000E+00  0.00000000000E+00 -0.25383773010E+02  0.26173751991E+04  0.26172521080E+04 0.  0.
        5    1    3    3  502    0 -0.56289509096E+03 -0.77569110824E+03 -0.90376268084E+03  0.13173293636E+04  0.46999998093E+01 0. -1.
       -5    1    3    3    0  502  0.56289509096E+03  0.77569110824E+03  0.87837890783E+03  0.13000458356E+04  0.46999998093E+01 0.  1.
</event>
<event>
 5   0  0.1000421E-05  0.2522533E+04  0.7818609E-02  0.8395002E-01
        1   -1    0    0  501    0  0.00000000000E+00  0.00000000000E+00  0.77016359734E+03  0.77016359735E+03  0.50400001928E-02 0. -1.
       -1   -1    0    0    0  501  0.00000000000E+00  0.00000000000E+00 -0.20655271390E+04  0.20655271390E+04  0.50400001928E-02 0.  1.
    10030    2    1    2    0    0  0.00000000000E+00  0.00000000000E+00 -0.12953635416E+04  0.28356907363E+04  0.25225334977E+04 0.  0.
        3    1    3    3  502    0 -0.65315593394E+03  0.71115467762E+03  0.26449724138E+03  0.10011555576E+04  0.10100000352E+00 0. -1.
       -3    1    3    3    0  502  0.65315593394E+03 -0.71115467762E+03 -0.15598607830E+04  0.18345351788E+04  0.10100000352E+00 0.  1.
</event>
<event>
 5   0  0.2555801E-05  0.2616184E+04  0.7818609E-02  0.8362725E-01
        2   -1    0    0  501    0  0.00000000000E+00  0.00000000000E+00  0.12654569810E+04  0.12654569810E+04  0.25500000920E-02 0.  1.
       -2   -1    0    0    0  501  0.00000000000E+00  0.00000000000E+00 -0.13521629616E+04  0.13521629616E+04  0.25500000920E-02 0. -1.
    10030    2    1    2    0    0  0.00000000000E+00  0.00000000000E+00 -0.86705980606E+02  0.26176199425E+04  0.26161835250E+04 0.  0.
        1    1    3    3  502    0 -0.11354627810E+04 -0.55466666359E+03  0.29472781746E+03  0.12976113906E+04  0.50400001928E-02 0. -1.
       -1    1    3    3    0  502  0.11354627810E+04  0.55466666359E+03 -0.38143379807E+03  0.13200085519E+04  0.50400001928E-02 0.  1.
</event>
<event>
 5   0  0.1000421E-05  0.2607879E+04  0.7818609E-02  0.8365530E-01
       -1   -1    0    0    0  501  0.00000000000E+00  0.00000000000E+00  0.12997689492E+04  0.12997689492E+04  0.50400001928E-02 0. -1.
        1   -1    0    0  501    0  0.00000000000E+00  0.00000000000E+00 -0.13081230814E+04  0.13081230814E+04  0.50400001928E-02 0.  1.
    10030    2    1    2    0    0  0.00000000000E+00  0.00000000000E+00 -0.83541321974E+01  0.26078920307E+04  0.26078786498E+04 0.  0.
        3    1    3    3  502    0 -0.29469771236E+03  0.14210341726E+03 -0.12664107922E+04  0.13079894601E+04  0.10100000352E+00 0.  1.
       -3    1    3    3    0  502  0.29469771236E+03 -0.14210341726E+03  0.12580566600E+04  0.12999025706E+04  0.10100000352E+00 0. -1.
</event>
<event>
 5   0  0.9855352E-06  0.2559981E+04  0.7818609E-02  0.8381923E-01
        1   -1    0    0  501    0  0.00000000000E+00  0.00000000000E+00  0.23179165795E+04  0.23179165795E+04  0.50400001928E-02 0.  1.
       -1   -1    0    0    0  501  0.00000000000E+00  0.00000000000E+00 -0.70683113931E+03  0.70683113933E+03  0.50400001928E-02 0. -1.
    10030    2    1    2    0    0  0.00000000000E+00  0.00000000000E+00  0.16110854402E+04  0.30247477188E+04  0.25599809505E+04 0.  0.
        2    1    3    3  502    0  0.83673611452E+03 -0.68182215773E+03 -0.73838875913E+01  0.10793809809E+04  0.25500000920E-02 0. -1.
       -2    1    3    3    0  502 -0.83673611452E+03  0.68182215773E+03  0.16184693278E+04  0.19453667379E+04  0.25500000920E-02 0.  1.
</event>
<event>
 5   0  0.1005492E-05  0.2640460E+04  0.7818609E-02  0.8354586E-01
        1   -1    0    0  501    0  0.00000000000E+00  0.00000000000E+00  0.15855845353E+04  0.15855845353E+04  0.50400001928E-02 0.  1.
       -1   -1    0    0    0  501  0.00000000000E+00  0.00000000000E+00 -0.10992833238E+04  0.10992833238E+04  0.50400001928E-02 0. -1.
    10030    2    1    2    0    0  0.00000000000E+00  0.00000000000E+00  0.48630121151E+03  0.26848678592E+04  0.26404595344E+04 0.  0.
        4    1    3    3  502    0 -0.26481421854E+03 -0.49369029689E+03 -0.97242522150E+03  0.11222607112E+04  0.12699999809E+01 0. -1.
       -4    1    3    3    0  502  0.26481421854E+03  0.49369029689E+03  0.14587264330E+04  0.15626071480E+04  0.12699999809E+01 0.  1.
</event>
<event>
 5   0  0.2517854E-05  0.2607580E+04  0.7818609E-02  0.8365631E-01
       -2   -1    0    0    0  501  0.00000000000E+00  0.00000000000E+00  0.18532312286E+04  0.18532312286E+04  0.25500000920E-02 0.  1.
        2   -1    0    0  501    0  0.00000000000E+00  0.00000000000E+00 -0.91724550993E+03  0.91724550993E+03  0.25500000920E-02 0. -1.
    10030    2    1    2    0    0  0.00000000000E+00  0.00000000000E+00  0.93598571864E+03  0.27704767385E+04  0.26075797386E+04 0.  0.
        4    1    3    3  502    0  0.28739955815E+03  0.56055649288E+03 -0.74482757174E+03  0.97549567516E+03  0.12699999809E+01 0. -1.
       -4    1    3    3    0  502 -0.28739955815E+03 -0.56055649288E+03  0.16808132904E+04  0.17949810633E+04  0.12699999809E+01 0.  1.
</event>
<event>
 5   0  0.1034714E-05  0.2601711E+04  0.7818609E-02  0.8367620E-01
       -1   -1    0    0    0  501  0.00000000000E+00  0.00000000000E+00  0.16587370875E+04  0.16587370875E+04  0.50400001928E-02 0. -1.
        1   -1    0    0  501    0  0.00000000000E+00  0.00000000000E+00 -0.10201888164E+04  0.10201888164E+04  0.50400001928E-02 0.  1.
    10030    2    1    2    0    0  0.00000000000E+00  0.00000000000E+00  0.63854827106E+03  0.26789259039E+04  0.26017109955E+04 0.  0.
        5    1    3    3  502    0  0.50902968318E+03 -0.70945694544E+02  0.15497543570E+04  0.16327599845E+04  0.46999998093E+01 0. -1.
       -5    1    3    3    0  502 -0.50902968318E+03  0.70945694544E+02 -0.91120608594E+03  0.10461659194E+04  0.46999998093E+01 0.  1.
</event>
<event>
 5   0  0.1034714E-05  0.2492665E+04  0.7818609E-02  0.8405603E-01
       -1   -1    0    0    0  501  0.00000000000E+00  0.00000000000E+00  0.18429212805E+04  0.18429212805E+04  0.50400001928E-02 0.  1.
        1   -1    0    0  501    0  0.00000000000E+00  0.00000000000E+00 -0.84287075197E+03  0.84287075198E+03  0.50400001928E-02 0. -1.
    10030    2    1    2    0    0  0.00000000000E+00  0.00000000000E+00  0.10000505285E+04  0.26857920325E+04  0.24926647954E+04 0.  0.
        5    1    3    3  502    0 -0.16044624521E+03  0.92132975027E+02 -0.82798177864E+03  0.84841463828E+03  0.46999998093E+01 0. -1.
       -5    1    3    3    0  502  0.16044624521E+03 -0.92132975027E+02  0.18280323071E+04  0.18373773942E+04  0.46999998093E+01 0.  1.
</event>
<event>
 5   0  0.1034714E-05  0.2616203E+04  0.7818609E-02  0.8362718E-01
        1   -1    0    0  501    0  0.00000000000E+00  0.00000000000E+00  0.20841870257E+04  0.20841870257E+04  0.50400001928E-02 0. -1.
       -1   -1    0    0    0  501  0.00000000000E+00  0.00000000000E+00 -0.82100591681E+03  0.82100591682E+03  0.50400001928E-02 0.  1.
    10030    2    1    2    0    0  0.00000000000E+00  0.00000000000E+00  0.12631811089E+04  0.29051929425E+04  0.26162032642E+04 0.  0.
        5    1    3    3  502    0 -0.69255725832E+03  0.23041288126E+03 -0.57385214949E+03  0.92846864857E+03  0.46999998093E+01 0.  1.
       -5    1    3    3    0  502  0.69255725832E+03 -0.23041288126E+03  0.18370332584E+04  0.19767242939E+04  0.46999998093E+01 0. -1.
</event>
<event>
 5   0  0.2528460E-05  0.2541930E+04  0.7818609E-02  0.8388198E-01
        2   -1    0    0  501    0  0.00000000000E+00  0.00000000000E+00  0.10882950214E+04  0.10882950214E+04  0.25500000920E-02 0.  1.
       -2   -1    0    0    0  501  0.00000000000E+00  0.00000000000E+00 -0.14842963612E+04  0.14842963612E+04  0.25500000920E-02 0. -1.
    10030    2    1    2    0    0  0.00000000000E+00  0.00000000000E+00 -0.39600133979E+03  0.25725913826E+04  0.25419302430E+04 0.  0.
        5    1    3    3  502    0 -0.42842439278E+03  0.24483678750E+03  0.98738194926E+03  0.11038286627E+04  0.46999998093E+01 0.  1.
       -5    1    3    3    0  502  0.42842439278E+03 -0.24483678750E+03 -0.13833832891E+04  0.14687627199E+04  0.46999998093E+01 0. -1.
</event>
<event>
 5   0  0.2555801E-05  0.2609572E+04  0.7818609E-02  0.8364957E-01
        2   -1    0    0  501    0  0.00000000000E+00  0.00000000000E+00  0.18992025000E+04  0.18992025000E+04  0.25500000920E-02 0.  1.
       -2   -1    0    0    0  501  0.00000000000E+00  0.00000000000E+00 -0.89641118332E+03  0.89641118332E+03  0.25500000920E-02 0. -1.
    10030    2    1    2    0    0  0.00000000000E+00  0.00000000000E+00  0.10027913167E+04  0.27956136833E+04  0.26095718886E+04 0.  0.
        1    1    3    3  502    0 -0.11821747951E+04  0.42203548454E+03  0.88289473039E+03  0.15346511986E+04  0.50400001928E-02 0.  1.
       -1    1    3    3    0  502  0.11821747951E+04 -0.42203548454E+03  0.11989658630E+03  0.12609624847E+04  0.50400001928E-02 0. -1.
</event>
<event>
 5   0  0.9855352E-06  0.2548647E+04  0.7818609E-02  0.8385857E-01
       -1   -1    0    0    0  501  0.00000000000E+00  0.00000000000E+00  0.90690834174E+03  0.90690834176E+03  0.50400001928E-02 0. -1.
        1   -1    0    0  501    0  0.00000000000E+00  0.00000000000E+00 -0.17905888081E+04  0.17905888081E+04  0.50400001928E-02 0.  1.
    10030    2    1    2    0    0  0.00000000000E+00  0.00000000000E+00 -0.88368046631E+03  0.26974971498E+04  0.25486466422E+04 0.  0.
        2    1    3    3  502    0  0.74977159750E+02 -0.12691427502E+04 -0.53383635367E+03  0.13788858355E+04  0.25500000920E-02 0. -1.
       -2    1    3    3    0  502 -0.74977159750E+02  0.12691427502E+04 -0.34984411264E+03  0.13186113143E+04  0.25500000920E-02 0.  1.
</event>
<event>
 5   0  0.8605000E-06  0.2590600E+04  0.7818609E-02  0.8371401E-01
       -4   -1    0    0    0  501  0.00000000000E+00  0.00000000000E+00  0.22708964555E+04  0.22708968106E+04  0.12699999809E+01 0. -1.
        4   -1    0    0  501    0  0.00000000000E+00  0.00000000000E+00 -0.73882723928E+03  0.73882833080E+03  0.12699999809E+01 0.  1.
    10030    2    1    2    0    0  0.00000000000E+00  0.00000000000E+00  0.15320692162E+04  0.30097251414E+04  0.25906001898E+04 0.  0.
        1    1    3    3  502    0  0.47102727539E+03 -0.67771967445E+03 -0.39379392345E+03  0.91446394433E+03  0.50400001928E-02 0.  1.
       -1    1    3    3    0  502 -0.47102727539E+03  0.67771967445E+03  0.19258631397E+04  0.20952611971E+04  0.50400001928E-02 0. -1.
</event>
<event>
 5   0  0.2555801E-05  0.2583560E+04  0.7818609E-02  0.8373807E-01
       -2   -1    0    0    0  501  0.00000000000E+00  0.00000000000E+00  0.10031488121E+04  0.10031488121E+04  0.25500000920E-02 0.  1.
        2   -1    0    0  501    0  0.00000000000E+00  0.00000000000E+00 -0.16634582826E+04  0.16634582826E+04  0.25500000920E-02 0. -1.
    10030    2    1    2    0    0  0.00000000000E+00  0.00000000000E+00 -0.66030947048E+03  0.26666070947E+04  0.25835604890E+04 0.  0.
        1    1    3    3  502    0  0.97063628462E+02 -0.24794273175E+03 -0.16348272193E+04  0.16563686134E+04  0.50400001928E-02 0. -1.
       -1    1    3    3    0  502 -0.97063628462E+02  0.24794273175E+03  0.97451774886E+03  0.10102384813E+04  0.50400001928E-02 0.  1.
</event>
<event>
 5   0  0.8605000E-06  0.2584157E+04  0.7818609E-02  0.8373603E-01
        3   -1    0    0  501    0  0.00000000000E+00  0.00000000000E+00  0.25533963298E+04  0.25533963317E+04  0.10100000352E+00 0.  1.
       -3   -1    0    0    0  501  0.00000000000E+00  0.00000000000E+00 -0.65382184440E+03  0.65382185220E+03  0.10100000352E+00 0. -1.
    10030    2    1    2    0    0  0.00000000000E+00  0.00000000000E+00  0.18995744854E+04  0.32072181839E+04  0.25841565847E+04 0.  0.
        5    1    3    3  502    0  0.85879805206E+03 -0.36636512456E+03  0.20582621389E+04  0.22601377438E+04  0.46999998093E+01 0.  1.
       -5    1    3    3    0  502 -0.85879805206E+03  0.36636512456E+03 -0.15868765351E+03  0.94708044014E+03  0.46999998093E+01 0. -1.
</event>
<event>
 5   0  0.2555801E-05  0.2630172E+04  0.7818609E-02  0.8358024E-01
        2   -1    0    0  501    0  0.00000000000E+00  0.00000000000E+00  0.14693591521E+04  0.14693591521E+04  0.25500000920E-02 0. -1.
       -2   -1    0    0    0  501  0.00000000000E+00  0.00000000000E+00 -0.11770102374E+04  0.11770102374E+04  0.25500000920E-02 0.  1.
    10030    2    1    2    0    0  0.00000000000E+00  0.00000000000E+00  0.29234891478E+03  0.26463693895E+04  0.26301716784E+04 0.  0.
        1    1    3    3  502    0  0.65759963713E+03 -0.26730392114E+02 -0.99938848175E+03  0.11966324139E+04  0.50400001928E-02 0.  1.
       -1    1    3    3    0  502 -0.65759963713E+03  0.26730392114E+02  0.12917373965E+04  0.14497369755E+04  0.50400001928E-02 0. -1.
</event>
<event>
 5   0  0.2484618E-05  0.2608048E+04  0.7818609E-02  0.8365473E-01
        2   -1    0    0  501    0  0.00000000000E+00  0.00000000000E+00  0.79564055384E+03  0.79564055385E+03  0.25500000920E-02 0.  1.
       -2   -1    0    0    0  501  0.00000000000E+00  0.00000000000E+00 -0.21372443491E+04  0.21372443491E+04  0.25500000920E-02 0. -1.
    10030    2    1    2    0    0  0.00000000000E+00  0.00000000000E+00 -0.13416037952E+04  0.29328849029E+04  0.26080477585E+04 0.  0.
        3    1    3    3  502    0 -0.40574525658E+03 -0.12302024359E+04 -0.50230281990E+03  0.13893650994E+04  0.10100000352E+00 0.  1.
       -3    1    3    3    0  502  0.40574525658E+03  0.12302024359E+04 -0.83930097533E+03  0.15435198035E+04  0.10100000352E+00 0. -1.
</event>
<event>
 5   0  0.1005492E-05  0.2603266E+04  0.7818609E-02  0.8367093E-01
        1   -1    0    0  501    0  0.00000000000E+00  0.00000000000E+00  0.19587330974E+04  0.19587330974E+04  0.50400001928E-02 0.  1.
       -1   -1    0    0    0  501  0.00000000000E+00  0.00000000000E+00 -0.86497154007E+03  0.86497154009E+03  0.50400001928E-02 0. -1.
    10030    2    1    2    0    0  0.00000000000E+00  0.00000000000E+00  0.10937615574E+04  0.28237046375E+04  0.26032659364E+04 0.  0.
        4    1    3    3  502    0 -0.59941676494E+03  0.99286590430E+03  0.11878175943E+04  0.16601190958E+04  0.12699999809E+01 0.  1.
       -4    1    3    3    0  502  0.59941676494E+03 -0.99286590430E+03 -0.94056036895E+02  0.11635855418E+04  0.12699999809E+01 0. -1.
</event>
<event>
 5   0  0.1005492E-05  0.3011370E+04  0.7818609E-02  0.8240492E-01
        1   -1    0    0  501    0  0.00000000000E+00  0.00000000000E+00  0.22937570729E+04  0.22937570729E+04  0.50400001928E-02 0.  1.
       -1   -1    0    0    0  501  0.00000000000E+00  0.00000000000E+00 -0.98837273773E+03  0.98837273775E+03  0.50400001928E-02 0. -1.
    10030    2    1    2    0    0  0.00000000000E+00  0.00000000000E+00  0.13053843351E+04  0.32821298106E+04  0.30113697600E+04 0.  0.
        4    1    3    3  502    0 -0.12526390271E+04  0.36619997259E+03  0.14711275481E+04  0.19665769316E+04  0.12699999809E+01 0.  1.
       -4    1    3    3    0  502  0.12526390271E+04 -0.36619997259E+03 -0.16574321295E+03  0.13155528791E+04  0.12699999809E+01 0. -1.
</event>
<event>
 5   0  0.1025153E-05  0.2764827E+04  0.7818609E-02  0.8314272E-01
       -1   -1    0    0    0  501  0.00000000000E+00  0.00000000000E+00  0.17338609879E+04  0.17338609879E+04  0.50400001928E-02 0. -1.
        1   -1    0    0  501    0  0.00000000000E+00  0.00000000000E+00 -0.11022028314E+04  0.11022028314E+04  0.50400001928E-02 0.  1.
    10030    2    1    2    0    0  0.00000000000E+00  0.00000000000E+00  0.63165815649E+03  0.28360638193E+04  0.27648265697E+04 0.  0.
        1    1    3    3  502    0 -0.13367499338E+04 -0.34726553732E+03  0.25451651323E+03  0.14043761585E+04  0.50400001928E-02 0.  1.
       -1    1    3    3    0  502  0.13367499338E+04  0.34726553732E+03  0.37714164326E+03  0.14316876608E+04  0.50400001928E-02 0. -1.
</event>
<event>
 5   0  0.2528460E-05  0.2659313E+04  0.7818609E-02  0.8348329E-01
        2   -1    0    0  501    0  0.00000000000E+00  0.00000000000E+00  0.12179424565E+04  0.12179424565E+04  0.25500000920E-02 0. -1.
       -2   -1    0    0    0  501  0.00000000000E+00  0.00000000000E+00 -0.14516168423E+04  0.14516168423E+04  0.25500000920E-02 0.  1.
    10030    2    1    2    0    0  0.00000000000E+00  0.00000000000E+00 -0.23367438578E+03  0.26695592988E+04  0.26593125298E+04 0.  0.
        5    1    3    3  502    0 -0.10770378604E+04 -0.55229141267E+03 -0.66934627963E+03  0.13831423966E+04  0.46999998093E+01 0.  1.
       -5    1    3    3    0  502  0.10770378604E+04  0.55229141267E+03  0.43567189385E+03  0.12864169022E+04  0.46999998093E+01 0. -1.
</event>
<event>
 5   0  0.1025153E-05  0.2598168E+04  0.7818609E-02  0.8368824E-01
        1   -1    0    0  501    0  0.00000000000E+00  0.00000000000E+00  0.12242872161E+04  0.12242872161E+04  0.50400001928E-02 0. -1.
       -1   -1    0    0    0  501  0.00000000000E+00  0.00000000000E+00 -0.13784505886E+04  0.13784505886E+04  0.50400001928E-02 0.  1.
    10030    2    1    2    0    0  0.00000000000E+00  0.00000000000E+00 -0.15416337252E+03  0.26027378048E+04  0.25981681499E+04 0.  0.
        1    1    3    3  502    0  0.63351632751E+03 -0.10849334975E+04  0.25394738687E+03  0.12817616418E+04  0.50400001928E-02 0. -1.
       -1    1    3    3    0  502 -0.63351632751E+03  0.10849334975E+04 -0.40811075939E+03  0.13209761629E+04  0.50400001928E-02 0.  1.
</event>
<event>
 5   0  0.2528460E-05  0.2628283E+04  0.7818609E-02  0.8358657E-01
        2   -1    0    0  501    0  0.00000000000E+00  0.00000000000E+00  0.10250501900E+04  0.10250501901E+04  0.25500000920E-02 0. -1.
       -2   -1    0    0    0  501  0.00000000000E+00  0.00000000000E+00 -0.16847645701E+04  0.16847645701E+04  0.25500000920E-02 0.  1.
    10030    2    1    2    0    0  0.00000000000E+00  0.00000000000E+00 -0.65971438003E+03  0.27098147601E+04  0.26282832745E+04 0.  0.
        5    1    3    3  502    0  0.11975343555E+04  0.17746999535E+03  0.19723753807E+03  0.12265842279E+04  0.46999998093E+01 0. -1.
       -5    1    3    3    0  502 -0.11975343555E+04 -0.17746999535E+03 -0.85695191810E+03  0.14832305322E+04  0.46999998093E+01 0.  1.
</event>
<event>
 5   0  0.2555801E-05  0.2665942E+04  0.7818609E-02  0.8346141E-01
        2   -1    0    0  501    0  0.00000000000E+00  0.00000000000E+00  0.21832526583E+04  0.21832526583E+04  0.25500000920E-02 0.  1.
       -2   -1    0    0    0  501  0.00000000000E+00  0.00000000000E+00 -0.81383716848E+03  0.81383716848E+03  0.25500000920E-02 0. -1.
    10030    2    1    2    0    0  0.00000000000E+00  0.00000000000E+00  0.13694154898E+04  0.29970898268E+04  0.26659423561E+04 0.  0.
        1    1    3    3  502    0 -0.23229401932E+03  0.50949414108E+03  0.20446198792E+04  0.21199092532E+04  0.50400001928E-02 0.  1.
       -1    1    3    3    0  502  0.23229401932E+03 -0.50949414108E+03 -0.67520438940E+03  0.87718057360E+03  0.50400001928E-02 0. -1.
</event>
<event>
 5   0  0.2517854E-05  0.2603216E+04  0.7818609E-02  0.8367110E-01
        2   -1    0    0  501    0  0.00000000000E+00  0.00000000000E+00  0.93554323659E+03  0.93554323660E+03  0.25500000920E-02 0. -1.
       -2   -1    0    0    0  501  0.00000000000E+00  0.00000000000E+00 -0.18109082185E+04  0.18109082185E+04  0.25500000920E-02 0.  1.
    10030    2    1    2    0    0  0.00000000000E+00  0.00000000000E+00 -0.87536498192E+03  0.27464514551E+04  0.26032156545E+04 0.  0.
        4    1    3    3  502    0  0.45850104009E+03 -0.12022660116E+04 -0.64473201258E+03  0.14392177553E+04  0.12699999809E+01 0.  1.
       -4    1    3    3    0  502 -0.45850104009E+03  0.12022660116E+04 -0.23063296934E+03  0.13072336998E+04  0.12699999809E+01 0. -1.
</event>
<event>
 5   0  0.2528460E-05  0.2596749E+04  0.7818609E-02  0.8369306E-01
       -2   -1    0    0    0  501  0.00000000000E+00  0.00000000000E+00  0.93905840873E+03  0.93905840873E+03  0.25500000920E-02 0.  1.
        2   -1    0    0  501    0  0.00000000000E+00  0.00000000000E+00 -0.17951769181E+04  0.17951769181E+04  0.25500000920E-02 0. -1.
    10030    2    1    2    0    0  0.00000000000E+00  0.00000000000E+00 -0.85611850932E+03  0.27342353268E+04  0.25967487210E+04 0.  0.
        5    1    3    3  502    0  0.90326905397E+03  0.30746088385E+02 -0.14095681890E+04  0.16744386747E+04  0.46999998093E+01 0. -1.
       -5    1    3    3    0  502 -0.90326905397E+03 -0.30746088385E+02  0.55344967970E+03  0.10597966521E+04  0.46999998093E+01 0.  1.
</event>
<event>
 5   0  0.1005492E-05  0.2703834E+04  0.7818609E-02  0.8333762E-01
       -1   -1    0    0    0  501  0.00000000000E+00  0.00000000000E+00  0.22174764675E+04  0.22174764675E+04  0.50400001928E-02 0.  1.
        1   -1    0    0  501    0  0.00000000000E+00  0.00000000000E+00 -0.82421620714E+03  0.82421620715E+03  0.50400001928E-02 0. -1.
    10030    2    1    2    0    0  0.00000000000E+00  0.00000000000E+00  0.13932602603E+04  0.30416926746E+04  0.27038343466E+04 0.  0.
        4    1    3    3  502    0  0.25014436513E+03  0.48867448782E+03  0.20864409788E+04  0.21574551048E+04  0.12699999809E+01 0.  1.
       -4    1    3    3    0  502 -0.25014436513E+03 -0.48867448782E+03 -0.69318071848E+03  0.88423756979E+03  0.12699999809E+01 0. -1.
</event>
<event>
 5   0  0.2555801E-05  0.2613586E+04  0.7818609E-02  0.8363601E-01
        2   -1    0    0  501    0  0.00000000000E+00  0.00000000000E+00  0.13898412280E+04  0.13898412280E+04  0.25500000920E-02 0. -1.
       -2   -1    0    0    0  501  0.00000000000E+00  0.00000000000E+00 -0.12287068310E+04  0.12287068310E+04  0.25500000920E-02 0.  1.
    10030    2    1    2    0    0  0.00000000000E+00  0.00000000000E+00  0.16113439691E+03  0.26185480590E+04  0.26135855914E+04 0.  0.
        1    1    3    3  502    0  0.10501744819E+04  0.29826391932E+03 -0.63904414433E+03  0.12649921843E+04  0.50400001928E-02 0.  1.
       -1    1    3    3    0  502 -0.10501744819E+04 -0.29826391932E+03  0.80017854124E+03  0.13535558747E+04  0.50400001928E-02 0. -1.
</event>
<event>
 5   0  0.1005492E-05  0.2561944E+04  0.7818609E-02  0.8381244E-01
        1   -1    0    0  501    0  0.00000000000E+00  0.00000000000E+00  0.13785206718E+04  0.13785206718E+04  0.50400001928E-02 0.  1.
       -1   -1    0    0    0  501  0.00000000000E+00  0.00000000000E+00 -0.11903260520E+04  0.11903260520E+04  0.50400001928E-02 0. -1.
    10030    2    1    2    0    0  0.00000000000E+00  0.00000000000E+00  0.18819461982E+03  0.25688467239E+04  0.25619438471E+04 0.  0.
        4    1    3    3  502    0  0.10238403786E+04 -0.24129895893E+03  0.82710267317E+03  0.13381235942E+04  0.12699999809E+01 0.  1.
       -4    1    3    3    0  502 -0.10238403786E+04  0.24129895893E+03 -0.63890805335E+03  0.12307231297E+04  0.12699999809E+01 0. -1.
</event>
<event>
 5   0  0.9855352E-06  0.2633673E+04  0.7818609E-02  0.8356853E-01
       -1   -1    0    0    0  501  0.00000000000E+00  0.00000000000E+00  0.95412086210E+03  0.95412086211E+03  0.50400001928E-02 0.  1.
        1   -1    0    0  501    0  0.00000000000E+00  0.00000000000E+00 -0.18174405411E+04  0.18174405411E+04  0.50400001928E-02 0. -1.
    10030    2    1    2    0    0  0.00000000000E+00  0.00000000000E+00 -0.86331967900E+03  0.27715614032E+04  0.26336726721E+04 0.  0.
        2    1    3    3  502    0 -0.87619692349E+03 -0.67453713856E+03 -0.11841765005E+04  0.16201837502E+04  0.25500000920E-02 0. -1.
       -2    1    3    3    0  502  0.87619692349E+03  0.67453713856E+03  0.32085682148E+03  0.11513776530E+04  0.25500000920E-02 0.  1.
</event>
<event>
 5   0  0.9855352E-06  0.2614646E+04  0.7818609E-02  0.8363243E-01
        1   -1    0    0  501    0  0.00000000000E+00  0.00000000000E+00  0.18037752733E+04  0.18037752733E+04  0.50400001928E-02 0. -1.
       -1   -1    0    0    0  501  0.00000000000E+00  0.00000000000E+00 -0.94750888984E+03  0.94750888985E+03  0.50400001928E-02 0.  1.
    10030    2    1    2    0    0  0.00000000000E+00  0.00000000000E+00  0.85626638350E+03  0.27512841632E+04  0.26146457556E+04 0.  0.
        2    1    3    3  502    0  0.12010181692E+04  0.10565697453E+03 -0.10373663396E+03  0.12101112876E+04  0.25500000920E-02 0.  1.
       -2    1    3    3    0  502 -0.12010181692E+04 -0.10565697453E+03  0.96000301745E+03  0.15411728756E+04  0.25500000920E-02 0. -1.
</event>
<event>
 5   0  0.1025153E-05  0.2635245E+04  0.7818609E-02  0.8356327E-01
       -1   -1    0    0    0  501  0.00000000000E+00  0.00000000000E+00  0.12449163728E+04  0.12449163728E+04  0.50400001928E-02 0. -1.
        1   -1    0    0  501    0  0.00000000000E+00  0.00000000000E+00 -0.13945751438E+04  0.13945751438E+04  0.50400001928E-02 0.  1.
    10030    2    1    2    0    0  0.00000000000E+00  0.00000000000E+00 -0.14965877098E+03  0.26394915166E+04  0.26352452862E+04 0.  0.
        1    1    3    3  502    0 -0.55556012031E+03 -0.27682400073E+03  0.10893044880E+04  0.12537395432E+04  0.50400001928E-02 0. -1.
       -1    1    3    3    0  502  0.55556012031E+03  0.27682400073E+03 -0.12389632590E+04  0.13857519734E+04  0.50400001928E-02 0.  1.
</event>
<event>
 5   0  0.1005492E-05  0.2619100E+04  0.7818609E-02  0.8361742E-01
        1   -1    0    0  501    0  0.00000000000E+00  0.00000000000E+00  0.16535702565E+04  0.16535702565E+04  0.50400001928E-02 0. -1.
       -1   -1    0    0    0  501  0.00000000000E+00  0.00000000000E+00 -0.10371021754E+04  0.10371021754E+04  0.50400001928E-02 0.  1.
    10030    2    1    2    0    0  0.00000000000E+00  0.00000000000E+00  0.61646808110E+03  0.26906724319E+04  0.26191000823E+04 0.  0.
        4    1    3    3  502    0  0.75245802722E+03 -0.10190060392E+04 -0.33038551073E+02  0.12671462226E+04  0.12699999809E+01 0.  1.
       -4    1    3    3    0  502 -0.75245802722E+03  0.10190060392E+04  0.64950663218E+03  0.14235262094E+04  0.12699999809E+01 0. -1.
</event>
<event>
 5   0  0.2517854E-05  0.2549079E+04  0.7818609E-02  0.8385706E-01
       -2   -1    0    0    0  501  0.00000000000E+00  0.00000000000E+00  0.11968443179E+04  0.11968443179E+04  0.25500000920E-02 0.  1.
        2   -1    0    0  501    0  0.00000000000E+00  0.00000000000E+00 -0.13572788971E+04  0.13572788971E+04  0.25500000920E-02 0. -1.
    10030    2    1    2    0    0  0.00000000000E+00  0.00000000000E+00 -0.16043457925E+03  0.25541232150E+04  0.25490794698E+04 0.  0.
        4    1    3    3  502    0 -0.12475794222E+04 -0.29232573255E+02 -0.33984572650E+03  0.12933698963E+04  0.12699999809E+01 0. -1.
       -4    1    3    3    0  502  0.12475794222E+04  0.29232573255E+02  0.17941114724E+03  0.12607533187E+04  0.12699999809E+01 0.  1.
</event>
<event>
 5   0  0.2517854E-05  0.2920142E+04  0.7818609E-02  0.8266910E-01
        2   -1    0    0  501    0  0.00000000000E+00  0.00000000000E+00  0.11319205376E+04  0.11319205376E+04  0.25500000920E-02 0.  1.
       -2   -1    0    0    0  501  0.00000000000E+00  0.00000000000E+00 -0.18833543609E+04  0.18833543609E+04  0.25500000920E-02 0. -1.
    10030    2    1    2    0    0  0.00000000000E+00  0.00000000000E+00 -0.75143382334E+03  0.30152748985E+04  0.29201421066E+04 0.  0.
        4    1    3    3  502    0  0.49398169110E+03 -0.84427489925E+02  0.10403313800E+04  0.11547453855E+04  0.12699999809E+01 0.  1.
       -4    1    3    3    0  502 -0.49398169110E+03  0.84427489925E+02 -0.17917652033E+04  0.18605295131E+04  0.12699999809E+01 0. -1.
</event>
<event>
 5   0  0.1034714E-05  0.2622310E+04  0.7818609E-02  0.8360662E-01
        1   -1    0    0  501    0  0.00000000000E+00  0.00000000000E+00  0.11857950592E+04  0.11857950592E+04  0.50400001928E-02 0.  1.
       -1   -1    0    0    0  501  0.00000000000E+00  0.00000000000E+00 -0.14497672165E+04  0.14497672166E+04  0.50400001928E-02 0. -1.
    10030    2    1    2    0    0  0.00000000000E+00  0.00000000000E+00 -0.26397215734E+03  0.26355622758E+04  0.26223095183E+04 0.  0.
        5    1    3    3  502    0  0.82496804003E+03  0.85368485138E+02 -0.11526204486E+04  0.14200056457E+04  0.46999998093E+01 0. -1.
       -5    1    3    3    0  502 -0.82496804003E+03 -0.85368485138E+02  0.88864829126E+03  0.12155566301E+04  0.46999998093E+01 0.  1.
</event>
<event>
 5   0  0.2662024E-05  0.2510313E+04  0.7818609E-02  0.8399321E-01
        2   -1    0    0  501    0  0.00000000000E+00  0.00000000000E+00  0.15650132283E+04  0.15650132283E+04  0.25500000920E-02 0.  1.
       -2   -1    0    0    0  501  0.00000000000E+00  0.00000000000E+00 -0.10066485393E+04  0.10066485393E+04  0.25500000920E-02 0. -1.
    10030    2    1    2    0    0  0.00000000000E+00  0.00000000000E+00  0.55836468903E+03  0.25716617675E+04  0.25103133511E+04 0.  0.
        2    1    3    3  502    0 -0.36859489308E+03  0.24295528767E+03  0.14828557083E+04  0.15471750123E+04  0.25500000920E-02 0.  1.
       -2    1    3    3    0  502  0.36859489308E+03 -0.24295528767E+03 -0.92449101925E+03  0.10244867553E+04  0.25500000920E-02 0. -1.
</event>
<event>
 5   0  0.1034714E-05  0.2511388E+04  0.7818609E-02  0.8398940E-01
        1   -1    0    0  501    0  0.00000000000E+00  0.00000000000E+00  0.20154274688E+04  0.20154274688E+04  0.50400001928E-02 0. -1.
       -1   -1    0    0    0  501  0.00000000000E+00  0.00000000000E+00 -0.78234880485E+03  0.78234880487E+03  0.50400001928E-02 0.  1.
    10030    2    1    2    0    0  0.00000000000E+00  0.00000000000E+00  0.12330786640E+04  0.27977762737E+04  0.25113878805E+04 0.  0.
        5    1    3    3  502    0  0.13898747795E+03  0.41779866269E+03 -0.69351760447E+03  0.82149984740E+03  0.46999998093E+01 0.  1.
       -5    1    3    3    0  502 -0.13898747795E+03 -0.41779866269E+03  0.19265962685E+04  0.19762764263E+04  0.46999998093E+01 0. -1.
</event>
<event>
 5   0  0.2555801E-05  0.2546061E+04  0.7818609E-02  0.8386757E-01
       -2   -1    0    0    0  501  0.00000000000E+00  0.00000000000E+00  0.10651434933E+04  0.10651434933E+04  0.25500000920E-02 0. -1.
        2   -1    0    0  501    0  0.00000000000E+00  0.00000000000E+00 -0.15214912137E+04  0.15214912137E+04  0.25500000920E-02 0.  1.
    10030    2    1    2    0    0  0.00000000000E+00  0.00000000000E+00 -0.45634772043E+03  0.25866347070E+04  0.25460608526E+04 0.  0.
        1    1    3    3  502    0 -0.71611376515E+03  0.16877048166E+03 -0.12836252298E+04  0.14795256438E+04  0.50400001928E-02 0.  1.
       -1    1    3    3    0  502  0.71611376515E+03 -0.16877048166E+03  0.82727750938E+03  0.11071090631E+04  0.50400001928E-02 0. -1.
</event>
<event>
 5   0  0.2517854E-05  0.2618182E+04  0.7818609E-02  0.8362051E-01
        2   -1    0    0  501    0  0.00000000000E+00  0.00000000000E+00  0.28216216532E+04  0.28216216532E+04  0.25500000920E-02 0. -1.
       -2   -1    0    0    0  501  0.00000000000E+00  0.00000000000E+00 -0.60735240818E+03  0.60735240818E+03  0.25500000920E-02 0.  1.
    10030    2    1    2    0    0  0.00000000000E+00  0.00000000000E+00  0.22142692450E+04  0.34289740614E+04  0.26181815873E+04 0.  0.
        4    1    3    3  502    0  0.15527967150E+03 -0.61166923455E+03  0.26092533477E+04  0.26844842473E+04  0.12699999809E+01 0. -1.
       -4    1    3    3    0  502 -0.15527967150E+03  0.61166923455E+03 -0.39498410271E+03  0.74448981401E+03  0.12699999809E+01 0.  1.
</event>
<event>
 5   0  0.1000421E-05  0.2596987E+04  0.7818609E-02  0.8369225E-01
       -1   -1    0    0    0  501  0.00000000000E+00  0.00000000000E+00  0.81965857744E+03  0.81965857746E+03  0.50400001928E-02 0.  1.
        1   -1    0    0  501    0  0.00000000000E+00  0.00000000000E+00 -0.20570580031E+04  0.20570580031E+04  0.50400001928E-02 0. -1.
    10030    2    1    2    0    0  0.00000000000E+00  0.00000000000E+00 -0.12373994257E+04  0.28767165806E+04  0.25969868976E+04 0.  0.
        3    1    3    3  502    0  0.86027336365E+03  0.61072969682E+03  0.21982101205E+03  0.10776744918E+04  0.10100000352E+00 0.  1.
       -3    1    3    3    0  502 -0.86027336365E+03 -0.61072969682E+03 -0.14572204377E+04  0.17990420888E+04  0.10100000352E+00 0. -1.
</event>
<event>
 5   0  0.2517854E-05  0.2633312E+04  0.7818609E-02  0.8356973E-01
        2   -1    0    0  501    0  0.00000000000E+00  0.00000000000E+00  0.13713822831E+04  0.13713822831E+04  0.25500000920E-02 0. -1.
       -2   -1    0    0    0  501  0.00000000000E+00  0.00000000000E+00 -0.12641138055E+04  0.12641138055E+04  0.25500000920E-02 0.  1.
    10030    2    1    2    0    0  0.00000000000E+00  0.00000000000E+00  0.10726847760E+03  0.26354960886E+04  0.26333121931E+04 0.  0.
        4    1    3    3  502    0 -0.11246425632E+04 -0.28349468145E+02  0.73827544678E+03  0.13456139252E+04  0.12699999809E+01 0. -1.
       -4    1    3    3    0  502  0.11246425632E+04  0.28349468145E+02 -0.63100696918E+03  0.12898821634E+04  0.12699999809E+01 0.  1.
</event>
<event>
 5   0  0.2528460E-05  0.2555370E+04  0.7818609E-02  0.8383521E-01
       -2   -1    0    0    0  501  0.00000000000E+00  0.00000000000E+00  0.16373773053E+04  0.16373773053E+04  0.25500000920E-02 0. -1.
        2   -1    0    0  501    0  0.00000000000E+00  0.00000000000E+00 -0.99700852902E+03  0.99700852903E+03  0.25500000920E-02 0.  1.
    10030    2    1    2    0    0  0.00000000000E+00  0.00000000000E+00  0.64036877625E+03  0.26343858343E+04  0.25553701404E+04 0.  0.
        5    1    3    3  502    0  0.69651501429E+03 -0.21052292948E+03  0.14028992704E+04  0.15803801827E+04  0.46999998093E+01 0. -1.
       -5    1    3    3    0  502 -0.69651501429E+03  0.21052292948E+03 -0.76253049419E+03  0.10540056516E+04  0.46999998093E+01 0.  1.
</event>
<event>
 5   0  0.2555801E-05  0.2615201E+04  0.7818609E-02  0.8363056E-01
        2   -1    0    0  501    0  0.00000000000E+00  0.00000000000E+00  0.23316743509E+04  0.23316743509E+04  0.25500000920E-02 0. -1.
       -2   -1    0    0    0  501  0.00000000000E+00  0.00000000000E+00 -0.73330073581E+03  0.73330073581E+03  0.25500000920E-02 0.  1.
    10030    2    1    2    0    0  0.00000000000E+00  0.00000000000E+00  0.15983736151E+04  0.30649750867E+04  0.26152005791E+04 0.  0.
        1    1    3    3  502    0  0.10943896867E+04 -0.28374691457E+03  0.15691525925E+04  0.19340219639E+04  0.50400001928E-02 0. -1.
       -1    1    3    3    0  502 -0.10943896867E+04  0.28374691457E+03  0.29221022584E+02  0.11309531229E+04  0.50400001928E-02 0.  1.
</event>
<event>
 5   0  0.1005492E-05  0.2619275E+04  0.7818609E-02  0.8361683E-01
        1   -1    0    0  501    0  0.00000000000E+00  0.00000000000E+00  0.20733835590E+04  0.20733835590E+04  0.50400001928E-02 0.  1.
       -1   -1    0    0    0  501  0.00000000000E+00  0.00000000000E+00 -0.82722309443E+03  0.82722309445E+03  0.50400001928E-02 0. -1.
    10030    2    1    2    0    0  0.00000000000E+00  0.00000000000E+00  0.12461604646E+04  0.29006066535E+04  0.26192752919E+04 0.  0.
        4    1    3    3  502    0 -0.47525491596E+03 -0.66506659332E+03 -0.51003601707E+03  0.96349320719E+03  0.12699999809E+01 0. -1.
       -4    1    3    3    0  502  0.47525491596E+03  0.66506659332E+03  0.17561964817E+04  0.19371134463E+04  0.12699999809E+01 0.  1.
</event>
<event>
 5   0  0.2555801E-05  0.2610020E+04  0.7818609E-02  0.8364805E-01
       -2   -1    0    0    0  501  0.00000000000E+00  0.00000000000E+00  0.10569044469E+04  0.10569044469E+04  0.25500000920E-02 0.  1.
        2   -1    0    0  501    0  0.00000000000E+00  0.00000000000E+00 -0.16113581838E+04  0.16113581838E+04  0.25500000920E-02 0. -1.
    10030    2    1    2    0    0  0.00000000000E+00  0.00000000000E+00 -0.55445373686E+03  0.26682626307E+04  0.26100204060E+04 0.  0.
        1    1    3    3  502    0 -0.38375716916E+03 -0.66215738657E+02 -0.15505722588E+04  0.15987271246E+04  0.50400001928E-02 0. -1.
       -1    1    3    3    0  502  0.38375716916E+03  0.66215738657E+02  0.99611852199E+03  0.10695355061E+04  0.50400001928E-02 0.  1.
</event>
<event>
 5   0  0.9855352E-06  0.2724655E+04  0.7818609E-02  0.8327049E-01
        1   -1    0    0  501    0  0.00000000000E+00  0.00000000000E+00  0.14720478342E+04  0.14720478342E+04  0.50400001928E-02 0.  1.
       -1   -1    0    0    0  501  0.00000000000E+00  0.00000000000E+00 -0.12607852818E+04  0.12607852818E+04  0.50400001928E-02 0. -1.
    10030    2    1    2    0    0  0.00000000000E+00  0.00000000000E+00  0.21126255241E+03  0.27328331161E+04  0.27246550193E+04 0.  0.
        2    1    3    3  502    0  0.26797126070E+03  0.34188646179E+03 -0.11894613146E+04  0.12662990043E+04  0.25500000920E-02 0. -1.
       -2    1    3    3    0  502 -0.26797126070E+03 -0.34188646179E+03  0.14007238670E+04  0.14665341118E+04  0.25500000920E-02 0.  1.
</event>
<event>
 5   0  0.2484618E-05  0.2602038E+04  0.7818609E-02  0.8367509E-01
       -2   -1    0    0    0  501  0.00000000000E+00  0.00000000000E+00  0.11062949167E+04  0.11062949167E+04  0.25500000920E-02 0. -1.
        2   -1    0    0  501    0  0.00000000000E+00  0.00000000000E+00 -0.15300171916E+04  0.15300171916E+04  0.25500000920E-02 0.  1.
    10030    2    1    2    0    0  0.00000000000E+00  0.00000000000E+00 -0.42372227493E+03  0.26363121084E+04  0.26020378488E+04 0.  0.
        3    1    3    3  502    0  0.74206382803E+03  0.52752680830E+03  0.72973881478E+03  0.11668170406E+04  0.10100000352E+00 0. -1.
       -3    1    3    3    0  502 -0.74206382803E+03 -0.52752680830E+03 -0.11534610897E+04  0.14694950677E+04  0.10100000352E+00 0.  1.
</event>
<event>
 5   0  0.1005492E-05  0.2583608E+04  0.7818609E-02  0.8373790E-01
        1   -1    0    0  501    0  0.00000000000E+00  0.00000000000E+00  0.54596898522E+03  0.54596898524E+03  0.50400001928E-02 0.  1.
       -1   -1    0    0    0  501  0.00000000000E+00  0.00000000000E+00 -0.30565068780E+04  0.30565068780E+04  0.50400001928E-02 0. -1.
    10030    2    1    2    0    0  0.00000000000E+00  0.00000000000E+00 -0.25105378928E+04  0.36024758632E+04  0.25836082974E+04 0.  0.
        4    1    3    3  502    0  0.13201887222E+02 -0.11871684342E+04 -0.19651783618E+04  0.22959683769E+04  0.12699999809E+01 0. -1.
       -4    1    3    3    0  502 -0.13201887222E+02  0.11871684342E+04 -0.54535953099E+03  0.13065074864E+04  0.12699999809E+01 0.  1.
</event>
<event>
 5   0  0.1005492E-05  0.2627009E+04  0.7818609E-02  0.8359084E-01
       -1   -1    0    0    0  501  0.00000000000E+00  0.00000000000E+00  0.92899555688E+03  0.92899555690E+03  0.50400001928E-02 0. -1.
        1   -1    0    0  501    0  0.00000000000E+00  0.00000000000E+00 -0.18571607994E+04  0.18571607994E+04  0.50400001928E-02 0.  1.
    10030    2    1    2    0    0  0.00000000000E+00  0.00000000000E+00 -0.92816524251E+03  0.27861563563E+04  0.26270090453E+04 0.  0.
        4    1    3    3  502    0  0.11027540937E+04  0.62898065695E+03 -0.82156182573E+03  0.15121668904E+04  0.12699999809E+01 0.  1.
       -4    1    3    3    0  502 -0.11027540937E+04 -0.62898065695E+03 -0.10660341678E+03  0.12739894659E+04  0.12699999809E+01 0. -1.
</event>
<event>
 5   0  0.2555801E-05  0.2595008E+04  0.7818609E-02  0.8369899E-01
       -2   -1    0    0    0  501  0.00000000000E+00  0.00000000000E+00  0.12356968165E+04  0.12356968165E+04  0.25500000920E-02 0. -1.
        2   -1    0    0  501    0  0.00000000000E+00  0.00000000000E+00 -0.13624027964E+04  0.13624027964E+04  0.25500000920E-02 0.  1.
    10030    2    1    2    0    0  0.00000000000E+00  0.00000000000E+00 -0.12670597984E+03  0.25980996129E+04  0.25950081297E+04 0.  0.
        1    1    3    3  502    0  0.10476270134E+03  0.67629328557E+03 -0.11670132636E+04  0.13528738999E+04  0.50400001928E-02 0.  1.
       -1    1    3    3    0  502 -0.10476270134E+03 -0.67629328557E+03  0.10403072837E+04  0.12452257130E+04  0.50400001928E-02 0. -1.
</event>
<event>
 5   0  0.2517854E-05  0.2561930E+04  0.7818609E-02  0.8381249E-01
       -2   -1    0    0    0  501  0.00000000000E+00  0.00000000000E+00  0.16144694346E+04  0.16144694346E+04  0.25500000920E-02 0. -1.
        2   -1    0    0  501    0  0.00000000000E+00  0.00000000000E+00 -0.10163531572E+04  0.10163531572E+04  0.25500000920E-02 0.  1.
    10030    2    1    2    0    0  0.00000000000E+00  0.00000000000E+00  0.59811627739E+03  0.26308225917E+04  0.25619298249E+04 0.  0.
        4    1    3    3  502    0 -0.11788908758E+03  0.95908424839E+03 -0.56446439730E+03  0.11190898539E+04  0.12699999809E+01 0.  1.
       -4    1    3    3    0  502  0.11788908758E+03 -0.95908424839E+03  0.11625806747E+04  0.15117327378E+04  0.12699999809E+01 0. -1.
</event>
<event>
 5   0  0.1034714E-05  0.2584967E+04  0.7818609E-02  0.8373326E-01
       -1   -1    0    0    0  501  0.00000000000E+00  0.00000000000E+00  0.12434755963E+04  0.12434755963E+04  0.50400001928E-02 0.  1.
        1   -1    0    0  501    0  0.00000000000E+00  0.00000000000E+00 -0.13434227266E+04  0.13434227266E+04  0.50400001928E-02 0. -1.
    10030    2    1    2    0    0  0.00000000000E+00  0.00000000000E+00 -0.99947130250E+02  0.25868983229E+04  0.25849668284E+04 0.  0.
        5    1    3    3  502    0  0.39769805445E+03 -0.88254165026E+03  0.80708200893E+03  0.12603360528E+04  0.46999998093E+01 0.  1.
       -5    1    3    3    0  502 -0.39769805445E+03  0.88254165026E+03 -0.90702913918E+03  0.13265622700E+04  0.46999998093E+01 0. -1.
</event>
<event>
 5   0  0.2555801E-05  0.2542272E+04  0.7818609E-02  0.8388079E-01
        2   -1    0    0  501    0  0.00000000000E+00  0.00000000000E+00  0.19511943771E+04  0.19511943771E+04  0.25500000920E-02 0.  1.
       -2   -1    0    0    0  501  0.00000000000E+00  0.00000000000E+00 -0.82810105214E+03  0.82810105215E+03  0.25500000920E-02 0. -1.
    10030    2    1    2    0    0  0.00000000000E+00  0.00000000000E+00  0.11230933249E+04  0.27792954292E+04  0.25422715170E+04 0.  0.
        1    1    3    3  502    0 -0.62498215283E+03 -0.35877875498E+03 -0.58320009343E+03  0.92706377094E+03  0.50400001928E-02 0. -1.
       -1    1    3    3    0  502  0.62498215283E+03  0.35877875498E+03  0.17062934183E+04  0.18522316583E+04  0.50400001928E-02 0.  1.
</event>
<event>
 5   0  0.2484618E-05  0.2590112E+04  0.7818609E-02  0.8371568E-01
       -2   -1    0    0    0  501  0.00000000000E+00  0.00000000000E+00  0.97213263899E+03  0.97213263899E+03  0.25500000920E-02 0.  1.
        2   -1    0    0  501    0  0.00000000000E+00  0.00000000000E+00 -0.17252476495E+04  0.17252476495E+04  0.25500000920E-02 0. -1.
    10030    2    1    2    0    0  0.00000000000E+00  0.00000000000E+00 -0.75311501056E+03  0.26973802885E+04  0.25901116196E+04 0.  0.
        3    1    3    3  502    0 -0.11739651971E+04  0.15902191855E+03 -0.92137495711E+03  0.15008044764E+04  0.10100000352E+00 0. -1.
       -3    1    3    3    0  502  0.11739651971E+04 -0.15902191855E+03  0.16825994655E+03  0.11965758122E+04  0.10100000352E+00 0.  1.
</event>
<event>
 5   0  0.1025153E-05  0.2548128E+04  0.7818609E-02  0.8386038E-01
       -1   -1    0    0    0  501  0.00000000000E+00  0.00000000000E+00  0.98402025721E+03  0.98402025722E+03  0.50400001928E-02 0.  1.
        1   -1    0    0  501    0  0.00000000000E+00  0.00000000000E+00 -0.16495986404E+04  0.16495986404E+04  0.50400001928E-02 0. -1.
    10030    2    1    2    0    0  0.00000000000E+00  0.00000000000E+00 -0.66557838320E+03  0.26336188976E+04  0.25481275309E+04 0.  0.
        1    1    3    3  502    0  0.73311364160E+03 -0.90253746636E+03 -0.87103890762E+03  0.14528380048E+04  0.50400001928E-02 0. -1.
       -1    1    3    3    0  502 -0.73311364160E+03  0.90253746636E+03  0.20546052442E+03  0.11807808928E+04  0.50400001928E-02 0.  1.
</event>
<event>
 5   0  0.1025153E-05  0.2633740E+04  0.7818609E-02  0.8356830E-01
       -1   -1    0    0    0  501  0.00000000000E+00  0.00000000000E+00  0.10407187955E+04  0.10407187955E+04  0.50400001928E-02 0.  1.
        1   -1    0    0  501    0  0.00000000000E+00  0.00000000000E+00 -0.16662969203E+04  0.16662969203E+04  0.50400001928E-02 0. -1.
    10030    2    1    2    0    0  0.00000000000E+00  0.00000000000E+00 -0.62557812476E+03  0.27070157158E+04  0.26337399446E+04 0.  0.
        1    1    3    3  502    0 -0.63468203828E+03 -0.88383235514E+02 -0.14952371874E+04  0.16267658506E+04  0.50400001928E-02 0. -1.
       -1    1    3    3    0  502  0.63468203828E+03  0.88383235514E+02  0.86965906266E+03  0.10802498652E+04  0.50400001928E-02 0.  1.
</event>
<event>
 5   0  0.1000421E-05  0.2557829E+04  0.7818609E-02  0.8382669E-01
        1   -1    0    0  501    0  0.00000000000E+00  0.00000000000E+00  0.13117865783E+04  0.13117865783E+04  0.50400001928E-02 0. -1.
       -1   -1    0    0    0  501  0.00000000000E+00  0.00000000000E+00 -0.12468656844E+04  0.12468656844E+04  0.50400001928E-02 0.  1.
    10030    2    1    2    0    0  0.00000000000E+00  0.00000000000E+00  0.64920893911E+02  0.25586522628E+04  0.25578285086E+04 0.  0.
        3    1    3    3  502    0  0.76522996664E+03 -0.29175626232E+03 -0.95016086990E+03  0.12543940000E+04  0.10100000352E+00 0.  1.
       -3    1    3    3    0  502 -0.76522996664E+03  0.29175626232E+03  0.10150817638E+04  0.13042582627E+04  0.10100000352E+00 0. -1.
</event>
<event>
 5   0  0.1034714E-05  0.2607747E+04  0.7818609E-02  0.8365575E-01
        1   -1    0    0  501    0  0.00000000000E+00  0.00000000000E+00  0.18793963504E+04  0.18793963504E+04  0.50400001928E-02 0. -1.
       -1   -1    0    0    0  501  0.00000000000E+00  0.00000000000E+00 -0.90459131524E+03  0.90459131526E+03  0.50400001928E-02 0.  1.
    10030    2    1    2    0    0  0.00000000000E+00  0.00000000000E+00  0.97480503519E+03  0.27839876657E+04  0.26077466261E+04 0.  0.
        5    1    3    3  502    0 -0.27558377336E+03 -0.23785583827E+03  0.18240333273E+04  0.18600111519E+04  0.46999998093E+01 0. -1.
       -5    1    3    3    0  502  0.27558377336E+03  0.23785583827E+03 -0.84922829213E+03  0.92397651382E+03  0.46999998093E+01 0.  1.
</event>
<event>
 5   0  0.1000421E-05  0.2601795E+04  0.7818609E-02  0.8367592E-01
       -1   -1    0    0    0  501  0.00000000000E+00  0.00000000000E+00  0.11446436594E+04  0.11446436594E+04  0.50400001928E-02 0. -1.
        1   -1    0    0  501    0  0.00000000000E+00  0.00000000000E+00 -0.14784817959E+04  0.14784817959E+04  0.50400001928E-02 0.  1.
    10030    2    1    2    0    0  0.00000000000E+00  0.00000000000E+00 -0.33383813652E+03  0.26231254554E+04  0.26017953903E+04 0.  0.
        3    1    3    3  502    0  0.51519316361E+03 -0.78791031623E+03 -0.10721149628E+04  0.14267645797E+04  0.10100000352E+00 0.  1.
       -3    1    3    3    0  502 -0.51519316361E+03  0.78791031623E+03  0.73827682632E+03  0.11963608756E+04  0.10100000352E+00 0. -1.
</event>
<event>
 5   0  0.2517854E-05  0.2619698E+04  0.7818609E-02  0.8361541E-01
       -2   -1    0    0    0  501  0.00000000000E+00  0.00000000000E+00  0.17515701084E+04  0.17515701084E+04  0.25500000920E-02 0.  1.
        2   -1    0    0  501    0  0.00000000000E+00  0.00000000000E+00 -0.97952346513E+03  0.97952346513E+03  0.25500000920E-02 0. -1.
    10030    2    1    2    0    0  0.00000000000E+00  0.00000000000E+00  0.77204664331E+03  0.27310935736E+04  0.26196977093E+04 0.  0.
        4    1    3    3  502    0  0.24217218438E+03  0.90348556789E+03  0.13419480842E+04  0.16357749882E+04  0.12699999809E+01 0.  1.
       -4    1    3    3    0  502 -0.24217218438E+03 -0.90348556789E+03 -0.56990144092E+03  0.10953185854E+04  0.12699999809E+01 0. -1.
</event>
<event>
 5   0  0.2555801E-05  0.2496900E+04  0.7818609E-02  0.8404091E-01
       -2   -1    0    0    0  501  0.00000000000E+00  0.00000000000E+00  0.66202263477E+03  0.66202263477E+03  0.25500000920E-02 0.  1.
        2   -1    0    0  501    0  0.00000000000E+00  0.00000000000E+00 -0.23543417297E+04  0.23543417297E+04  0.25500000920E-02 0. -1.
    10030    2    1    2    0    0  0.00000000000E+00  0.00000000000E+00 -0.16923190950E+04  0.30163643645E+04  0.24969000902E+04 0.  0.
        1    1    3    3  502    0 -0.11626770227E+04 -0.45000833666E+03 -0.76692299854E+03  0.14637268352E+04  0.50400001928E-02 0. -1.
       -1    1    3    3    0  502  0.11626770227E+04  0.45000833666E+03 -0.92539609643E+03  0.15526375294E+04  0.50400001928E-02 0.  1.
</event>
<event>
 5   0  0.9855352E-06  0.2606218E+04  0.7818609E-02  0.8366092E-01
        1   -1    0    0  501    0  0.00000000000E+00  0.00000000000E+00  0.17415154858E+04  0.17415154858E+04  0.50400001928E-02 0.  1.
       -1   -1    0    0    0  501  0.00000000000E+00  0.00000000000E+00 -0.97506620607E+03  0.97506620608E+03  0.50400001928E-02 0. -1.
    10030    2    1    2    0    0  0.00000000000E+00  0.00000000000E+00  0.76644927972E+03  0.27165816919E+04  0.26062178708E+04 0.  0.
        2    1    3    3  502    0 -0.97604504324E+03 -0.39788855879E+03  0.11819052586E+04  0.15836285145E+04  0.25500000920E-02 0.  1.
       -2    1    3    3    0  502  0.97604504324E+03  0.39788855879E+03 -0.41545597891E+03  0.11329531774E+04  0.25500000920E-02 0. -1.
</event>
<event>
 5   0  0.2528460E-05  0.2587962E+04  0.7818609E-02  0.8372302E-01
        2   -1    0    0  501    0  0.00000000000E+00  0.00000000000E+00  0.12948615533E+04  0.12948615533E+04  0.25500000920E-02 0.  1.
       -2   -1    0    0    0  501  0.00000000000E+00  0.00000000000E+00 -0.12931013634E+04  0.12931013634E+04  0.25500000920E-02 0. -1.
    10030    2    1    2    0    0  0.00000000000E+00  0.00000000000E+00  0.17601899547E+01  0.25879629167E+04  0.25879623181E+04 0.  0.
        5    1    3    3  502    0  0.10655035219E+04  0.38333583885E+03  0.62707591969E+03  0.12944073623E+04  0.46999998093E+01 0.  1.
       -5    1    3    3    0  502 -0.10655035219E+04 -0.38333583885E+03 -0.62531572974E+03  0.12935555544E+04  0.46999998093E+01 0. -1.
</event>
<event>
 5   0  0.9855352E-06  0.2740722E+04  0.7818609E-02  0.8321912E-01
        1   -1    0    0  501    0  0.00000000000E+00  0.00000000000E+00  0.13395875113E+04  0.13395875113E+04  0.50400001928E-02 0.  1.
       -1   -1    0    0    0  501  0.00000000000E+00  0.00000000000E+00 -0.14018418617E+04  0.14018418617E+04  0.50400001928E-02 0. -1.
    10030    2    1    2    0    0  0.00000000000E+00  0.00000000000E+00 -0.62254350328E+02  0.27414293730E+04  0.27407224236E+04 0.  0.
        2    1    3    3  502    0 -0.73402688307E+03  0.74803763294E+03  0.85201284066E+03  0.13506597077E+04  0.25500000920E-02 0.  1.
       -2    1    3    3    0  502  0.73402688307E+03 -0.74803763294E+03 -0.91426719099E+03  0.13907696653E+04  0.25500000920E-02 0. -1.
</event>
<event>
 5   0  0.2662024E-05  0.2586576E+04  0.7818609E-02  0.8372775E-01
        2   -1    0    0  501    0  0.00000000000E+00  0.00000000000E+00  0.17334619543E+04  0.17334619543E+04  0.25500000920E-02 0.  1.
       -2   -1    0    0    0  501  0.00000000000E+00  0.00000000000E+00 -0.96488607745E+03  0.96488607745E+03  0.25500000920E-02 0. -1.
    10030    2    1    2    0    0  0.00000000000E+00  0.00000000000E+00  0.76857587684E+03  0.26983480317E+04  0.25865755782E+04 0.  0.
        2    1    3    3  502    0 -0.63526404345E+03 -0.94539788516E+03 -0.25476445085E+03  0.11671514433E+04  0.25500000920E-02 0. -1.
       -2    1    3    3    0  502  0.63526404345E+03  0.94539788516E+03  0.10233403277E+04  0.15311965884E+04  0.25500000920E-02 0.  1.
</event>
<event>
 5   0  0.2484618E-05  0.2621731E+04  0.7818609E-02  0.8360857E-01
        2   -1    0    0  501    0  0.00000000000E+00  0.00000000000E+00  0.16115548948E+04  0.16115548948E+04  0.25500000920E-02 0. -1.
       -2   -1    0    0    0  501  0.00000000000E+00  0.00000000000E+00 -0.10662794415E+04  0.10662794416E+04  0.25500000920E-02 0.  1.
    10030    2    1    2    0    0  0.00000000000E+00  0.00000000000E+00  0.54527545321E+03  0.26778343363E+04  0.26217306141E+04 0.  0.
        3    1    3    3  502    0  0.66713062620E+03 -0.10751128858E+04  0.62266174302E+03  0.14101909963E+04  0.10100000352E+00 0.  1.
       -3    1    3    3    0  502 -0.66713062620E+03  0.10751128858E+04 -0.77386289809E+02  0.12676433401E+04  0.10100000352E+00 0. -1.
</event>
<event>
 5   0  0.8605000E-06  0.2509434E+04  0.7818609E-02  0.8399632E-01
       -3   -1    0    0    0  501  0.00000000000E+00  0.00000000000E+00  0.98540644971E+03  0.98540645489E+03  0.10100000352E+00 0. -1.
        3   -1    0    0  501    0  0.00000000000E+00  0.00000000000E+00 -0.15976302715E+04  0.15976302747E+04  0.10100000352E+00 0.  1.
    10030    2    1    2    0    0  0.00000000000E+00  0.00000000000E+00 -0.61222382175E+03  0.25830367295E+04  0.25094343463E+04 0.  0.
        5    1    3    3  502    0  0.28516653635E+03  0.12212193482E+04 -0.26498447095E+03  0.12817704591E+04  0.46999998093E+01 0. -1.
       -5    1    3    3    0  502 -0.28516653635E+03 -0.12212193482E+04 -0.34723935080E+03  0.13012662705E+04  0.46999998093E+01 0.  1.
</event>
<event>
 5   0  0.2555801E-05  0.2608747E+04  0.7818609E-02  0.8365236E-01
       -2   -1    0    0    0  501  0.00000000000E+00  0.00000000000E+00  0.19527182587E+04  0.19527182587E+04  0.25500000920E-02 0. -1.
        2   -1    0    0  501    0  0.00000000000E+00  0.00000000000E+00 -0.87129316145E+03  0.87129316145E+03  0.25500000920E-02 0.  1.
    10030    2    1    2    0    0  0.00000000000E+00  0.00000000000E+00  0.10814250972E+04  0.28240114201E+04  0.26087468754E+04 0.  0.
        1    1    3    3  502    0 -0.59357195790E+03 -0.83192933254E+03  0.14181226749E+04  0.17480005734E+04  0.50400001928E-02 0. -1.
       -1    1    3    3    0  502  0.59357195790E+03  0.83192933254E+03 -0.33669757763E+03  0.10760108468E+04  0.50400001928E-02 0.  1.
</event>
<event>
 5   0  0.2517854E-05  0.2662626E+04  0.7818609E-02  0.8347234E-01
       -2   -1    0    0    0  501  0.00000000000E+00  0.00000000000E+00  0.11247545518E+04  0.11247545518E+04  0.25500000920E-02 0. -1.
        2   -1    0    0  501    0  0.00000000000E+00  0.00000000000E+00 -0.15758057059E+04  0.15758057059E+04  0.25500000920E-02 0.  1.
    10030    2    1    2    0    0  0.00000000000E+00  0.00000000000E+00 -0.45105115406E+03  0.27005602578E+04  0.26626262528E+04 0.  0.
        4    1    3    3  502    0  0.39196044214E+03 -0.95901649582E+02  0.10612346858E+04  0.11353637241E+04  0.12699999809E+01 0. -1.
       -4    1    3    3    0  502 -0.39196044214E+03  0.95901649582E+02 -0.15122858399E+04  0.15651965337E+04  0.12699999809E+01 0.  1.
</event>
<event>
 5   0  0.1034714E-05  0.2570922E+04  0.7818609E-02  0.8378146E-01
       -1   -1    0    0    0  501  0.00000000000E+00  0.00000000000E+00  0.11678834010E+04  0.11678834010E+04  0.50400001928E-02 0. -1.
        1   -1    0    0  501    0  0.00000000000E+00  0.00000000000E+00 -0.14148755750E+04  0.14148755750E+04  0.50400001928E-02 0.  1.
    10030    2    1    2    0    0  0.00000000000E+00  0.00000000000E+00 -0.24699217396E+03  0.25827589760E+04  0.25709217790E+04 0.  0.
        5    1    3    3  502    0 -0.45660080573E+03 -0.11777952233E+04  0.11572152505E+03  0.12685028361E+04  0.46999998093E+01 0. -1.
       -5    1    3    3    0  502  0.45660080573E+03  0.11777952233E+04 -0.36271369901E+03  0.13142561399E+04  0.46999998093E+01 0.  1.
</event>
<event>
 5   0  0.1005492E-05  0.2378382E+04  0.7818609E-02  0.8447642E-01
       -1   -1    0    0    0  501  0.00000000000E+00  0.00000000000E+00  0.85218221918E+03  0.85218221919E+03  0.50400001928E-02 0.  1.
        1   -1    0    0  501    0  0.00000000000E+00  0.00000000000E+00 -0.16594746489E+04  0.16594746489E+04  0.50400001928E-02 0. -1.
    10030    2    1    2    0    0  0.00000000000E+00  0.00000000000E+00 -0.80729242976E+03  0.25116568681E+04  0.23783816254E+04 0.  0.
        4    1    3    3  502    0  0.36678766394E+03 -0.33717118951E+03 -0.15439479056E+04  0.16223422419E+04  0.12699999809E+01 0. -1.
       -4    1    3    3    0  502 -0.36678766394E+03  0.33717118951E+03  0.73665547589E+03  0.88931462628E+03  0.12699999809E+01 0.  1.
</event>
<event>
 5   0  0.1034714E-05  0.2608717E+04  0.7818609E-02  0.8365246E-01
       -1   -1    0    0    0  501  0.00000000000E+00  0.00000000000E+00  0.17084387885E+04  0.17084387885E+04  0.50400001928E-02 0.  1.
        1   -1    0    0  501    0  0.00000000000E+00  0.00000000000E+00 -0.99585115706E+03  0.99585115707E+03  0.50400001928E-02 0. -1.
    10030    2    1    2    0    0  0.00000000000E+00  0.00000000000E+00  0.71258763147E+03  0.27042899456E+04  0.26087167300E+04 0.  0.
        5    1    3    3  502    0 -0.87563904839E+03  0.21021963063E+03  0.13344700466E+04  0.16098970251E+04  0.46999998093E+01 0.  1.
       -5    1    3    3    0  502  0.87563904839E+03 -0.21021963063E+03 -0.62188241514E+03  0.10943929205E+04  0.46999998093E+01 0. -1.
</event>
<event>
 5   0  0.2484618E-05  0.2596051E+04  0.7818609E-02  0.8369544E-01
        2   -1    0    0  501    0  0.00000000000E+00  0.00000000000E+00  0.99725788290E+03  0.99725788290E+03  0.25500000920E-02 0.  1.
       -2   -1    0    0    0  501  0.00000000000E+00  0.00000000000E+00 -0.16895024856E+04  0.16895024856E+04  0.25500000920E-02 0. -1.
    10030    2    1    2    0    0  0.00000000000E+00  0.00000000000E+00 -0.69224460273E+03  0.26867603685E+04  0.25960505942E+04 0.  0.
        3    1    3    3  502    0 -0.10824562426E+03  0.29272200744E+02  0.99223575014E+03  0.99855183689E+03  0.10100000352E+00 0.  1.
       -3    1    3    3    0  502  0.10824562426E+03 -0.29272200744E+02 -0.16844803529E+04  0.16882085316E+04  0.10100000352E+00 0. -1.
</event>
<event>
 5   0  0.2662024E-05  0.2589173E+04  0.7818609E-02  0.8371888E-01
        2   -1    0    0  501    0  0.00000000000E+00  0.00000000000E+00  0.15437233730E+04  0.15437233730E+04  0.25500000920E-02 0. -1.
       -2   -1    0    0    0  501  0.00000000000E+00  0.00000000000E+00 -0.10856573337E+04  0.10856573337E+04  0.25500000920E-02 0.  1.
    10030    2    1    2    0    0  0.00000000000E+00  0.00000000000E+00  0.45806603933E+03  0.26293807067E+04  0.25891733052E+04 0.  0.
        2    1    3    3  502    0 -0.62731671929E+03  0.45717505099E+03  0.12811815491E+04  0.14979857995E+04  0.25500000920E-02 0. -1.
       -2    1    3    3    0  502  0.62731671929E+03 -0.45717505099E+03 -0.82311550981E+03  0.11313949072E+04  0.25500000920E-02 0.  1.
</event>
<event>
 5   0  0.2528460E-05  0.2670652E+04  0.7818609E-02  0.8344591E-01
        2   -1    0    0  501    0  0.00000000000E+00  0.00000000000E+00  0.10465988525E+04  0.10465988525E+04  0.25500000920E-02 0. -1.
       -2   -1    0    0    0  501  0.00000000000E+00  0.00000000000E+00 -0.17037044378E+04  0.17037044378E+04  0.25500000920E-02 0.  1.
    10030    2    1    2    0    0  0.00000000000E+00  0.00000000000E+00 -0.65710558529E+03  0.27503032903E+04  0.26706516879E+04 0.  0.
        5    1    3    3  502    0 -0.12179708447E+04 -0.74053067799E+02 -0.88707129557E+03  0.15085935201E+04  0.46999998093E+01 0.  1.
       -5    1    3    3    0  502  0.12179708447E+04  0.74053067799E+02  0.22996571028E+03  0.12417097702E+04  0.46999998093E+01 0. -1.
</event>
<event>
 5   0  0.1005492E-05  0.2596256E+04  0.7818609E-02  0.8369474E-01
        1   -1    0    0  501    0  0.00000000000E+00  0.00000000000E+00  0.23707653533E+04  0.23707653533E+04  0.50400001928E-02 0.  1.
       -1   -1    0    0    0  501  0.00000000000E+00  0.00000000000E+00 -0.71079848300E+03  0.71079848302E+03  0.50400001928E-02 0. -1.
    10030    2    1    2    0    0  0.00000000000E+00  0.00000000000E+00  0.16599668703E+04  0.30815638363E+04  0.25962560865E+04 0.  0.
        4    1    3    3  502    0 -0.44783731859E+03  0.91273048334E+01  0.22761314712E+04  0.23197882789E+04  0.12699999809E+01 0.  1.
       -4    1    3    3    0  502  0.44783731859E+03 -0.91273048334E+01 -0.61616460092E+03  0.76177555746E+03  0.12699999809E+01 0. -1.
</event>
<event>
 5   0  0.1025153E-05  0.2538854E+04  0.7818609E-02  0.8389273E-01
        1   -1    0    0  501    0  0.00000000000E+00  0.00000000000E+00  0.79796837641E+03  0.79796837643E+03  0.50400001928E-02 0. -1.
       -1   -1    0    0    0  501  0.00000000000E+00  0.00000000000E+00 -0.20194341488E+04  0.20194341488E+04  0.50400001928E-02 0.  1.
    10030    2    1    2    0    0  0.00000000000E+00  0.00000000000E+00 -0.12214657724E+04  0.28174025252E+04  0.25388537485E+04 0.  0.
        1    1    3    3  502    0  0.72310588762E+03  0.49034830394E+02 -0.17672650845E+04  0.19101079598E+04  0.50400001928E-02 0.  1.
       -1    1    3    3    0  502 -0.72310588762E+03 -0.49034830394E+02  0.54579931210E+03  0.90729456541E+03  0.50400001928E-02 0. -1.
</event>
<event>
 5   0  0.2662024E-05  0.2426000E+04  0.7818609E-02  0.8429833E-01
       -2   -1    0    0    0  501  0.00000000000E+00  0.00000000000E+00  0.21754637051E+04  0.21754637051E+04  0.25500000920E-02 0. -1.
        2   -1    0    0  501    0  0.00000000000E+00  0.00000000000E+00 -0.67634722248E+03  0.67634722249E+03  0.25500000920E-02 0.  1.
    10030    2    1    2    0    0  0.00000000000E+00  0.00000000000E+00  0.14991164826E+04  0.28518109276E+04  0.24259998636E+04 0.  0.
        2    1    3    3  502    0 -0.28193599346E+03  0.21583975411E+03 -0.61388976249E+03  0.70917934569E+03  0.25500000920E-02 0.  1.
       -2    1    3    3    0  502  0.28193599346E+03 -0.21583975411E+03  0.21130062451E+04  0.21426315819E+04  0.25500000920E-02 0. -1.
</event>
<event>
 5   0  0.8605000E-06  0.2143410E+04  0.7818609E-02  0.8542358E-01
       -3   -1    0    0    0  501  0.00000000000E+00  0.00000000000E+00  0.56951478414E+03  0.56951479309E+03  0.10100000352E+00 0.  1.
        3   -1    0    0  501    0  0.00000000000E+00  0.00000000000E+00 -0.20167189584E+04  0.20167189609E+04  0.10100000352E+00 0. -1.
    10030    2    1    2    0    0  0.00000000000E+00  0.00000000000E+00 -0.14472041742E+04  0.25862337540E+04  0.21434096921E+04 0.  0.
        3    1    3    3  502    0  0.70250326842E+03  0.70744088267E+03 -0.24922671988E+03  0.10276660025E+04  0.10100000352E+00 0.  1.
       -3    1    3    3    0  502 -0.70250326842E+03 -0.70744088267E+03 -0.11979774543E+04  0.15585677515E+04  0.10100000352E+00 0. -1.
</event>
<event>
 5   0  0.1005492E-05  0.2623310E+04  0.7818609E-02  0.8360326E-01
       -1   -1    0    0    0  501  0.00000000000E+00  0.00000000000E+00  0.61267583863E+03  0.61267583865E+03  0.50400001928E-02 0. -1.
        1   -1    0    0  501    0  0.00000000000E+00  0.00000000000E+00 -0.28080744254E+04  0.28080744254E+04  0.50400001928E-02 0.  1.
    10030    2    1    2    0    0  0.00000000000E+00  0.00000000000E+00 -0.21953985868E+04  0.34207502641E+04  0.26233103923E+04 0.  0.
        4    1    3    3  502    0  0.13048004349E+04 -0.10207230594E+03 -0.98465967218E+03  0.16378275897E+04  0.12699999809E+01 0. -1.
       -4    1    3    3    0  502 -0.13048004349E+04  0.10207230594E+03 -0.12107389146E+04  0.17829226744E+04  0.12699999809E+01 0.  1.
</event>
<event>
 5   0  0.2517854E-05  0.2397703E+04  0.7818609E-02  0.8440364E-01
       -2   -1    0    0    0  501  0.00000000000E+00  0.00000000000E+00  0.11532992513E+04  0.11532992513E+04  0.25500000920E-02 0.  1.
        2   -1    0    0  501    0  0.00000000000E+00  0.00000000000E+00 -0.12462031407E+04  0.12462031407E+04  0.25500000920E-02 0. -1.
    10030    2    1    2    0    0  0.00000000000E+00  0.00000000000E+00 -0.92903889404E+02  0.23995023920E+04  0.23977031920E+04 0.  0.
        4    1    3    3  502    0 -0.11587222263E+04 -0.75806720887E+01  0.26126679249E+03  0.11878369476E+04  0.12699999809E+01 0.  1.
       -4    1    3    3    0  502  0.11587222263E+04  0.75806720887E+01 -0.35417068189E+03  0.12116654444E+04  0.12699999809E+01 0. -1.
</event>
<event>
 5   0  0.1034714E-05  0.2625235E+04  0.7818609E-02  0.8359680E-01
        1   -1    0    0  501    0  0.00000000000E+00  0.00000000000E+00  0.12177511498E+04  0.12177511498E+04  0.50400001928E-02 0.  1.
       -1   -1    0    0    0  501  0.00000000000E+00  0.00000000000E+00 -0.14148739010E+04  0.14148739010E+04  0.50400001928E-02 0. -1.
    10030    2    1    2    0    0  0.00000000000E+00  0.00000000000E+00 -0.19712275118E+03  0.26326250508E+04  0.26252347093E+04 0.  0.
        5    1    3    3  502    0 -0.29899618909E+03  0.64944974554E+02 -0.13786051460E+04  0.14121582098E+04  0.46999998093E+01 0. -1.
       -5    1    3    3    0  502  0.29899618909E+03 -0.64944974554E+02  0.11814823948E+04  0.12204668410E+04  0.46999998093E+01 0.  1.
</event>
<event>
 5   0  0.2528460E-05  0.2609633E+04  0.7818609E-02  0.8364937E-01
       -2   -1    0    0    0  501  0.00000000000E+00  0.00000000000E+00  0.12085919380E+04  0.12085919380E+04  0.25500000920E-02 0. -1.
        2   -1    0    0  501    0  0.00000000000E+00  0.00000000000E+00 -0.14087019220E+04  0.14087019220E+04  0.25500000920E-02 0.  1.
    10030    2    1    2    0    0  0.00000000000E+00  0.00000000000E+00 -0.20010998399E+03  0.26172938600E+04  0.26096327604E+04 0.  0.
        5    1    3    3  502    0  0.25292434079E+03  0.10372591545E+04 -0.85235466088E+03  0.13661653757E+04  0.46999998093E+01 0.  1.
       -5    1    3    3    0  502 -0.25292434079E+03 -0.10372591545E+04  0.65224467690E+03  0.12511284843E+04  0.46999998093E+01 0. -1.
</event>
<event>
 5   0  0.2555801E-05  0.2576621E+04  0.7818609E-02  0.8376186E-01
       -2   -1    0    0    0  501  0.00000000000E+00  0.00000000000E+00  0.92840840997E+03  0.92840840997E+03  0.25500000920E-02 0. -1.
        2   -1    0    0  501    0  0.00000000000E+00  0.00000000000E+00 -0.17877302749E+04  0.17877302749E+04  0.25500000920E-02 0.  1.
    10030    2    1    2    0    0  0.00000000000E+00  0.00000000000E+00 -0.85932186491E+03  0.27161386848E+04  0.25766209049E+04 0.  0.
        1    1    3    3  502    0 -0.12631359505E+03 -0.10062611820E+04 -0.12671791137E+04  0.16230402327E+04  0.50400001928E-02 0.  1.
       -1    1    3    3    0  502  0.12631359505E+03  0.10062611820E+04  0.40785724878E+03  0.10930984522E+04  0.50400001928E-02 0. -1.
</event>
<event>
 5   0  0.1000421E-05  0.2598448E+04  0.7818609E-02  0.8368728E-01
       -1   -1    0    0    0  501  0.00000000000E+00  0.00000000000E+00  0.84545989199E+03  0.84545989200E+03  0.50400001928E-02 0.  1.
        1   -1    0    0  501    0  0.00000000000E+00  0.00000000000E+00 -0.19965270648E+04  0.19965270649E+04  0.50400001928E-02 0. -1.
    10030    2    1    2    0    0  0.00000000000E+00  0.00000000000E+00 -0.11510671729E+04  0.28419869569E+04  0.25984484268E+04 0.  0.
        3    1    3    3  502    0 -0.22036867553E+03 -0.49320094292E+03 -0.18678764698E+04  0.19444207467E+04  0.10100000352E+00 0. -1.
       -3    1    3    3    0  502  0.22036867553E+03  0.49320094292E+03  0.71680929698E+03  0.89756621020E+03  0.10100000352E+00 0.  1.
</event>
<event>
 5   0  0.1005492E-05  0.2599009E+04  0.7818609E-02  0.8368538E-01
       -1   -1    0    0    0  501  0.00000000000E+00  0.00000000000E+00  0.10710250119E+04  0.10710250119E+04  0.50400001928E-02 0. -1.
        1   -1    0    0  501    0  0.00000000000E+00  0.00000000000E+00 -0.15767246856E+04  0.15767246856E+04  0.50400001928E-02 0.  1.
    10030    2    1    2    0    0  0.00000000000E+00  0.00000000000E+00 -0.50569967367E+03  0.26477496976E+04  0.25990087151E+04 0.  0.
        4    1    3    3  502    0 -0.77145270329E+03  0.58030972721E+03  0.63341393734E+03  0.11546053360E+04  0.12699999809E+01 0. -1.
       -4    1    3    3    0  502  0.77145270329E+03 -0.58030972721E+03 -0.11391136110E+04  0.14931443616E+04  0.12699999809E+01 0.  1.
</event>
<event>
 5   0  0.1005492E-05  0.2579667E+04  0.7818609E-02  0.8375141E-01
        1   -1    0    0  501    0  0.00000000000E+00  0.00000000000E+00  0.13176972801E+04  0.13176972801E+04  0.50400001928E-02 0.  1.
       -1   -1    0    0    0  501  0.00000000000E+00  0.00000000000E+00 -0.12625593958E+04  0.12625593959E+04  0.50400001928E-02 0. -1.
    10030    2    1    2    0    0  0.00000000000E+00  0.00000000000E+00  0.55137884208E+02  0.25802566759E+04  0.25796674839E+04 0.  0.
        4    1    3    3  502    0  0.14429417440E+03  0.59390569374E+03  0.11636649237E+04  0.13144057400E+04  0.12699999809E+01 0.  1.
       -4    1    3    3    0  502 -0.14429417440E+03 -0.59390569374E+03 -0.11085270395E+04  0.12658509359E+04  0.12699999809E+01 0. -1.
</event>
<event>
 5   0  0.1005492E-05  0.2614371E+04  0.7818609E-02  0.8363336E-01
        1   -1    0    0  501    0  0.00000000000E+00  0.00000000000E+00  0.13097488889E+04  0.13097488889E+04  0.50400001928E-02 0. -1.
       -1   -1    0    0    0  501  0.00000000000E+00  0.00000000000E+00 -0.13046273077E+04  0.13046273077E+04  0.50400001928E-02 0.  1.
    10030    2    1    2    0    0  0.00000000000E+00  0.00000000000E+00  0.51215811825E+01  0.26143761966E+04  0.26143711799E+04 0.  0.
        4    1    3    3  502    0  0.62584839179E+03 -0.90815089223E+03  0.70420898628E+03  0.13085626320E+04  0.12699999809E+01 0. -1.
       -4    1    3    3    0  502 -0.62584839179E+03  0.90815089223E+03 -0.69908740509E+03  0.13058135646E+04  0.12699999809E+01 0.  1.
</event>
<event>
 5   0  0.1000421E-05  0.2595851E+04  0.7818609E-02  0.8369612E-01
        1   -1    0    0  501    0  0.00000000000E+00  0.00000000000E+00  0.12404685256E+04  0.12404685256E+04  0.50400001928E-02 0. -1.
       -1   -1    0    0    0  501  0.00000000000E+00  0.00000000000E+00 -0.13580437120E+04  0.13580437120E+04  0.50400001928E-02 0.  1.
    10030    2    1    2    0    0  0.00000000000E+00  0.00000000000E+00 -0.11757518642E+03  0.25985122377E+04  0.25958509057E+04 0.  0.
        3    1    3    3  502    0  0.73685647276E+03  0.38699695206E+02 -0.11276628776E+04  0.13476196435E+04  0.10100000352E+00 0.  1.
       -3    1    3    3    0  502 -0.73685647276E+03 -0.38699695206E+02  0.10100876912E+04  0.12508925941E+04  0.10100000352E+00 0. -1.
</event>
<event>
 5   0  0.2528460E-05  0.2579642E+04  0.7818609E-02  0.8375149E-01
       -2   -1    0    0    0  501  0.00000000000E+00  0.00000000000E+00  0.20972764894E+04  0.20972764894E+04  0.25500000920E-02 0. -1.
        2   -1    0    0  501    0  0.00000000000E+00  0.00000000000E+00 -0.79323759634E+03  0.79323759634E+03  0.25500000920E-02 0.  1.
    10030    2    1    2    0    0  0.00000000000E+00  0.00000000000E+00  0.13040388930E+04  0.28905140857E+04  0.25796422708E+04 0.  0.
        5    1    3    3  502    0 -0.20216318797E+03 -0.11863140670E+04  0.13197082424E+03  0.12106400821E+04  0.46999998093E+01 0. -1.
       -5    1    3    3    0  502  0.20216318797E+03  0.11863140670E+04  0.11720680688E+04  0.16798740036E+04  0.46999998093E+01 0.  1.
</event>
<event>
 5   0  0.2662024E-05  0.2509003E+04  0.7818609E-02  0.8399785E-01
        2   -1    0    0  501    0  0.00000000000E+00  0.00000000000E+00  0.20927446963E+04  0.20927446963E+04  0.25500000920E-02 0.  1.
       -2   -1    0    0    0  501  0.00000000000E+00  0.00000000000E+00 -0.75201432128E+03  0.75201432128E+03  0.25500000920E-02 0. -1.
    10030    2    1    2    0    0  0.00000000000E+00  0.00000000000E+00  0.13407303750E+04  0.28447590176E+04  0.25090029752E+04 0.  0.
        2    1    3    3  502    0 -0.30771696588E+03  0.80867983897E+03 -0.35955405229E+03  0.93698021835E+03  0.25500000920E-02 0. -1.
       -2    1    3    3    0  502  0.30771696588E+03 -0.80867983897E+03  0.17002844273E+04  0.19077787992E+04  0.25500000920E-02 0.  1.
</event>
<event>
 5   0  0.9855352E-06  0.2222551E+04  0.7818609E-02  0.8509100E-01
       -1   -1    0    0    0  501  0.00000000000E+00  0.00000000000E+00  0.88271429693E+03  0.88271429695E+03  0.50400001928E-02 0. -1.
        1   -1    0    0  501    0  0.00000000000E+00  0.00000000000E+00 -0.13990177604E+04  0.13990177604E+04  0.50400001928E-02 0.  1.
    10030    2    1    2    0    0  0.00000000000E+00  0.00000000000E+00 -0.51630346349E+03  0.22817320574E+04  0.22225507678E+04 0.  0.
        2    1    3    3  502    0 -0.33553759679E+03  0.16882885090E+03  0.81556745048E+03  0.89790808329E+03  0.25500000920E-02 0. -1.
       -2    1    3    3    0  502  0.33553759679E+03 -0.16882885090E+03 -0.13318709140E+04  0.13838239741E+04  0.25500000920E-02 0.  1.
</event>
<event>
 5   0  0.1025153E-05  0.2517467E+04  0.7818609E-02  0.8396789E-01
        1   -1    0    0  501    0  0.00000000000E+00  0.00000000000E+00  0.13873270211E+04  0.13873270211E+04  0.50400001928E-02 0. -1.
       -1   -1    0    0    0  501  0.00000000000E+00  0.00000000000E+00 -0.11420598318E+04  0.11420598318E+04  0.50400001928E-02 0.  1.
    10030    2    1    2    0    0  0.00000000000E+00  0.00000000000E+00  0.24526718924E+03  0.25293868529E+04  0.25174673499E+04 0.  0.
        1    1    3    3  502    0 -0.24893829170E+03 -0.25284689486E+03 -0.10907717768E+04  0.11470330834E+04  0.50400001928E-02 0.  1.
       -1    1    3    3    0  502  0.24893829170E+03  0.25284689486E+03  0.13360389660E+04  0.13823537695E+04  0.50400001928E-02 0. -1.
</event>
<event>
 5   0  0.1000421E-05  0.2614789E+04  0.7818609E-02  0.8363195E-01
        1   -1    0    0  501    0  0.00000000000E+00  0.00000000000E+00  0.22936392495E+04  0.22936392495E+04  0.50400001928E-02 0. -1.
       -1   -1    0    0    0  501  0.00000000000E+00  0.00000000000E+00 -0.74522623185E+03  0.74522623187E+03  0.50400001928E-02 0.  1.
    10030    2    1    2    0    0  0.00000000000E+00  0.00000000000E+00  0.15484130177E+04  0.30388654814E+04  0.26147888138E+04 0.  0.
        3    1    3    3  502    0  0.10659676974E+03  0.44842116219E+03  0.21960831714E+04  0.22439308625E+04  0.10100000352E+00 0. -1.
       -3    1    3    3    0  502 -0.10659676974E+03 -0.44842116219E+03 -0.64767015372E+03  0.79493461885E+03  0.10100000352E+00 0.  1.
</event>
<event>
 5   0  0.1025153E-05  0.2285185E+04  0.7818609E-02  0.8483785E-01
        1   -1    0    0  501    0  0.00000000000E+00  0.00000000000E+00  0.18207292499E+04  0.18207292499E+04  0.50400001928E-02 0.  1.
       -1   -1    0    0    0  501  0.00000000000E+00  0.00000000000E+00 -0.71703003506E+03  0.71703003508E+03  0.50400001928E-02 0. -1.
    10030    2    1    2    0    0  0.00000000000E+00  0.00000000000E+00  0.11036992149E+04  0.25377592850E+04  0.22851849448E+04 0.  0.
        1    1    3    3  502    0  0.70027330178E+03  0.90062221293E+03  0.48148661880E+03  0.12382780107E+04  0.50400001928E-02 0. -1.
       -1    1    3    3    0  502 -0.70027330178E+03 -0.90062221293E+03  0.62221259605E+03  0.12994812743E+04  0.50400001928E-02 0.  1.
</event>
<event>
 5   0  0.1005492E-05  0.2612239E+04  0.7818609E-02  0.8364056E-01
        1   -1    0    0  501    0  0.00000000000E+00  0.00000000000E+00  0.11858870890E+04  0.11858870890E+04  0.50400001928E-02 0. -1.
       -1   -1    0    0    0  501  0.00000000000E+00  0.00000000000E+00 -0.14385419925E+04  0.14385419925E+04  0.50400001928E-02 0.  1.
    10030    2    1    2    0    0  0.00000000000E+00  0.00000000000E+00 -0.25265490354E+03  0.26244290815E+04  0.26122391742E+04 0.  0.
        4    1    3    3  502    0 -0.11908523575E+04  0.53424368933E+03 -0.77097708378E+02  0.13074751724E+04  0.12699999809E+01 0.  1.
       -4    1    3    3    0  502  0.11908523575E+04 -0.53424368933E+03 -0.17555719516E+03  0.13169539091E+04  0.12699999809E+01 0. -1.
</event>
<event>
 5   0  0.1005492E-05  0.2592943E+04  0.7818609E-02  0.8370602E-01
        1   -1    0    0  501    0  0.00000000000E+00  0.00000000000E+00  0.52487226148E+03  0.52487226150E+03  0.50400001928E-02 0.  1.
       -1   -1    0    0    0  501  0.00000000000E+00  0.00000000000E+00 -0.32023765404E+04  0.32023765404E+04  0.50400001928E-02 0. -1.
    10030    2    1    2    0    0  0.00000000000E+00  0.00000000000E+00 -0.26775042789E+04  0.37272488019E+04  0.25929432056E+04 0.  0.
        4    1    3    3  502    0 -0.11931292169E+04 -0.40252597273E+03 -0.17823951157E+04  0.21823195110E+04  0.12699999809E+01 0. -1.
       -4    1    3    3    0  502  0.11931292169E+04  0.40252597273E+03 -0.89510916321E+03  0.15449292909E+04  0.12699999809E+01 0.  1.
</event>
<event>
 5   0  0.1000421E-05  0.2608060E+04  0.7818609E-02  0.8365469E-01
       -1   -1    0    0    0  501  0.00000000000E+00  0.00000000000E+00  0.11554442464E+04  0.11554442465E+04  0.50400001928E-02 0.  1.
        1   -1    0    0  501    0  0.00000000000E+00  0.00000000000E+00 -0.14717232745E+04  0.14717232745E+04  0.50400001928E-02 0. -1.
    10030    2    1    2    0    0  0.00000000000E+00  0.00000000000E+00 -0.31627902808E+03  0.26271675210E+04  0.26080599609E+04 0.  0.
        3    1    3    3  502    0  0.57284169671E+03 -0.54976411040E+03 -0.12001776005E+04  0.14390324769E+04  0.10100000352E+00 0. -1.
       -3    1    3    3    0  502 -0.57284169671E+03  0.54976411040E+03  0.88389857240E+03  0.11881350441E+04  0.10100000352E+00 0.  1.
</event>
<event>
 5   0  0.2662024E-05  0.2586070E+04  0.7818609E-02  0.8372948E-01
        2   -1    0    0  501    0  0.00000000000E+00  0.00000000000E+00  0.15116650245E+04  0.15116650245E+04  0.25500000920E-02 0. -1.
       -2   -1    0    0    0  501  0.00000000000E+00  0.00000000000E+00 -0.11060248338E+04  0.11060248338E+04  0.25500000920E-02 0.  1.
    10030    2    1    2    0    0  0.00000000000E+00  0.00000000000E+00  0.40564019074E+03  0.26176898583E+04  0.25860696491E+04 0.  0.
        2    1    3    3  502    0 -0.42520031178E+03  0.38037638329E+02 -0.10326348972E+04  0.11173974217E+04  0.25500000920E-02 0.  1.
       -2    1    3    3    0  502  0.42520031178E+03 -0.38037638329E+02  0.14382750879E+04  0.15002924367E+04  0.25500000920E-02 0. -1.
</event>
<event>
 5   0  0.1034714E-05  0.2575052E+04  0.7818609E-02  0.8376725E-01
       -1   -1    0    0    0  501  0.00000000000E+00  0.00000000000E+00  0.13687880349E+04  0.13687880349E+04  0.50400001928E-02 0.  1.
        1   -1    0    0  501    0  0.00000000000E+00  0.00000000000E+00 -0.12110882401E+04  0.12110882401E+04  0.50400001928E-02 0. -1.
    10030    2    1    2    0    0  0.00000000000E+00  0.00000000000E+00  0.15769979478E+03  0.25798762750E+04  0.25750519158E+04 0.  0.
        5    1    3    3  502    0 -0.11156920916E+04  0.28792896433E+03  0.65440775525E+03  0.13251201952E+04  0.46999998093E+01 0.  1.
       -5    1    3    3    0  502  0.11156920916E+04 -0.28792896433E+03 -0.49670796047E+03  0.12547560797E+04  0.46999998093E+01 0. -1.
</event>
<event>
 5   0  0.2555801E-05  0.2558079E+04  0.7818609E-02  0.8382582E-01
        2   -1    0    0  501    0  0.00000000000E+00  0.00000000000E+00  0.17467071663E+04  0.17467071663E+04  0.25500000920E-02 0.  1.
       -2   -1    0    0    0  501  0.00000000000E+00  0.00000000000E+00 -0.93658604838E+03  0.93658604839E+03  0.25500000920E-02 0. -1.
    10030    2    1    2    0    0  0.00000000000E+00  0.00000000000E+00  0.81012111795E+03  0.26832932147E+04  0.25580786248E+04 0.  0.
        1    1    3    3  502    0  0.16416325484E+03 -0.11661029379E+04 -0.11856967359E+03  0.11835558303E+04  0.50400001928E-02 0. -1.
       -1    1    3    3    0  502 -0.16416325484E+03  0.11661029379E+04  0.92869079154E+03  0.14997373844E+04  0.50400001928E-02 0.  1.
</event>
<event>
 5   0  0.1000421E-05  0.2478897E+04  0.7818609E-02  0.8410542E-01
        1   -1    0    0  501    0  0.00000000000E+00  0.00000000000E+00  0.66199680120E+03  0.66199680122E+03  0.50400001928E-02 0. -1.
       -1   -1    0    0    0  501  0.00000000000E+00  0.00000000000E+00 -0.23206043768E+04  0.23206043768E+04  0.50400001928E-02 0.  1.
    10030    2    1    2    0    0  0.00000000000E+00  0.00000000000E+00 -0.16586075756E+04  0.29826011780E+04  0.24788970728E+04 0.  0.
        3    1    3    3  502    0  0.77761488652E+03  0.64476347511E+03 -0.16934536565E+04  0.19718494231E+04  0.10100000352E+00 0.  1.
       -3    1    3    3    0  502 -0.77761488652E+03 -0.64476347511E+03  0.34846080839E+02  0.10107517549E+04  0.10100000352E+00 0. -1.
</event>
<event>
 5   0  0.2555801E-05  0.2596881E+04  0.7818609E-02  0.8369261E-01
        2   -1    0    0  501    0  0.00000000000E+00  0.00000000000E+00  0.16513848796E+04  0.16513848796E+04  0.25500000920E-02 0. -1.
       -2   -1    0    0    0  501  0.00000000000E+00  0.00000000000E+00 -0.10209297242E+04  0.10209297242E+04  0.25500000920E-02 0.  1.
    10030    2    1    2    0    0  0.00000000000E+00  0.00000000000E+00  0.63045515540E+03  0.26723146038E+04  0.25968811368E+04 0.  0.
        1    1    3    3  502    0  0.34544204851E+03 -0.10167010177E+04 -0.43600315112E+03  0.11589261910E+04  0.50400001928E-02 0.  1.
       -1    1    3    3    0  502 -0.34544204851E+03  0.10167010177E+04  0.10664583065E+04  0.15133884128E+04  0.50400001928E-02 0. -1.
</event>
<event>
 5   0  0.1025153E-05  0.2623395E+04  0.7818609E-02  0.8360298E-01
       -1   -1    0    0    0  501  0.00000000000E+00  0.00000000000E+00  0.16290874076E+04  0.16290874076E+04  0.50400001928E-02 0.  1.
        1   -1    0    0  501    0  0.00000000000E+00  0.00000000000E+00 -0.10561438857E+04  0.10561438857E+04  0.50400001928E-02 0. -1.
    10030    2    1    2    0    0  0.00000000000E+00  0.00000000000E+00  0.57294352189E+03  0.26852312933E+04  0.26233952846E+04 0.  0.
        1    1    3    3  502    0 -0.10008764774E+04 -0.15739287037E+03  0.11391896155E+04  0.15245586964E+04  0.50400001928E-02 0.  1.
       -1    1    3    3    0  502  0.10008764774E+04  0.15739287037E+03 -0.56624609361E+03  0.11606725969E+04  0.50400001928E-02 0. -1.
</event>
<event>
 5   0  0.2528460E-05  0.2606205E+04  0.7818609E-02  0.8366097E-01
        2   -1    0    0  501    0  0.00000000000E+00  0.00000000000E+00  0.17555088952E+04  0.17555088952E+04  0.25500000920E-02 0.  1.
       -2   -1    0    0    0  501  0.00000000000E+00  0.00000000000E+00 -0.96728395758E+03  0.96728395758E+03  0.25500000920E-02 0. -1.
    10030    2    1    2    0    0  0.00000000000E+00  0.00000000000E+00  0.78822493760E+03  0.27227928528E+04  0.26062045904E+04 0.  0.
        5    1    3    3  502    0 -0.58985553360E+03 -0.49618983362E+03 -0.70356517404E+03  0.10436282603E+04  0.46999998093E+01 0. -1.
       -5    1    3    3    0  502  0.58985553360E+03  0.49618983362E+03  0.14917901116E+04  0.16791645925E+04  0.46999998093E+01 0.  1.
</event>
<event>
 5   0  0.9855352E-06  0.2588048E+04  0.7818609E-02  0.8372272E-01
       -1   -1    0    0    0  501  0.00000000000E+00  0.00000000000E+00  0.90819689822E+03  0.90819689823E+03  0.50400001928E-02 0.  1.
        1   -1    0    0  501    0  0.00000000000E+00  0.00000000000E+00 -0.18437609585E+04  0.18437609585E+04  0.50400001928E-02 0. -1.
    10030    2    1    2    0    0  0.00000000000E+00  0.00000000000E+00 -0.93556406026E+03  0.27519578567E+04  0.25880479003E+04 0.  0.
        2    1    3    3  502    0  0.72132190381E+03  0.80526801436E+03  0.28840888383E+03  0.11189019386E+04  0.25500000920E-02 0.  1.
       -2    1    3    3    0  502 -0.72132190381E+03 -0.80526801436E+03 -0.12239729441E+04  0.16330559181E+04  0.25500000920E-02 0. -1.
</event>
<event>
 5   0  0.2484618E-05  0.2590323E+04  0.7818609E-02  0.8371496E-01
        2   -1    0    0  501    0  0.00000000000E+00  0.00000000000E+00  0.84930401644E+03  0.84930401645E+03  0.25500000920E-02 0. -1.
       -2   -1    0    0    0  501  0.00000000000E+00  0.00000000000E+00 -0.19750800880E+04  0.19750800880E+04  0.25500000920E-02 0.  1.
    10030    2    1    2    0    0  0.00000000000E+00  0.00000000000E+00 -0.11257760716E+04  0.28243841045E+04  0.25903231085E+04 0.  0.
        3    1    3    3  502    0  0.52159686595E+03 -0.11642820084E+04 -0.31949698236E+03  0.13151783976E+04  0.10100000352E+00 0.  1.
       -3    1    3    3    0  502 -0.52159686595E+03  0.11642820084E+04 -0.80627908924E+03  0.15092057069E+04  0.10100000352E+00 0. -1.
</event>
<event>
 5   0  0.2662024E-05  0.2593727E+04  0.7818609E-02  0.8370335E-01
        2   -1    0    0  501    0  0.00000000000E+00  0.00000000000E+00  0.13080890035E+04  0.13080890035E+04  0.25500000920E-02 0. -1.
       -2   -1    0    0    0  501  0.00000000000E+00  0.00000000000E+00 -0.12857345327E+04  0.12857345327E+04  0.25500000920E-02 0.  1.
    10030    2    1    2    0    0  0.00000000000E+00  0.00000000000E+00  0.22354470850E+02  0.25938235362E+04  0.25937272051E+04 0.  0.
        2    1    3    3  502    0  0.32747979147E+03 -0.42583852072E+03  0.11915912469E+04  0.13070849855E+04  0.25500000920E-02 0. -1.
       -2    1    3    3    0  502 -0.32747979147E+03  0.42583852072E+03 -0.11692367760E+04  0.12867385508E+04  0.25500000920E-02 0.  1.
</event>
<event>
 5   0  0.9855352E-06  0.2801981E+04  0.7818609E-02  0.8302654E-01
        1   -1    0    0  501    0  0.00000000000E+00  0.00000000000E+00  0.14553514047E+04  0.14553514048E+04  0.50400001928E-02 0.  1.
       -1   -1    0    0    0  501  0.00000000000E+00  0.00000000000E+00 -0.13486602927E+04  0.13486602927E+04  0.50400001928E-02 0. -1.
    10030    2    1    2    0    0  0.00000000000E+00  0.00000000000E+00  0.10669111209E+03  0.28040116974E+04  0.28019811930E+04 0.  0.
        2    1    3    3  502    0  0.35557365945E+03 -0.13545807973E+04  0.91489942749E+02  0.14034572218E+04  0.25500000920E-02 0.  1.
       -2    1    3    3    0  502 -0.35557365945E+03  0.13545807973E+04  0.15201169343E+02  0.14005544756E+04  0.25500000920E-02 0. -1.
</event>
<event>
 5   0  0.2528460E-05  0.2573047E+04  0.7818609E-02  0.8377414E-01
        2   -1    0    0  501    0  0.00000000000E+00  0.00000000000E+00  0.12266833800E+04  0.12266833800E+04  0.25500000920E-02 0. -1.
       -2   -1    0    0    0  501  0.00000000000E+00  0.00000000000E+00 -0.13492831110E+04  0.13492831110E+04  0.25500000920E-02 0.  1.
    10030    2    1    2    0    0  0.00000000000E+00  0.00000000000E+00 -0.12259973098E+03  0.25759664909E+04  0.25730473506E+04 0.  0.
        5    1    3    3  502    0 -0.46033585614E+03 -0.11916806207E+04  0.90889950089E+02  0.12807399717E+04  0.46999998093E+01 0.  1.
       -5    1    3    3    0  502  0.46033585614E+03  0.11916806207E+04 -0.21348968107E+03  0.12952265192E+04  0.46999998093E+01 0. -1.
</event>
<event>
 5   0  0.2528460E-05  0.2587769E+04  0.7818609E-02  0.8372368E-01
        2   -1    0    0  501    0  0.00000000000E+00  0.00000000000E+00  0.25244074632E+04  0.25244074632E+04  0.25500000920E-02 0.  1.
       -2   -1    0    0    0  501  0.00000000000E+00  0.00000000000E+00 -0.66318017880E+03  0.66318017881E+03  0.25500000920E-02 0. -1.
    10030    2    1    2    0    0  0.00000000000E+00  0.00000000000E+00  0.18612272844E+04  0.31875876420E+04  0.25877689177E+04 0.  0.
        5    1    3    3  502    0 -0.74890032816E+02 -0.13196895205E+02 -0.66041468464E+03  0.66479494639E+03  0.46999998093E+01 0. -1.
       -5    1    3    3    0  502  0.74890032816E+02  0.13196895205E+02  0.25216419690E+04  0.25227926956E+04  0.46999998093E+01 0.  1.
</event>
<event>
 5   0  0.2484618E-05  0.2600076E+04  0.7818609E-02  0.8368176E-01
       -2   -1    0    0    0  501  0.00000000000E+00  0.00000000000E+00  0.84014931398E+03  0.84014931398E+03  0.25500000920E-02 0.  1.
        2   -1    0    0  501    0  0.00000000000E+00  0.00000000000E+00 -0.20116641329E+04  0.20116641329E+04  0.25500000920E-02 0. -1.
    10030    2    1    2    0    0  0.00000000000E+00  0.00000000000E+00 -0.11715148189E+04  0.28518134468E+04  0.26000755690E+04 0.  0.
        3    1    3    3  502    0  0.13799474551E+03 -0.20207882536E+03 -0.19861771616E+04  0.20011941758E+04  0.10100000352E+00 0. -1.
       -3    1    3    3    0  502 -0.13799474551E+03  0.20207882536E+03  0.81466234275E+03  0.85061927109E+03  0.10100000352E+00 0.  1.
</event>
<event>
 5   0  0.2555801E-05  0.2605051E+04  0.7818609E-02  0.8366487E-01
       -2   -1    0    0    0  501  0.00000000000E+00  0.00000000000E+00  0.71788320716E+03  0.71788320717E+03  0.25500000920E-02 0. -1.
        2   -1    0    0  501    0  0.00000000000E+00  0.00000000000E+00 -0.23632997053E+04  0.23632997053E+04  0.25500000920E-02 0.  1.
    10030    2    1    2    0    0  0.00000000000E+00  0.00000000000E+00 -0.16454164981E+04  0.30811829124E+04  0.26050513791E+04 0.  0.
        1    1    3    3  502    0  0.73122167827E+03  0.65680303359E+03  0.18819744985E+03  0.10007465453E+04  0.50400001928E-02 0. -1.
       -1    1    3    3    0  502 -0.73122167827E+03 -0.65680303359E+03 -0.18336139480E+04  0.20804363672E+04  0.50400001928E-02 0.  1.
</event>
<event>
 5   0  0.1034714E-05  0.2670015E+04  0.7818609E-02  0.8344800E-01
       -1   -1    0    0    0  501  0.00000000000E+00  0.00000000000E+00  0.10690936285E+04  0.10690936285E+04  0.50400001928E-02 0. -1.
        1   -1    0    0  501    0  0.00000000000E+00  0.00000000000E+00 -0.16670611992E+04  0.16670611992E+04  0.50400001928E-02 0.  1.
    10030    2    1    2    0    0  0.00000000000E+00  0.00000000000E+00 -0.59796757069E+03  0.27361548277E+04  0.26700146115E+04 0.  0.
        5    1    3    3  502    0 -0.47385263688E+02 -0.12020394874E+04 -0.89218231821E+03  0.14977168195E+04  0.46999998093E+01 0.  1.
       -5    1    3    3    0  502  0.47385263688E+02  0.12020394874E+04  0.29421474752E+03  0.12384380082E+04  0.46999998093E+01 0. -1.
</event>
<event>
 5   0  0.1025153E-05  0.2415428E+04  0.7818609E-02  0.8433750E-01
       -1   -1    0    0    0  501  0.00000000000E+00  0.00000000000E+00  0.16365212037E+04  0.16365212037E+04  0.50400001928E-02 0.  1.
        1   -1    0    0  501    0  0.00000000000E+00  0.00000000000E+00 -0.89126423304E+03  0.89126423305E+03  0.50400001928E-02 0. -1.
    10030    2    1    2    0    0  0.00000000000E+00  0.00000000000E+00  0.74525697066E+03  0.25277854368E+04  0.24154277596E+04 0.  0.
        1    1    3    3  502    0 -0.55866614146E+03  0.49244723326E+03 -0.62236657437E+03  0.97054226496E+03  0.50400001928E-02 0. -1.
       -1    1    3    3    0  502  0.55866614146E+03 -0.49244723326E+03  0.13676235450E+04  0.15572431718E+04  0.50400001928E-02 0.  1.
</event>
<event>
 5   0  0.2662024E-05  0.2612283E+04  0.7818609E-02  0.8364041E-01
        2   -1    0    0  501    0  0.00000000000E+00  0.00000000000E+00  0.12411578596E+04  0.12411578596E+04  0.25500000920E-02 0.  1.
       -2   -1    0    0    0  501  0.00000000000E+00  0.00000000000E+00 -0.13745272278E+04  0.13745272278E+04  0.25500000920E-02 0. -1.
    10030    2    1    2    0    0  0.00000000000E+00  0.00000000000E+00 -0.13336936821E+03  0.26156850874E+04  0.26122827351E+04 0.  0.
        2    1    3    3  502    0 -0.18945364411E+03  0.38685098039E+03 -0.13013595857E+04  0.13707965332E+04  0.25500000920E-02 0. -1.
       -2    1    3    3    0  502  0.18945364411E+03 -0.38685098039E+03  0.11679902175E+04  0.12448885542E+04  0.25500000920E-02 0.  1.
</event>
<event>
 5   0  0.9855352E-06  0.2195045E+04  0.7818609E-02  0.8520493E-01
        1   -1    0    0  501    0  0.00000000000E+00  0.00000000000E+00  0.10012301499E+04  0.10012301499E+04  0.50400001928E-02 0. -1.
       -1   -1    0    0    0  501  0.00000000000E+00  0.00000000000E+00 -0.12030754113E+04  0.12030754113E+04  0.50400001928E-02 0.  1.
    10030    2    1    2    0    0  0.00000000000E+00  0.00000000000E+00 -0.20184526145E+03  0.22043055612E+04  0.21950447598E+04 0.  0.
        2    1    3    3  502    0  0.67305473139E+03  0.84563263387E+02 -0.96734989648E+03  0.11814903466E+04  0.25500000920E-02 0.  1.
       -2    1    3    3    0  502 -0.67305473139E+03 -0.84563263387E+02  0.76550463503E+03  0.10228152146E+04  0.25500000920E-02 0. -1.
</event>
<event>
 5   0  0.2484618E-05  0.2588737E+04  0.7818609E-02  0.8372037E-01
        2   -1    0    0  501    0  0.00000000000E+00  0.00000000000E+00  0.15747221203E+04  0.15747221203E+04  0.25500000920E-02 0. -1.
       -2   -1    0    0    0  501  0.00000000000E+00  0.00000000000E+00 -0.10639273510E+04  0.10639273510E+04  0.25500000920E-02 0.  1.
    10030    2    1    2    0    0  0.00000000000E+00  0.00000000000E+00  0.51079476927E+03  0.26386494713E+04  0.25887370928E+04 0.  0.
        3    1    3    3  502    0 -0.77126838726E+02  0.12100656625E+04 -0.20630687094E+03  0.12299471501E+04  0.10100000352E+00 0.  1.
       -3    1    3    3    0  502  0.77126838726E+02 -0.12100656625E+04  0.71710164021E+03  0.14087023211E+04  0.10100000352E+00 0. -1.
</event>
<event>
 5   0  0.2528460E-05  0.2595064E+04  0.7818609E-02  0.8369880E-01
        2   -1    0    0  501    0  0.00000000000E+00  0.00000000000E+00  0.16052859482E+04  0.16052859482E+04  0.25500000920E-02 0.  1.
       -2   -1    0    0    0  501  0.00000000000E+00  0.00000000000E+00 -0.10487787610E+04  0.10487787610E+04  0.25500000920E-02 0. -1.
    10030    2    1    2    0    0  0.00000000000E+00  0.00000000000E+00  0.55650718719E+03  0.26540647092E+04  0.25950643983E+04 0.  0.
        5    1    3    3  502    0 -0.39522440038E+03  0.66905485405E+03 -0.78447202879E+03  0.11041988853E+04  0.46999998093E+01 0. -1.
       -5    1    3    3    0  502  0.39522440038E+03 -0.66905485405E+03  0.13409792160E+04  0.15498658239E+04  0.46999998093E+01 0.  1.
</event>
<event>
 5   0  0.1000421E-05  0.2536741E+04  0.7818609E-02  0.8390012E-01
        1   -1    0    0  501    0  0.00000000000E+00  0.00000000000E+00  0.13278028633E+04  0.13278028633E+04  0.50400001928E-02 0. -1.
       -1   -1    0    0    0  501  0.00000000000E+00  0.00000000000E+00 -0.12115985769E+04  0.12115985769E+04  0.50400001928E-02 0.  1.
    10030    2    1    2    0    0  0.00000000000E+00  0.00000000000E+00  0.11620428644E+03  0.25394014402E+04  0.25367412636E+04 0.  0.
        3    1    3    3  502    0 -0.58731615349E+03  0.11227010069E+04  0.22042580209E-01  0.12670429455E+04  0.10100000352E+00 0. -1.
       -3    1    3    3    0  502  0.58731615349E+03 -0.11227010069E+04  0.11618224386E+03  0.12723584947E+04  0.10100000352E+00 0.  1.
</event>
<event>
 5   0  0.1034714E-05  0.2607554E+04  0.7818609E-02  0.8365640E-01
       -1   -1    0    0    0  501  0.00000000000E+00  0.00000000000E+00  0.18396422168E+04  0.18396422168E+04  0.50400001928E-02 0. -1.
        1   -1    0    0  501    0  0.00000000000E+00  0.00000000000E+00 -0.92400241783E+03  0.92400241785E+03  0.50400001928E-02 0.  1.
    10030    2    1    2    0    0  0.00000000000E+00  0.00000000000E+00  0.91563979895E+03  0.27636446346E+04  0.26075535326E+04 0.  0.
        5    1    3    3  502    0 -0.42364446760E+03  0.10835586842E+04 -0.16582323819E+03  0.11751993420E+04  0.46999998093E+01 0.  1.
       -5    1    3    3    0  502  0.42364446760E+03 -0.10835586842E+04  0.10814630371E+04  0.15884452927E+04  0.46999998093E+01 0. -1.
</event>
<event>
 5   0  0.2555801E-05  0.2614395E+04  0.7818609E-02  0.8363328E-01
       -2   -1    0    0    0  501  0.00000000000E+00  0.00000000000E+00  0.85157365274E+03  0.85157365275E+03  0.25500000920E-02 0. -1.
        2   -1    0    0  501    0  0.00000000000E+00  0.00000000000E+00 -0.20065969501E+04  0.20065969501E+04  0.25500000920E-02 0.  1.
    10030    2    1    2    0    0  0.00000000000E+00  0.00000000000E+00 -0.11550232973E+04  0.28581706028E+04  0.26143948396E+04 0.  0.
        1    1    3    3  502    0 -0.17155597522E+03 -0.64436717311E+03  0.65165823177E+03  0.93236203133E+03  0.50400001928E-02 0. -1.
       -1    1    3    3    0  502  0.17155597522E+03  0.64436717311E+03 -0.18066815291E+04  0.19258085715E+04  0.50400001928E-02 0.  1.
</event>
<event>
 5   0  0.2517854E-05  0.2593880E+04  0.7818609E-02  0.8370283E-01
       -2   -1    0    0    0  501  0.00000000000E+00  0.00000000000E+00  0.12598115760E+04  0.12598115760E+04  0.25500000920E-02 0.  1.
        2   -1    0    0  501    0  0.00000000000E+00  0.00000000000E+00 -0.13351630800E+04  0.13351630800E+04  0.25500000920E-02 0. -1.
    10030    2    1    2    0    0  0.00000000000E+00  0.00000000000E+00 -0.75351504037E+02  0.25949746560E+04  0.25938804167E+04 0.  0.
        4    1    3    3  502    0  0.92872970956E+03 -0.60609492913E+03  0.63503810113E+03  0.12779534183E+04  0.12699999809E+01 0.  1.
       -4    1    3    3    0  502 -0.92872970956E+03  0.60609492913E+03 -0.71038960517E+03  0.13170212377E+04  0.12699999809E+01 0. -1.
</event>
<event>
 5   0  0.9855352E-06  0.2592174E+04  0.7818609E-02  0.8370864E-01
        1   -1    0    0  501    0  0.00000000000E+00  0.00000000000E+00  0.18956179206E+04  0.18956179206E+04  0.50400001928E-02 0.  1.
       -1   -1    0    0    0  501  0.00000000000E+00  0.00000000000E+00 -0.88617072190E+03  0.88617072192E+03  0.50400001928E-02 0. -1.
    10030    2    1    2    0    0  0.00000000000E+00  0.00000000000E+00  0.10094471987E+04  0.27817886425E+04  0.25921736833E+04 0.  0.
        2    1    3    3  502    0  0.10485632875E+04  0.57499810344E+03  0.10410118384E+04  0.15855010043E+04  0.25500000920E-02 0.  1.
       -2    1    3    3    0  502 -0.10485632875E+04 -0.57499810344E+03 -0.31564639710E+02  0.11962876382E+04  0.25500000920E-02 0. -1.
</event>
<event>
 5   0  0.1005492E-05  0.2645936E+04  0.7818609E-02  0.8352763E-01
       -1   -1    0    0    0  501  0.00000000000E+00  0.00000000000E+00  0.85513579321E+03  0.85513579323E+03  0.50400001928E-02 0.  1.
        1   -1    0    0  501    0  0.00000000000E+00  0.00000000000E+00 -0.20467443741E+04  0.20467443742E+04  0.50400001928E-02 0. -1.
    10030    2    1    2    0    0  0.00000000000E+00  0.00000000000E+00 -0.11916085809E+04  0.29018801674E+04  0.26459360339E+04 0.  0.
        4    1    3    3  502    0  0.48217003259E+03  0.14891095087E+03  0.74543111320E+03  0.90018418618E+03  0.12699999809E+01 0.  1.
       -4    1    3    3    0  502 -0.48217003259E+03 -0.14891095087E+03 -0.19370396941E+04  0.20016959812E+04  0.12699999809E+01 0. -1.
</event>
<event>
 5   0  0.2484618E-05  0.2489138E+04  0.7818609E-02  0.8406865E-01
       -2   -1    0    0    0  501  0.00000000000E+00  0.00000000000E+00  0.90642547048E+03  0.90642547048E+03  0.25500000920E-02 0.  1.
        2   -1    0    0  501    0  0.00000000000E+00  0.00000000000E+00 -0.17088573491E+04  0.17088573491E+04  0.25500000920E-02 0. -1.
    10030    2    1    2    0    0  0.00000000000E+00  0.00000000000E+00 -0.80243187866E+03  0.26152828196E+04  0.24891378641E+04 0.  0.
        3    1    3    3  502    0  0.27368584870E+03 -0.96356927196E+03 -0.11772839431E+04  0.15457578007E+04  0.10100000352E+00 0. -1.
       -3    1    3    3    0  502 -0.27368584870E+03  0.96356927196E+03  0.37485206443E+03  0.10695250189E+04  0.10100000352E+00 0.  1.
</event>
<event>
 5   0  0.1025153E-05  0.2614856E+04  0.7818609E-02  0.8363172E-01
        1   -1    0    0  501    0  0.00000000000E+00  0.00000000000E+00  0.10527356421E+04  0.10527356421E+04  0.50400001928E-02 0.  1.
       -1   -1    0    0    0  501  0.00000000000E+00  0.00000000000E+00 -0.16237387592E+04  0.16237387592E+04  0.50400001928E-02 0. -1.
    10030    2    1    2    0    0  0.00000000000E+00  0.00000000000E+00 -0.57100311711E+03  0.26764744013E+04  0.26148557630E+04 0.  0.
        1    1    3    3  502    0 -0.19716555871E+03  0.12062194127E+04  0.18968849611E+03  0.12368594321E+04  0.50400001928E-02 0. -1.
       -1    1    3    3    0  502  0.19716555871E+03 -0.12062194127E+04 -0.76069161323E+03  0.14396149692E+04  0.50400001928E-02 0.  1.
</event>
<event>
 5   0  0.2528460E-05  0.2556917E+04  0.7818609E-02  0.8382985E-01
        2   -1    0    0  501    0  0.00000000000E+00  0.00000000000E+00  0.19603568657E+04  0.19603568657E+04  0.25500000920E-02 0. -1.
       -2   -1    0    0    0  501  0.00000000000E+00  0.00000000000E+00 -0.83375434197E+03  0.83375434197E+03  0.25500000920E-02 0.  1.
    10030    2    1    2    0    0  0.00000000000E+00  0.00000000000E+00  0.11266025238E+04  0.27941112077E+04  0.25569169315E+04 0.  0.
        5    1    3    3  502    0 -0.75940840909E+03 -0.13938198576E+03 -0.55019725599E+03  0.94808627258E+03  0.46999998093E+01 0.  1.
       -5    1    3    3    0  502  0.75940840909E+03  0.13938198576E+03  0.16767997798E+04  0.18460249351E+04  0.46999998093E+01 0. -1.
</event>
<event>
 5   0  0.9855352E-06  0.2636570E+04  0.7818609E-02  0.8355884E-01
        1   -1    0    0  501    0  0.00000000000E+00  0.00000000000E+00  0.22534840929E+04  0.22534840929E+04  0.50400001928E-02 0.  1.
       -1   -1    0    0    0  501  0.00000000000E+00  0.00000000000E+00 -0.77119479817E+03  0.77119479819E+03  0.50400001928E-02 0. -1.
    10030    2    1    2    0    0  0.00000000000E+00  0.00000000000E+00  0.14822892947E+04  0.30246788911E+04  0.26365699006E+04 0.  0.
        2    1    3    3  502    0 -0.51041417501E+02  0.10234106783E+04  0.16926315609E+04  0.19786298905E+04  0.25500000920E-02 0.  1.
       -2    1    3    3    0  502  0.51041417501E+02 -0.10234106783E+04 -0.21034226616E+03  0.10460490006E+04  0.25500000920E-02 0. -1.
</event>
<event>
 5   0  0.2555801E-05  0.2627131E+04  0.7818609E-02  0.8359043E-01
       -2   -1    0    0    0  501  0.00000000000E+00  0.00000000000E+00  0.15809043348E+04  0.15809043348E+04  0.25500000920E-02 0. -1.
        2   -1    0    0  501    0  0.00000000000E+00  0.00000000000E+00 -0.10914353411E+04  0.10914353411E+04  0.25500000920E-02 0.  1.
    10030    2    1    2    0    0  0.00000000000E+00  0.00000000000E+00  0.48946899368E+03  0.26723396759E+04  0.26271314104E+04 0.  0.
        1    1    3    3  502    0 -0.24558223920E+02 -0.11486812804E+04 -0.40291892898E+03  0.12175448467E+04  0.50400001928E-02 0.  1.
       -1    1    3    3    0  502  0.24558223920E+02  0.11486812804E+04  0.89238792266E+03  0.14547948292E+04  0.50400001928E-02 0. -1.
</event>
<event>
 5   0  0.2662024E-05  0.2591097E+04  0.7818609E-02  0.8371232E-01
        2   -1    0    0  501    0  0.00000000000E+00  0.00000000000E+00  0.17876264245E+04  0.17876264245E+04  0.25500000920E-02 0. -1.
       -2   -1    0    0    0  501  0.00000000000E+00  0.00000000000E+00 -0.93892412268E+03  0.93892412269E+03  0.25500000920E-02 0.  1.
    10030    2    1    2    0    0  0.00000000000E+00  0.00000000000E+00  0.84870230182E+03  0.27265505472E+04  0.25910967348E+04 0.  0.
        2    1    3    3  502    0 -0.11011711236E+04  0.37596202551E+03  0.10237982326E+04  0.15498671263E+04  0.25500000920E-02 0. -1.
       -2    1    3    3    0  502  0.11011711236E+04 -0.37596202551E+03 -0.17509593073E+03  0.11766834209E+04  0.25500000920E-02 0.  1.
</event>
<event>
 5   0  0.8605000E-06  0.2540807E+04  0.7818609E-02  0.8388590E-01
       -3   -1    0    0    0  501  0.00000000000E+00  0.00000000000E+00  0.25271328866E+04  0.25271328886E+04  0.10100000352E+00 0.  1.
        3   -1    0    0  501    0  0.00000000000E+00  0.00000000000E+00 -0.63863895800E+03  0.63863896599E+03  0.10100000352E+00 0. -1.
    10030    2    1    2    0    0  0.00000000000E+00  0.00000000000E+00  0.18884939286E+04  0.31657718546E+04  0.25408073750E+04 0.  0.
        4    1    3    3  502    0  0.20817967513E+03  0.25559134139E+03 -0.58442173791E+03  0.67098143907E+03  0.12699999809E+01 0. -1.
       -4    1    3    3    0  502 -0.20817967513E+03 -0.25559134139E+03  0.24729156665E+04  0.24947904155E+04  0.12699999809E+01 0.  1.
</event>
<event>
 5   0  0.1005492E-05  0.2624765E+04  0.7818609E-02  0.8359838E-01
        1   -1    0    0  501    0  0.00000000000E+00  0.00000000000E+00  0.23108371702E+04  0.23108371702E+04  0.50400001928E-02 0. -1.
       -1   -1    0    0    0  501  0.00000000000E+00  0.00000000000E+00 -0.74533483297E+03  0.74533483298E+03  0.50400001928E-02 0.  1.
    10030    2    1    2    0    0  0.00000000000E+00  0.00000000000E+00  0.15655023373E+04  0.30561720032E+04  0.26247647028E+04 0.  0.
        4    1    3    3  502    0 -0.23316535502E+03 -0.12794929973E+04  0.57815012175E+03  0.14232805729E+04  0.12699999809E+01 0.  1.
       -4    1    3    3    0  502  0.23316535502E+03  0.12794929973E+04  0.98735221551E+03  0.16328914303E+04  0.12699999809E+01 0. -1.
</event>
<event>
 5   0  0.2517854E-05  0.2601427E+04  0.7818609E-02  0.8367717E-01
       -2   -1    0    0    0  501  0.00000000000E+00  0.00000000000E+00  0.31993327910E+04  0.31993327910E+04  0.25500000920E-02 0.  1.
        2   -1    0    0  501    0  0.00000000000E+00  0.00000000000E+00 -0.52881496299E+03  0.52881496299E+03  0.25500000920E-02 0. -1.
    10030    2    1    2    0    0  0.00000000000E+00  0.00000000000E+00  0.26705178280E+04  0.37281477540E+04  0.26014265713E+04 0.  0.
        4    1    3    3  502    0 -0.72725590606E+03  0.10783872667E+04  0.13435150497E+04  0.18699878479E+04  0.12699999809E+01 0.  1.
       -4    1    3    3    0  502  0.72725590606E+03 -0.10783872667E+04  0.13270027784E+04  0.18581599061E+04  0.12699999809E+01 0. -1.
</event>
<event>
 5   0  0.2528460E-05  0.2530032E+04  0.7818609E-02  0.8392364E-01
        2   -1    0    0  501    0  0.00000000000E+00  0.00000000000E+00  0.19619055572E+04  0.19619055572E+04  0.25500000920E-02 0.  1.
       -2   -1    0    0    0  501  0.00000000000E+00  0.00000000000E+00 -0.81566878239E+03  0.81566878240E+03  0.25500000920E-02 0. -1.
    10030    2    1    2    0    0  0.00000000000E+00  0.00000000000E+00  0.11462367748E+04  0.27775743396E+04  0.25300317129E+04 0.  0.
        5    1    3    3  502    0 -0.55561041637E+03 -0.56343532007E+03  0.16566390630E+04  0.18359295656E+04  0.46999998093E+01 0.  1.
       -5    1    3    3    0  502  0.55561041637E+03  0.56343532007E+03 -0.51040228819E+03  0.94164477403E+03  0.46999998093E+01 0. -1.
</event>
<event>
 5   0  0.1025153E-05  0.2525069E+04  0.7818609E-02  0.8394109E-01
       -1   -1    0    0    0  501  0.00000000000E+00  0.00000000000E+00  0.11888697641E+04  0.11888697641E+04  0.50400001928E-02 0. -1.
        1   -1    0    0  501    0  0.00000000000E+00  0.00000000000E+00 -0.13407634558E+04  0.13407634558E+04  0.50400001928E-02 0.  1.
    10030    2    1    2    0    0  0.00000000000E+00  0.00000000000E+00 -0.15189369170E+03  0.25296332200E+04  0.25250688177E+04 0.  0.
        1    1    3    3  502    0 -0.76077825213E+02 -0.45422388084E+03 -0.12536082445E+04  0.13355301569E+04  0.50400001928E-02 0.  1.
       -1    1    3    3    0  502  0.76077825213E+02  0.45422388084E+03  0.11017145528E+04  0.11941030631E+04  0.50400001928E-02 0. -1.
</event>
<event>
 5   0  0.2517854E-05  0.2513371E+04  0.7818609E-02  0.8398238E-01
        2   -1    0    0  501    0  0.00000000000E+00  0.00000000000E+00  0.17114760862E+04  0.17114760862E+04  0.25500000920E-02 0. -1.
       -2   -1    0    0    0  501  0.00000000000E+00  0.00000000000E+00 -0.92274615173E+03  0.92274615173E+03  0.25500000920E-02 0.  1.
    10030    2    1    2    0    0  0.00000000000E+00  0.00000000000E+00  0.78872993447E+03  0.26342222379E+04  0.25133706231E+04 0.  0.
        4    1    3    3  502    0  0.74221305228E+03 -0.96997659567E+03  0.70443041488E+03  0.14099498691E+04  0.12699999809E+01 0. -1.
       -4    1    3    3    0  502 -0.74221305228E+03  0.96997659567E+03  0.84299519583E+02  0.12242723688E+04  0.12699999809E+01 0.  1.
</event>
<event>
 5   0  0.1000421E-05  0.2616411E+04  0.7818609E-02  0.8362648E-01
       -1   -1    0    0    0  501  0.00000000000E+00  0.00000000000E+00  0.88109508424E+03  0.88109508425E+03  0.50400001928E-02 0. -1.
        1   -1    0    0  501    0  0.00000000000E+00  0.00000000000E+00 -0.19423579279E+04  0.19423579279E+04  0.50400001928E-02 0.  1.
    10030    2    1    2    0    0  0.00000000000E+00  0.00000000000E+00 -0.10612628437E+04  0.28234530122E+04  0.26164112996E+04 0.  0.
        3    1    3    3  502    0  0.85185418781E+03  0.10678763447E+03  0.53456684491E+03  0.10113460723E+04  0.10100000352E+00 0. -1.
       -3    1    3    3    0  502 -0.85185418781E+03 -0.10678763447E+03 -0.15958296886E+04  0.18121069398E+04  0.10100000352E+00 0.  1.
</event>
<event>
 5   0  0.9855352E-06  0.2605939E+04  0.7818609E-02  0.8366187E-01
       -1   -1    0    0    0  501  0.00000000000E+00  0.00000000000E+00  0.10504929389E+04  0.10504929389E+04  0.50400001928E-02 0.  1.
        1   -1    0    0  501    0  0.00000000000E+00  0.00000000000E+00 -0.16161267896E+04  0.16161267896E+04  0.50400001928E-02 0. -1.
    10030    2    1    2    0    0  0.00000000000E+00  0.00000000000E+00 -0.56563385073E+03  0.26666197285E+04  0.26059392018E+04 0.  0.
        2    1    3    3  502    0  0.65997193930E+03 -0.19300332021E+03  0.84971396883E+03  0.10930814568E+04  0.25500000920E-02 0.  1.
       -2    1    3    3    0  502 -0.65997193930E+03  0.19300332021E+03 -0.14153478196E+04  0.15735382717E+04  0.25500000920E-02 0. -1.
</event>
<event>
 5   0  0.9855352E-06  0.2615789E+04  0.7818609E-02  0.8362858E-01
        1   -1    0    0  501    0  0.00000000000E+00  0.00000000000E+00  0.12208691747E+04  0.12208691747E+04  0.50400001928E-02 0. -1.
       -1   -1    0    0    0  501  0.00000000000E+00  0.00000000000E+00 -0.14011228398E+04  0.14011228398E+04  0.50400001928E-02 0.  1.
    10030    2    1    2    0    0  0.00000000000E+00  0.00000000000E+00 -0.18025366516E+03  0.26219920145E+04  0.26157887416E+04 0.  0.
        2    1    3    3  502    0  0.18285519525E+03  0.35066317104E+03  0.11594999795E+04  0.12250881129E+04  0.25500000920E-02 0. -1.
       -2    1    3    3    0  502 -0.18285519525E+03 -0.35066317104E+03 -0.13397536447E+04  0.13969039016E+04  0.25500000920E-02 0.  1.
</event>
<event>
 5   0  0.1025153E-05  0.2573862E+04  0.7818609E-02  0.8377134E-01
        1   -1    0    0  501    0  0.00000000000E+00  0.00000000000E+00  0.10634628185E+04  0.10634628185E+04  0.50400001928E-02 0. -1.
       -1   -1    0    0    0  501  0.00000000000E+00  0.00000000000E+00 -0.15573574183E+04  0.15573574183E+04  0.50400001928E-02 0.  1.
    10030    2    1    2    0    0  0.00000000000E+00  0.00000000000E+00 -0.49389459977E+03  0.26208202368E+04  0.25738622414E+04 0.  0.
        1    1    3    3  502    0 -0.85252456460E+03  0.18849068769E+03  0.71574580504E+03  0.11289902258E+04  0.50400001928E-02 0. -1.
       -1    1    3    3    0  502  0.85252456460E+03 -0.18849068769E+03 -0.12096404048E+04  0.14918300109E+04  0.50400001928E-02 0.  1.
</event>
<event>
 5   0  0.1034714E-05  0.2689089E+04  0.7818609E-02  0.8338554E-01
        1   -1    0    0  501    0  0.00000000000E+00  0.00000000000E+00  0.11750999798E+04  0.11750999798E+04  0.50400001928E-02 0. -1.
       -1   -1    0    0    0  501  0.00000000000E+00  0.00000000000E+00 -0.15384218291E+04  0.15384218291E+04  0.50400001928E-02 0.  1.
    10030    2    1    2    0    0  0.00000000000E+00  0.00000000000E+00 -0.36332184931E+03  0.27135218089E+04  0.26890886637E+04 0.  0.
        5    1    3    3  502    0 -0.23679848526E+03 -0.21252219173E+03 -0.14998757671E+04  0.15332607773E+04  0.46999998093E+01 0.  1.
       -5    1    3    3    0  502  0.23679848526E+03  0.21252219173E+03  0.11365539178E+04  0.11802610316E+04  0.46999998093E+01 0. -1.
</event>
<event>
 5   0  0.9855352E-06  0.2591758E+04  0.7818609E-02  0.8371006E-01
       -1   -1    0    0    0  501  0.00000000000E+00  0.00000000000E+00  0.10231805025E+04  0.10231805025E+04  0.50400001928E-02 0. -1.
        1   -1    0    0  501    0  0.00000000000E+00  0.00000000000E+00 -0.16412574832E+04  0.16412574833E+04  0.50400001928E-02 0.  1.
    10030    2    1    2    0    0  0.00000000000E+00  0.00000000000E+00 -0.61807698079E+03  0.26644379857E+04  0.25917582113E+04 0.  0.
        2    1    3    3  502    0 -0.81868340780E+02 -0.42945220910E+03  0.94507707060E+03  0.10412983696E+04  0.25500000920E-02 0. -1.
       -2    1    3    3    0  502  0.81868340780E+02  0.42945220910E+03 -0.15631540514E+04  0.16231396161E+04  0.25500000920E-02 0.  1.
</event>
<event>
 5   0  0.2517854E-05  0.2618281E+04  0.7818609E-02  0.8362018E-01
       -2   -1    0    0    0  501  0.00000000000E+00  0.00000000000E+00  0.12474922463E+04  0.12474922463E+04  0.25500000920E-02 0. -1.
        2   -1    0    0  501    0  0.00000000000E+00  0.00000000000E+00 -0.13738355923E+04  0.13738355923E+04  0.25500000920E-02 0.  1.
    10030    2    1    2    0    0  0.00000000000E+00  0.00000000000E+00 -0.12634334593E+03  0.26213278386E+04  0.26182813058E+04 0.  0.
        4    1    3    3  502    0 -0.12017859821E+04  0.29915386151E+03  0.36166280541E+03  0.12901876520E+04  0.12699999809E+01 0. -1.
       -4    1    3    3    0  502  0.12017859821E+04 -0.29915386151E+03 -0.48800615135E+03  0.13311401866E+04  0.12699999809E+01 0.  1.
</event>
<event>
 5   0  0.2517854E-05  0.2606743E+04  0.7818609E-02  0.8365914E-01
       -2   -1    0    0    0  501  0.00000000000E+00  0.00000000000E+00  0.70534901199E+03  0.70534901200E+03  0.25500000920E-02 0. -1.
        2   -1    0    0  501    0  0.00000000000E+00  0.00000000000E+00 -0.24084210807E+04  0.24084210807E+04  0.25500000920E-02 0.  1.
    10030    2    1    2    0    0  0.00000000000E+00  0.00000000000E+00 -0.17030720687E+04  0.31137700927E+04  0.26067431248E+04 0.  0.
        4    1    3    3  502    0 -0.31201078908E+03  0.10176277850E+04 -0.17500862111E+04  0.20483457717E+04  0.12699999809E+01 0.  1.
       -4    1    3    3    0  502  0.31201078908E+03 -0.10176277850E+04  0.47014142400E+02  0.10654243210E+04  0.12699999809E+01 0. -1.
</event>
<event>
 5   0  0.2555801E-05  0.2604408E+04  0.7818609E-02  0.8366705E-01
       -2   -1    0    0    0  501  0.00000000000E+00  0.00000000000E+00  0.24213862084E+04  0.24213862084E+04  0.25500000920E-02 0.  1.
        2   -1    0    0  501    0  0.00000000000E+00  0.00000000000E+00 -0.70031608786E+03  0.70031608787E+03  0.25500000920E-02 0. -1.
    10030    2    1    2    0    0  0.00000000000E+00  0.00000000000E+00  0.17210701205E+04  0.31217022962E+04  0.26044083525E+04 0.  0.
        1    1    3    3  502    0 -0.29065957146E+03 -0.27308875266E+03  0.23463798800E+04  0.23800334020E+04  0.50400001928E-02 0.  1.
       -1    1    3    3    0  502  0.29065957146E+03  0.27308875266E+03 -0.62530975951E+03  0.74166889423E+03  0.50400001928E-02 0. -1.
</event>
<event>
 5   0  0.1005492E-05  0.2605924E+04  0.7818609E-02  0.8366192E-01
        1   -1    0    0  501    0  0.00000000000E+00  0.00000000000E+00  0.14130110697E+04  0.14130110697E+04  0.50400001928E-02 0.  1.
       -1   -1    0    0    0  501  0.00000000000E+00  0.00000000000E+00 -0.12014841279E+04  0.12014841279E+04  0.50400001928E-02 0. -1.
    10030    2    1    2    0    0  0.00000000000E+00  0.00000000000E+00  0.21152694185E+03  0.26144951976E+04  0.26059243065E+04 0.  0.
        4    1    3    3  502    0  0.48111909973E+03  0.11899844367E+04 -0.11896030340E+03  0.12890662180E+04  0.12699999809E+01 0. -1.
       -4    1    3    3    0  502 -0.48111909973E+03 -0.11899844367E+04  0.33048724525E+03  0.13254289796E+04  0.12699999809E+01 0.  1.
</event>
<event>
 5   0  0.1005492E-05  0.2586489E+04  0.7818609E-02  0.8372805E-01
        1   -1    0    0  501    0  0.00000000000E+00  0.00000000000E+00  0.17977183335E+04  0.17977183335E+04  0.50400001928E-02 0. -1.
       -1   -1    0    0    0  501  0.00000000000E+00  0.00000000000E+00 -0.93033545575E+03  0.93033545576E+03  0.50400001928E-02 0.  1.
    10030    2    1    2    0    0  0.00000000000E+00  0.00000000000E+00  0.86738287774E+03  0.27280537893E+04  0.25864888209E+04 0.  0.
        4    1    3    3  502    0 -0.80555654128E+03 -0.71877390217E+03 -0.31726196670E+03  0.11252617616E+04  0.12699999809E+01 0.  1.
       -4    1    3    3    0  502  0.80555654128E+03  0.71877390217E+03  0.11846448444E+04  0.16027920277E+04  0.12699999809E+01 0. -1.
</event>
<event>
 5   0  0.2528460E-05  0.2586294E+04  0.7818609E-02  0.8372872E-01
        2   -1    0    0  501    0  0.00000000000E+00  0.00000000000E+00  0.10197697702E+04  0.10197697702E+04  0.25500000920E-02 0. -1.
       -2   -1    0    0    0  501  0.00000000000E+00  0.00000000000E+00 -0.16398107464E+04  0.16398107464E+04  0.25500000920E-02 0.  1.
    10030    2    1    2    0    0  0.00000000000E+00  0.00000000000E+00 -0.62004097616E+03  0.26595805166E+04  0.25862942045E+04 0.  0.
        5    1    3    3  502    0 -0.68345446959E+03 -0.10777006958E+04 -0.52488752822E+03  0.13798832592E+04  0.46999998093E+01 0.  1.
       -5    1    3    3    0  502  0.68345446959E+03  0.10777006958E+04 -0.95153447933E+02  0.12796972573E+04  0.46999998093E+01 0. -1.
</event>
<event>
 5   0  0.1034714E-05  0.2607874E+04  0.7818609E-02  0.8365531E-01
       -1   -1    0    0    0  501  0.00000000000E+00  0.00000000000E+00  0.10229177204E+04  0.10229177204E+04  0.50400001928E-02 0.  1.
        1   -1    0    0  501    0  0.00000000000E+00  0.00000000000E+00 -0.16621588303E+04  0.16621588303E+04  0.50400001928E-02 0. -1.
    10030    2    1    2    0    0  0.00000000000E+00  0.00000000000E+00 -0.63924110988E+03  0.26850765507E+04  0.26078740166E+04 0.  0.
        5    1    3    3  502    0  0.80483652901E+03 -0.67800416580E+02 -0.13735801302E+04  0.15934563687E+04  0.46999998093E+01 0. -1.
       -5    1    3    3    0  502 -0.80483652901E+03  0.67800416580E+02  0.73433902031E+03  0.10916201820E+04  0.46999998093E+01 0.  1.
</event>
<event>
 5   0  0.1034714E-05  0.2516844E+04  0.7818609E-02  0.8397009E-01
       -1   -1    0    0    0  501  0.00000000000E+00  0.00000000000E+00  0.10175362422E+04  0.10175362422E+04  0.50400001928E-02 0. -1.
        1   -1    0    0  501    0  0.00000000000E+00  0.00000000000E+00 -0.15563332968E+04  0.15563332968E+04  0.50400001928E-02 0.  1.
    10030    2    1    2    0    0  0.00000000000E+00  0.00000000000E+00 -0.53879705462E+03  0.25738695390E+04  0.25168436856E+04 0.  0.
        5    1    3    3  502    0  0.10019929096E+04 -0.75546934075E+03 -0.17303112823E+03  0.12667618470E+04  0.46999998093E+01 0. -1.
       -5    1    3    3    0  502 -0.10019929096E+04  0.75546934075E+03 -0.36576592639E+03  0.13071076920E+04  0.46999998093E+01 0.  1.
</event>
<event>
 5   0  0.2662024E-05  0.2601011E+04  0.7818609E-02  0.8367858E-01
        2   -1    0    0  501    0  0.00000000000E+00  0.00000000000E+00  0.17819863850E+04  0.17819863850E+04  0.25500000920E-02 0.  1.
       -2   -1    0    0    0  501  0.00000000000E+00  0.00000000000E+00 -0.94911753493E+03  0.94911753494E+03  0.25500000920E-02 0. -1.
    10030    2    1    2    0    0  0.00000000000E+00  0.00000000000E+00  0.83286885008E+03  0.27311039200E+04  0.26010109766E+04 0.  0.
        2    1    3    3  502    0  0.45524689271E+02  0.95766995766E+03  0.13390817097E+04  0.16469195701E+04  0.25500000920E-02 0.  1.
       -2    1    3    3    0  502 -0.45524689271E+02 -0.95766995766E+03 -0.50621285964E+03  0.10841843498E+04  0.25500000920E-02 0. -1.
</event>
<event>
 5   0  0.1000421E-05  0.2602105E+04  0.7818609E-02  0.8367486E-01
       -1   -1    0    0    0  501  0.00000000000E+00  0.00000000000E+00  0.77346720740E+03  0.77346720741E+03  0.50400001928E-02 0.  1.
        1   -1    0    0  501    0  0.00000000000E+00  0.00000000000E+00 -0.21885064725E+04  0.21885064725E+04  0.50400001928E-02 0. -1.
    10030    2    1    2    0    0  0.00000000000E+00  0.00000000000E+00 -0.14150392651E+04  0.29619736799E+04  0.26021052936E+04 0.  0.
        3    1    3    3  502    0  0.11215109814E+04  0.65285736879E+03 -0.81386596296E+03  0.15317922317E+04  0.10100000352E+00 0. -1.
       -3    1    3    3    0  502 -0.11215109814E+04 -0.65285736879E+03 -0.60117330218E+03  0.14301814482E+04  0.10100000352E+00 0.  1.
</event>
<event>
 5   0  0.2484618E-05  0.2613773E+04  0.7818609E-02  0.8363538E-01
       -2   -1    0    0    0  501  0.00000000000E+00  0.00000000000E+00  0.11722128278E+04  0.11722128278E+04  0.25500000920E-02 0. -1.
        2   -1    0    0  501    0  0.00000000000E+00  0.00000000000E+00 -0.14570326099E+04  0.14570326099E+04  0.25500000920E-02 0.  1.
    10030    2    1    2    0    0  0.00000000000E+00  0.00000000000E+00 -0.28481978212E+03  0.26292454377E+04  0.26137729938E+04 0.  0.
        3    1    3    3  502    0 -0.10944645694E+04  0.66606965699E+03 -0.40171641760E+03  0.13427127660E+04  0.10100000352E+00 0.  1.
       -3    1    3    3    0  502  0.10944645694E+04 -0.66606965699E+03  0.11689663548E+03  0.12865326717E+04  0.10100000352E+00 0. -1.
</event>
<event>
 5   0  0.2517854E-05  0.2558315E+04  0.7818609E-02  0.8382500E-01
        2   -1    0    0  501    0  0.00000000000E+00  0.00000000000E+00  0.10467389725E+04  0.10467389725E+04  0.25500000920E-02 0. -1.
       -2   -1    0    0    0  501  0.00000000000E+00  0.00000000000E+00 -0.15631819927E+04  0.15631819927E+04  0.25500000920E-02 0.  1.
    10030    2    1    2    0    0  0.00000000000E+00  0.00000000000E+00 -0.51644302021E+03  0.26099209652E+04  0.25583146896E+04 0.  0.
        4    1    3    3  502    0 -0.72795236580E+03 -0.10487879560E+04 -0.17679237961E+03  0.12888475402E+04  0.12699999809E+01 0.  1.
       -4    1    3    3    0  502  0.72795236580E+03  0.10487879560E+04 -0.33965064060E+03  0.13210734249E+04  0.12699999809E+01 0. -1.
</event>
<event>
 5   0  0.2517854E-05  0.2489751E+04  0.7818609E-02  0.8406646E-01
       -2   -1    0    0    0  501  0.00000000000E+00  0.00000000000E+00  0.10135111748E+04  0.10135111748E+04  0.25500000920E-02 0.  1.
        2   -1    0    0  501    0  0.00000000000E+00  0.00000000000E+00 -0.15290555130E+04  0.15290555130E+04  0.25500000920E-02 0. -1.
    10030    2    1    2    0    0  0.00000000000E+00  0.00000000000E+00 -0.51554433824E+03  0.25425666878E+04  0.24897508706E+04 0.  0.
        4    1    3    3  502    0  0.91980875680E+03  0.88593379880E+02  0.59407906905E+03  0.10985574583E+04  0.12699999809E+01 0.  1.
       -4    1    3    3    0  502 -0.91980875680E+03 -0.88593379880E+02 -0.11096234073E+04  0.14440092295E+04  0.12699999809E+01 0. -1.
</event>
<event>
 5   0  0.9855352E-06  0.2546102E+04  0.7818609E-02  0.8386743E-01
       -1   -1    0    0    0  501  0.00000000000E+00  0.00000000000E+00  0.92635416312E+03  0.92635416314E+03  0.50400001928E-02 0. -1.
        1   -1    0    0  501    0  0.00000000000E+00  0.00000000000E+00 -0.17495018031E+04  0.17495018031E+04  0.50400001928E-02 0.  1.
    10030    2    1    2    0    0  0.00000000000E+00  0.00000000000E+00 -0.82314763998E+03  0.26758559662E+04  0.25461015524E+04 0.  0.
        2    1    3    3  502    0 -0.50003818544E+03  0.11500221599E+04 -0.64199378855E+03  0.14088098451E+04  0.25500000920E-02 0.  1.
       -2    1    3    3    0  502  0.50003818544E+03 -0.11500221599E+04 -0.18115385143E+03  0.12670461211E+04  0.25500000920E-02 0. -1.
</event>
<event>
 5   0  0.2555801E-05  0.2570279E+04  0.7818609E-02  0.8378367E-01
        2   -1    0    0  501    0  0.00000000000E+00  0.00000000000E+00  0.16606570025E+04  0.16606570025E+04  0.25500000920E-02 0. -1.
       -2   -1    0    0    0  501  0.00000000000E+00  0.00000000000E+00 -0.99453640646E+03  0.99453640647E+03  0.25500000920E-02 0.  1.
    10030    2    1    2    0    0  0.00000000000E+00  0.00000000000E+00  0.66612059605E+03  0.26551934090E+04  0.25702792437E+04 0.  0.
        1    1    3    3  502    0  0.57865178798E+03 -0.10978769030E+04  0.67787227898E+03  0.14141012738E+04  0.50400001928E-02 0. -1.
       -1    1    3    3    0  502 -0.57865178798E+03  0.10978769030E+04 -0.11751682928E+02  0.12410921352E+04  0.50400001928E-02 0.  1.
</event>
<event>
 5   0  0.1025153E-05  0.2553059E+04  0.7818609E-02  0.8384323E-01
       -1   -1    0    0    0  501  0.00000000000E+00  0.00000000000E+00  0.11303163781E+04  0.11303163781E+04  0.50400001928E-02 0.  1.
        1   -1    0    0  501    0  0.00000000000E+00  0.00000000000E+00 -0.14416556874E+04  0.14416556874E+04  0.50400001928E-02 0. -1.
    10030    2    1    2    0    0  0.00000000000E+00  0.00000000000E+00 -0.31133930922E+03  0.25719720655E+04  0.25530585854E+04 0.  0.
        1    1    3    3  502    0  0.52166589095E+03  0.37857523423E+03  0.95434262222E+03  0.11516181443E+04  0.50400001928E-02 0.  1.
       -1    1    3    3    0  502 -0.52166589095E+03 -0.37857523423E+03 -0.12656819314E+04  0.14203539212E+04  0.50400001928E-02 0. -1.
</event>
<event>
 5   0  0.1034714E-05  0.2572653E+04  0.7818609E-02  0.8377550E-01
       -1   -1    0    0    0  501  0.00000000000E+00  0.00000000000E+00  0.10465317166E+04  0.10465317166E+04  0.50400001928E-02 0.  1.
        1   -1    0    0  501    0  0.00000000000E+00  0.00000000000E+00 -0.15810655610E+04  0.15810655610E+04  0.50400001928E-02 0. -1.
    10030    2    1    2    0    0  0.00000000000E+00  0.00000000000E+00 -0.53453384447E+03  0.26275972776E+04  0.25726525266E+04 0.  0.
        5    1    3    3  502    0  0.10860801442E+04  0.68921031368E+03 -0.27306526470E+03  0.13149781994E+04  0.46999998093E+01 0.  1.
       -5    1    3    3    0  502 -0.10860801442E+04 -0.68921031368E+03 -0.26146857977E+03  0.13126190782E+04  0.46999998093E+01 0. -1.
</event>
<event>
 5   0  0.2555801E-05  0.2583652E+04  0.7818609E-02  0.8373775E-01
        2   -1    0    0  501    0  0.00000000000E+00  0.00000000000E+00  0.17582395246E+04  0.17582395246E+04  0.25500000920E-02 0. -1.
       -2   -1    0    0    0  501  0.00000000000E+00  0.00000000000E+00 -0.94913968051E+03  0.94913968051E+03  0.25500000920E-02 0.  1.
    10030    2    1    2    0    0  0.00000000000E+00  0.00000000000E+00  0.80909984409E+03  0.27073792051E+04  0.25836523765E+04 0.  0.
        1    1    3    3  502    0 -0.62420692722E+03  0.14859251429E+03  0.15794476758E+04  0.17048076091E+04  0.50400001928E-02 0. -1.
       -1    1    3    3    0  502  0.62420692722E+03 -0.14859251429E+03 -0.77034783173E+03  0.10025715960E+04  0.50400001928E-02 0.  1.
</event>
<event>
 5   0  0.1034714E-05  0.2595075E+04  0.7818609E-02  0.8369876E-01
       -1   -1    0    0    0  501  0.00000000000E+00  0.00000000000E+00  0.65051009025E+03  0.65051009027E+03  0.50400001928E-02 0. -1.
        1   -1    0    0  501    0  0.00000000000E+00  0.00000000000E+00 -0.25881285973E+04  0.25881285973E+04  0.50400001928E-02 0.  1.
    10030    2    1    2    0    0  0.00000000000E+00  0.00000000000E+00 -0.19376185070E+04  0.32386386876E+04  0.25950751569E+04 0.  0.
        5    1    3    3  502    0 -0.18174507809E+03  0.78596600107E+03 -0.22371102226E+04  0.23781207006E+04  0.46999998093E+01 0.  1.
       -5    1    3    3    0  502  0.18174507809E+03 -0.78596600107E+03  0.29949171558E+03  0.86051798700E+03  0.46999998093E+01 0. -1.
</event>
<event>
 5   0  0.1000421E-05  0.2552709E+04  0.7818609E-02  0.8384445E-01
       -1   -1    0    0    0  501  0.00000000000E+00  0.00000000000E+00  0.16264788264E+04  0.16264788265E+04  0.50400001928E-02 0. -1.
        1   -1    0    0  501    0  0.00000000000E+00  0.00000000000E+00 -0.10015994463E+04  0.10015994463E+04  0.50400001928E-02 0.  1.
    10030    2    1    2    0    0  0.00000000000E+00  0.00000000000E+00  0.62487938018E+03  0.26280782727E+04  0.25527085944E+04 0.  0.
        3    1    3    3  502    0  0.41642306962E+03 -0.11033153483E+04  0.81508361790E+03  0.14335530144E+04  0.10100000352E+00 0. -1.
       -3    1    3    3    0  502 -0.41642306962E+03  0.11033153483E+04 -0.19020423772E+03  0.11945252584E+04  0.10100000352E+00 0.  1.
</event>
<event>
 5   0  0.1005492E-05  0.2624820E+04  0.7818609E-02  0.8359819E-01
       -1   -1    0    0    0  501  0.00000000000E+00  0.00000000000E+00  0.13937865282E+04  0.13937865282E+04  0.50400001928E-02 0. -1.
        1   -1    0    0  501    0  0.00000000000E+00  0.00000000000E+00 -0.12357842144E+04  0.12357842144E+04  0.50400001928E-02 0.  1.
    10030    2    1    2    0    0  0.00000000000E+00  0.00000000000E+00  0.15800231385E+03  0.26295707426E+04  0.26248195288E+04 0.  0.
        4    1    3    3  502    0 -0.10039328501E+04  0.14225813849E+03 -0.75575331181E+03  0.12646277028E+04  0.12699999809E+01 0.  1.
       -4    1    3    3    0  502  0.10039328501E+04 -0.14225813849E+03  0.91375562566E+03  0.13649430398E+04  0.12699999809E+01 0. -1.
</event>
<event>
 5   0  0.2528460E-05  0.2333530E+04  0.7818609E-02  0.8464817E-01
       -2   -1    0    0    0  501  0.00000000000E+00  0.00000000000E+00  0.65380030156E+03  0.65380030157E+03  0.25500000920E-02 0. -1.
        2   -1    0    0  501    0  0.00000000000E+00  0.00000000000E+00 -0.20821965305E+04  0.20821965305E+04  0.25500000920E-02 0.  1.
    10030    2    1    2    0    0  0.00000000000E+00  0.00000000000E+00 -0.14283962290E+04  0.27359968321E+04  0.23335301323E+04 0.  0.
        5    1    3    3  502    0 -0.55667448431E+03 -0.65644508356E+03  0.20938773314E+03  0.88581710414E+03  0.46999998093E+01 0. -1.
       -5    1    3    3    0  502  0.55667448431E+03  0.65644508356E+03 -0.16377839621E+04  0.18501797280E+04  0.46999998093E+01 0.  1.
</event>
<event>
 5   0  0.2555801E-05  0.2583614E+04  0.7818609E-02  0.8373788E-01
        2   -1    0    0  501    0  0.00000000000E+00  0.00000000000E+00  0.15669316651E+04  0.15669316651E+04  0.25500000920E-02 0.  1.
       -2   -1    0    0    0  501  0.00000000000E+00  0.00000000000E+00 -0.10649895432E+04  0.10649895432E+04  0.25500000920E-02 0. -1.
    10030    2    1    2    0    0  0.00000000000E+00  0.00000000000E+00  0.50194212188E+03  0.26319212083E+04  0.25836143971E+04 0.  0.
        1    1    3    3  502    0  0.24868558539E+03 -0.75797544319E+02  0.15400061230E+04  0.15617966087E+04  0.50400001928E-02 0.  1.
       -1    1    3    3    0  502 -0.24868558539E+03  0.75797544319E+02 -0.10380640011E+04  0.10701245996E+04  0.50400001928E-02 0. -1.
</event>
<event>
 5   0  0.9855352E-06  0.2608843E+04  0.7818609E-02  0.8365204E-01
        1   -1    0    0  501    0  0.00000000000E+00  0.00000000000E+00  0.17953227361E+04  0.17953227361E+04  0.50400001928E-02 0.  1.
       -1   -1    0    0    0  501  0.00000000000E+00  0.00000000000E+00 -0.94774907262E+03  0.94774907263E+03  0.50400001928E-02 0. -1.
    10030    2    1    2    0    0  0.00000000000E+00  0.00000000000E+00  0.84757366348E+03  0.27430718087E+04  0.26088430066E+04 0.  0.
        2    1    3    3  502    0 -0.17722025847E+03  0.10828680164E+04 -0.31784452929E+03  0.11423814186E+04  0.25500000920E-02 0. -1.
       -2    1    3    3    0  502  0.17722025847E+03 -0.10828680164E+04  0.11654181928E+04  0.16006903901E+04  0.25500000920E-02 0.  1.
</event>
<event>
 5   0  0.1034714E-05  0.2558011E+04  0.7818609E-02  0.8382605E-01
        1   -1    0    0  501    0  0.00000000000E+00  0.00000000000E+00  0.21533704011E+04  0.21533704011E+04  0.50400001928E-02 0.  1.
       -1   -1    0    0    0  501  0.00000000000E+00  0.00000000000E+00 -0.75967193223E+03  0.75967193225E+03  0.50400001928E-02 0. -1.
    10030    2    1    2    0    0  0.00000000000E+00  0.00000000000E+00  0.13936984689E+04  0.29130423334E+04  0.25580109878E+04 0.  0.
        5    1    3    3  502    0 -0.10232483592E+04  0.74170535508E+03  0.92078601999E+03  0.15636601367E+04  0.46999998093E+01 0.  1.
       -5    1    3    3    0  502  0.10232483592E+04 -0.74170535508E+03  0.47291244892E+03  0.13493821967E+04  0.46999998093E+01 0. -1.
</event>
<event>
 5   0  0.2484618E-05  0.2605731E+04  0.7818609E-02  0.8366257E-01
       -2   -1    0    0    0  501  0.00000000000E+00  0.00000000000E+00  0.10037156455E+04  0.10037156455E+04  0.25500000920E-02 0. -1.
        2   -1    0    0  501    0  0.00000000000E+00  0.00000000000E+00 -0.16911741987E+04  0.16911741987E+04  0.25500000920E-02 0.  1.
    10030    2    1    2    0    0  0.00000000000E+00  0.00000000000E+00 -0.68745855321E+03  0.26948898442E+04  0.26057306096E+04 0.  0.
        3    1    3    3  502    0  0.10307351472E+04  0.66598120207E+03  0.10886556271E+03  0.12319892963E+04  0.10100000352E+00 0. -1.
       -3    1    3    3    0  502 -0.10307351472E+04 -0.66598120207E+03 -0.79632411592E+03  0.14629005479E+04  0.10100000352E+00 0.  1.
</event>
<event>
 5   0  0.2555801E-05  0.2603469E+04  0.7818609E-02  0.8367024E-01
       -2   -1    0    0    0  501  0.00000000000E+00  0.00000000000E+00  0.16084205794E+04  0.16084205794E+04  0.25500000920E-02 0. -1.
        2   -1    0    0  501    0  0.00000000000E+00  0.00000000000E+00 -0.10535260346E+04  0.10535260346E+04  0.25500000920E-02 0.  1.
    10030    2    1    2    0    0  0.00000000000E+00  0.00000000000E+00  0.55489454475E+03  0.26619466140E+04  0.26034691894E+04 0.  0.
        1    1    3    3  502    0  0.11390066187E+04  0.15931417771E+03 -0.34599921112E+03  0.12010131302E+04  0.50400001928E-02 0.  1.
       -1    1    3    3    0  502 -0.11390066187E+04 -0.15931417771E+03  0.90089375588E+03  0.14609334838E+04  0.50400001928E-02 0. -1.
</event>
<event>
 5   0  0.1034714E-05  0.2578811E+04  0.7818609E-02  0.8375434E-01
       -1   -1    0    0    0  501  0.00000000000E+00  0.00000000000E+00  0.14107727292E+04  0.14107727292E+04  0.50400001928E-02 0. -1.
        1   -1    0    0  501    0  0.00000000000E+00  0.00000000000E+00 -0.11784793523E+04  0.11784793523E+04  0.50400001928E-02 0.  1.
    10030    2    1    2    0    0  0.00000000000E+00  0.00000000000E+00  0.23229337689E+03  0.25892520816E+04  0.25788109913E+04 0.  0.
        5    1    3    3  502    0 -0.23196886027E+03 -0.12090247294E+04  0.50109707859E+03  0.13291616608E+04  0.46999998093E+01 0.  1.
       -5    1    3    3    0  502  0.23196886027E+03  0.12090247294E+04 -0.26880370170E+03  0.12600904208E+04  0.46999998093E+01 0. -1.
</event>
<event>
 5   0  0.9855352E-06  0.2601475E+04  0.7818609E-02  0.8367700E-01
        1   -1    0    0  501    0  0.00000000000E+00  0.00000000000E+00  0.15127954996E+04  0.15127954996E+04  0.50400001928E-02 0.  1.
       -1   -1    0    0    0  501  0.00000000000E+00  0.00000000000E+00 -0.11184052353E+04  0.11184052353E+04  0.50400001928E-02 0. -1.
    10030    2    1    2    0    0  0.00000000000E+00  0.00000000000E+00  0.39439026434E+03  0.26312007349E+04  0.26014752789E+04 0.  0.
        2    1    3    3  502    0  0.46432389621E+03 -0.10028200978E+04 -0.49670055452E+03  0.12115924521E+04  0.25500000920E-02 0. -1.
       -2    1    3    3    0  502 -0.46432389621E+03  0.10028200978E+04  0.89109081886E+03  0.14196082828E+04  0.25500000920E-02 0.  1.
</event>
<event>
 5   0  0.1034714E-05  0.2567426E+04  0.7818609E-02  0.8379351E-01
        1   -1    0    0  501    0  0.00000000000E+00  0.00000000000E+00  0.20722117547E+04  0.20722117547E+04  0.50400001928E-02 0.  1.
       -1   -1    0    0    0  501  0.00000000000E+00  0.00000000000E+00 -0.79524644184E+03  0.79524644186E+03  0.50400001928E-02 0. -1.
    10030    2    1    2    0    0  0.00000000000E+00  0.00000000000E+00  0.12769653128E+04  0.28674581965E+04  0.25674259675E+04 0.  0.
        5    1    3    3  502    0  0.95727820144E+03  0.85350990539E+03  0.70002384271E+03  0.14611352381E+04  0.46999998093E+01 0.  1.
       -5    1    3    3    0  502 -0.95727820144E+03 -0.85350990539E+03  0.57694147010E+03  0.14063229585E+04  0.46999998093E+01 0. -1.
</event>
<event>
 5   0  0.9855352E-06  0.2613058E+04  0.7818609E-02  0.8363779E-01
       -1   -1    0    0    0  501  0.00000000000E+00  0.00000000000E+00  0.16155138786E+04  0.16155138786E+04  0.50400001928E-02 0.  1.
        1   -1    0    0  501    0  0.00000000000E+00  0.00000000000E+00 -0.10566408425E+04  0.10566408425E+04  0.50400001928E-02 0. -1.
    10030    2    1    2    0    0  0.00000000000E+00  0.00000000000E+00  0.55887303616E+03  0.26721547211E+04  0.26130579372E+04 0.  0.
        2    1    3    3  502    0  0.58294324864E+03  0.11692428010E+04  0.28776860539E+03  0.13378199913E+04  0.25500000920E-02 0. -1.
       -2    1    3    3    0  502 -0.58294324864E+03 -0.11692428010E+04  0.27110443077E+03  0.13343347298E+04  0.25500000920E-02 0.  1.
</event>
<event>
 5   0  0.1034714E-05  0.2522109E+04  0.7818609E-02  0.8395151E-01
       -1   -1    0    0    0  501  0.00000000000E+00  0.00000000000E+00  0.86978813542E+03  0.86978813543E+03  0.50400001928E-02 0. -1.
        1   -1    0    0  501    0  0.00000000000E+00  0.00000000000E+00 -0.18283287900E+04  0.18283287900E+04  0.50400001928E-02 0.  1.
    10030    2    1    2    0    0  0.00000000000E+00  0.00000000000E+00 -0.95854065460E+03  0.26981169254E+04  0.25221091881E+04 0.  0.
        5    1    3    3  502    0 -0.87464126242E+03  0.88501393788E+03 -0.26005662118E+03  0.12711799811E+04  0.46999998093E+01 0. -1.
       -5    1    3    3    0  502  0.87464126242E+03 -0.88501393788E+03 -0.69848403342E+03  0.14269369443E+04  0.46999998093E+01 0.  1.
</event>
<event>
 5   0  0.9855352E-06  0.2588700E+04  0.7818609E-02  0.8372050E-01
       -1   -1    0    0    0  501  0.00000000000E+00  0.00000000000E+00  0.65666316205E+03  0.65666316207E+03  0.50400001928E-02 0.  1.
        1   -1    0    0  501    0  0.00000000000E+00  0.00000000000E+00 -0.25512955357E+04  0.25512955357E+04  0.50400001928E-02 0. -1.
    10030    2    1    2    0    0  0.00000000000E+00  0.00000000000E+00 -0.18946323737E+04  0.32079586978E+04  0.25886999006E+04 0.  0.
        2    1    3    3  502    0  0.85826659244E+01 -0.71057338853E+02  0.65420898569E+03  0.65811260778E+03  0.25500000920E-02 0.  1.
       -2    1    3    3    0  502 -0.85826659244E+01  0.71057338853E+02 -0.25488413593E+04  0.25498460900E+04  0.25500000920E-02 0. -1.
</event>
<event>
 5   0  0.2484618E-05  0.2609562E+04  0.7818609E-02  0.8364960E-01
       -2   -1    0    0    0  501  0.00000000000E+00  0.00000000000E+00  0.90767860171E+03  0.90767860171E+03  0.25500000920E-02 0. -1.
        2   -1    0    0  501    0  0.00000000000E+00  0.00000000000E+00 -0.18756127178E+04  0.18756127178E+04  0.25500000920E-02 0.  1.
    10030    2    1    2    0    0  0.00000000000E+00  0.00000000000E+00 -0.96793411606E+03  0.27832913195E+04  0.26095620545E+04 0.  0.
        3    1    3    3  502    0 -0.87970249535E+03  0.65243102098E+03  0.27240681372E+03  0.11286045365E+04  0.10100000352E+00 0. -1.
       -3    1    3    3    0  502  0.87970249535E+03 -0.65243102098E+03 -0.12403409298E+04  0.16546867830E+04  0.10100000352E+00 0.  1.
</event>
<event>
 5   0  0.2662024E-05  0.2521373E+04  0.7818609E-02  0.8395411E-01
        2   -1    0    0  501    0  0.00000000000E+00  0.00000000000E+00  0.15236670604E+04  0.15236670604E+04  0.25500000920E-02 0. -1.
       -2   -1    0    0    0  501  0.00000000000E+00  0.00000000000E+00 -0.10430952985E+04  0.10430952985E+04  0.25500000920E-02 0.  1.
    10030    2    1    2    0    0  0.00000000000E+00  0.00000000000E+00  0.48057176195E+03  0.25667623589E+04  0.25213726001E+04 0.  0.
        2    1    3    3  502    0  0.10335002608E+04  0.69080646017E+03  0.26763527812E+02  0.12434036517E+04  0.25500000920E-02 0.  1.
       -2    1    3    3    0  502 -0.10335002608E+04 -0.69080646017E+03  0.45380823414E+03  0.13233587072E+04  0.25500000920E-02 0. -1.
</event>
<event>
 5   0  0.2555801E-05  0.2598235E+04  0.7818609E-02  0.8368801E-01
        2   -1    0    0  501    0  0.00000000000E+00  0.00000000000E+00  0.13594622332E+04  0.13594622332E+04  0.25500000920E-02 0.  1.
       -2   -1    0    0    0  501  0.00000000000E+00  0.00000000000E+00 -0.12414511896E+04  0.12414511896E+04  0.25500000920E-02 0. -1.
    10030    2    1    2    0    0  0.00000000000E+00  0.00000000000E+00  0.11801104365E+03  0.26009134228E+04  0.25982347905E+04 0.  0.
        1    1    3    3  502    0  0.17312855892E+03 -0.11769481975E+03  0.13424663431E+04  0.13586910800E+04  0.50400001928E-02 0.  1.
       -1    1    3    3    0  502 -0.17312855892E+03  0.11769481975E+03 -0.12244552995E+04  0.12422223428E+04  0.50400001928E-02 0. -1.
</event>
<event>
 5   0  0.9855352E-06  0.2337939E+04  0.7818609E-02  0.8463111E-01
        1   -1    0    0  501    0  0.00000000000E+00  0.00000000000E+00  0.11863513815E+04  0.11863513815E+04  0.50400001928E-02 0. -1.
       -1   -1    0    0    0  501  0.00000000000E+00  0.00000000000E+00 -0.11518421616E+04  0.11518421616E+04  0.50400001928E-02 0.  1.
    10030    2    1    2    0    0  0.00000000000E+00  0.00000000000E+00  0.34509219903E+02  0.23381935431E+04  0.23379388698E+04 0.  0.
        2    1    3    3  502    0  0.73981913658E+03 -0.60739914021E+03 -0.65380541791E+03  0.11591926479E+04  0.25500000920E-02 0.  1.
       -2    1    3    3    0  502 -0.73981913658E+03  0.60739914021E+03  0.68831463781E+03  0.11790008953E+04  0.25500000920E-02 0. -1.
</event>
<event>
 5   0  0.2517854E-05  0.2596130E+04  0.7818609E-02  0.8369517E-01
        2   -1    0    0  501    0  0.00000000000E+00  0.00000000000E+00  0.11773086204E+04  0.11773086204E+04  0.25500000920E-02 0. -1.
       -2   -1    0    0    0  501  0.00000000000E+00  0.00000000000E+00 -0.14312076625E+04  0.14312076625E+04  0.25500000920E-02 0.  1.
    10030    2    1    2    0    0  0.00000000000E+00  0.00000000000E+00 -0.25389904219E+03  0.26085162829E+04  0.25961302884E+04 0.  0.
        4    1    3    3  502    0  0.53910805139E+03 -0.10096995404E+04 -0.74211297495E+03  0.13641348663E+04  0.12699999809E+01 0.  1.
       -4    1    3    3    0  502 -0.53910805139E+03  0.10096995404E+04  0.48821393276E+03  0.12443814166E+04  0.12699999809E+01 0. -1.
</event>
<event>
 5   0  0.1025153E-05  0.2615762E+04  0.7818609E-02  0.8362867E-01
        1   -1    0    0  501    0  0.00000000000E+00  0.00000000000E+00  0.14222575805E+04  0.14222575805E+04  0.50400001928E-02 0.  1.
       -1   -1    0    0    0  501  0.00000000000E+00  0.00000000000E+00 -0.12027028994E+04  0.12027028994E+04  0.50400001928E-02 0. -1.
    10030    2    1    2    0    0  0.00000000000E+00  0.00000000000E+00  0.21955468109E+03  0.26249604799E+04  0.26157624631E+04 0.  0.
        1    1    3    3  502    0 -0.18535825321E+03  0.99211738379E+03  0.94450678449E+03  0.13822979604E+04  0.50400001928E-02 0.  1.
       -1    1    3    3    0  502  0.18535825321E+03 -0.99211738379E+03 -0.72495210340E+03  0.12426625196E+04  0.50400001928E-02 0. -1.
</event>
<event>
 5   0  0.1005492E-05  0.2623564E+04  0.7818609E-02  0.8360241E-01
       -1   -1    0    0    0  501  0.00000000000E+00  0.00000000000E+00  0.15864820035E+04  0.15864820036E+04  0.50400001928E-02 0. -1.
        1   -1    0    0  501    0  0.00000000000E+00  0.00000000000E+00 -0.10846463798E+04  0.10846463798E+04  0.50400001928E-02 0.  1.
    10030    2    1    2    0    0  0.00000000000E+00  0.00000000000E+00  0.50183562376E+03  0.26711283834E+04  0.26235639590E+04 0.  0.
        4    1    3    3  502    0 -0.11299722222E+04 -0.18890801116E+03  0.90144364570E+03  0.14577810943E+04  0.12699999809E+01 0. -1.
       -4    1    3    3    0  502  0.11299722222E+04  0.18890801116E+03 -0.39960802194E+03  0.12133472890E+04  0.12699999809E+01 0.  1.
</event>
<event>
 5   0  0.2484618E-05  0.2508348E+04  0.7818609E-02  0.8400018E-01
       -2   -1    0    0    0  501  0.00000000000E+00  0.00000000000E+00  0.51865006325E+03  0.51865006326E+03  0.25500000920E-02 0.  1.
        2   -1    0    0  501    0  0.00000000000E+00  0.00000000000E+00 -0.30327805802E+04  0.30327805802E+04  0.25500000920E-02 0. -1.
    10030    2    1    2    0    0  0.00000000000E+00  0.00000000000E+00 -0.25141305170E+04  0.35514306435E+04  0.25083475356E+04 0.  0.
        3    1    3    3  502    0  0.53975128543E+03 -0.33768098697E+03 -0.27869586602E+04  0.28587582065E+04  0.10100000352E+00 0. -1.
       -3    1    3    3    0  502 -0.53975128543E+03  0.33768098697E+03  0.27282814323E+03  0.69267243703E+03  0.10100000352E+00 0.  1.
</event>
<event>
 5   0  0.1034714E-05  0.2662224E+04  0.7818609E-02  0.8347367E-01
       -1   -1    0    0    0  501  0.00000000000E+00  0.00000000000E+00  0.16279129464E+04  0.16279129464E+04  0.50400001928E-02 0. -1.
        1   -1    0    0  501    0  0.00000000000E+00  0.00000000000E+00 -0.10884234667E+04  0.10884234667E+04  0.50400001928E-02 0.  1.
    10030    2    1    2    0    0  0.00000000000E+00  0.00000000000E+00  0.53948947966E+03  0.27163364131E+04  0.26622236214E+04 0.  0.
        5    1    3    3  502    0  0.11389437313E+04  0.13125652070E+03 -0.42032732199E+03  0.12211135267E+04  0.46999998093E+01 0.  1.
       -5    1    3    3    0  502 -0.11389437313E+04 -0.13125652070E+03  0.95981680165E+03  0.14952228864E+04  0.46999998093E+01 0. -1.
</event>
<event>
 5   0  0.2484618E-05  0.2446535E+04  0.7818609E-02  0.8422284E-01
        2   -1    0    0  501    0  0.00000000000E+00  0.00000000000E+00  0.19493752178E+04  0.19493752178E+04  0.25500000920E-02 0.  1.
       -2   -1    0    0    0  501  0.00000000000E+00  0.00000000000E+00 -0.76762228135E+03  0.76762228135E+03  0.25500000920E-02 0. -1.
    10030    2    1    2    0    0  0.00000000000E+00  0.00000000000E+00  0.11817529364E+04  0.27169974991E+04  0.24465353886E+04 0.  0.
        3    1    3    3  502    0  0.10274811783E+04 -0.40342914045E+03  0.11763277486E+04  0.16131396795E+04  0.10100000352E+00 0.  1.
       -3    1    3    3    0  502 -0.10274811783E+04  0.40342914045E+03  0.54251878084E+01  0.11038578197E+04  0.10100000352E+00 0. -1.
</event>
<event>
 5   0  0.1005492E-05  0.2595662E+04  0.7818609E-02  0.8369676E-01
       -1   -1    0    0    0  501  0.00000000000E+00  0.00000000000E+00  0.56125259786E+03  0.56125259788E+03  0.50400001928E-02 0. -1.
        1   -1    0    0  501    0  0.00000000000E+00  0.00000000000E+00 -0.30010820604E+04  0.30010820604E+04  0.50400001928E-02 0.  1.
    10030    2    1    2    0    0  0.00000000000E+00  0.00000000000E+00 -0.24398294626E+04  0.35623346583E+04  0.25956618446E+04 0.  0.
        4    1    3    3  502    0  0.26883575119E+03 -0.58624560709E+03 -0.27655816211E+04  0.28397887050E+04  0.12699999809E+01 0.  1.
       -4    1    3    3    0  502 -0.26883575119E+03  0.58624560709E+03  0.32575215856E+03  0.72254595332E+03  0.12699999809E+01 0. -1.
</event>
<event>
 5   0  0.1034714E-05  0.2180471E+04  0.7818609E-02  0.8526601E-01
       -1   -1    0    0    0  501  0.00000000000E+00  0.00000000000E+00  0.14778984998E+04  0.14778984998E+04  0.50400001928E-02 0. -1.
        1   -1    0    0  501    0  0.00000000000E+00  0.00000000000E+00 -0.80425883103E+03  0.80425883105E+03  0.50400001928E-02 0.  1.
    10030    2    1    2    0    0  0.00000000000E+00  0.00000000000E+00  0.67363966878E+03  0.22821573309E+04  0.21804705179E+04 0.  0.
        5    1    3    3  502    0  0.59007091587E+03  0.79906389848E+03 -0.13347245270E+03  0.10022593403E+04  0.46999998093E+01 0. -1.
       -5    1    3    3    0  502 -0.59007091587E+03 -0.79906389848E+03  0.80711212148E+03  0.12798979906E+04  0.46999998093E+01 0.  1.
</event>
<event>
 5   0  0.2528460E-05  0.2214457E+04  0.7818609E-02  0.8512435E-01
       -2   -1    0    0    0  501  0.00000000000E+00  0.00000000000E+00  0.11916419677E+04  0.11916419677E+04  0.25500000920E-02 0. -1.
        2   -1    0    0  501    0  0.00000000000E+00  0.00000000000E+00 -0.10287950609E+04  0.10287950609E+04  0.25500000920E-02 0.  1.
    10030    2    1    2    0    0  0.00000000000E+00  0.00000000000E+00  0.16284690681E+03  0.22204370286E+04  0.22144573789E+04 0.  0.
        5    1    3    3  502    0  0.80095177069E+03  0.55319872474E+03 -0.44761922247E+03  0.10714185113E+04  0.46999998093E+01 0.  1.
       -5    1    3    3    0  502 -0.80095177069E+03 -0.55319872474E+03  0.61046612928E+03  0.11490185173E+04  0.46999998093E+01 0. -1.
</event>
<event>
 5   0  0.1025153E-05  0.2576125E+04  0.7818609E-02  0.8376356E-01
       -1   -1    0    0    0  501  0.00000000000E+00  0.00000000000E+00  0.11212508077E+04  0.11212508077E+04  0.50400001928E-02 0. -1.
        1   -1    0    0  501    0  0.00000000000E+00  0.00000000000E+00 -0.14796915548E+04  0.14796915548E+04  0.50400001928E-02 0.  1.
    10030    2    1    2    0    0  0.00000000000E+00  0.00000000000E+00 -0.35844074713E+03  0.26009423625E+04  0.25761252695E+04 0.  0.
        1    1    3    3  502    0 -0.16608566690E+03  0.48788042746E+03  0.10126149101E+04  0.11362221246E+04  0.50400001928E-02 0. -1.
       -1    1    3    3    0  502  0.16608566690E+03 -0.48788042746E+03 -0.13710556572E+04  0.14647202380E+04  0.50400001928E-02 0.  1.
</event>
<event>
 5   0  0.2528460E-05  0.2592712E+04  0.7818609E-02  0.8370681E-01
        2   -1    0    0  501    0  0.00000000000E+00  0.00000000000E+00  0.19539614307E+04  0.19539614307E+04  0.25500000920E-02 0.  1.
       -2   -1    0    0    0  501  0.00000000000E+00  0.00000000000E+00 -0.86006758018E+03  0.86006758019E+03  0.25500000920E-02 0. -1.
    10030    2    1    2    0    0  0.00000000000E+00  0.00000000000E+00  0.10938938505E+04  0.28140290108E+04  0.25927120005E+04 0.  0.
        5    1    3    3  502    0 -0.16029892761E+03 -0.10123027296E+04  0.14084695831E+04  0.17419130917E+04  0.46999998093E+01 0.  1.
       -5    1    3    3    0  502  0.16029892761E+03  0.10123027296E+04 -0.31457573262E+03  0.10721159191E+04  0.46999998093E+01 0. -1.
</event>
<event>
 5   0  0.9855352E-06  0.2087631E+04  0.7818609E-02  0.8566712E-01
        1   -1    0    0  501    0  0.00000000000E+00  0.00000000000E+00  0.15826568470E+04  0.15826568470E+04  0.50400001928E-02 0.  1.
       -1   -1    0    0    0  501  0.00000000000E+00  0.00000000000E+00 -0.68843142680E+03  0.68843142682E+03  0.50400001928E-02 0. -1.
    10030    2    1    2    0    0  0.00000000000E+00  0.00000000000E+00  0.89422542019E+03  0.22710882738E+04  0.20876309169E+04 0.  0.
        2    1    3    3  502    0  0.12234860472E+03 -0.41365152126E+03  0.14811545513E+04  0.15426910147E+04  0.25500000920E-02 0.  1.
       -2    1    3    3    0  502 -0.12234860472E+03  0.41365152126E+03 -0.58692913110E+03  0.72839725909E+03  0.25500000920E-02 0. -1.
</event>
<event>
 5   0  0.1000421E-05  0.2553785E+04  0.7818609E-02  0.8384071E-01
        1   -1    0    0  501    0  0.00000000000E+00  0.00000000000E+00  0.14500685034E+04  0.14500685034E+04  0.50400001928E-02 0.  1.
       -1   -1    0    0    0  501  0.00000000000E+00  0.00000000000E+00 -0.11243984684E+04  0.11243984684E+04  0.50400001928E-02 0. -1.
    10030    2    1    2    0    0  0.00000000000E+00  0.00000000000E+00  0.32567003504E+03  0.25744669718E+04  0.25537852723E+04 0.  0.
        3    1    3    3  502    0  0.54783328174E+03  0.10507396693E+04  0.64237594958E+03  0.13478954069E+04  0.10100000352E+00 0. -1.
       -3    1    3    3    0  502 -0.54783328174E+03 -0.10507396693E+04 -0.31670591453E+03  0.12265715649E+04  0.10100000352E+00 0.  1.
</event>
<event>
 5   0  0.1034714E-05  0.2586587E+04  0.7818609E-02  0.8372772E-01
       -1   -1    0    0    0  501  0.00000000000E+00  0.00000000000E+00  0.15959841048E+04  0.15959841048E+04  0.50400001928E-02 0. -1.
        1   -1    0    0  501    0  0.00000000000E+00  0.00000000000E+00 -0.10480101064E+04  0.10480101064E+04  0.50400001928E-02 0.  1.
    10030    2    1    2    0    0  0.00000000000E+00  0.00000000000E+00  0.54797399842E+03  0.26439942112E+04  0.25865865316E+04 0.  0.
        5    1    3    3  502    0 -0.51974762262E+02 -0.49029586147E+03  0.14961373943E+04  0.15752906400E+04  0.46999998093E+01 0. -1.
       -5    1    3    3    0  502  0.51974762262E+02  0.49029586147E+03 -0.94816339591E+03  0.10687035712E+04  0.46999998093E+01 0.  1.
</event>
<event>
 5   0  0.2662024E-05  0.2672650E+04  0.7818609E-02  0.8343934E-01
       -2   -1    0    0    0  501  0.00000000000E+00  0.00000000000E+00  0.83607079189E+03  0.83607079190E+03  0.25500000920E-02 0. -1.
        2   -1    0    0  501    0  0.00000000000E+00  0.00000000000E+00 -0.21359007102E+04  0.21359007102E+04  0.25500000920E-02 0.  1.
    10030    2    1    2    0    0  0.00000000000E+00  0.00000000000E+00 -0.12998299183E+04  0.29719715021E+04  0.26726497699E+04 0.  0.
        2    1    3    3  502    0 -0.59226196099E+03  0.45772680122E+03  0.58107644324E+03  0.94759584628E+03  0.25500000920E-02 0. -1.
       -2    1    3    3    0  502  0.59226196099E+03 -0.45772680122E+03 -0.18809063616E+04  0.20243756558E+04  0.25500000920E-02 0.  1.
</event>
<event>
 5   0  0.2555801E-05  0.2605169E+04  0.7818609E-02  0.8366448E-01
        2   -1    0    0  501    0  0.00000000000E+00  0.00000000000E+00  0.25485544311E+04  0.25485544311E+04  0.25500000920E-02 0.  1.
       -2   -1    0    0    0  501  0.00000000000E+00  0.00000000000E+00 -0.66576006898E+03  0.66576006899E+03  0.25500000920E-02 0. -1.
    10030    2    1    2    0    0  0.00000000000E+00  0.00000000000E+00  0.18827943621E+04  0.32143145001E+04  0.26051685349E+04 0.  0.
        1    1    3    3  502    0  0.43551331714E+03 -0.11841238161E+04  0.13410197823E+04  0.18412373877E+04  0.50400001928E-02 0. -1.
       -1    1    3    3    0  502 -0.43551331714E+03  0.11841238161E+04  0.54177457979E+03  0.13730771124E+04  0.50400001928E-02 0.  1.
</event>
<event>
 5   0  0.1025153E-05  0.2650519E+04  0.7818609E-02  0.8351241E-01
        1   -1    0    0  501    0  0.00000000000E+00  0.00000000000E+00  0.12601608669E+04  0.12601608669E+04  0.50400001928E-02 0. -1.
       -1   -1    0    0    0  501  0.00000000000E+00  0.00000000000E+00 -0.13937207040E+04  0.13937207040E+04  0.50400001928E-02 0.  1.
    10030    2    1    2    0    0  0.00000000000E+00  0.00000000000E+00 -0.13355983710E+03  0.26538815709E+04  0.26505186591E+04 0.  0.
        1    1    3    3  502    0 -0.65372352146E+03  0.55948743458E+03  0.94243327568E+03  0.12761508967E+04  0.50400001928E-02 0. -1.
       -1    1    3    3    0  502  0.65372352146E+03 -0.55948743458E+03 -0.10759931128E+04  0.13777306742E+04  0.50400001928E-02 0.  1.
</event>
<event>
 5   0  0.1000421E-05  0.2641161E+04  0.7818609E-02  0.8354353E-01
        1   -1    0    0  501    0  0.00000000000E+00  0.00000000000E+00  0.17302631917E+04  0.17302631917E+04  0.50400001928E-02 0. -1.
       -1   -1    0    0    0  501  0.00000000000E+00  0.00000000000E+00 -0.10079005091E+04  0.10079005091E+04  0.50400001928E-02 0.  1.
    10030    2    1    2    0    0  0.00000000000E+00  0.00000000000E+00  0.72236268253E+03  0.27381637008E+04  0.26411612233E+04 0.  0.
        3    1    3    3  502    0 -0.28530037783E+03 -0.78095806465E+03  0.14248459439E+04  0.16496902068E+04  0.10100000352E+00 0. -1.
       -3    1    3    3    0  502  0.28530037783E+03  0.78095806465E+03 -0.70248326142E+03  0.10884734940E+04  0.10100000352E+00 0.  1.
</event>
<event>
 5   0  0.1000421E-05  0.2595213E+04  0.7818609E-02  0.8369829E-01
       -1   -1    0    0    0  501  0.00000000000E+00  0.00000000000E+00  0.10373953602E+04  0.10373953602E+04  0.50400001928E-02 0. -1.
        1   -1    0    0  501    0  0.00000000000E+00  0.00000000000E+00 -0.16230867680E+04  0.16230867680E+04  0.50400001928E-02 0.  1.
    10030    2    1    2    0    0  0.00000000000E+00  0.00000000000E+00 -0.58569140780E+03  0.26604821283E+04  0.25952130413E+04 0.  0.
        3    1    3    3  502    0 -0.41882204300E+03 -0.81422137117E+03  0.64974278717E+03  0.11227350732E+04  0.10100000352E+00 0. -1.
       -3    1    3    3    0  502  0.41882204300E+03  0.81422137117E+03 -0.12354341950E+04  0.15377470550E+04  0.10100000352E+00 0.  1.
</event>
<event>
 5   0  0.9855352E-06  0.2591492E+04  0.7818609E-02  0.8371097E-01
        1   -1    0    0  501    0  0.00000000000E+00  0.00000000000E+00  0.19797077430E+04  0.19797077430E+04  0.50400001928E-02 0.  1.
       -1   -1    0    0    0  501  0.00000000000E+00  0.00000000000E+00 -0.84808335398E+03  0.84808335400E+03  0.50400001928E-02 0. -1.
    10030    2    1    2    0    0  0.00000000000E+00  0.00000000000E+00  0.11316243890E+04  0.28277910970E+04  0.25914916034E+04 0.  0.
        2    1    3    3  502    0  0.50459353393E+03 -0.45799427944E+03  0.17683846625E+04  0.18951405513E+04  0.25500000920E-02 0.  1.
       -2    1    3    3    0  502 -0.50459353393E+03  0.45799427944E+03 -0.63676027351E+03  0.93265054571E+03  0.25500000920E-02 0. -1.
</event>
<event>
 5   0  0.2555801E-05  0.2560091E+04  0.7818609E-02  0.8381885E-01
        2   -1    0    0  501    0  0.00000000000E+00  0.00000000000E+00  0.16500388290E+04  0.16500388290E+04  0.25500000920E-02 0.  1.
       -2   -1    0    0    0  501  0.00000000000E+00  0.00000000000E+00 -0.99301703976E+03  0.99301703976E+03  0.25500000920E-02 0. -1.
    10030    2    1    2    0    0  0.00000000000E+00  0.00000000000E+00  0.65702178926E+03  0.26430558688E+04  0.25600911495E+04 0.  0.
        1    1    3    3  502    0 -0.85313107664E+03  0.61419877209E+03  0.10825524750E+04  0.15089707176E+04  0.50400001928E-02 0.  1.
       -1    1    3    3    0  502  0.85313107664E+03 -0.61419877209E+03 -0.42553068570E+03  0.11340851512E+04  0.50400001928E-02 0. -1.
</event>
<event>
 5   0  0.2484618E-05  0.2590551E+04  0.7818609E-02  0.8371418E-01
       -2   -1    0    0    0  501  0.00000000000E+00  0.00000000000E+00  0.75553742269E+03  0.75553742270E+03  0.25500000920E-02 0.  1.
        2   -1    0    0  501    0  0.00000000000E+00  0.00000000000E+00 -0.22205901673E+04  0.22205901673E+04  0.25500000920E-02 0. -1.
    10030    2    1    2    0    0  0.00000000000E+00  0.00000000000E+00 -0.14650527446E+04  0.29761275900E+04  0.25905512710E+04 0.  0.
        3    1    3    3  502    0  0.43685227081E+03  0.97909456153E+03 -0.15675302992E+04  0.18991096114E+04  0.10100000352E+00 0. -1.
       -3    1    3    3    0  502 -0.43685227081E+03 -0.97909456153E+03  0.10247755456E+03  0.10770179786E+04  0.10100000352E+00 0.  1.
</event>
<event>
 5   0  0.1000421E-05  0.2595656E+04  0.7818609E-02  0.8369678E-01
       -1   -1    0    0    0  501  0.00000000000E+00  0.00000000000E+00  0.11717929388E+04  0.11717929388E+04  0.50400001928E-02 0.  1.
        1   -1    0    0  501    0  0.00000000000E+00  0.00000000000E+00 -0.14374192112E+04  0.14374192112E+04  0.50400001928E-02 0. -1.
    10030    2    1    2    0    0  0.00000000000E+00  0.00000000000E+00 -0.26562627241E+03  0.26092121501E+04  0.25956561266E+04 0.  0.
        3    1    3    3  502    0  0.10616762456E+04  0.10497087544E+03 -0.87571433847E+03  0.13802358306E+04  0.10100000352E+00 0. -1.
       -3    1    3    3    0  502 -0.10616762456E+04 -0.10497087544E+03  0.61008806606E+03  0.12289763195E+04  0.10100000352E+00 0.  1.
</event>
<event>
 5   0  0.2517854E-05  0.2659082E+04  0.7818609E-02  0.8348405E-01
       -2   -1    0    0    0  501  0.00000000000E+00  0.00000000000E+00  0.15844400861E+04  0.15844400861E+04  0.25500000920E-02 0.  1.
        2   -1    0    0  501    0  0.00000000000E+00  0.00000000000E+00 -0.11156489946E+04  0.11156489946E+04  0.25500000920E-02 0. -1.
    10030    2    1    2    0    0  0.00000000000E+00  0.00000000000E+00  0.46879109150E+03  0.27000890807E+04  0.26590817882E+04 0.  0.
        4    1    3    3  502    0  0.58852288199E+03  0.84548092438E+03  0.10878815314E+04  0.14982272909E+04  0.12699999809E+01 0.  1.
       -4    1    3    3    0  502 -0.58852288199E+03 -0.84548092438E+03 -0.61909043987E+03  0.12018617898E+04  0.12699999809E+01 0. -1.
</event>
<event>
 5   0  0.1000421E-05  0.2625106E+04  0.7818609E-02  0.8359723E-01
        1   -1    0    0  501    0  0.00000000000E+00  0.00000000000E+00  0.24032731196E+04  0.24032731196E+04  0.50400001928E-02 0.  1.
       -1   -1    0    0    0  501  0.00000000000E+00  0.00000000000E+00 -0.71685388552E+03  0.71685388554E+03  0.50400001928E-02 0. -1.
    10030    2    1    2    0    0  0.00000000000E+00  0.00000000000E+00  0.16864192340E+04  0.31201270051E+04  0.26251062255E+04 0.  0.
        3    1    3    3  502    0 -0.60580216216E+03  0.53055380875E+03 -0.38873338804E+03  0.89420202462E+03  0.10100000352E+00 0. -1.
       -3    1    3    3    0  502  0.60580216216E+03 -0.53055380875E+03  0.20751526221E+04  0.22259249805E+04  0.10100000352E+00 0.  1.
</event>
<event>
 5   0  0.1000421E-05  0.2583962E+04  0.7818609E-02  0.8373669E-01
       -1   -1    0    0    0  501  0.00000000000E+00  0.00000000000E+00  0.20194842536E+04  0.20194842536E+04  0.50400001928E-02 0.  1.
        1   -1    0    0  501    0  0.00000000000E+00  0.00000000000E+00 -0.82655504582E+03  0.82655504584E+03  0.50400001928E-02 0. -1.
    10030    2    1    2    0    0  0.00000000000E+00  0.00000000000E+00  0.11929292078E+04  0.28460392995E+04  0.25839619965E+04 0.  0.
        3    1    3    3  502    0  0.32196052656E+03  0.76052634052E+03 -0.49786378118E+03  0.96432735630E+03  0.10100000352E+00 0. -1.
       -3    1    3    3    0  502 -0.32196052656E+03 -0.76052634052E+03  0.16907929890E+04  0.18817119432E+04  0.10100000352E+00 0.  1.
</event>
<event>
 5   0  0.2528460E-05  0.2185121E+04  0.7818609E-02  0.8524647E-01
        2   -1    0    0  501    0  0.00000000000E+00  0.00000000000E+00  0.11604714831E+04  0.11604714831E+04  0.25500000920E-02 0. -1.
       -2   -1    0    0    0  501  0.00000000000E+00  0.00000000000E+00 -0.10286237257E+04  0.10286237257E+04  0.25500000920E-02 0.  1.
    10030    2    1    2    0    0  0.00000000000E+00  0.00000000000E+00  0.13184775739E+03  0.21890952089E+04  0.21851210498E+04 0.  0.
        5    1    3    3  502    0  0.19614309724E+03 -0.37119504181E+03 -0.94457733263E+03  0.10336857845E+04  0.46999998093E+01 0.  1.
       -5    1    3    3    0  502 -0.19614309724E+03  0.37119504181E+03  0.10764250900E+04  0.11554094244E+04  0.46999998093E+01 0. -1.
</event>
<event>
 5   0  0.1005492E-05  0.2727285E+04  0.7818609E-02  0.8326206E-01
       -1   -1    0    0    0  501  0.00000000000E+00  0.00000000000E+00  0.12124110877E+04  0.12124110877E+04  0.50400001928E-02 0.  1.
        1   -1    0    0  501    0  0.00000000000E+00  0.00000000000E+00 -0.15337373649E+04  0.15337373649E+04  0.50400001928E-02 0. -1.
    10030    2    1    2    0    0  0.00000000000E+00  0.00000000000E+00 -0.32132627722E+03  0.27461484526E+04  0.27272845006E+04 0.  0.
        4    1    3    3  502    0  0.97453742240E+03 -0.94900879442E+03 -0.64200228004E+02  0.13617871206E+04  0.12699999809E+01 0.  1.
       -4    1    3    3    0  502 -0.97453742240E+03  0.94900879442E+03 -0.25712604922E+03  0.13843613320E+04  0.12699999809E+01 0. -1.
</event>
<event>
 5   0  0.1000421E-05  0.2557050E+04  0.7818609E-02  0.8382939E-01
       -1   -1    0    0    0  501  0.00000000000E+00  0.00000000000E+00  0.13625474008E+04  0.13625474008E+04  0.50400001928E-02 0. -1.
        1   -1    0    0  501    0  0.00000000000E+00  0.00000000000E+00 -0.11996835225E+04  0.11996835225E+04  0.50400001928E-02 0.  1.
    10030    2    1    2    0    0  0.00000000000E+00  0.00000000000E+00  0.16286387829E+03  0.25622309233E+04  0.25570496009E+04 0.  0.
        3    1    3    3  502    0 -0.46491094139E+03 -0.14060605020E+03 -0.11036366451E+04  0.12057885799E+04  0.10100000352E+00 0.  1.
       -3    1    3    3    0  502  0.46491094139E+03  0.14060605020E+03  0.12665005234E+04  0.13564423434E+04  0.10100000352E+00 0. -1.
</event>
<event>
 5   0  0.2662024E-05  0.2446925E+04  0.7818609E-02  0.8422142E-01
        2   -1    0    0  501    0  0.00000000000E+00  0.00000000000E+00  0.31305135508E+04  0.31305135508E+04  0.25500000920E-02 0. -1.
       -2   -1    0    0    0  501  0.00000000000E+00  0.00000000000E+00 -0.47815159477E+03  0.47815159478E+03  0.25500000920E-02 0.  1.
    10030    2    1    2    0    0  0.00000000000E+00  0.00000000000E+00  0.26523619560E+04  0.36086651455E+04  0.24469246386E+04 0.  0.
        2    1    3    3  502    0 -0.80610099437E+02  0.60097363064E+03  0.28933290484E+04  0.29561833968E+04  0.25500000920E-02 0. -1.
       -2    1    3    3    0  502  0.80610099437E+02 -0.60097363064E+03 -0.24096709243E+03  0.65248174878E+03  0.25500000920E-02 0.  1.
</event>
<event>
 5   0  0.1005492E-05  0.2571504E+04  0.7818609E-02  0.8377946E-01
       -1   -1    0    0    0  501  0.00000000000E+00  0.00000000000E+00  0.16895271920E+04  0.16895271920E+04  0.50400001928E-02 0. -1.
        1   -1    0    0  501    0  0.00000000000E+00  0.00000000000E+00 -0.97847369082E+03  0.97847369084E+03  0.50400001928E-02 0.  1.
    10030    2    1    2    0    0  0.00000000000E+00  0.00000000000E+00  0.71105350115E+03  0.26680008828E+04  0.25715037681E+04 0.  0.
        4    1    3    3  502    0  0.54744282000E+03 -0.79777549093E+03  0.12340707277E+04  0.15681427068E+04  0.12699999809E+01 0. -1.
       -4    1    3    3    0  502 -0.54744282000E+03  0.79777549093E+03 -0.52301722656E+03  0.10998581760E+04  0.12699999809E+01 0.  1.
</event>
<event>
 5   0  0.2555801E-05  0.2628777E+04  0.7818609E-02  0.8358491E-01
       -2   -1    0    0    0  501  0.00000000000E+00  0.00000000000E+00  0.12412565248E+04  0.12412565248E+04  0.25500000920E-02 0. -1.
        2   -1    0    0  501    0  0.00000000000E+00  0.00000000000E+00 -0.13918294273E+04  0.13918294273E+04  0.25500000920E-02 0.  1.
    10030    2    1    2    0    0  0.00000000000E+00  0.00000000000E+00 -0.15057290258E+03  0.26330859521E+04  0.26287771743E+04 0.  0.
        1    1    3    3  502    0  0.11553824967E+04 -0.17816785743E+03  0.52650182508E+03  0.12821297403E+04  0.50400001928E-02 0. -1.
       -1    1    3    3    0  502 -0.11553824967E+04  0.17816785743E+03 -0.67707472767E+03  0.13509562118E+04  0.50400001928E-02 0.  1.
</event>
<event>
 5   0  0.9855352E-06  0.2191275E+04  0.7818609E-02  0.8522069E-01
       -1   -1    0    0    0  501  0.00000000000E+00  0.00000000000E+00  0.51958707877E+03  0.51958707880E+03  0.50400001928E-02 0. -1.
        1   -1    0    0  501    0  0.00000000000E+00  0.00000000000E+00 -0.23103370032E+04  0.23103370032E+04  0.50400001928E-02 0.  1.
    10030    2    1    2    0    0  0.00000000000E+00  0.00000000000E+00 -0.17907499244E+04  0.28299240820E+04  0.21912747473E+04 0.  0.
        2    1    3    3  502    0 -0.92862019884E+03 -0.57279140666E+03 -0.76625707537E+03  0.13332574301E+04  0.25500000920E-02 0. -1.
       -2    1    3    3    0  502  0.92862019884E+03  0.57279140666E+03 -0.10244928490E+04  0.14966666519E+04  0.25500000920E-02 0.  1.
</event>
<event>
 5   0  0.1005492E-05  0.2593688E+04  0.7818609E-02  0.8370348E-01
        1   -1    0    0  501    0  0.00000000000E+00  0.00000000000E+00  0.97623086825E+03  0.97623086826E+03  0.50400001928E-02 0. -1.
       -1   -1    0    0    0  501  0.00000000000E+00  0.00000000000E+00 -0.17227523292E+04  0.17227523292E+04  0.50400001928E-02 0.  1.
    10030    2    1    2    0    0  0.00000000000E+00  0.00000000000E+00 -0.74652146091E+03  0.26989831974E+04  0.25936877238E+04 0.  0.
        4    1    3    3  502    0  0.69556056751E+03  0.84661767987E+03 -0.10951352701E+04  0.15491574716E+04  0.12699999809E+01 0.  1.
       -4    1    3    3    0  502 -0.69556056751E+03 -0.84661767987E+03  0.34861380923E+03  0.11498257259E+04  0.12699999809E+01 0. -1.
</event>
<event>
 5   0  0.2484618E-05  0.2786567E+04  0.7818609E-02  0.8307451E-01
        2   -1    0    0  501    0  0.00000000000E+00  0.00000000000E+00  0.20061283582E+04  0.20061283582E+04  0.25500000920E-02 0. -1.
       -2   -1    0    0    0  501  0.00000000000E+00  0.00000000000E+00 -0.96765427108E+03  0.96765427108E+03  0.25500000920E-02 0.  1.
    10030    2    1    2    0    0  0.00000000000E+00  0.00000000000E+00  0.10384740871E+04  0.29737826293E+04  0.27865668297E+04 0.  0.
        3    1    3    3  502    0 -0.22187245966E+03  0.11926554208E+03 -0.94315199094E+03  0.97621070784E+03  0.10100000352E+00 0.  1.
       -3    1    3    3    0  502  0.22187245966E+03 -0.11926554208E+03  0.19816260780E+04  0.19975719214E+04  0.10100000352E+00 0. -1.
</event>
<event>
 5   0  0.1000421E-05  0.2470925E+04  0.7818609E-02  0.8413418E-01
        1   -1    0    0  501    0  0.00000000000E+00  0.00000000000E+00  0.17136848917E+04  0.17136848917E+04  0.50400001928E-02 0. -1.
       -1   -1    0    0    0  501  0.00000000000E+00  0.00000000000E+00 -0.89069301900E+03  0.89069301902E+03  0.50400001928E-02 0.  1.
    10030    2    1    2    0    0  0.00000000000E+00  0.00000000000E+00  0.82299187266E+03  0.26043779107E+04  0.24709246608E+04 0.  0.
        3    1    3    3  502    0 -0.11484268001E+04  0.74106417474E+02  0.88520403937E+03  0.14518822534E+04  0.10100000352E+00 0. -1.
       -3    1    3    3    0  502  0.11484268001E+04 -0.74106417474E+02 -0.62212166715E+02  0.11524956573E+04  0.10100000352E+00 0.  1.
</event>
<event>
 5   0  0.2662024E-05  0.2666576E+04  0.7818609E-02  0.8345932E-01
        2   -1    0    0  501    0  0.00000000000E+00  0.00000000000E+00  0.10384805746E+04  0.10384805746E+04  0.25500000920E-02 0.  1.
       -2   -1    0    0    0  501  0.00000000000E+00  0.00000000000E+00 -0.17117866728E+04  0.17117866728E+04  0.25500000920E-02 0. -1.
    10030    2    1    2    0    0  0.00000000000E+00  0.00000000000E+00 -0.67330609828E+03  0.27502672474E+04  0.26665762374E+04 0.  0.
        2    1    3    3  502    0 -0.36329300460E+03  0.49272819877E+03  0.88495917828E+03  0.10760648829E+04  0.25500000920E-02 0.  1.
       -2    1    3    3    0  502  0.36329300460E+03 -0.49272819877E+03 -0.15582652766E+04  0.16742023645E+04  0.25500000920E-02 0. -1.
</event>
<event>
 5   0  0.2484618E-05  0.2590947E+04  0.7818609E-02  0.8371283E-01
       -2   -1    0    0    0  501  0.00000000000E+00  0.00000000000E+00  0.12081883170E+04  0.12081883170E+04  0.25500000920E-02 0.  1.
        2   -1    0    0  501    0  0.00000000000E+00  0.00000000000E+00 -0.13890649414E+04  0.13890649414E+04  0.25500000920E-02 0. -1.
    10030    2    1    2    0    0  0.00000000000E+00  0.00000000000E+00 -0.18087662438E+03  0.25972532584E+04  0.25909473431E+04 0.  0.
        3    1    3    3  502    0  0.21399566522E+03  0.81472793509E+03 -0.10770472457E+04  0.13673355596E+04  0.10100000352E+00 0. -1.
       -3    1    3    3    0  502 -0.21399566522E+03 -0.81472793509E+03  0.89617062132E+03  0.12299176987E+04  0.10100000352E+00 0.  1.
</event>
<event>
 5   0  0.2662024E-05  0.2620203E+04  0.7818609E-02  0.8361371E-01
        2   -1    0    0  501    0  0.00000000000E+00  0.00000000000E+00  0.18824624851E+04  0.18824624851E+04  0.25500000920E-02 0.  1.
       -2   -1    0    0    0  501  0.00000000000E+00  0.00000000000E+00 -0.91176624163E+03  0.91176624163E+03  0.25500000920E-02 0. -1.
    10030    2    1    2    0    0  0.00000000000E+00  0.00000000000E+00  0.97069624349E+03  0.27942287267E+04  0.26202028510E+04 0.  0.
        2    1    3    3  502    0 -0.26148039687E+03 -0.47480668047E+03  0.17572721422E+04  0.18389722030E+04  0.25500000920E-02 0.  1.
       -2    1    3    3    0  502  0.26148039687E+03  0.47480668047E+03 -0.78657589868E+03  0.95525652374E+03  0.25500000920E-02 0. -1.
</event>
<event>
 5   0  0.2517854E-05  0.2383439E+04  0.7818609E-02  0.8445730E-01
       -2   -1    0    0    0  501  0.00000000000E+00  0.00000000000E+00  0.68874474587E+03  0.68874474588E+03  0.25500000920E-02 0.  1.
        2   -1    0    0  501    0  0.00000000000E+00  0.00000000000E+00 -0.20620058019E+04  0.20620058019E+04  0.25500000920E-02 0. -1.
    10030    2    1    2    0    0  0.00000000000E+00  0.00000000000E+00 -0.13732610560E+04  0.27507505477E+04  0.23834392478E+04 0.  0.
        4    1    3    3  502    0 -0.10031268273E+04 -0.40860923517E+03 -0.12601767723E+04  0.16617075702E+04  0.12699999809E+01 0. -1.
       -4    1    3    3    0  502  0.10031268273E+04  0.40860923517E+03 -0.11308428370E+03  0.10890429775E+04  0.12699999809E+01 0.  1.
</event>
<event>
 5   0  0.1034714E-05  0.2584214E+04  0.7818609E-02  0.8373583E-01
       -1   -1    0    0    0  501  0.00000000000E+00  0.00000000000E+00  0.96922481267E+03  0.96922481268E+03  0.50400001928E-02 0.  1.
        1   -1    0    0  501    0  0.00000000000E+00  0.00000000000E+00 -0.17225517824E+04  0.17225517824E+04  0.50400001928E-02 0. -1.
    10030    2    1    2    0    0  0.00000000000E+00  0.00000000000E+00 -0.75332696975E+03  0.26917765951E+04  0.25842135582E+04 0.  0.
        5    1    3    3  502    0 -0.15077837080E+03  0.70954187906E+02 -0.17113031317E+04  0.17194037084E+04  0.46999998093E+01 0. -1.
       -5    1    3    3    0  502  0.15077837080E+03 -0.70954187906E+02  0.95797616197E+03  0.97237288669E+03  0.46999998093E+01 0.  1.
</event>
<event>
 5   0  0.1005492E-05  0.2641661E+04  0.7818609E-02  0.8354186E-01
       -1   -1    0    0    0  501  0.00000000000E+00  0.00000000000E+00  0.10606310896E+04  0.10606310896E+04  0.50400001928E-02 0.  1.
        1   -1    0    0  501    0  0.00000000000E+00  0.00000000000E+00 -0.16448627754E+04  0.16448627754E+04  0.50400001928E-02 0. -1.
    10030    2    1    2    0    0  0.00000000000E+00  0.00000000000E+00 -0.58423168581E+03  0.27054938651E+04  0.26416605367E+04 0.  0.
        4    1    3    3  502    0 -0.29768994317E+03  0.79705781929E+03  0.74257910772E+03  0.11293120976E+04  0.12699999809E+01 0.  1.
       -4    1    3    3    0  502  0.29768994317E+03 -0.79705781929E+03 -0.13268107935E+04  0.15761817675E+04  0.12699999809E+01 0. -1.
</event>
<event>
 5   0  0.2662024E-05  0.2574141E+04  0.7818609E-02  0.8377038E-01
        2   -1    0    0  501    0  0.00000000000E+00  0.00000000000E+00  0.13811580509E+04  0.13811580509E+04  0.25500000920E-02 0. -1.
       -2   -1    0    0    0  501  0.00000000000E+00  0.00000000000E+00 -0.11993920961E+04  0.11993920961E+04  0.25500000920E-02 0.  1.
    10030    2    1    2    0    0  0.00000000000E+00  0.00000000000E+00  0.18176595481E+03  0.25805501470E+04  0.25741406719E+04 0.  0.
        2    1    3    3  502    0  0.58341550461E+03 -0.30170442542E+03 -0.10187383799E+04  0.12121167840E+04  0.25500000920E-02 0.  1.
       -2    1    3    3    0  502 -0.58341550461E+03  0.30170442542E+03  0.12005043347E+04  0.13684333630E+04  0.25500000920E-02 0. -1.
</event>
<event>
 5   0  0.2662024E-05  0.2673073E+04  0.7818609E-02  0.8343795E-01
        2   -1    0    0  501    0  0.00000000000E+00  0.00000000000E+00  0.22741032247E+04  0.22741032247E+04  0.25500000920E-02 0.  1.
       -2   -1    0    0    0  501  0.00000000000E+00  0.00000000000E+00 -0.78550938517E+03  0.78550938517E+03  0.25500000920E-02 0. -1.
    10030    2    1    2    0    0  0.00000000000E+00  0.00000000000E+00  0.14885938396E+04  0.30596126099E+04  0.26730727082E+04 0.  0.
        2    1    3    3  502    0  0.99064597155E+03  0.33599828675E+03 -0.20789834720E+03  0.10665345810E+04  0.25500000920E-02 0. -1.
       -2    1    3    3    0  502 -0.99064597155E+03 -0.33599828675E+03  0.16964921868E+04  0.19930780289E+04  0.25500000920E-02 0.  1.
</event>
<event>
 5   0  0.8605000E-06  0.2583636E+04  0.7818609E-02  0.8373781E-01
       -3   -1    0    0    0  501  0.00000000000E+00  0.00000000000E+00  0.12197984644E+04  0.12197984685E+04  0.10100000352E+00 0.  1.
        3   -1    0    0  501    0  0.00000000000E+00  0.00000000000E+00 -0.13680901616E+04  0.13680901653E+04  0.10100000352E+00 0. -1.
    10030    2    1    2    0    0  0.00000000000E+00  0.00000000000E+00 -0.14829169720E+03  0.25878886338E+04  0.25836364206E+04 0.  0.
        3    1    3    3  502    0  0.86250644910E+03  0.86141098720E+02 -0.10335618406E+04  0.13489209585E+04  0.10100000352E+00 0. -1.
       -3    1    3    3    0  502 -0.86250644910E+03 -0.86141098720E+02  0.88527014340E+03  0.12389676754E+04  0.10100000352E+00 0.  1.
</event>
<event>
 5   0  0.2484618E-05  0.2587825E+04  0.7818609E-02  0.8372348E-01
       -2   -1    0    0    0  501  0.00000000000E+00  0.00000000000E+00  0.67845824413E+03  0.67845824414E+03  0.25500000920E-02 0.  1.
        2   -1    0    0  501    0  0.00000000000E+00  0.00000000000E+00 -0.24676685220E+04  0.24676685220E+04  0.25500000920E-02 0. -1.
    10030    2    1    2    0    0  0.00000000000E+00  0.00000000000E+00 -0.17892102779E+04  0.31461267661E+04  0.25878253825E+04 0.  0.
        3    1    3    3  502    0  0.10257700465E+04 -0.76491943168E+03 -0.11281544868E+04  0.17058834901E+04  0.10100000352E+00 0.  1.
       -3    1    3    3    0  502 -0.10257700465E+04  0.76491943168E+03 -0.66105579102E+03  0.14402432761E+04  0.10100000352E+00 0. -1.
</event>
<event>
 5   0  0.9855352E-06  0.2569839E+04  0.7818609E-02  0.8378519E-01
        1   -1    0    0  501    0  0.00000000000E+00  0.00000000000E+00  0.21422132623E+04  0.21422132623E+04  0.50400001928E-02 0. -1.
       -1   -1    0    0    0  501  0.00000000000E+00  0.00000000000E+00 -0.77070659422E+03  0.77070659424E+03  0.50400001928E-02 0.  1.
    10030    2    1    2    0    0  0.00000000000E+00  0.00000000000E+00  0.13715066681E+04  0.29129198566E+04  0.25698388179E+04 0.  0.
        2    1    3    3  502    0 -0.43726094145E+03 -0.42790705318E+03 -0.59501285584E+03  0.85342947904E+03  0.25500000920E-02 0.  1.
       -2    1    3    3    0  502  0.43726094145E+03  0.42790705318E+03  0.19665195240E+04  0.20594903775E+04  0.25500000920E-02 0. -1.
</event>
<event>
 5   0  0.1025153E-05  0.2604342E+04  0.7818609E-02  0.8366728E-01
       -1   -1    0    0    0  501  0.00000000000E+00  0.00000000000E+00  0.14132496105E+04  0.14132496105E+04  0.50400001928E-02 0. -1.
        1   -1    0    0  501    0  0.00000000000E+00  0.00000000000E+00 -0.11998228983E+04  0.11998228983E+04  0.50400001928E-02 0.  1.
    10030    2    1    2    0    0  0.00000000000E+00  0.00000000000E+00  0.21342671221E+03  0.26130725088E+04  0.26043419466E+04 0.  0.
        1    1    3    3  502    0 -0.19066585924E+02 -0.29624823813E+03  0.13788448687E+04  0.14104395504E+04  0.50400001928E-02 0. -1.
       -1    1    3    3    0  502  0.19066585924E+02  0.29624823813E+03 -0.11654181565E+04  0.12026329585E+04  0.50400001928E-02 0.  1.
</event>
<event>
 5   0  0.2662024E-05  0.2333660E+04  0.7818609E-02  0.8464766E-01
       -2   -1    0    0    0  501  0.00000000000E+00  0.00000000000E+00  0.86725628478E+03  0.86725628479E+03  0.25500000920E-02 0. -1.
        2   -1    0    0  501    0  0.00000000000E+00  0.00000000000E+00 -0.15698849532E+04  0.15698849532E+04  0.25500000920E-02 0.  1.
    10030    2    1    2    0    0  0.00000000000E+00  0.00000000000E+00 -0.70262866839E+03  0.24371412380E+04  0.23336602941E+04 0.  0.
        2    1    3    3  502    0  0.81707194862E+03 -0.68514249164E+03  0.14347250674E+03  0.10759234003E+04  0.25500000920E-02 0. -1.
       -2    1    3    3    0  502 -0.81707194862E+03  0.68514249164E+03 -0.84610117513E+03  0.13612178377E+04  0.25500000920E-02 0.  1.
</event>
<event>
 5   0  0.2528460E-05  0.1993918E+04  0.7818609E-02  0.8609469E-01
        2   -1    0    0  501    0  0.00000000000E+00  0.00000000000E+00  0.12321420577E+04  0.12321420577E+04  0.25500000920E-02 0. -1.
       -2   -1    0    0    0  501  0.00000000000E+00  0.00000000000E+00 -0.80666613990E+03  0.80666613990E+03  0.25500000920E-02 0.  1.
    10030    2    1    2    0    0  0.00000000000E+00  0.00000000000E+00  0.42547591781E+03  0.20388081976E+04  0.19939180299E+04 0.  0.
        5    1    3    3  502    0 -0.94176211689E+03  0.99980737106E+02 -0.10571083884E+03  0.95294748231E+03  0.46999998093E+01 0.  1.
       -5    1    3    3    0  502  0.94176211689E+03 -0.99980737106E+02  0.53118675665E+03  0.10858607153E+04  0.46999998093E+01 0. -1.
</event>
<event>
 5   0  0.9855352E-06  0.2618172E+04  0.7818609E-02  0.8362055E-01
        1   -1    0    0  501    0  0.00000000000E+00  0.00000000000E+00  0.11803474336E+04  0.11803474336E+04  0.50400001928E-02 0. -1.
       -1   -1    0    0    0  501  0.00000000000E+00  0.00000000000E+00 -0.14518657840E+04  0.14518657840E+04  0.50400001928E-02 0.  1.
    10030    2    1    2    0    0  0.00000000000E+00  0.00000000000E+00 -0.27151835038E+03  0.26322132176E+04  0.26181719211E+04 0.  0.
        2    1    3    3  502    0  0.94516188981E+03 -0.72501346373E+03  0.41004325921E+03  0.12598059354E+04  0.25500000920E-02 0. -1.
       -2    1    3    3    0  502 -0.94516188981E+03  0.72501346373E+03 -0.68156160959E+03  0.13724072822E+04  0.25500000920E-02 0.  1.
</event>
<event>
 5   0  0.1034714E-05  0.2622852E+04  0.7818609E-02  0.8360480E-01
       -1   -1    0    0    0  501  0.00000000000E+00  0.00000000000E+00  0.98267353634E+03  0.98267353635E+03  0.50400001928E-02 0.  1.
        1   -1    0    0  501    0  0.00000000000E+00  0.00000000000E+00 -0.17501625684E+04  0.17501625684E+04  0.50400001928E-02 0. -1.
    10030    2    1    2    0    0  0.00000000000E+00  0.00000000000E+00 -0.76748903206E+03  0.27328361048E+04  0.26228522187E+04 0.  0.
        5    1    3    3  502    0  0.10920867325E+02  0.33708961004E+02  0.98216589345E+03  0.98281610266E+03  0.46999998093E+01 0.  1.
       -5    1    3    3    0  502 -0.10920867325E+02 -0.33708961004E+02 -0.17496549255E+04  0.17500200021E+04  0.46999998093E+01 0. -1.
</event>
<event>
 5   0  0.2517854E-05  0.2506172E+04  0.7818609E-02  0.8400790E-01
       -2   -1    0    0    0  501  0.00000000000E+00  0.00000000000E+00  0.17651375060E+04  0.17651375060E+04  0.25500000920E-02 0.  1.
        2   -1    0    0  501    0  0.00000000000E+00  0.00000000000E+00 -0.88957620227E+03  0.88957620228E+03  0.25500000920E-02 0. -1.
    10030    2    1    2    0    0  0.00000000000E+00  0.00000000000E+00  0.87556130376E+03  0.26547137083E+04  0.25061718370E+04 0.  0.
        4    1    3    3  502    0 -0.73566076517E+03 -0.75759605014E+03  0.11523558523E+04  0.15630336400E+04  0.12699999809E+01 0.  1.
       -4    1    3    3    0  502  0.73566076517E+03  0.75759605014E+03 -0.27679454850E+03  0.10916800683E+04  0.12699999809E+01 0. -1.
</event>
<event>
 5   0  0.1000421E-05  0.2611111E+04  0.7818609E-02  0.8364437E-01
        1   -1    0    0  501    0  0.00000000000E+00  0.00000000000E+00  0.13254514401E+04  0.13254514401E+04  0.50400001928E-02 0. -1.
       -1   -1    0    0    0  501  0.00000000000E+00  0.00000000000E+00 -0.12859585530E+04  0.12859585530E+04  0.50400001928E-02 0.  1.
    10030    2    1    2    0    0  0.00000000000E+00  0.00000000000E+00  0.39492887073E+02  0.26114099931E+04  0.26111113465E+04 0.  0.
        3    1    3    3  502    0  0.41430578535E+03  0.51516178715E+03 -0.11061863244E+04  0.12886772852E+04  0.10100000352E+00 0.  1.
       -3    1    3    3    0  502 -0.41430578535E+03 -0.51516178715E+03  0.11456792115E+04  0.13227327079E+04  0.10100000352E+00 0. -1.
</event>
<event>
 5   0  0.9855352E-06  0.2586043E+04  0.7818609E-02  0.8372958E-01
       -1   -1    0    0    0  501  0.00000000000E+00  0.00000000000E+00  0.80923768290E+03  0.80923768291E+03  0.50400001928E-02 0.  1.
        1   -1    0    0  501    0  0.00000000000E+00  0.00000000000E+00 -0.20660240238E+04  0.20660240238E+04  0.50400001928E-02 0. -1.
    10030    2    1    2    0    0  0.00000000000E+00  0.00000000000E+00 -0.12567863409E+04  0.28752617067E+04  0.25860429183E+04 0.  0.
        2    1    3    3  502    0  0.11241215145E+04  0.40030147730E+03 -0.11820998811E+04  0.16796578762E+04  0.25500000920E-02 0. -1.
       -2    1    3    3    0  502 -0.11241215145E+04 -0.40030147730E+03 -0.74686459747E+02  0.11956038305E+04  0.25500000920E-02 0.  1.
</event>
<event>
 5   0  0.2662024E-05  0.2600104E+04  0.7818609E-02  0.8368166E-01
        2   -1    0    0  501    0  0.00000000000E+00  0.00000000000E+00  0.11090970639E+04  0.11090970639E+04  0.25500000920E-02 0.  1.
       -2   -1    0    0    0  501  0.00000000000E+00  0.00000000000E+00 -0.15238843018E+04  0.15238843018E+04  0.25500000920E-02 0. -1.
    10030    2    1    2    0    0  0.00000000000E+00  0.00000000000E+00 -0.41478723792E+03  0.26329813657E+04  0.26001043093E+04 0.  0.
        2    1    3    3  502    0  0.91447279060E+03  0.90221699009E+03 -0.40961754420E+03  0.13483480687E+04  0.25500000920E-02 0.  1.
       -2    1    3    3    0  502 -0.91447279060E+03 -0.90221699009E+03 -0.51696937239E+01  0.12846332970E+04  0.25500000920E-02 0. -1.
</event>
<event>
 5   0  0.2528460E-05  0.2609360E+04  0.7818609E-02  0.8365029E-01
        2   -1    0    0  501    0  0.00000000000E+00  0.00000000000E+00  0.19192411250E+04  0.19192411250E+04  0.25500000920E-02 0. -1.
       -2   -1    0    0    0  501  0.00000000000E+00  0.00000000000E+00 -0.88690812047E+03  0.88690812047E+03  0.25500000920E-02 0.  1.
    10030    2    1    2    0    0  0.00000000000E+00  0.00000000000E+00  0.10323330045E+04  0.28061492455E+04  0.26093604878E+04 0.  0.
        5    1    3    3  502    0 -0.69304465962E+03 -0.45136771290E+03 -0.56895202363E+03  0.10038785821E+04  0.46999998093E+01 0.  1.
       -5    1    3    3    0  502  0.69304465962E+03  0.45136771290E+03  0.16012850281E+04  0.18022706633E+04  0.46999998093E+01 0. -1.
</event>
<event>
 5   0  0.1005492E-05  0.2598509E+04  0.7818609E-02  0.8368708E-01
       -1   -1    0    0    0  501  0.00000000000E+00  0.00000000000E+00  0.15570903863E+04  0.15570903864E+04  0.50400001928E-02 0. -1.
        1   -1    0    0  501    0  0.00000000000E+00  0.00000000000E+00 -0.10841131889E+04  0.10841131889E+04  0.50400001928E-02 0.  1.
    10030    2    1    2    0    0  0.00000000000E+00  0.00000000000E+00  0.47297719746E+03  0.26412035752E+04  0.25985089757E+04 0.  0.
        4    1    3    3  502    0  0.84673563578E+03 -0.92566445593E+03 -0.10706592054E+03  0.12590792851E+04  0.12699999809E+01 0.  1.
       -4    1    3    3    0  502 -0.84673563578E+03  0.92566445593E+03  0.58004311801E+03  0.13821242902E+04  0.12699999809E+01 0. -1.
</event>
<event>
 5   0  0.2528460E-05  0.2737576E+04  0.7818609E-02  0.8322915E-01
        2   -1    0    0  501    0  0.00000000000E+00  0.00000000000E+00  0.12353199962E+04  0.12353199962E+04  0.25500000920E-02 0. -1.
       -2   -1    0    0    0  501  0.00000000000E+00  0.00000000000E+00 -0.15166760989E+04  0.15166760989E+04  0.25500000920E-02 0.  1.
    10030    2    1    2    0    0  0.00000000000E+00  0.00000000000E+00 -0.28135610265E+03  0.27519960951E+04  0.27375757982E+04 0.  0.
        5    1    3    3  502    0  0.40398361026E+03  0.12246115858E+04  0.32074076823E+03  0.13288239251E+04  0.46999998093E+01 0. -1.
       -5    1    3    3    0  502 -0.40398361026E+03 -0.12246115858E+04 -0.60209687088E+03  0.14231721700E+04  0.46999998093E+01 0.  1.
</event>
<event>
 5   0  0.1000421E-05  0.2565430E+04  0.7818609E-02  0.8380039E-01
        1   -1    0    0  501    0  0.00000000000E+00  0.00000000000E+00  0.15482661030E+04  0.15482661030E+04  0.50400001928E-02 0. -1.
       -1   -1    0    0    0  501  0.00000000000E+00  0.00000000000E+00 -0.10627100520E+04  0.10627100520E+04  0.50400001928E-02 0.  1.
    10030    2    1    2    0    0  0.00000000000E+00  0.00000000000E+00  0.48555605099E+03  0.26109761549E+04  0.25654301400E+04 0.  0.
        3    1    3    3  502    0 -0.41522725314E+03 -0.12025025549E+04  0.40980091824E+03  0.13365488652E+04  0.10100000352E+00 0. -1.
       -3    1    3    3    0  502  0.41522725314E+03  0.12025025549E+04  0.75755132751E+02  0.12744272897E+04  0.10100000352E+00 0.  1.
</event>
<event>
 5   0  0.2662024E-05  0.2595376E+04  0.7818609E-02  0.8369773E-01
        2   -1    0    0  501    0  0.00000000000E+00  0.00000000000E+00  0.11060609544E+04  0.11060609544E+04  0.25500000920E-02 0.  1.
       -2   -1    0    0    0  501  0.00000000000E+00  0.00000000000E+00 -0.15225151177E+04  0.15225151177E+04  0.25500000920E-02 0. -1.
    10030    2    1    2    0    0  0.00000000000E+00  0.00000000000E+00 -0.41645416323E+03  0.26285760721E+04  0.25953762919E+04 0.  0.
        2    1    3    3  502    0  0.31308724484E+03  0.10542664670E+04  0.48941902658E+03  0.12037576126E+04  0.25500000920E-02 0.  1.
       -2    1    3    3    0  502 -0.31308724484E+03 -0.10542664670E+04 -0.90587318981E+03  0.14248184595E+04  0.25500000920E-02 0. -1.
</event>
<event>
 5   0  0.2484618E-05  0.2531211E+04  0.7818609E-02  0.8391950E-01
       -2   -1    0    0    0  501  0.00000000000E+00  0.00000000000E+00  0.15638421784E+04  0.15638421784E+04  0.25500000920E-02 0. -1.
        2   -1    0    0  501    0  0.00000000000E+00  0.00000000000E+00 -0.10242445815E+04  0.10242445815E+04  0.25500000920E-02 0.  1.
    10030    2    1    2    0    0  0.00000000000E+00  0.00000000000E+00  0.53959759683E+03  0.25880867599E+04  0.25312106807E+04 0.  0.
        3    1    3    3  502    0  0.42635802556E+03  0.99067323780E+03 -0.40730655985E+03  0.11528717509E+04  0.10100000352E+00 0.  1.
       -3    1    3    3    0  502 -0.42635802556E+03 -0.99067323780E+03  0.94690415668E+03  0.14352150090E+04  0.10100000352E+00 0. -1.
</event>
<event>
 5   0  0.2555801E-05  0.2632537E+04  0.7818609E-02  0.8357232E-01
        2   -1    0    0  501    0  0.00000000000E+00  0.00000000000E+00  0.11937379099E+04  0.11937379099E+04  0.25500000920E-02 0. -1.
       -2   -1    0    0    0  501  0.00000000000E+00  0.00000000000E+00 -0.14513766500E+04  0.14513766500E+04  0.25500000920E-02 0.  1.
    10030    2    1    2    0    0  0.00000000000E+00  0.00000000000E+00 -0.25763874010E+03  0.26451145598E+04  0.26325374288E+04 0.  0.
        1    1    3    3  502    0 -0.10424174840E+04 -0.79091340444E+03  0.14639167545E+02  0.13085841698E+04  0.50400001928E-02 0.  1.
       -1    1    3    3    0  502  0.10424174840E+04  0.79091340444E+03 -0.27227790764E+03  0.13365303900E+04  0.50400001928E-02 0. -1.
</event>
<event>
 5   0  0.1025153E-05  0.2584742E+04  0.7818609E-02  0.8373402E-01
        1   -1    0    0  501    0  0.00000000000E+00  0.00000000000E+00  0.21979191983E+04  0.21979191983E+04  0.50400001928E-02 0.  1.
       -1   -1    0    0    0  501  0.00000000000E+00  0.00000000000E+00 -0.75991113391E+03  0.75991113392E+03  0.50400001928E-02 0. -1.
    10030    2    1    2    0    0  0.00000000000E+00  0.00000000000E+00  0.14380080644E+04  0.29578303322E+04  0.25847423626E+04 0.  0.
        1    1    3    3  502    0 -0.18378100214E+03  0.10888149480E+03  0.21775772585E+04  0.21880295595E+04  0.50400001928E-02 0.  1.
       -1    1    3    3    0  502  0.18378100214E+03 -0.10888149480E+03 -0.73956919413E+03  0.76980077266E+03  0.50400001928E-02 0. -1.
</event>
<event>
 5   0  0.2484618E-05  0.2582522E+04  0.7818609E-02  0.8374163E-01
        2   -1    0    0  501    0  0.00000000000E+00  0.00000000000E+00  0.17177874393E+04  0.17177874393E+04  0.25500000920E-02 0.  1.
       -2   -1    0    0    0  501  0.00000000000E+00  0.00000000000E+00 -0.97064075937E+03  0.97064075937E+03  0.25500000920E-02 0. -1.
    10030    2    1    2    0    0  0.00000000000E+00  0.00000000000E+00  0.74714667994E+03  0.26884281987E+04  0.25825216394E+04 0.  0.
        3    1    3    3  502    0 -0.10008162298E+04  0.68947246868E+01  0.12229204532E+04  0.15802579245E+04  0.10100000352E+00 0.  1.
       -3    1    3    3    0  502  0.10008162298E+04 -0.68947246868E+01 -0.47577377327E+03  0.11081702742E+04  0.10100000352E+00 0. -1.
</event>
<event>
 5   0  0.1005492E-05  0.2492851E+04  0.7818609E-02  0.8405537E-01
       -1   -1    0    0    0  501  0.00000000000E+00  0.00000000000E+00  0.17691807167E+04  0.17691807167E+04  0.50400001928E-02 0.  1.
        1   -1    0    0  501    0  0.00000000000E+00  0.00000000000E+00 -0.87813365371E+03  0.87813365372E+03  0.50400001928E-02 0. -1.
    10030    2    1    2    0    0  0.00000000000E+00  0.00000000000E+00  0.89104706298E+03  0.26473143704E+04  0.24928514812E+04 0.  0.
        4    1    3    3  502    0 -0.70088962659E+02 -0.71497484530E+03  0.15272008611E+04  0.16877338579E+04  0.12699999809E+01 0.  1.
       -4    1    3    3    0  502  0.70088962659E+02  0.71497484530E+03 -0.63615379816E+03  0.95958051247E+03  0.12699999809E+01 0. -1.
</event>
<event>
 5   0  0.2528460E-05  0.2624175E+04  0.7818609E-02  0.8360036E-01
        2   -1    0    0  501    0  0.00000000000E+00  0.00000000000E+00  0.14040457175E+04  0.14040457176E+04  0.25500000920E-02 0. -1.
       -2   -1    0    0    0  501  0.00000000000E+00  0.00000000000E+00 -0.12261516608E+04  0.12261516608E+04  0.25500000920E-02 0.  1.
    10030    2    1    2    0    0  0.00000000000E+00  0.00000000000E+00  0.17789405671E+03  0.26301973784E+04  0.26241745281E+04 0.  0.
        5    1    3    3  502    0 -0.10841333708E+04 -0.38493360173E+03  0.72129268547E+03  0.13578675457E+04  0.46999998093E+01 0. -1.
       -5    1    3    3    0  502  0.10841333708E+04  0.38493360173E+03 -0.54339862876E+03  0.12723298327E+04  0.46999998093E+01 0.  1.
</event>
<event>
 5   0  0.1005492E-05  0.2265882E+04  0.7818609E-02  0.8491496E-01
        1   -1    0    0  501    0  0.00000000000E+00  0.00000000000E+00  0.18478309207E+04  0.18478309207E+04  0.50400001928E-02 0.  1.
       -1   -1    0    0    0  501  0.00000000000E+00  0.00000000000E+00 -0.69462805316E+03  0.69462805318E+03  0.50400001928E-02 0. -1.
    10030    2    1    2    0    0  0.00000000000E+00  0.00000000000E+00  0.11532028675E+04  0.25424589739E+04  0.22658818990E+04 0.  0.
        4    1    3    3  502    0 -0.10931992502E+04  0.67777119656E+02  0.25163868436E+03  0.11238336083E+04  0.12699999809E+01 0.  1.
       -4    1    3    3    0  502  0.10931992502E+04 -0.67777119656E+02  0.90156418317E+03  0.14186253656E+04  0.12699999809E+01 0. -1.
</event>
<event>
 5   0  0.1000421E-05  0.2710787E+04  0.7818609E-02  0.8331514E-01
       -1   -1    0    0    0  501  0.00000000000E+00  0.00000000000E+00  0.23099579177E+04  0.23099579177E+04  0.50400001928E-02 0.  1.
        1   -1    0    0  501    0  0.00000000000E+00  0.00000000000E+00 -0.79529199319E+03  0.79529199321E+03  0.50400001928E-02 0. -1.
    10030    2    1    2    0    0  0.00000000000E+00  0.00000000000E+00  0.15146659245E+04  0.31052499109E+04  0.27107866287E+04 0.  0.
        3    1    3    3  502    0 -0.24860695379E+03 -0.67557853484E+03 -0.55820607957E+03  0.91093677699E+03  0.10100000352E+00 0. -1.
       -3    1    3    3    0  502  0.24860695379E+03  0.67557853484E+03  0.20728720040E+04  0.21943131339E+04  0.10100000352E+00 0.  1.
</event>
<event>
 5   0  0.2555801E-05  0.2595232E+04  0.7818609E-02  0.8369823E-01
        2   -1    0    0  501    0  0.00000000000E+00  0.00000000000E+00  0.10764335068E+04  0.10764335068E+04  0.25500000920E-02 0.  1.
       -2   -1    0    0    0  501  0.00000000000E+00  0.00000000000E+00 -0.15642466982E+04  0.15642466982E+04  0.25500000920E-02 0. -1.
    10030    2    1    2    0    0  0.00000000000E+00  0.00000000000E+00 -0.48781319136E+03  0.26406802050E+04  0.25952322122E+04 0.  0.
        1    1    3    3  502    0  0.45480885219E+03 -0.76186634818E+03 -0.12073332153E+04  0.14983140249E+04  0.50400001928E-02 0. -1.
       -1    1    3    3    0  502 -0.45480885219E+03  0.76186634818E+03  0.71952002391E+03  0.11423661801E+04  0.50400001928E-02 0.  1.
</event>
<event>
 5   0  0.2517854E-05  0.2455912E+04  0.7818609E-02  0.8418863E-01
        2   -1    0    0  501    0  0.00000000000E+00  0.00000000000E+00  0.14145792256E+04  0.14145792256E+04  0.25500000920E-02 0.  1.
       -2   -1    0    0    0  501  0.00000000000E+00  0.00000000000E+00 -0.10659534402E+04  0.10659534402E+04  0.25500000920E-02 0. -1.
    10030    2    1    2    0    0  0.00000000000E+00  0.00000000000E+00  0.34862578546E+03  0.24805326658E+04  0.24559117183E+04 0.  0.
        4    1    3    3  502    0 -0.29453346015E+03 -0.48996039144E+03  0.12719750732E+04  0.13945369640E+04  0.12699999809E+01 0.  1.
       -4    1    3    3    0  502  0.29453346015E+03  0.48996039144E+03 -0.92334928772E+03  0.10859957018E+04  0.12699999809E+01 0. -1.
</event>
<event>
 5   0  0.2484618E-05  0.2545562E+04  0.7818609E-02  0.8386931E-01
        2   -1    0    0  501    0  0.00000000000E+00  0.00000000000E+00  0.20375009153E+04  0.20375009153E+04  0.25500000920E-02 0. -1.
       -2   -1    0    0    0  501  0.00000000000E+00  0.00000000000E+00 -0.79507777208E+03  0.79507777208E+03  0.25500000920E-02 0.  1.
    10030    2    1    2    0    0  0.00000000000E+00  0.00000000000E+00  0.12424231432E+04  0.28325786874E+04  0.25455621684E+04 0.  0.
        3    1    3    3  502    0 -0.79263384627E+02 -0.82876422552E+03 -0.45006199911E+03  0.94640828340E+03  0.10100000352E+00 0.  1.
       -3    1    3    3    0  502  0.79263384627E+02  0.82876422552E+03  0.16924851423E+04  0.18861704040E+04  0.10100000352E+00 0. -1.
</event>
<event>
 5   0  0.1005492E-05  0.2609588E+04  0.7818609E-02  0.8364952E-01
        1   -1    0    0  501    0  0.00000000000E+00  0.00000000000E+00  0.17460569171E+04  0.17460569171E+04  0.50400001928E-02 0. -1.
       -1   -1    0    0    0  501  0.00000000000E+00  0.00000000000E+00 -0.97504712708E+03  0.97504712709E+03  0.50400001928E-02 0.  1.
    10030    2    1    2    0    0  0.00000000000E+00  0.00000000000E+00  0.77100979004E+03  0.27211040442E+04  0.26095883053E+04 0.  0.
        4    1    3    3  502    0  0.44310191630E+03  0.90026993654E+03 -0.48420006681E+03  0.11141259285E+04  0.12699999809E+01 0.  1.
       -4    1    3    3    0  502 -0.44310191630E+03 -0.90026993654E+03  0.12552098569E+04  0.16069781158E+04  0.12699999809E+01 0. -1.
</event>
<event>
 5   0  0.9855352E-06  0.2603842E+04  0.7818609E-02  0.8366897E-01
        1   -1    0    0  501    0  0.00000000000E+00  0.00000000000E+00  0.25018064908E+04  0.25018064908E+04  0.50400001928E-02 0. -1.
       -1   -1    0    0    0  501  0.00000000000E+00  0.00000000000E+00 -0.67750970596E+03  0.67750970598E+03  0.50400001928E-02 0.  1.
    10030    2    1    2    0    0  0.00000000000E+00  0.00000000000E+00  0.18242967849E+04  0.31793161968E+04  0.26038419153E+04 0.  0.
        2    1    3    3  502    0 -0.49453951794E+03  0.41900462165E+02 -0.55746912898E+03  0.74638918354E+03  0.25500000920E-02 0.  1.
       -2    1    3    3    0  502  0.49453951794E+03 -0.41900462165E+02  0.23817659139E+04  0.24329270133E+04  0.25500000920E-02 0. -1.
</event>
<event>
 5   0  0.2528460E-05  0.2597331E+04  0.7818609E-02  0.8369108E-01
        2   -1    0    0  501    0  0.00000000000E+00  0.00000000000E+00  0.17672439831E+04  0.17672439831E+04  0.25500000920E-02 0.  1.
       -2   -1    0    0    0  501  0.00000000000E+00  0.00000000000E+00 -0.95432909521E+03  0.95432909521E+03  0.25500000920E-02 0. -1.
    10030    2    1    2    0    0  0.00000000000E+00  0.00000000000E+00  0.81291488790E+03  0.27215730783E+04  0.25973312083E+04 0.  0.
        5    1    3    3  502    0 -0.18199831053E+03 -0.36129366924E+02  0.17532738759E+04  0.17630712096E+04  0.46999998093E+01 0.  1.
       -5    1    3    3    0  502  0.18199831053E+03  0.36129366924E+02 -0.94035898796E+03  0.95850186877E+03  0.46999998093E+01 0. -1.
</event>
<event>
 5   0  0.1025153E-05  0.2612098E+04  0.7818609E-02  0.8364103E-01
        1   -1    0    0  501    0  0.00000000000E+00  0.00000000000E+00  0.25141806083E+04  0.25141806083E+04  0.50400001928E-02 0.  1.
       -1   -1    0    0    0  501  0.00000000000E+00  0.00000000000E+00 -0.67845737665E+03  0.67845737667E+03  0.50400001928E-02 0. -1.
    10030    2    1    2    0    0  0.00000000000E+00  0.00000000000E+00  0.18357232317E+04  0.31926379850E+04  0.26120982983E+04 0.  0.
        1    1    3    3  502    0  0.50125229303E+03 -0.97501414903E+03  0.50272273624E+02  0.10974669715E+04  0.50400001928E-02 0. -1.
       -1    1    3    3    0  502 -0.50125229303E+03  0.97501414903E+03  0.17854509581E+04  0.20951710135E+04  0.50400001928E-02 0.  1.
</event>
<event>
 5   0  0.2484618E-05  0.2486164E+04  0.7818609E-02  0.8407931E-01
       -2   -1    0    0    0  501  0.00000000000E+00  0.00000000000E+00  0.69985253322E+03  0.69985253323E+03  0.25500000920E-02 0.  1.
        2   -1    0    0  501    0  0.00000000000E+00  0.00000000000E+00 -0.22079696893E+04  0.22079696893E+04  0.25500000920E-02 0. -1.
    10030    2    1    2    0    0  0.00000000000E+00  0.00000000000E+00 -0.15081171561E+04  0.29078222225E+04  0.24861642587E+04 0.  0.
        3    1    3    3  502    0  0.16592825997E+02 -0.98479837516E+03 -0.16410687451E+04  0.19139513573E+04  0.10100000352E+00 0. -1.
       -3    1    3    3    0  502 -0.16592825997E+02  0.98479837516E+03  0.13295158903E+03  0.99387086527E+03  0.10100000352E+00 0.  1.
</event>
<event>
 5   0  0.9855352E-06  0.2580884E+04  0.7818609E-02  0.8374723E-01
       -1   -1    0    0    0  501  0.00000000000E+00  0.00000000000E+00  0.88187896717E+03  0.88187896719E+03  0.50400001928E-02 0.  1.
        1   -1    0    0  501    0  0.00000000000E+00  0.00000000000E+00 -0.18882873370E+04  0.18882873370E+04  0.50400001928E-02 0. -1.
    10030    2    1    2    0    0  0.00000000000E+00  0.00000000000E+00 -0.10064083698E+04  0.27701663042E+04  0.25808842566E+04 0.  0.
        2    1    3    3  502    0  0.90150107861E+03 -0.96385857729E+02  0.48242731957E+03  0.10270007532E+04  0.25500000920E-02 0.  1.
       -2    1    3    3    0  502 -0.90150107861E+03  0.96385857729E+02 -0.14888356894E+04  0.17431655511E+04  0.25500000920E-02 0. -1.
</event>
<event>
 5   0  0.1005492E-05  0.2473588E+04  0.7818609E-02  0.8412456E-01
       -1   -1    0    0    0  501  0.00000000000E+00  0.00000000000E+00  0.12211422691E+04  0.12211422691E+04  0.50400001928E-02 0. -1.
        1   -1    0    0  501    0  0.00000000000E+00  0.00000000000E+00 -0.12526467087E+04  0.12526467087E+04  0.50400001928E-02 0.  1.
    10030    2    1    2    0    0  0.00000000000E+00  0.00000000000E+00 -0.31504439636E+02  0.24737889779E+04  0.24735883605E+04 0.  0.
        4    1    3    3  502    0 -0.13116923742E+03  0.79925118869E+03 -0.95052070366E+03  0.12487990441E+04  0.12699999809E+01 0.  1.
       -4    1    3    3    0  502  0.13116923742E+03 -0.79925118869E+03  0.91901626402E+03  0.12249899338E+04  0.12699999809E+01 0. -1.
</event>
<event>
 5   0  0.8605000E-06  0.2268300E+04  0.7818609E-02  0.8490526E-01
        3   -1    0    0  501    0  0.00000000000E+00  0.00000000000E+00  0.81538459618E+03  0.81538460244E+03  0.10100000352E+00 0.  1.
       -3   -1    0    0    0  501  0.00000000000E+00  0.00000000000E+00 -0.15775337858E+04  0.15775337890E+04  0.10100000352E+00 0. -1.
    10030    2    1    2    0    0  0.00000000000E+00  0.00000000000E+00 -0.76214918958E+03  0.23929183914E+04  0.22683004741E+04 0.  0.
        2    1    3    3  502    0 -0.84445641391E+03 -0.74130079795E+02  0.41377468258E+03  0.94329814570E+03  0.25500000920E-02 0.  1.
       -2    1    3    3    0  502  0.84445641391E+03  0.74130079795E+02 -0.11759238722E+04  0.14496202457E+04  0.25500000920E-02 0. -1.
</event>
<event>
 5   0  0.2517854E-05  0.2573210E+04  0.7818609E-02  0.8377359E-01
       -2   -1    0    0    0  501  0.00000000000E+00  0.00000000000E+00  0.98603615580E+03  0.98603615581E+03  0.25500000920E-02 0. -1.
        2   -1    0    0  501    0  0.00000000000E+00  0.00000000000E+00 -0.16787944805E+04  0.16787944805E+04  0.25500000920E-02 0.  1.
    10030    2    1    2    0    0  0.00000000000E+00  0.00000000000E+00 -0.69275832468E+03  0.26648306363E+04  0.25732097124E+04 0.  0.
        4    1    3    3  502    0 -0.12270499168E+03 -0.73451670010E+03 -0.14329161804E+04  0.16148751316E+04  0.12699999809E+01 0.  1.
       -4    1    3    3    0  502  0.12270499168E+03  0.73451670010E+03  0.74015785567E+03  0.10499555047E+04  0.12699999809E+01 0. -1.
</event>
<event>
 5   0  0.1034714E-05  0.2662318E+04  0.7818609E-02  0.8347336E-01
        1   -1    0    0  501    0  0.00000000000E+00  0.00000000000E+00  0.10753033916E+04  0.10753033916E+04  0.50400001928E-02 0.  1.
       -1   -1    0    0    0  501  0.00000000000E+00  0.00000000000E+00 -0.16478918489E+04  0.16478918490E+04  0.50400001928E-02 0. -1.
    10030    2    1    2    0    0  0.00000000000E+00  0.00000000000E+00 -0.57258845735E+03  0.27231952406E+04  0.26623175575E+04 0.  0.
        5    1    3    3  502    0 -0.55812199950E+03 -0.46762140139E+03 -0.14261326527E+04  0.16012639928E+04  0.46999998093E+01 0. -1.
       -5    1    3    3    0  502  0.55812199950E+03  0.46762140139E+03  0.85354419537E+03  0.11219312478E+04  0.46999998093E+01 0.  1.
</event>
<event>
 5   0  0.2662024E-05  0.2565116E+04  0.7818609E-02  0.8380148E-01
        2   -1    0    0  501    0  0.00000000000E+00  0.00000000000E+00  0.18982124195E+04  0.18982124195E+04  0.25500000920E-02 0. -1.
       -2   -1    0    0    0  501  0.00000000000E+00  0.00000000000E+00 -0.86658115557E+03  0.86658115558E+03  0.25500000920E-02 0.  1.
    10030    2    1    2    0    0  0.00000000000E+00  0.00000000000E+00  0.10316312639E+04  0.27647935750E+04  0.25651160691E+04 0.  0.
        2    1    3    3  502    0 -0.50526718319E+03  0.57968098210E+03 -0.59055282142E+03  0.96957599100E+03  0.25500000920E-02 0.  1.
       -2    1    3    3    0  502  0.50526718319E+03 -0.57968098210E+03  0.16221840853E+04  0.17952175840E+04  0.25500000920E-02 0. -1.
</event>
<event>
 5   0  0.1005492E-05  0.2594084E+04  0.7818609E-02  0.8370213E-01
        1   -1    0    0  501    0  0.00000000000E+00  0.00000000000E+00  0.59815935078E+03  0.59815935080E+03  0.50400001928E-02 0.  1.
       -1   -1    0    0    0  501  0.00000000000E+00  0.00000000000E+00 -0.28124919314E+04  0.28124919314E+04  0.50400001928E-02 0. -1.
    10030    2    1    2    0    0  0.00000000000E+00  0.00000000000E+00 -0.22143325806E+04  0.34106512822E+04  0.25940843069E+04 0.  0.
        4    1    3    3  502    0 -0.12202556438E+04 -0.25976972969E+03 -0.64081275200E+03  0.14025500864E+04  0.12699999809E+01 0. -1.
       -4    1    3    3    0  502  0.12202556438E+04  0.25976972969E+03 -0.15735198286E+04  0.20081011958E+04  0.12699999809E+01 0.  1.
</event>
<event>
 5   0  0.1025153E-05  0.2610252E+04  0.7818609E-02  0.8364727E-01
       -1   -1    0    0    0  501  0.00000000000E+00  0.00000000000E+00  0.11220094024E+04  0.11220094024E+04  0.50400001928E-02 0. -1.
        1   -1    0    0  501    0  0.00000000000E+00  0.00000000000E+00 -0.15181278089E+04  0.15181278089E+04  0.50400001928E-02 0.  1.
    10030    2    1    2    0    0  0.00000000000E+00  0.00000000000E+00 -0.39611840648E+03  0.26401372112E+04  0.26102518465E+04 0.  0.
        1    1    3    3  502    0 -0.46838951942E+03  0.11497958039E+04 -0.60507741018E+03  0.13811364179E+04  0.50400001928E-02 0. -1.
       -1    1    3    3    0  502  0.46838951942E+03 -0.11497958039E+04  0.20895900370E+03  0.12590007934E+04  0.50400001928E-02 0.  1.
</event>
<event>
 5   0  0.2662024E-05  0.2606297E+04  0.7818609E-02  0.8366065E-01
       -2   -1    0    0    0  501  0.00000000000E+00  0.00000000000E+00  0.10264593242E+04  0.10264593242E+04  0.25500000920E-02 0. -1.
        2   -1    0    0  501    0  0.00000000000E+00  0.00000000000E+00 -0.16544215270E+04  0.16544215270E+04  0.25500000920E-02 0.  1.
    10030    2    1    2    0    0  0.00000000000E+00  0.00000000000E+00 -0.62796220273E+03  0.26808808512E+04  0.26062972989E+04 0.  0.
        2    1    3    3  502    0  0.11384576516E+04 -0.62923533807E+03 -0.39480096988E+03  0.13593714507E+04  0.25500000920E-02 0.  1.
       -2    1    3    3    0  502 -0.11384576516E+04  0.62923533807E+03 -0.23316123285E+03  0.13215094005E+04  0.25500000920E-02 0. -1.
</event>
<event>
 5   0  0.2555801E-05  0.2502378E+04  0.7818609E-02  0.8402139E-01
        2   -1    0    0  501    0  0.00000000000E+00  0.00000000000E+00  0.28750020253E+04  0.28750020253E+04  0.25500000920E-02 0.  1.
       -2   -1    0    0    0  501  0.00000000000E+00  0.00000000000E+00 -0.54451248124E+03  0.54451248125E+03  0.25500000920E-02 0. -1.
    10030    2    1    2    0    0  0.00000000000E+00  0.00000000000E+00  0.23304895440E+04  0.34195145065E+04  0.25023784577E+04 0.  0.
        1    1    3    3  502    0 -0.44761547169E+03  0.35193964975E+03  0.26876899961E+04  0.27473439251E+04  0.50400001928E-02 0.  1.
       -1    1    3    3    0  502  0.44761547169E+03 -0.35193964975E+03 -0.35720045206E+03  0.67217058144E+03  0.50400001928E-02 0. -1.
</event>
<event>
 5   0  0.9855352E-06  0.2593113E+04  0.7818609E-02  0.8370544E-01
       -1   -1    0    0    0  501  0.00000000000E+00  0.00000000000E+00  0.11860916346E+04  0.11860916346E+04  0.50400001928E-02 0.  1.
        1   -1    0    0  501    0  0.00000000000E+00  0.00000000000E+00 -0.14173090091E+04  0.14173090092E+04  0.50400001928E-02 0. -1.
    10030    2    1    2    0    0  0.00000000000E+00  0.00000000000E+00 -0.23121737457E+03  0.26034006437E+04  0.25931126928E+04 0.  0.
        2    1    3    3  502    0 -0.60197372984E+03 -0.18858825406E+03  0.10216344682E+04  0.12006976670E+04  0.25500000920E-02 0.  1.
       -2    1    3    3    0  502  0.60197372984E+03  0.18858825406E+03 -0.12528518428E+04  0.14027029767E+04  0.25500000920E-02 0. -1.
</event>
<event>
 5   0  0.1025153E-05  0.2591626E+04  0.7818609E-02  0.8371051E-01
        1   -1    0    0  501    0  0.00000000000E+00  0.00000000000E+00  0.17622455486E+04  0.17622455486E+04  0.50400001928E-02 0. -1.
       -1   -1    0    0    0  501  0.00000000000E+00  0.00000000000E+00 -0.95283610544E+03  0.95283610545E+03  0.50400001928E-02 0.  1.
    10030    2    1    2    0    0  0.00000000000E+00  0.00000000000E+00  0.80940944317E+03  0.27150816541E+04  0.25916258877E+04 0.  0.
        1    1    3    3  502    0 -0.49961482868E+03  0.29567578900E+03  0.16183778471E+04  0.17193562764E+04  0.50400001928E-02 0. -1.
       -1    1    3    3    0  502  0.49961482868E+03 -0.29567578900E+03 -0.80896840390E+03  0.99572537768E+03  0.50400001928E-02 0.  1.
</event>
<event>
 5   0  0.1005492E-05  0.2618806E+04  0.7818609E-02  0.8361841E-01
        1   -1    0    0  501    0  0.00000000000E+00  0.00000000000E+00  0.83718913058E+03  0.83718913059E+03  0.50400001928E-02 0. -1.
       -1   -1    0    0    0  501  0.00000000000E+00  0.00000000000E+00 -0.20479669356E+04  0.20479669356E+04  0.50400001928E-02 0.  1.
    10030    2    1    2    0    0  0.00000000000E+00  0.00000000000E+00 -0.12107778051E+04  0.28851560662E+04  0.26188055738E+04 0.  0.
        4    1    3    3  502    0 -0.95873900332E+03 -0.63937501576E+03  0.79579702889E+02  0.11551257201E+04  0.12699999809E+01 0. -1.
       -4    1    3    3    0  502  0.95873900332E+03  0.63937501576E+03 -0.12903575079E+04  0.17300303461E+04  0.12699999809E+01 0.  1.
</event>
<event>
 5   0  0.2517854E-05  0.2593529E+04  0.7818609E-02  0.8370403E-01
       -2   -1    0    0    0  501  0.00000000000E+00  0.00000000000E+00  0.10203793725E+04  0.10203793725E+04  0.25500000920E-02 0. -1.
        2   -1    0    0  501    0  0.00000000000E+00  0.00000000000E+00 -0.16480124445E+04  0.16480124445E+04  0.25500000920E-02 0.  1.
    10030    2    1    2    0    0  0.00000000000E+00  0.00000000000E+00 -0.62763307205E+03  0.26683918170E+04  0.25935287960E+04 0.  0.
        4    1    3    3  502    0 -0.36898781942E+03  0.94945858280E+03 -0.11394594298E+04  0.15283955693E+04  0.12699999809E+01 0.  1.
       -4    1    3    3    0  502  0.36898781942E+03 -0.94945858280E+03  0.51182635771E+03  0.11399962477E+04  0.12699999809E+01 0. -1.
</event>
<event>
 5   0  0.1000421E-05  0.2643170E+04  0.7818609E-02  0.8353684E-01
       -1   -1    0    0    0  501  0.00000000000E+00  0.00000000000E+00  0.84707293679E+03  0.84707293680E+03  0.50400001928E-02 0.  1.
        1   -1    0    0  501    0  0.00000000000E+00  0.00000000000E+00 -0.20619079147E+04  0.20619079147E+04  0.50400001928E-02 0. -1.
    10030    2    1    2    0    0  0.00000000000E+00  0.00000000000E+00 -0.12148349779E+04  0.29089808515E+04  0.26431696069E+04 0.  0.
        3    1    3    3  502    0  0.16849254065E+03 -0.10302296766E+04  0.28453178979E+03  0.10819987396E+04  0.10100000352E+00 0.  1.
       -3    1    3    3    0  502 -0.16849254065E+03  0.10302296766E+04 -0.14993667677E+04  0.18269821119E+04  0.10100000352E+00 0. -1.
</event>
<event>
 5   0  0.1025153E-05  0.2627663E+04  0.7818609E-02  0.8358865E-01
        1   -1    0    0  501    0  0.00000000000E+00  0.00000000000E+00  0.20097128212E+04  0.20097128212E+04  0.50400001928E-02 0.  1.
       -1   -1    0    0    0  501  0.00000000000E+00  0.00000000000E+00 -0.85890524829E+03  0.85890524831E+03  0.50400001928E-02 0. -1.
    10030    2    1    2    0    0  0.00000000000E+00  0.00000000000E+00  0.11508075729E+04  0.28686180695E+04  0.26276627559E+04 0.  0.
        1    1    3    3  502    0 -0.10349146770E+04 -0.16702018011E+02 -0.30801353489E+03  0.10799072570E+04  0.50400001928E-02 0. -1.
       -1    1    3    3    0  502  0.10349146770E+04  0.16702018011E+02  0.14588211078E+04  0.17887108124E+04  0.50400001928E-02 0.  1.
</event>
<event>
 5   0  0.1025153E-05  0.2601827E+04  0.7818609E-02  0.8367581E-01
        1   -1    0    0  501    0  0.00000000000E+00  0.00000000000E+00  0.27583041789E+04  0.27583041789E+04  0.50400001928E-02 0.  1.
       -1   -1    0    0    0  501  0.00000000000E+00  0.00000000000E+00 -0.61355670415E+03  0.61355670417E+03  0.50400001928E-02 0. -1.
    10030    2    1    2    0    0  0.00000000000E+00  0.00000000000E+00  0.21447474747E+04  0.33718608831E+04  0.26018270666E+04 0.  0.
        1    1    3    3  502    0 -0.79151343378E+02  0.25912041002E+03  0.27213344664E+04  0.27347887670E+04  0.50400001928E-02 0.  1.
       -1    1    3    3    0  502  0.79151343378E+02 -0.25912041002E+03 -0.57658699168E+03  0.63707211605E+03  0.50400001928E-02 0. -1.
</event>
<event>
 5   0  0.2517854E-05  0.2615522E+04  0.7818609E-02  0.8362948E-01
        2   -1    0    0  501    0  0.00000000000E+00  0.00000000000E+00  0.16174234678E+04  0.16174234678E+04  0.25500000920E-02 0.  1.
       -2   -1    0    0    0  501  0.00000000000E+00  0.00000000000E+00 -0.10573844215E+04  0.10573844216E+04  0.25500000920E-02 0. -1.
    10030    2    1    2    0    0  0.00000000000E+00  0.00000000000E+00  0.56003904622E+03  0.26748078893E+04  0.26155216519E+04 0.  0.
        4    1    3    3  502    0 -0.39385730715E+03  0.73624382203E+03 -0.74930300627E+03  0.11218890997E+04  0.12699999809E+01 0. -1.
       -4    1    3    3    0  502  0.39385730715E+03 -0.73624382203E+03  0.13093420525E+04  0.15529187896E+04  0.12699999809E+01 0.  1.
</event>
<event>
 5   0  0.2484618E-05  0.2496438E+04  0.7818609E-02  0.8404256E-01
        2   -1    0    0  501    0  0.00000000000E+00  0.00000000000E+00  0.26773129379E+04  0.26773129379E+04  0.25500000920E-02 0.  1.
       -2   -1    0    0    0  501  0.00000000000E+00  0.00000000000E+00 -0.58194576166E+03  0.58194576166E+03  0.25500000920E-02 0. -1.
    10030    2    1    2    0    0  0.00000000000E+00  0.00000000000E+00  0.20953671763E+04  0.32592586996E+04  0.24964381962E+04 0.  0.
        3    1    3    3  502    0 -0.19126003312E+03 -0.17659473431E+03  0.26414792908E+04  0.26542755988E+04  0.10100000352E+00 0.  1.
       -3    1    3    3    0  502  0.19126003312E+03  0.17659473431E+03 -0.54611211451E+03  0.60498310081E+03  0.10100000352E+00 0. -1.
</event>
<event>
 5   0  0.2528460E-05  0.2425673E+04  0.7818609E-02  0.8429954E-01
        2   -1    0    0  501    0  0.00000000000E+00  0.00000000000E+00  0.17052796691E+04  0.17052796691E+04  0.25500000920E-02 0. -1.
       -2   -1    0    0    0  501  0.00000000000E+00  0.00000000000E+00 -0.86259905072E+03  0.86259905073E+03  0.25500000920E-02 0.  1.
    10030    2    1    2    0    0  0.00000000000E+00  0.00000000000E+00  0.84268061839E+03  0.25678787198E+04  0.24256732045E+04 0.  0.
        5    1    3    3  502    0 -0.88256340221E+03 -0.78528699144E+03  0.13073523081E+03  0.11885737707E+04  0.46999998093E+01 0.  1.
       -5    1    3    3    0  502  0.88256340221E+03  0.78528699144E+03  0.71194538758E+03  0.13793049491E+04  0.46999998093E+01 0. -1.
</event>
<event>
 5   0  0.2484618E-05  0.2591649E+04  0.7818609E-02  0.8371043E-01
        2   -1    0    0  501    0  0.00000000000E+00  0.00000000000E+00  0.25706108703E+04  0.25706108703E+04  0.25500000920E-02 0. -1.
       -2   -1    0    0    0  501  0.00000000000E+00  0.00000000000E+00 -0.65321491462E+03  0.65321491463E+03  0.25500000920E-02 0.  1.
    10030    2    1    2    0    0  0.00000000000E+00  0.00000000000E+00  0.19173959557E+04  0.32238257850E+04  0.25916491739E+04 0.  0.
        3    1    3    3  502    0 -0.87675974086E+03  0.44862756053E+03  0.20062503428E+04  0.22349529703E+04  0.10100000352E+00 0.  1.
       -3    1    3    3    0  502  0.87675974086E+03 -0.44862756053E+03 -0.88854387088E+02  0.98887281466E+03  0.10100000352E+00 0. -1.
</event>
<event>
 5   0  0.1034714E-05  0.2644069E+04  0.7818609E-02  0.8353384E-01
        1   -1    0    0  501    0  0.00000000000E+00  0.00000000000E+00  0.22251412205E+04  0.22251412205E+04  0.50400001928E-02 0.  1.
       -1   -1    0    0    0  501  0.00000000000E+00  0.00000000000E+00 -0.78546713594E+03  0.78546713595E+03  0.50400001928E-02 0. -1.
    10030    2    1    2    0    0  0.00000000000E+00  0.00000000000E+00  0.14396740846E+04  0.30106083565E+04  0.26440690623E+04 0.  0.
        5    1    3    3  502    0 -0.73575247152E+03  0.36650463490E+03 -0.45912080795E+03  0.94152607666E+03  0.46999998093E+01 0. -1.
       -5    1    3    3    0  502  0.73575247152E+03 -0.36650463490E+03  0.18987948925E+04  0.20690822798E+04  0.46999998093E+01 0.  1.
</event>
<event>
 5   0  0.2528460E-05  0.2413590E+04  0.7818609E-02  0.8434433E-01
       -2   -1    0    0    0  501  0.00000000000E+00  0.00000000000E+00  0.11115929485E+04  0.11115929486E+04  0.25500000920E-02 0.  1.
        2   -1    0    0  501    0  0.00000000000E+00  0.00000000000E+00 -0.13101505927E+04  0.13101505927E+04  0.25500000920E-02 0. -1.
    10030    2    1    2    0    0  0.00000000000E+00  0.00000000000E+00 -0.19855764411E+03  0.24217435412E+04  0.24135899903E+04 0.  0.
        5    1    3    3  502    0  0.81122503451E+03 -0.87794751137E+03  0.66973951941E+02  0.11972407818E+04  0.46999998093E+01 0.  1.
       -5    1    3    3    0  502 -0.81122503451E+03  0.87794751137E+03 -0.26553159605E+03  0.12245027594E+04  0.46999998093E+01 0. -1.
</event>
<event>
 5   0  0.2662024E-05  0.2612452E+04  0.7818609E-02  0.8363984E-01
        2   -1    0    0  501    0  0.00000000000E+00  0.00000000000E+00  0.13124642522E+04  0.13124642522E+04  0.25500000920E-02 0. -1.
       -2   -1    0    0    0  501  0.00000000000E+00  0.00000000000E+00 -0.13000171124E+04  0.13000171124E+04  0.25500000920E-02 0.  1.
    10030    2    1    2    0    0  0.00000000000E+00  0.00000000000E+00  0.12447139781E+02  0.26124813646E+04  0.26124517123E+04 0.  0.
        2    1    3    3  502    0 -0.12797895626E+04  0.24455354773E+03  0.98735294936E+02  0.13066814534E+04  0.25500000920E-02 0. -1.
       -2    1    3    3    0  502  0.12797895626E+04 -0.24455354773E+03 -0.86288155155E+02  0.13057999111E+04  0.25500000920E-02 0.  1.
</event>
<event>
 5   0  0.2528460E-05  0.2687798E+04  0.7818609E-02  0.8338975E-01
       -2   -1    0    0    0  501  0.00000000000E+00  0.00000000000E+00  0.18169859515E+04  0.18169859515E+04  0.25500000920E-02 0. -1.
        2   -1    0    0  501    0  0.00000000000E+00  0.00000000000E+00 -0.99398960747E+03  0.99398960748E+03  0.25500000920E-02 0.  1.
    10030    2    1    2    0    0  0.00000000000E+00  0.00000000000E+00  0.82299634407E+03  0.28109755590E+04  0.26877984692E+04 0.  0.
        5    1    3    3  502    0  0.11457173211E+04  0.12721140317E+03 -0.31095051962E+03  0.11939695292E+04  0.46999998093E+01 0.  1.
       -5    1    3    3    0  502 -0.11457173211E+04 -0.12721140317E+03  0.11339468637E+04  0.16170060299E+04  0.46999998093E+01 0. -1.
</event>
<event>
 5   0  0.1025153E-05  0.2690875E+04  0.7818609E-02  0.8337972E-01
        1   -1    0    0  501    0  0.00000000000E+00  0.00000000000E+00  0.73090051867E+03  0.73090051869E+03  0.50400001928E-02 0.  1.
       -1   -1    0    0    0  501  0.00000000000E+00  0.00000000000E+00 -0.24766737280E+04  0.24766737280E+04  0.50400001928E-02 0. -1.
    10030    2    1    2    0    0  0.00000000000E+00  0.00000000000E+00 -0.17457732093E+04  0.32075742467E+04  0.26908750342E+04 0.  0.
        1    1    3    3  502    0 -0.28392262236E+03 -0.14773963251E+03  0.68486065498E+03  0.75595844546E+03  0.50400001928E-02 0.  1.
       -1    1    3    3    0  502  0.28392262236E+03  0.14773963251E+03 -0.24306338643E+04  0.24516158012E+04  0.50400001928E-02 0. -1.
</event>
<event>
 5   0  0.2662024E-05  0.2570650E+04  0.7818609E-02  0.8378239E-01
       -2   -1    0    0    0  501  0.00000000000E+00  0.00000000000E+00  0.55816259423E+03  0.55816259423E+03  0.25500000920E-02 0.  1.
        2   -1    0    0  501    0  0.00000000000E+00  0.00000000000E+00 -0.29598199122E+04  0.29598199122E+04  0.25500000920E-02 0. -1.
    10030    2    1    2    0    0  0.00000000000E+00  0.00000000000E+00 -0.24016573179E+04  0.35179825064E+04  0.25706503151E+04 0.  0.
        2    1    3    3  502    0  0.20026042973E+03 -0.49353577824E+03  0.40003322842E+03  0.66611439555E+03  0.25500000920E-02 0.  1.
       -2    1    3    3    0  502 -0.20026042973E+03  0.49353577824E+03 -0.28016905464E+04  0.28518681108E+04  0.25500000920E-02 0. -1.
</event>
<event>
 5   0  0.1034714E-05  0.2662578E+04  0.7818609E-02  0.8347250E-01
       -1   -1    0    0    0  501  0.00000000000E+00  0.00000000000E+00  0.34447397494E+04  0.34447397494E+04  0.50400001928E-02 0. -1.
        1   -1    0    0  501    0  0.00000000000E+00  0.00000000000E+00 -0.51450346817E+03  0.51450346820E+03  0.50400001928E-02 0.  1.
    10030    2    1    2    0    0  0.00000000000E+00  0.00000000000E+00  0.29302362812E+04  0.39592432176E+04  0.26625781101E+04 0.  0.
        5    1    3    3  502    0 -0.57542267354E+03 -0.11234371664E+04  0.20943936206E+04  0.24453484513E+04  0.46999998093E+01 0.  1.
       -5    1    3    3    0  502  0.57542267354E+03  0.11234371664E+04  0.83584266063E+03  0.15138947663E+04  0.46999998093E+01 0. -1.
</event>
<event>
 5   0  0.1000421E-05  0.2540044E+04  0.7818609E-02  0.8388857E-01
        1   -1    0    0  501    0  0.00000000000E+00  0.00000000000E+00  0.14961859184E+04  0.14961859184E+04  0.50400001928E-02 0. -1.
       -1   -1    0    0    0  501  0.00000000000E+00  0.00000000000E+00 -0.10780454046E+04  0.10780454046E+04  0.50400001928E-02 0.  1.
    10030    2    1    2    0    0  0.00000000000E+00  0.00000000000E+00  0.41814051388E+03  0.25742313230E+04  0.25400443727E+04 0.  0.
        3    1    3    3  502    0  0.21239620026E+03 -0.53572271042E+03  0.13560470193E+04  0.14734227150E+04  0.10100000352E+00 0. -1.
       -3    1    3    3    0  502 -0.21239620026E+03  0.53572271042E+03 -0.93790650542E+03  0.11008086080E+04  0.10100000352E+00 0.  1.
</event>
<event>
 5   0  0.2517854E-05  0.2593810E+04  0.7818609E-02  0.8370307E-01
       -2   -1    0    0    0  501  0.00000000000E+00  0.00000000000E+00  0.13423116612E+04  0.13423116612E+04  0.25500000920E-02 0.  1.
        2   -1    0    0  501    0  0.00000000000E+00  0.00000000000E+00 -0.12530339629E+04  0.12530339629E+04  0.25500000920E-02 0. -1.
    10030    2    1    2    0    0  0.00000000000E+00  0.00000000000E+00  0.89277698291E+02  0.25953456241E+04  0.25938096308E+04 0.  0.
        4    1    3    3  502    0  0.10353185167E+04 -0.32616765069E+02  0.82549331837E+03  0.13245335465E+04  0.12699999809E+01 0.  1.
       -4    1    3    3    0  502 -0.10353185167E+04  0.32616765069E+02 -0.73621562008E+03  0.12708120776E+04  0.12699999809E+01 0. -1.
</event>
<event>
 5   0  0.1000421E-05  0.2608673E+04  0.7818609E-02  0.8365261E-01
       -1   -1    0    0    0  501  0.00000000000E+00  0.00000000000E+00  0.88549348605E+03  0.88549348606E+03  0.50400001928E-02 0.  1.
        1   -1    0    0  501    0  0.00000000000E+00  0.00000000000E+00 -0.19212937187E+04  0.19212937187E+04  0.50400001928E-02 0. -1.
    10030    2    1    2    0    0  0.00000000000E+00  0.00000000000E+00 -0.10358002327E+04  0.28067872048E+04  0.26086725151E+04 0.  0.
        3    1    3    3  502    0 -0.24863537576E+03 -0.78986800397E+03 -0.16021950622E+04  0.18035354284E+04  0.10100000352E+00 0. -1.
       -3    1    3    3    0  502  0.24863537576E+03  0.78986800397E+03  0.56639482954E+03  0.10032517764E+04  0.10100000352E+00 0.  1.
</event>
<event>
 5   0  0.1005492E-05  0.2582024E+04  0.7818609E-02  0.8374333E-01
       -1   -1    0    0    0  501  0.00000000000E+00  0.00000000000E+00  0.13419901062E+04  0.13419901062E+04  0.50400001928E-02 0. -1.
        1   -1    0    0  501    0  0.00000000000E+00  0.00000000000E+00 -0.12419704824E+04  0.12419704824E+04  0.50400001928E-02 0.  1.
    10030    2    1    2    0    0  0.00000000000E+00  0.00000000000E+00  0.10001962373E+03  0.25839605886E+04  0.25820240894E+04 0.  0.
        4    1    3    3  502    0 -0.11248747914E+04  0.12016498162E+03 -0.57249173101E+03  0.12678845823E+04  0.12699999809E+01 0.  1.
       -4    1    3    3    0  502  0.11248747914E+04 -0.12016498162E+03  0.67251135474E+03  0.13160760063E+04  0.12699999809E+01 0. -1.
</event>
<event>
 5   0  0.1000421E-05  0.2623892E+04  0.7818609E-02  0.8360131E-01
       -1   -1    0    0    0  501  0.00000000000E+00  0.00000000000E+00  0.83562629000E+03  0.83562629002E+03  0.50400001928E-02 0. -1.
        1   -1    0    0  501    0  0.00000000000E+00  0.00000000000E+00 -0.20597752969E+04  0.20597752969E+04  0.50400001928E-02 0.  1.
    10030    2    1    2    0    0  0.00000000000E+00  0.00000000000E+00 -0.12241490069E+04  0.28954015870E+04  0.26238920631E+04 0.  0.
        3    1    3    3  502    0 -0.23685907470E+02 -0.12247828512E+04 -0.11302951643E+04  0.16667996951E+04  0.10100000352E+00 0.  1.
       -3    1    3    3    0  502  0.23685907470E+02  0.12247828512E+04 -0.93853842623E+02  0.12286018919E+04  0.10100000352E+00 0. -1.
</event>
<event>
 5   0  0.2528460E-05  0.2594493E+04  0.7818609E-02  0.8370074E-01
       -2   -1    0    0    0  501  0.00000000000E+00  0.00000000000E+00  0.96615987148E+03  0.96615987148E+03  0.25500000920E-02 0. -1.
        2   -1    0    0  501    0  0.00000000000E+00  0.00000000000E+00 -0.17417909330E+04  0.17417909330E+04  0.25500000920E-02 0.  1.
    10030    2    1    2    0    0  0.00000000000E+00  0.00000000000E+00 -0.77563106147E+03  0.27079508044E+04  0.25944930171E+04 0.  0.
        5    1    3    3  502    0 -0.80169147757E+03 -0.15610898689E+03  0.66410050382E+03  0.10526779233E+04  0.46999998093E+01 0. -1.
       -5    1    3    3    0  502  0.80169147757E+03  0.15610898689E+03 -0.14397315653E+04  0.16552728812E+04  0.46999998093E+01 0.  1.
</event>
<event>
 5   0  0.1005492E-05  0.2635437E+04  0.7818609E-02  0.8356263E-01
       -1   -1    0    0    0  501  0.00000000000E+00  0.00000000000E+00  0.13752866743E+04  0.13752866743E+04  0.50400001928E-02 0.  1.
        1   -1    0    0  501    0  0.00000000000E+00  0.00000000000E+00 -0.12625598603E+04  0.12625598603E+04  0.50400001928E-02 0. -1.
    10030    2    1    2    0    0  0.00000000000E+00  0.00000000000E+00  0.11272681398E+03  0.26378465346E+04  0.26354367770E+04 0.  0.
        4    1    3    3  502    0 -0.11150633165E+04  0.42001487089E+03 -0.50682456502E+03  0.12948557619E+04  0.12699999809E+01 0. -1.
       -4    1    3    3    0  502  0.11150633165E+04 -0.42001487089E+03  0.61955137900E+03  0.13429907727E+04  0.12699999809E+01 0.  1.
</event>
<event>
 5   0  0.1034714E-05  0.2086847E+04  0.7818609E-02  0.8567060E-01
        1   -1    0    0  501    0  0.00000000000E+00  0.00000000000E+00  0.14688419034E+04  0.14688419034E+04  0.50400001928E-02 0. -1.
       -1   -1    0    0    0  501  0.00000000000E+00  0.00000000000E+00 -0.74121821077E+03  0.74121821078E+03  0.50400001928E-02 0.  1.
    10030    2    1    2    0    0  0.00000000000E+00  0.00000000000E+00  0.72762369265E+03  0.22100601142E+04  0.20868467769E+04 0.  0.
        5    1    3    3  502    0  0.37571307309E+03  0.86757159042E+03 -0.10369229140E+03  0.95111248498E+03  0.46999998093E+01 0.  1.
       -5    1    3    3    0  502 -0.37571307309E+03 -0.86757159042E+03  0.83131598406E+03  0.12589476292E+04  0.46999998093E+01 0. -1.
</event>
<event>
 5   0  0.2528460E-05  0.2598750E+04  0.7818609E-02  0.8368626E-01
       -2   -1    0    0    0  501  0.00000000000E+00  0.00000000000E+00  0.13337194258E+04  0.13337194258E+04  0.25500000920E-02 0.  1.
        2   -1    0    0  501    0  0.00000000000E+00  0.00000000000E+00 -0.12659148200E+04  0.12659148200E+04  0.25500000920E-02 0. -1.
    10030    2    1    2    0    0  0.00000000000E+00  0.00000000000E+00  0.67804605835E+02  0.25996342458E+04  0.25987498432E+04 0.  0.
        5    1    3    3  502    0  0.78422369962E+01  0.92066904726E+03 -0.88328490988E+03  0.12758947125E+04  0.46999998093E+01 0. -1.
       -5    1    3    3    0  502 -0.78422369962E+01 -0.92066904726E+03  0.95108951571E+03  0.13237395334E+04  0.46999998093E+01 0.  1.
</event>
<event>
 5   0  0.1034714E-05  0.2594286E+04  0.7818609E-02  0.8370145E-01
       -1   -1    0    0    0  501  0.00000000000E+00  0.00000000000E+00  0.11816828480E+04  0.11816828480E+04  0.50400001928E-02 0. -1.
        1   -1    0    0  501    0  0.00000000000E+00  0.00000000000E+00 -0.14238847177E+04  0.14238847177E+04  0.50400001928E-02 0.  1.
    10030    2    1    2    0    0  0.00000000000E+00  0.00000000000E+00 -0.24220186973E+03  0.26055675657E+04  0.25942861434E+04 0.  0.
        5    1    3    3  502    0 -0.97825681132E+03 -0.84149228376E+03  0.11619104827E+02  0.12904467235E+04  0.46999998093E+01 0. -1.
       -5    1    3    3    0  502  0.97825681132E+03  0.84149228376E+03 -0.25382097455E+03  0.13151208422E+04  0.46999998093E+01 0.  1.
</event>
<event>
 5   0  0.2517854E-05  0.2661891E+04  0.7818609E-02  0.8347477E-01
        2   -1    0    0  501    0  0.00000000000E+00  0.00000000000E+00  0.17734448769E+04  0.17734448769E+04  0.25500000920E-02 0. -1.
       -2   -1    0    0    0  501  0.00000000000E+00  0.00000000000E+00 -0.99885560390E+03  0.99885560390E+03  0.25500000920E-02 0.  1.
    10030    2    1    2    0    0  0.00000000000E+00  0.00000000000E+00  0.77458927301E+03  0.27723004808E+04  0.26618905714E+04 0.  0.
        4    1    3    3  502    0  0.14526175664E+03  0.13169310770E+04  0.51905416377E+03  0.14229642572E+04  0.12699999809E+01 0. -1.
       -4    1    3    3    0  502 -0.14526175664E+03 -0.13169310770E+04  0.25553510925E+03  0.13493362236E+04  0.12699999809E+01 0.  1.
</event>
<event>
 5   0  0.1005492E-05  0.2631339E+04  0.7818609E-02  0.8357633E-01
       -1   -1    0    0    0  501  0.00000000000E+00  0.00000000000E+00  0.10478201090E+04  0.10478201090E+04  0.50400001928E-02 0. -1.
        1   -1    0    0  501    0  0.00000000000E+00  0.00000000000E+00 -0.16519885733E+04  0.16519885733E+04  0.50400001928E-02 0.  1.
    10030    2    1    2    0    0  0.00000000000E+00  0.00000000000E+00 -0.60416846429E+03  0.26998086823E+04  0.26313394665E+04 0.  0.
        4    1    3    3  502    0  0.12691904444E+04 -0.69397169850E+02 -0.65051590100E+03  0.14278770611E+04  0.12699999809E+01 0. -1.
       -4    1    3    3    0  502 -0.12691904444E+04  0.69397169850E+02  0.46347436705E+02  0.12719316212E+04  0.12699999809E+01 0.  1.
</event>
<event>
 5   0  0.9855352E-06  0.2585675E+04  0.7818609E-02  0.8373083E-01
       -1   -1    0    0    0  501  0.00000000000E+00  0.00000000000E+00  0.14221998915E+04  0.14221998916E+04  0.50400001928E-02 0.  1.
        1   -1    0    0  501    0  0.00000000000E+00  0.00000000000E+00 -0.11752417177E+04  0.11752417177E+04  0.50400001928E-02 0. -1.
    10030    2    1    2    0    0  0.00000000000E+00  0.00000000000E+00  0.24695817384E+03  0.25974416093E+04  0.25856748779E+04 0.  0.
        2    1    3    3  502    0  0.13093853365E+03  0.61099514789E+03  0.12604284742E+04  0.14068190746E+04  0.25500000920E-02 0.  1.
       -2    1    3    3    0  502 -0.13093853365E+03 -0.61099514789E+03 -0.10134703003E+04  0.11906225346E+04  0.25500000920E-02 0. -1.
</event>
<event>
 5   0  0.1000421E-05  0.2591654E+04  0.7818609E-02  0.8371042E-01
       -1   -1    0    0    0  501  0.00000000000E+00  0.00000000000E+00  0.98177753429E+03  0.98177753430E+03  0.50400001928E-02 0. -1.
        1   -1    0    0  501    0  0.00000000000E+00  0.00000000000E+00 -0.17103335074E+04  0.17103335074E+04  0.50400001928E-02 0.  1.
    10030    2    1    2    0    0  0.00000000000E+00  0.00000000000E+00 -0.72855597310E+03  0.26921110417E+04  0.25916535368E+04 0.  0.
        3    1    3    3  502    0 -0.28832734272E+03  0.11655698183E+04 -0.87048805274E+03  0.14830492635E+04  0.10100000352E+00 0. -1.
       -3    1    3    3    0  502  0.28832734272E+03 -0.11655698183E+04  0.14193207964E+03  0.12090617781E+04  0.10100000352E+00 0.  1.
</event>
<event>
 5   0  0.2484618E-05  0.1949020E+04  0.7818609E-02  0.8630833E-01
        2   -1    0    0  501    0  0.00000000000E+00  0.00000000000E+00  0.15783374933E+04  0.15783374933E+04  0.25500000920E-02 0. -1.
       -2   -1    0    0    0  501  0.00000000000E+00  0.00000000000E+00 -0.60169006239E+03  0.60169006240E+03  0.25500000920E-02 0.  1.
    10030    2    1    2    0    0  0.00000000000E+00  0.00000000000E+00  0.97664743095E+03  0.21800275557E+04  0.19490202512E+04 0.  0.
        3    1    3    3  502    0 -0.14410460773E+03  0.23876594461E+03  0.15327496334E+04  0.15579142349E+04  0.10100000352E+00 0. -1.
       -3    1    3    3    0  502  0.14410460773E+03 -0.23876594461E+03 -0.55610220244E+03  0.62211332090E+03  0.10100000352E+00 0.  1.
</event>
<event>
 5   0  0.9855352E-06  0.2590184E+04  0.7818609E-02  0.8371543E-01
        1   -1    0    0  501    0  0.00000000000E+00  0.00000000000E+00  0.17875742576E+04  0.17875742576E+04  0.50400001928E-02 0. -1.
       -1   -1    0    0    0  501  0.00000000000E+00  0.00000000000E+00 -0.93829027950E+03  0.93829027951E+03  0.50400001928E-02 0.  1.
    10030    2    1    2    0    0  0.00000000000E+00  0.00000000000E+00  0.84928397809E+03  0.27258645371E+04  0.25901842018E+04 0.  0.
        2    1    3    3  502    0  0.90478778734E+03  0.56075674908E+03  0.12009654377E+04  0.16048074820E+04  0.25500000920E-02 0. -1.
       -2    1    3    3    0  502 -0.90478778734E+03 -0.56075674908E+03 -0.35168145960E+03  0.11210570551E+04  0.25500000920E-02 0.  1.
</event>
<event>
 5   0  0.9855352E-06  0.2764218E+04  0.7818609E-02  0.8314464E-01
       -1   -1    0    0    0  501  0.00000000000E+00  0.00000000000E+00  0.10586207859E+04  0.10586207859E+04  0.50400001928E-02 0.  1.
        1   -1    0    0  501    0  0.00000000000E+00  0.00000000000E+00 -0.18044475437E+04  0.18044475437E+04  0.50400001928E-02 0. -1.
    10030    2    1    2    0    0  0.00000000000E+00  0.00000000000E+00 -0.74582675782E+03  0.28630683297E+04  0.27642182815E+04 0.  0.
        2    1    3    3  502    0 -0.67909987080E+03 -0.12032927697E+04 -0.33801035520E+03  0.14224419581E+04  0.25500000920E-02 0.  1.
       -2    1    3    3    0  502  0.67909987080E+03  0.12032927697E+04 -0.40781640262E+03  0.14406263715E+04  0.25500000920E-02 0. -1.
</event>
<event>
 5   0  0.2528460E-05  0.2615773E+04  0.7818609E-02  0.8362863E-01
       -2   -1    0    0    0  501  0.00000000000E+00  0.00000000000E+00  0.14034416237E+04  0.14034416237E+04  0.25500000920E-02 0.  1.
        2   -1    0    0  501    0  0.00000000000E+00  0.00000000000E+00 -0.12188372085E+04  0.12188372085E+04  0.25500000920E-02 0. -1.
    10030    2    1    2    0    0  0.00000000000E+00  0.00000000000E+00  0.18460441517E+03  0.26222788322E+04  0.26157728272E+04 0.  0.
        5    1    3    3  502    0  0.10653164338E+04  0.57258402415E+03 -0.40672422241E+03  0.12760087194E+04  0.46999998093E+01 0. -1.
       -5    1    3    3    0  502 -0.10653164338E+04 -0.57258402415E+03  0.59132863759E+03  0.13462701128E+04  0.46999998093E+01 0.  1.
</event>
<event>
 5   0  0.2517854E-05  0.2679284E+04  0.7818609E-02  0.8341758E-01
       -2   -1    0    0    0  501  0.00000000000E+00  0.00000000000E+00  0.86781196465E+03  0.86781196465E+03  0.25500000920E-02 0. -1.
        2   -1    0    0  501    0  0.00000000000E+00  0.00000000000E+00 -0.20680062472E+04  0.20680062472E+04  0.25500000920E-02 0.  1.
    10030    2    1    2    0    0  0.00000000000E+00  0.00000000000E+00 -0.12001942826E+04  0.29358182119E+04  0.26792839076E+04 0.  0.
        4    1    3    3  502    0  0.84947992181E+03 -0.49749103897E+03  0.39548171763E+03  0.10609056854E+04  0.12699999809E+01 0. -1.
       -4    1    3    3    0  502 -0.84947992181E+03  0.49749103897E+03 -0.15956760002E+04  0.18749125265E+04  0.12699999809E+01 0.  1.
</event>
<event>
 5   0  0.9855352E-06  0.2613250E+04  0.7818609E-02  0.8363714E-01
        1   -1    0    0  501    0  0.00000000000E+00  0.00000000000E+00  0.17759281441E+04  0.17759281441E+04  0.50400001928E-02 0.  1.
       -1   -1    0    0    0  501  0.00000000000E+00  0.00000000000E+00 -0.96133890896E+03  0.96133890897E+03  0.50400001928E-02 0. -1.
    10030    2    1    2    0    0  0.00000000000E+00  0.00000000000E+00  0.81458923512E+03  0.27372670531E+04  0.26132499494E+04 0.  0.
        2    1    3    3  502    0  0.41002177439E+03  0.10096818363E+03 -0.88789623735E+03  0.98319487279E+03  0.25500000920E-02 0. -1.
       -2    1    3    3    0  502 -0.41002177439E+03 -0.10096818363E+03  0.17024854725E+04  0.17540721803E+04  0.25500000920E-02 0.  1.
</event>
<event>
 5   0  0.1000421E-05  0.2618327E+04  0.7818609E-02  0.8362002E-01
       -1   -1    0    0    0  501  0.00000000000E+00  0.00000000000E+00  0.66584621356E+03  0.66584621358E+03  0.50400001928E-02 0. -1.
        1   -1    0    0  501    0  0.00000000000E+00  0.00000000000E+00 -0.25740319848E+04  0.25740319848E+04  0.50400001928E-02 0.  1.
    10030    2    1    2    0    0  0.00000000000E+00  0.00000000000E+00 -0.19081857712E+04  0.32398781984E+04  0.26183272910E+04 0.  0.
        3    1    3    3  502    0  0.45505871823E+03  0.48533105369E+03  0.44107404396E+03  0.79822991122E+03  0.10100000352E+00 0. -1.
       -3    1    3    3    0  502 -0.45505871823E+03 -0.48533105369E+03 -0.23492598152E+04  0.24416482872E+04  0.10100000352E+00 0.  1.
</event>
<event>
 5   0  0.1000421E-05  0.2624388E+04  0.7818609E-02  0.8359964E-01
        1   -1    0    0  501    0  0.00000000000E+00  0.00000000000E+00  0.11085762458E+04  0.11085762459E+04  0.50400001928E-02 0. -1.
       -1   -1    0    0    0  501  0.00000000000E+00  0.00000000000E+00 -0.15532111697E+04  0.15532111698E+04  0.50400001928E-02 0.  1.
    10030    2    1    2    0    0  0.00000000000E+00  0.00000000000E+00 -0.44463492390E+03  0.26617874156E+04  0.26243879344E+04 0.  0.
        3    1    3    3  502    0 -0.52919898245E+03 -0.94462303576E+03  0.52952134676E+03  0.12053037416E+04  0.10100000352E+00 0. -1.
       -3    1    3    3    0  502  0.52919898245E+03  0.94462303576E+03 -0.97415627066E+03  0.14564836740E+04  0.10100000352E+00 0.  1.
</event>
<event>
 5   0  0.2662024E-05  0.1990986E+04  0.7818609E-02  0.8610846E-01
       -2   -1    0    0    0  501  0.00000000000E+00  0.00000000000E+00  0.77535764109E+03  0.77535764110E+03  0.25500000920E-02 0. -1.
        2   -1    0    0  501    0  0.00000000000E+00  0.00000000000E+00 -0.12781284638E+04  0.12781284638E+04  0.25500000920E-02 0.  1.
    10030    2    1    2    0    0  0.00000000000E+00  0.00000000000E+00 -0.50277082275E+03  0.20534861049E+04  0.19909863593E+04 0.  0.
        2    1    3    3  502    0 -0.25102843483E+03 -0.29849933715E+03 -0.11960461675E+04  0.12580316229E+04  0.25500000920E-02 0.  1.
       -2    1    3    3    0  502  0.25102843483E+03  0.29849933715E+03  0.69327534475E+03  0.79545448205E+03  0.25500000920E-02 0. -1.
</event>
<event>
 5   0  0.1025153E-05  0.2609832E+04  0.7818609E-02  0.8364869E-01
       -1   -1    0    0    0  501  0.00000000000E+00  0.00000000000E+00  0.14528281962E+04  0.14528281962E+04  0.50400001928E-02 0.  1.
        1   -1    0    0  501    0  0.00000000000E+00  0.00000000000E+00 -0.11720630056E+04  0.11720630056E+04  0.50400001928E-02 0. -1.
    10030    2    1    2    0    0  0.00000000000E+00  0.00000000000E+00  0.28076519057E+03  0.26248912018E+04  0.26098323182E+04 0.  0.
        1    1    3    3  502    0 -0.93518880401E+02 -0.29590633044E+03  0.14151737645E+04  0.14488005802E+04  0.50400001928E-02 0.  1.
       -1    1    3    3    0  502  0.93518880401E+02  0.29590633044E+03 -0.11344085740E+04  0.11760906215E+04  0.50400001928E-02 0. -1.
</event>
<event>
 5   0  0.2528460E-05  0.2574606E+04  0.7818609E-02  0.8376878E-01
       -2   -1    0    0    0  501  0.00000000000E+00  0.00000000000E+00  0.14813618759E+04  0.14813618759E+04  0.25500000920E-02 0. -1.
        2   -1    0    0  501    0  0.00000000000E+00  0.00000000000E+00 -0.11186657937E+04  0.11186657937E+04  0.25500000920E-02 0.  1.
    10030    2    1    2    0    0  0.00000000000E+00  0.00000000000E+00  0.36269608225E+03  0.26000276696E+04  0.25746058794E+04 0.  0.
        5    1    3    3  502    0 -0.20945645659E+03  0.12197141352E+04  0.53918019198E+03  0.13499303494E+04  0.46999998093E+01 0. -1.
       -5    1    3    3    0  502  0.20945645659E+03 -0.12197141352E+04 -0.17648410973E+03  0.12500973202E+04  0.46999998093E+01 0.  1.
</event>
<event>
 5   0  0.1000421E-05  0.2624292E+04  0.7818609E-02  0.8359996E-01
        1   -1    0    0  501    0  0.00000000000E+00  0.00000000000E+00  0.15198155366E+04  0.15198155366E+04  0.50400001928E-02 0. -1.
       -1   -1    0    0    0  501  0.00000000000E+00  0.00000000000E+00 -0.11328531137E+04  0.11328531137E+04  0.50400001928E-02 0.  1.
    10030    2    1    2    0    0  0.00000000000E+00  0.00000000000E+00  0.38696242297E+03  0.26526686503E+04  0.26242924859E+04 0.  0.
        3    1    3    3  502    0 -0.46647022828E+03  0.39290638466E+03 -0.98087189020E+03  0.11550236258E+04  0.10100000352E+00 0.  1.
       -3    1    3    3    0  502  0.46647022828E+03 -0.39290638466E+03  0.13678343132E+04  0.14976450245E+04  0.10100000352E+00 0. -1.
</event>
<event>
 5   0  0.2662024E-05  0.2587341E+04  0.7818609E-02  0.8372514E-01
        2   -1    0    0  501    0  0.00000000000E+00  0.00000000000E+00  0.20130203468E+04  0.20130203468E+04  0.25500000920E-02 0. -1.
       -2   -1    0    0    0  501  0.00000000000E+00  0.00000000000E+00 -0.83137909782E+03  0.83137909783E+03  0.25500000920E-02 0.  1.
    10030    2    1    2    0    0  0.00000000000E+00  0.00000000000E+00  0.11816412489E+04  0.28443994446E+04  0.25873407505E+04 0.  0.
        2    1    3    3  502    0 -0.55169482318E+03  0.90638125133E+03 -0.22276622792E+03  0.10842135136E+04  0.25500000920E-02 0.  1.
       -2    1    3    3    0  502  0.55169482318E+03 -0.90638125133E+03  0.14044074769E+04  0.17601859310E+04  0.25500000920E-02 0. -1.
</event>
<event>
 5   0  0.8605000E-06  0.2623681E+04  0.7818609E-02  0.8360202E-01
       -3   -1    0    0    0  501  0.00000000000E+00  0.00000000000E+00  0.11855814271E+04  0.11855814314E+04  0.10100000352E+00 0. -1.
        3   -1    0    0  501    0  0.00000000000E+00  0.00000000000E+00 -0.14515452162E+04  0.14515452197E+04  0.10100000352E+00 0.  1.
    10030    2    1    2    0    0  0.00000000000E+00  0.00000000000E+00 -0.26596378908E+03  0.26371266510E+04  0.26236806659E+04 0.  0.
        3    1    3    3  502    0 -0.11560811983E+04 -0.47852163133E+02 -0.75430149892E+03  0.13812256615E+04  0.10100000352E+00 0. -1.
       -3    1    3    3    0  502  0.11560811983E+04  0.47852163133E+02  0.48833770983E+03  0.12559009895E+04  0.10100000352E+00 0.  1.
</event>
<event>
 5   0  0.2528460E-05  0.2580125E+04  0.7818609E-02  0.8374984E-01
       -2   -1    0    0    0  501  0.00000000000E+00  0.00000000000E+00  0.17931667138E+04  0.17931667138E+04  0.25500000920E-02 0.  1.
        2   -1    0    0  501    0  0.00000000000E+00  0.00000000000E+00 -0.92811298482E+03  0.92811298482E+03  0.25500000920E-02 0. -1.
    10030    2    1    2    0    0  0.00000000000E+00  0.00000000000E+00  0.86505372899E+03  0.27212796986E+04  0.25801250443E+04 0.  0.
        5    1    3    3  502    0 -0.10919729666E+04  0.68297509244E+03  0.50988298470E+03  0.13852301920E+04  0.46999998093E+01 0. -1.
       -5    1    3    3    0  502  0.10919729666E+04 -0.68297509244E+03  0.35517074429E+03  0.13360495067E+04  0.46999998093E+01 0.  1.
</event>
<event>
 5   0  0.1025153E-05  0.2585954E+04  0.7818609E-02  0.8372988E-01
        1   -1    0    0  501    0  0.00000000000E+00  0.00000000000E+00  0.18738469016E+04  0.18738469016E+04  0.50400001928E-02 0.  1.
       -1   -1    0    0    0  501  0.00000000000E+00  0.00000000000E+00 -0.89216948246E+03  0.89216948248E+03  0.50400001928E-02 0. -1.
    10030    2    1    2    0    0  0.00000000000E+00  0.00000000000E+00  0.98167741917E+03  0.27660163841E+04  0.25859536117E+04 0.  0.
        1    1    3    3  502    0  0.15503622128E+03  0.49956197386E+03  0.17556251797E+04  0.18318892345E+04  0.50400001928E-02 0.  1.
       -1    1    3    3    0  502 -0.15503622128E+03 -0.49956197386E+03 -0.77394776055E+03  0.93412714966E+03  0.50400001928E-02 0. -1.
</event>
<event>
 5   0  0.1005492E-05  0.2571950E+04  0.7818609E-02  0.8377792E-01
        1   -1    0    0  501    0  0.00000000000E+00  0.00000000000E+00  0.14153538596E+04  0.14153538596E+04  0.50400001928E-02 0. -1.
       -1   -1    0    0    0  501  0.00000000000E+00  0.00000000000E+00 -0.11684232126E+04  0.11684232126E+04  0.50400001928E-02 0.  1.
    10030    2    1    2    0    0  0.00000000000E+00  0.00000000000E+00  0.24693064700E+03  0.25837770721E+04  0.25719504688E+04 0.  0.
        4    1    3    3  502    0 -0.45738132714E+03  0.51091804004E+03  0.12163536679E+04  0.13963354827E+04  0.12699999809E+01 0. -1.
       -4    1    3    3    0  502  0.45738132714E+03 -0.51091804004E+03 -0.96942302086E+03  0.11874415894E+04  0.12699999809E+01 0.  1.
</event>
<event>
 5   0  0.2484618E-05  0.2666165E+04  0.7818609E-02  0.8346067E-01
       -2   -1    0    0    0  501  0.00000000000E+00  0.00000000000E+00  0.11941956229E+04  0.11941956229E+04  0.25500000920E-02 0.  1.
        2   -1    0    0  501    0  0.00000000000E+00  0.00000000000E+00 -0.14881226235E+04  0.14881226235E+04  0.25500000920E-02 0. -1.
    10030    2    1    2    0    0  0.00000000000E+00  0.00000000000E+00 -0.29392700063E+03  0.26823182464E+04  0.26661654287E+04 0.  0.
        3    1    3    3  502    0 -0.81628426994E+03  0.10470123050E+04 -0.26833742390E+03  0.13544592129E+04  0.10100000352E+00 0. -1.
       -3    1    3    3    0  502  0.81628426994E+03 -0.10470123050E+04 -0.25589576726E+02  0.13278590335E+04  0.10100000352E+00 0.  1.
</event>
<event>
 5   0  0.1034714E-05  0.2782843E+04  0.7818609E-02  0.8308615E-01
        1   -1    0    0  501    0  0.00000000000E+00  0.00000000000E+00  0.26292446042E+04  0.26292446042E+04  0.50400001928E-02 0.  1.
       -1   -1    0    0    0  501  0.00000000000E+00  0.00000000000E+00 -0.73635378650E+03  0.73635378652E+03  0.50400001928E-02 0. -1.
    10030    2    1    2    0    0  0.00000000000E+00  0.00000000000E+00  0.18928908177E+04  0.33655983907E+04  0.27828433086E+04 0.  0.
        5    1    3    3  502    0 -0.41909651111E+02 -0.51383090987E+03  0.25094661244E+04  0.25618784012E+04  0.46999998093E+01 0.  1.
       -5    1    3    3    0  502  0.41909651111E+02  0.51383090987E+03 -0.61657530670E+03  0.80371998956E+03  0.46999998093E+01 0. -1.
</event>
<event>
 5   0  0.2555801E-05  0.2598319E+04  0.7818609E-02  0.8368773E-01
        2   -1    0    0  501    0  0.00000000000E+00  0.00000000000E+00  0.16088321046E+04  0.16088321046E+04  0.25500000920E-02 0. -1.
       -2   -1    0    0    0  501  0.00000000000E+00  0.00000000000E+00 -0.10490931812E+04  0.10490931812E+04  0.25500000920E-02 0.  1.
    10030    2    1    2    0    0  0.00000000000E+00  0.00000000000E+00  0.55973892340E+03  0.26579252858E+04  0.25983185260E+04 0.  0.
        1    1    3    3  502    0  0.38202047384E+03  0.12263115063E+04  0.80369210942E+02  0.12869494019E+04  0.50400001928E-02 0.  1.
       -1    1    3    3    0  502 -0.38202047384E+03 -0.12263115063E+04  0.47936971246E+03  0.13709758839E+04  0.50400001928E-02 0. -1.
</event>
<event>
 5   0  0.1025153E-05  0.2478009E+04  0.7818609E-02  0.8410862E-01
        1   -1    0    0  501    0  0.00000000000E+00  0.00000000000E+00  0.14676625988E+04  0.14676625988E+04  0.50400001928E-02 0. -1.
       -1   -1    0    0    0  501  0.00000000000E+00  0.00000000000E+00 -0.10459708703E+04  0.10459708703E+04  0.50400001928E-02 0.  1.
    10030    2    1    2    0    0  0.00000000000E+00  0.00000000000E+00  0.42169172845E+03  0.25136334691E+04  0.24780091411E+04 0.  0.
        1    1    3    3  502    0  0.34662596735E+03  0.87630307462E+03  0.10268203645E+04  0.13937061027E+04  0.50400001928E-02 0. -1.
       -1    1    3    3    0  502 -0.34662596735E+03 -0.87630307462E+03 -0.60512863605E+03  0.11199273664E+04  0.50400001928E-02 0.  1.
</event>
<event>
 5   0  0.2662024E-05  0.2639669E+04  0.7818609E-02  0.8354850E-01
        2   -1    0    0  501    0  0.00000000000E+00  0.00000000000E+00  0.12100401953E+04  0.12100401953E+04  0.25500000920E-02 0. -1.
       -2   -1    0    0    0  501  0.00000000000E+00  0.00000000000E+00 -0.14395911575E+04  0.14395911575E+04  0.25500000920E-02 0.  1.
    10030    2    1    2    0    0  0.00000000000E+00  0.00000000000E+00 -0.22955096228E+03  0.26496313528E+04  0.26396690439E+04 0.  0.
        2    1    3    3  502    0 -0.16561254824E+03  0.11008280592E+04  0.59692315501E+03  0.12631576248E+04  0.25500000920E-02 0. -1.
       -2    1    3    3    0  502  0.16561254824E+03 -0.11008280592E+04 -0.82647411729E+03  0.13864737280E+04  0.25500000920E-02 0.  1.
</event>
<event>
 5   0  0.1000421E-05  0.2574266E+04  0.7818609E-02  0.8376995E-01
        1   -1    0    0  501    0  0.00000000000E+00  0.00000000000E+00  0.21526598576E+04  0.21526598576E+04  0.50400001928E-02 0. -1.
       -1   -1    0    0    0  501  0.00000000000E+00  0.00000000000E+00 -0.76961127481E+03  0.76961127483E+03  0.50400001928E-02 0.  1.
    10030    2    1    2    0    0  0.00000000000E+00  0.00000000000E+00  0.13830485828E+04  0.29222711324E+04  0.25742659515E+04 0.  0.
        3    1    3    3  502    0 -0.60785701030E+03 -0.48026626275E+01  0.19794469576E+04  0.20706818874E+04  0.10100000352E+00 0. -1.
       -3    1    3    3    0  502  0.60785701030E+03  0.48026626275E+01 -0.59639837484E+03  0.85158924503E+03  0.10100000352E+00 0.  1.
</event>
<event>
 5   0  0.2517854E-05  0.2605655E+04  0.7818609E-02  0.8366283E-01
        2   -1    0    0  501    0  0.00000000000E+00  0.00000000000E+00  0.13700728983E+04  0.13700728983E+04  0.25500000920E-02 0. -1.
       -2   -1    0    0    0  501  0.00000000000E+00  0.00000000000E+00 -0.12388823398E+04  0.12388823398E+04  0.25500000920E-02 0.  1.
    10030    2    1    2    0    0  0.00000000000E+00  0.00000000000E+00  0.13119055845E+03  0.26089552381E+04  0.26056547108E+04 0.  0.
        4    1    3    3  502    0 -0.27402413324E+03 -0.62752001002E+02 -0.12081522907E+04  0.12404275915E+04  0.12699999809E+01 0.  1.
       -4    1    3    3    0  502  0.27402413324E+03  0.62752001002E+02  0.13393428491E+04  0.13685276467E+04  0.12699999809E+01 0. -1.
</event>
<event>
 5   0  0.2555801E-05  0.2559846E+04  0.7818609E-02  0.8381970E-01
       -2   -1    0    0    0  501  0.00000000000E+00  0.00000000000E+00  0.11392038506E+04  0.11392038506E+04  0.25500000920E-02 0. -1.
        2   -1    0    0  501    0  0.00000000000E+00  0.00000000000E+00 -0.14380244094E+04  0.14380244094E+04  0.25500000920E-02 0.  1.
    10030    2    1    2    0    0  0.00000000000E+00  0.00000000000E+00 -0.29882055882E+03  0.25772282600E+04  0.25598460457E+04 0.  0.
        1    1    3    3  502    0  0.40508083233E+03 -0.10309082798E+04  0.49630314771E+03  0.12137459275E+04  0.50400001928E-02 0. -1.
       -1    1    3    3    0  502 -0.40508083233E+03  0.10309082798E+04 -0.79512370653E+03  0.13634823324E+04  0.50400001928E-02 0.  1.
</event>
<event>
 5   0  0.1000421E-05  0.2560400E+04  0.7818609E-02  0.8381778E-01
       -1   -1    0    0    0  501  0.00000000000E+00  0.00000000000E+00  0.11663931724E+04  0.11663931724E+04  0.50400001928E-02 0.  1.
        1   -1    0    0  501    0  0.00000000000E+00  0.00000000000E+00 -0.14051110607E+04  0.14051110607E+04  0.50400001928E-02 0. -1.
    10030    2    1    2    0    0  0.00000000000E+00  0.00000000000E+00 -0.23871788829E+03  0.25715042331E+04  0.25603999279E+04 0.  0.
        3    1    3    3  502    0 -0.19639484036E+03 -0.75124322622E+03  0.90288370218E+03  0.11908552843E+04  0.10100000352E+00 0.  1.
       -3    1    3    3    0  502  0.19639484036E+03  0.75124322622E+03 -0.11416015905E+04  0.13806489488E+04  0.10100000352E+00 0. -1.
</event>
<event>
 5   0  0.1034714E-05  0.2555736E+04  0.7818609E-02  0.8383394E-01
        1   -1    0    0  501    0  0.00000000000E+00  0.00000000000E+00  0.83295103550E+03  0.83295103551E+03  0.50400001928E-02 0.  1.
       -1   -1    0    0    0  501  0.00000000000E+00  0.00000000000E+00 -0.19604346962E+04  0.19604346962E+04  0.50400001928E-02 0. -1.
    10030    2    1    2    0    0  0.00000000000E+00  0.00000000000E+00 -0.11274836607E+04  0.27933857317E+04  0.25557355969E+04 0.  0.
        5    1    3    3  502    0 -0.55337246175E+03 -0.11414264806E+03 -0.18164758057E+04  0.19023291167E+04  0.46999998093E+01 0. -1.
       -5    1    3    3    0  502  0.55337246175E+03  0.11414264806E+03  0.68899214493E+03  0.89105661509E+03  0.46999998093E+01 0.  1.
</event>
<event>
 5   0  0.1000421E-05  0.2618371E+04  0.7818609E-02  0.8361988E-01
       -1   -1    0    0    0  501  0.00000000000E+00  0.00000000000E+00  0.17514007947E+04  0.17514007948E+04  0.50400001928E-02 0. -1.
        1   -1    0    0  501    0  0.00000000000E+00  0.00000000000E+00 -0.97862636984E+03  0.97862636985E+03  0.50400001928E-02 0.  1.
    10030    2    1    2    0    0  0.00000000000E+00  0.00000000000E+00  0.77277442491E+03  0.27300271646E+04  0.26183712509E+04 0.  0.
        3    1    3    3  502    0 -0.31663499776E+03  0.78199863697E+03  0.14301701999E+04  0.16604717405E+04  0.10100000352E+00 0. -1.
       -3    1    3    3    0  502  0.31663499776E+03 -0.78199863697E+03 -0.65739577502E+03  0.10695554241E+04  0.10100000352E+00 0.  1.
</event>
<event>
 5   0  0.1034714E-05  0.2555299E+04  0.7818609E-02  0.8383546E-01
       -1   -1    0    0    0  501  0.00000000000E+00  0.00000000000E+00  0.13562025992E+04  0.13562025992E+04  0.50400001928E-02 0.  1.
        1   -1    0    0  501    0  0.00000000000E+00  0.00000000000E+00 -0.12036461364E+04  0.12036461365E+04  0.50400001928E-02 0. -1.
    10030    2    1    2    0    0  0.00000000000E+00  0.00000000000E+00  0.15255646277E+03  0.25598487357E+04  0.25552988231E+04 0.  0.
        5    1    3    3  502    0  0.32405230980E+03  0.12355587265E+04  0.48831220523E+02  0.12782886388E+04  0.46999998093E+01 0. -1.
       -5    1    3    3    0  502 -0.32405230980E+03 -0.12355587265E+04  0.10372524225E+03  0.12815600969E+04  0.46999998093E+01 0.  1.
</event>
<event>
 5   0  0.2662024E-05  0.1975832E+04  0.7818609E-02  0.8618004E-01
       -2   -1    0    0    0  501  0.00000000000E+00  0.00000000000E+00  0.74062883768E+03  0.74062883768E+03  0.25500000920E-02 0.  1.
        2   -1    0    0  501    0  0.00000000000E+00  0.00000000000E+00 -0.13177698433E+04  0.13177698433E+04  0.25500000920E-02 0. -1.
    10030    2    1    2    0    0  0.00000000000E+00  0.00000000000E+00 -0.57714100567E+03  0.20583986810E+04  0.19758323283E+04 0.  0.
        2    1    3    3  502    0 -0.85226814418E+03 -0.46800719439E+03 -0.47076916294E+03  0.10802848367E+04  0.25500000920E-02 0. -1.
       -2    1    3    3    0  502  0.85226814418E+03  0.46800719439E+03 -0.10637184273E+03  0.97811384435E+03  0.25500000920E-02 0.  1.
</event>
<event>
 5   0  0.1000421E-05  0.2643132E+04  0.7818609E-02  0.8353696E-01
       -1   -1    0    0    0  501  0.00000000000E+00  0.00000000000E+00  0.83636081083E+03  0.83636081085E+03  0.50400001928E-02 0. -1.
        1   -1    0    0  501    0  0.00000000000E+00  0.00000000000E+00 -0.20882572377E+04  0.20882572377E+04  0.50400001928E-02 0.  1.
    10030    2    1    2    0    0  0.00000000000E+00  0.00000000000E+00 -0.12518964269E+04  0.29246180486E+04  0.26431318670E+04 0.  0.
        3    1    3    3  502    0  0.62547899633E+03 -0.54773618052E+03  0.51073069588E+03  0.97574830372E+03  0.10100000352E+00 0. -1.
       -3    1    3    3    0  502 -0.62547899633E+03  0.54773618052E+03 -0.17626271228E+04  0.19488697449E+04  0.10100000352E+00 0.  1.
</event>
<event>
 5   0  0.2555801E-05  0.2332469E+04  0.7818609E-02  0.8465228E-01
        2   -1    0    0  501    0  0.00000000000E+00  0.00000000000E+00  0.12154352247E+04  0.12154352247E+04  0.25500000920E-02 0. -1.
       -2   -1    0    0    0  501  0.00000000000E+00  0.00000000000E+00 -0.11190252501E+04  0.11190252501E+04  0.25500000920E-02 0.  1.
    10030    2    1    2    0    0  0.00000000000E+00  0.00000000000E+00  0.96409974583E+02  0.23344604748E+04  0.23324688262E+04 0.  0.
        1    1    3    3  502    0 -0.10329232683E+04  0.42800298907E+03  0.38012904305E+03  0.11809382398E+04  0.50400001928E-02 0. -1.
       -1    1    3    3    0  502  0.10329232683E+04 -0.42800298907E+03 -0.28371906847E+03  0.11535222350E+04  0.50400001928E-02 0.  1.
</event>
<event>
 5   0  0.2517854E-05  0.2555890E+04  0.7818609E-02  0.8383341E-01
       -2   -1    0    0    0  501  0.00000000000E+00  0.00000000000E+00  0.60270398743E+03  0.60270398744E+03  0.25500000920E-02 0. -1.
        2   -1    0    0  501    0  0.00000000000E+00  0.00000000000E+00 -0.27096943996E+04  0.27096943996E+04  0.25500000920E-02 0.  1.
    10030    2    1    2    0    0  0.00000000000E+00  0.00000000000E+00 -0.21069904122E+04  0.33123983870E+04  0.25558901536E+04 0.  0.
        4    1    3    3  502    0 -0.41704395312E+03 -0.12019728342E+04 -0.12094323114E+04  0.17553895527E+04  0.12699999809E+01 0.  1.
       -4    1    3    3    0  502  0.41704395312E+03  0.12019728342E+04 -0.89755810074E+03  0.15570088343E+04  0.12699999809E+01 0. -1.
</event>
<event>
 5   0  0.1000421E-05  0.2581721E+04  0.7818609E-02  0.8374437E-01
       -1   -1    0    0    0  501  0.00000000000E+00  0.00000000000E+00  0.18087935300E+04  0.18087935300E+04  0.50400001928E-02 0.  1.
        1   -1    0    0  501    0  0.00000000000E+00  0.00000000000E+00 -0.92123300478E+03  0.92123300480E+03  0.50400001928E-02 0. -1.
    10030    2    1    2    0    0  0.00000000000E+00  0.00000000000E+00  0.88756052517E+03  0.27300265348E+04  0.25817205880E+04 0.  0.
        3    1    3    3  502    0  0.26419090583E+03 -0.69350319138E+03 -0.67310191981E+03  0.10019030471E+04  0.10100000352E+00 0. -1.
       -3    1    3    3    0  502 -0.26419090583E+03  0.69350319138E+03  0.15606624450E+04  0.17281234876E+04  0.10100000352E+00 0.  1.
</event>
<event>
 5   0  0.2484618E-05  0.2524741E+04  0.7818609E-02  0.8394224E-01
       -2   -1    0    0    0  501  0.00000000000E+00  0.00000000000E+00  0.16509516613E+04  0.16509516613E+04  0.25500000920E-02 0. -1.
        2   -1    0    0  501    0  0.00000000000E+00  0.00000000000E+00 -0.96524890304E+03  0.96524890304E+03  0.25500000920E-02 0.  1.
    10030    2    1    2    0    0  0.00000000000E+00  0.00000000000E+00  0.68570275830E+03  0.26162005644E+04  0.25247410006E+04 0.  0.
        3    1    3    3  502    0 -0.10644383683E+03 -0.10819342197E+04  0.10077070850E+04  0.14823580962E+04  0.10100000352E+00 0. -1.
       -3    1    3    3    0  502  0.10644383683E+03  0.10819342197E+04 -0.32200432665E+03  0.11338424682E+04  0.10100000352E+00 0.  1.
</event>
<event>
 5   0  0.2484618E-05  0.2585190E+04  0.7818609E-02  0.8373249E-01
       -2   -1    0    0    0  501  0.00000000000E+00  0.00000000000E+00  0.73393558158E+03  0.73393558159E+03  0.25500000920E-02 0. -1.
        2   -1    0    0  501    0  0.00000000000E+00  0.00000000000E+00 -0.22764962133E+04  0.22764962133E+04  0.25500000920E-02 0.  1.
    10030    2    1    2    0    0  0.00000000000E+00  0.00000000000E+00 -0.15425606317E+04  0.30104317949E+04  0.25851897975E+04 0.  0.
        3    1    3    3  502    0 -0.73491111693E+03 -0.58492195542E+03 -0.18053682082E+04  0.20350878165E+04  0.10100000352E+00 0.  1.
       -3    1    3    3    0  502  0.73491111693E+03  0.58492195542E+03  0.26280757644E+03  0.97534397837E+03  0.10100000352E+00 0. -1.
</event>
<event>
 5   0  0.9855352E-06  0.2610843E+04  0.7818609E-02  0.8364528E-01
       -1   -1    0    0    0  501  0.00000000000E+00  0.00000000000E+00  0.14587479361E+04  0.14587479361E+04  0.50400001928E-02 0. -1.
        1   -1    0    0  501    0  0.00000000000E+00  0.00000000000E+00 -0.11682105803E+04  0.11682105803E+04  0.50400001928E-02 0.  1.
    10030    2    1    2    0    0  0.00000000000E+00  0.00000000000E+00  0.29053735585E+03  0.26269585164E+04  0.26108426019E+04 0.  0.
        2    1    3    3  502    0 -0.64717416269E+03 -0.76658920827E+03  0.98566766847E+03  0.14064260250E+04  0.25500000920E-02 0. -1.
       -2    1    3    3    0  502  0.64717416269E+03  0.76658920827E+03 -0.69513031262E+03  0.12205324914E+04  0.25500000920E-02 0.  1.
</event>
<event>
 5   0  0.1034714E-05  0.2582856E+04  0.7818609E-02  0.8374048E-01
        1   -1    0    0  501    0  0.00000000000E+00  0.00000000000E+00  0.11083019563E+04  0.11083019563E+04  0.50400001928E-02 0.  1.
       -1   -1    0    0    0  501  0.00000000000E+00  0.00000000000E+00 -0.15048127360E+04  0.15048127360E+04  0.50400001928E-02 0. -1.
    10030    2    1    2    0    0  0.00000000000E+00  0.00000000000E+00 -0.39651077978E+03  0.26131146923E+04  0.25828564801E+04 0.  0.
        5    1    3    3  502    0  0.85081225015E+03  0.33780276914E+03  0.72333459283E+03  0.11667164261E+04  0.46999998093E+01 0.  1.
       -5    1    3    3    0  502 -0.85081225015E+03 -0.33780276914E+03 -0.11198453726E+04  0.14463982662E+04  0.46999998093E+01 0. -1.
</event>
<event>
 5   0  0.1025153E-05  0.2586100E+04  0.7818609E-02  0.8372938E-01
       -1   -1    0    0    0  501  0.00000000000E+00  0.00000000000E+00  0.13487395216E+04  0.13487395216E+04  0.50400001928E-02 0.  1.
        1   -1    0    0  501    0  0.00000000000E+00  0.00000000000E+00 -0.12396600787E+04  0.12396600787E+04  0.50400001928E-02 0. -1.
    10030    2    1    2    0    0  0.00000000000E+00  0.00000000000E+00  0.10907944289E+03  0.25883996003E+04  0.25861001848E+04 0.  0.
        1    1    3    3  502    0  0.96008411060E+03 -0.79662586051E+03  0.39484833063E+03  0.13085409681E+04  0.50400001928E-02 0.  1.
       -1    1    3    3    0  502 -0.96008411060E+03  0.79662586051E+03 -0.28576888774E+03  0.12798586321E+04  0.50400001928E-02 0. -1.
</event>
<event>
 5   0  0.2528460E-05  0.2602186E+04  0.7818609E-02  0.8367459E-01
        2   -1    0    0  501    0  0.00000000000E+00  0.00000000000E+00  0.22434143650E+04  0.22434143650E+04  0.25500000920E-02 0. -1.
       -2   -1    0    0    0  501  0.00000000000E+00  0.00000000000E+00 -0.75458320961E+03  0.75458320961E+03  0.25500000920E-02 0.  1.
    10030    2    1    2    0    0  0.00000000000E+00  0.00000000000E+00  0.14888311554E+04  0.29979975747E+04  0.26021858597E+04 0.  0.
        5    1    3    3  502    0 -0.86579224794E+02  0.84133716079E+03  0.18834743589E+04  0.20646650893E+04  0.46999998093E+01 0. -1.
       -5    1    3    3    0  502  0.86579224794E+02 -0.84133716079E+03 -0.39464320343E+03  0.93333248540E+03  0.46999998093E+01 0.  1.
</event>
<event>
 5   0  0.2484618E-05  0.2358437E+04  0.7818609E-02  0.8455230E-01
        2   -1    0    0  501    0  0.00000000000E+00  0.00000000000E+00  0.28134702117E+04  0.28134702117E+04  0.25500000920E-02 0.  1.
       -2   -1    0    0    0  501  0.00000000000E+00  0.00000000000E+00 -0.49424934163E+03  0.49424934164E+03  0.25500000920E-02 0. -1.
    10030    2    1    2    0    0  0.00000000000E+00  0.00000000000E+00  0.23192208700E+04  0.33077195533E+04  0.23584366007E+04 0.  0.
        3    1    3    3  502    0 -0.20259529779E+03  0.13543680960E+03  0.27777682585E+04  0.27884376436E+04  0.10100000352E+00 0.  1.
       -3    1    3    3    0  502  0.20259529779E+03 -0.13543680960E+03 -0.45854738847E+03  0.51928190971E+03  0.10100000352E+00 0. -1.
</event>
<event>
 5   0  0.2517854E-05  0.2763623E+04  0.7818609E-02  0.8314652E-01
       -2   -1    0    0    0  501  0.00000000000E+00  0.00000000000E+00  0.19411789953E+04  0.19411789953E+04  0.25500000920E-02 0. -1.
        2   -1    0    0  501    0  0.00000000000E+00  0.00000000000E+00 -0.98363033444E+03  0.98363033445E+03  0.25500000920E-02 0.  1.
    10030    2    1    2    0    0  0.00000000000E+00  0.00000000000E+00  0.95754866085E+03  0.29248093297E+04  0.27636226547E+04 0.  0.
        4    1    3    3  502    0 -0.13182131091E+04  0.35178764310E+03  0.24700228691E+03  0.13865251853E+04  0.12699999809E+01 0.  1.
       -4    1    3    3    0  502  0.13182131091E+04 -0.35178764310E+03  0.71054637394E+03  0.15382841445E+04  0.12699999809E+01 0. -1.
</event>
<event>
 5   0  0.2484618E-05  0.2632886E+04  0.7818609E-02  0.8357116E-01
       -2   -1    0    0    0  501  0.00000000000E+00  0.00000000000E+00  0.11547760682E+04  0.11547760682E+04  0.25500000920E-02 0.  1.
        2   -1    0    0  501    0  0.00000000000E+00  0.00000000000E+00 -0.15007434739E+04  0.15007434739E+04  0.25500000920E-02 0. -1.
    10030    2    1    2    0    0  0.00000000000E+00  0.00000000000E+00 -0.34596740569E+03  0.26555195421E+04  0.26328863615E+04 0.  0.
        3    1    3    3  502    0  0.12794251134E+04  0.30653166260E+03 -0.12640929442E+03  0.13216919463E+04  0.10100000352E+00 0.  1.
       -3    1    3    3    0  502 -0.12794251134E+04 -0.30653166260E+03 -0.21955811127E+03  0.13338275958E+04  0.10100000352E+00 0. -1.
</event>
<event>
 5   0  0.1034714E-05  0.2563502E+04  0.7818609E-02  0.8380705E-01
       -1   -1    0    0    0  501  0.00000000000E+00  0.00000000000E+00  0.13503456132E+04  0.13503456132E+04  0.50400001928E-02 0. -1.
        1   -1    0    0  501    0  0.00000000000E+00  0.00000000000E+00 -0.12166412653E+04  0.12166412653E+04  0.50400001928E-02 0.  1.
    10030    2    1    2    0    0  0.00000000000E+00  0.00000000000E+00  0.13370434794E+03  0.25669868785E+04  0.25635024442E+04 0.  0.
        5    1    3    3  502    0  0.16184023976E+03 -0.11366246574E+04 -0.50379629808E+03  0.12537705830E+04  0.46999998093E+01 0.  1.
       -5    1    3    3    0  502 -0.16184023976E+03  0.11366246574E+04  0.63750064602E+03  0.13132162954E+04  0.46999998093E+01 0. -1.
</event>
<event>
 5   0  0.1005492E-05  0.2624385E+04  0.7818609E-02  0.8359965E-01
        1   -1    0    0  501    0  0.00000000000E+00  0.00000000000E+00  0.14856430205E+04  0.14856430205E+04  0.50400001928E-02 0.  1.
       -1   -1    0    0    0  501  0.00000000000E+00  0.00000000000E+00 -0.11589921180E+04  0.11589921180E+04  0.50400001928E-02 0. -1.
    10030    2    1    2    0    0  0.00000000000E+00  0.00000000000E+00  0.32665090255E+03  0.26446351385E+04  0.26243845381E+04 0.  0.
        4    1    3    3  502    0  0.91325367392E+03 -0.90582421149E+03  0.42474416406E+03  0.13546065823E+04  0.12699999809E+01 0. -1.
       -4    1    3    3    0  502 -0.91325367392E+03  0.90582421149E+03 -0.98093261513E+02  0.12900285562E+04  0.12699999809E+01 0.  1.
</event>
<event>
 5   0  0.1034714E-05  0.2525154E+04  0.7818609E-02  0.8394079E-01
       -1   -1    0    0    0  501  0.00000000000E+00  0.00000000000E+00  0.99923169703E+03  0.99923169704E+03  0.50400001928E-02 0. -1.
        1   -1    0    0  501    0  0.00000000000E+00  0.00000000000E+00 -0.15953258045E+04  0.15953258045E+04  0.50400001928E-02 0.  1.
    10030    2    1    2    0    0  0.00000000000E+00  0.00000000000E+00 -0.59609410748E+03  0.25945575016E+04  0.25251535486E+04 0.  0.
        5    1    3    3  502    0  0.11626591635E+04  0.39623592839E+03 -0.59813387103E+03  0.13662230634E+04  0.46999998093E+01 0.  1.
       -5    1    3    3    0  502 -0.11626591635E+04 -0.39623592839E+03  0.20397635472E+01  0.12283344382E+04  0.46999998093E+01 0. -1.
</event>
<event>
 5   0  0.1005492E-05  0.2569812E+04  0.7818609E-02  0.8378528E-01
       -1   -1    0    0    0  501  0.00000000000E+00  0.00000000000E+00  0.76114933568E+03  0.76114933570E+03  0.50400001928E-02 0.  1.
        1   -1    0    0  501    0  0.00000000000E+00  0.00000000000E+00 -0.21690664009E+04  0.21690664009E+04  0.50400001928E-02 0. -1.
    10030    2    1    2    0    0  0.00000000000E+00  0.00000000000E+00 -0.14079170652E+04  0.29302157366E+04  0.25698120166E+04 0.  0.
        4    1    3    3  502    0  0.31517645022E+03  0.79167538659E+03  0.39263234011E+03  0.93821526310E+03  0.12699999809E+01 0.  1.
       -4    1    3    3    0  502 -0.31517645022E+03 -0.79167538659E+03 -0.18005494054E+04  0.19920004735E+04  0.12699999809E+01 0. -1.
</event>
<event>
 5   0  0.2484618E-05  0.2499678E+04  0.7818609E-02  0.8403100E-01
        2   -1    0    0  501    0  0.00000000000E+00  0.00000000000E+00  0.21810289802E+04  0.21810289802E+04  0.25500000920E-02 0. -1.
       -2   -1    0    0    0  501  0.00000000000E+00  0.00000000000E+00 -0.71622059259E+03  0.71622059260E+03  0.25500000920E-02 0.  1.
    10030    2    1    2    0    0  0.00000000000E+00  0.00000000000E+00  0.14648083876E+04  0.28972495728E+04  0.24996782742E+04 0.  0.
        3    1    3    3  502    0  0.32573024420E+03  0.27567854166E+03  0.20939779722E+04  0.21370172223E+04  0.10100000352E+00 0. -1.
       -3    1    3    3    0  502 -0.32573024420E+03 -0.27567854166E+03 -0.62916958459E+03  0.76023235046E+03  0.10100000352E+00 0.  1.
</event>
<event>
 5   0  0.1000421E-05  0.2648292E+04  0.7818609E-02  0.8351980E-01
       -1   -1    0    0    0  501  0.00000000000E+00  0.00000000000E+00  0.16951692009E+04  0.16951692009E+04  0.50400001928E-02 0. -1.
        1   -1    0    0  501    0  0.00000000000E+00  0.00000000000E+00 -0.10343289447E+04  0.10343289447E+04  0.50400001928E-02 0.  1.
    10030    2    1    2    0    0  0.00000000000E+00  0.00000000000E+00  0.66084025624E+03  0.27294981456E+04  0.26482919557E+04 0.  0.
        3    1    3    3  502    0 -0.79148771475E+02  0.13216883683E+04  0.34631674145E+03  0.13685978104E+04  0.10100000352E+00 0.  1.
       -3    1    3    3    0  502  0.79148771475E+02 -0.13216883683E+04  0.31452351479E+03  0.13609003353E+04  0.10100000352E+00 0. -1.
</event>
<event>
 5   0  0.2528460E-05  0.2583998E+04  0.7818609E-02  0.8373657E-01
       -2   -1    0    0    0  501  0.00000000000E+00  0.00000000000E+00  0.11362066624E+04  0.11362066624E+04  0.25500000920E-02 0.  1.
        2   -1    0    0  501    0  0.00000000000E+00  0.00000000000E+00 -0.14691524910E+04  0.14691524910E+04  0.25500000920E-02 0. -1.
    10030    2    1    2    0    0  0.00000000000E+00  0.00000000000E+00 -0.33294582863E+03  0.26053591534E+04  0.25839975606E+04 0.  0.
        5    1    3    3  502    0  0.18734833159E+03 -0.16760778367E+03 -0.14442486147E+04  0.14659699579E+04  0.46999998093E+01 0. -1.
       -5    1    3    3    0  502 -0.18734833159E+03  0.16760778367E+03  0.11113027861E+04  0.11393891955E+04  0.46999998093E+01 0.  1.
</event>
<event>
 5   0  0.2484618E-05  0.2564968E+04  0.7818609E-02  0.8380199E-01
       -2   -1    0    0    0  501  0.00000000000E+00  0.00000000000E+00  0.13102869496E+04  0.13102869496E+04  0.25500000920E-02 0. -1.
        2   -1    0    0  501    0  0.00000000000E+00  0.00000000000E+00 -0.12552714852E+04  0.12552714852E+04  0.25500000920E-02 0.  1.
    10030    2    1    2    0    0  0.00000000000E+00  0.00000000000E+00  0.55015464402E+02  0.25655584347E+04  0.25649684950E+04 0.  0.
        3    1    3    3  502    0 -0.65542858388E+03  0.71534448957E+03  0.86642673629E+03  0.13007688753E+04  0.10100000352E+00 0. -1.
       -3    1    3    3    0  502  0.65542858388E+03 -0.71534448957E+03 -0.81141127189E+03  0.12647895594E+04  0.10100000352E+00 0.  1.
</event>
<event>
 5   0  0.1000421E-05  0.2577236E+04  0.7818609E-02  0.8375975E-01
        1   -1    0    0  501    0  0.00000000000E+00  0.00000000000E+00  0.13891114315E+04  0.13891114315E+04  0.50400001928E-02 0. -1.
       -1   -1    0    0    0  501  0.00000000000E+00  0.00000000000E+00 -0.11953947256E+04  0.11953947256E+04  0.50400001928E-02 0.  1.
    10030    2    1    2    0    0  0.00000000000E+00  0.00000000000E+00  0.19371670584E+03  0.25845061571E+04  0.25772360998E+04 0.  0.
        3    1    3    3  502    0 -0.98416035173E+03  0.82457313067E+03  0.20691319243E+03  0.13005020281E+04  0.10100000352E+00 0.  1.
       -3    1    3    3    0  502  0.98416035173E+03 -0.82457313067E+03 -0.13196486584E+02  0.12840041290E+04  0.10100000352E+00 0. -1.
</event>
<event>
 5   0  0.2517854E-05  0.2558239E+04  0.7818609E-02  0.8382526E-01
       -2   -1    0    0    0  501  0.00000000000E+00  0.00000000000E+00  0.13102529811E+04  0.13102529811E+04  0.25500000920E-02 0. -1.
        2   -1    0    0  501    0  0.00000000000E+00  0.00000000000E+00 -0.12487259404E+04  0.12487259404E+04  0.25500000920E-02 0.  1.
    10030    2    1    2    0    0  0.00000000000E+00  0.00000000000E+00  0.61527040644E+02  0.25589789215E+04  0.25582391491E+04 0.  0.
        4    1    3    3  502    0  0.84362879633E+03  0.67627548541E+03 -0.65287188801E+03  0.12630524111E+04  0.12699999809E+01 0.  1.
       -4    1    3    3    0  502 -0.84362879633E+03 -0.67627548541E+03  0.71439892865E+03  0.12959265104E+04  0.12699999809E+01 0. -1.
</event>
<event>
 5   0  0.8605000E-06  0.2603499E+04  0.7818609E-02  0.8367014E-01
        4   -1    0    0  501    0  0.00000000000E+00  0.00000000000E+00  0.90496282210E+03  0.90496371324E+03  0.12699999809E+01 0.  1.
       -4   -1    0    0    0  501  0.00000000000E+00  0.00000000000E+00 -0.18725079460E+04  0.18725083766E+04  0.12699999809E+01 0. -1.
    10030    2    1    2    0    0  0.00000000000E+00  0.00000000000E+00 -0.96754512386E+03  0.27774720899E+04  0.26034991153E+04 0.  0.
        1    1    3    3  502    0 -0.82689616428E+03 -0.50212032113E+03 -0.14129928327E+04  0.17124341823E+04  0.50400001928E-02 0. -1.
       -1    1    3    3    0  502  0.82689616428E+03  0.50212032113E+03  0.44544770879E+03  0.10650379076E+04  0.50400001928E-02 0.  1.
</event>
<event>
 5   0  0.9855352E-06  0.2604592E+04  0.7818609E-02  0.8366643E-01
        1   -1    0    0  501    0  0.00000000000E+00  0.00000000000E+00  0.12838273782E+04  0.12838273782E+04  0.50400001928E-02 0.  1.
       -1   -1    0    0    0  501  0.00000000000E+00  0.00000000000E+00 -0.13210301578E+04  0.13210301578E+04  0.50400001928E-02 0. -1.
    10030    2    1    2    0    0  0.00000000000E+00  0.00000000000E+00 -0.37202779627E+02  0.26048575360E+04  0.26045918559E+04 0.  0.
        2    1    3    3  502    0  0.12866078775E+04 -0.11329976887E+03  0.14808299177E+03  0.13000481686E+04  0.25500000920E-02 0. -1.
       -2    1    3    3    0  502 -0.12866078775E+04  0.11329976887E+03 -0.18528577139E+03  0.13048093674E+04  0.25500000920E-02 0.  1.
</event>
<event>
 5   0  0.1005492E-05  0.2610304E+04  0.7818609E-02  0.8364709E-01
       -1   -1    0    0    0  501  0.00000000000E+00  0.00000000000E+00  0.91982611117E+03  0.91982611119E+03  0.50400001928E-02 0.  1.
        1   -1    0    0  501    0  0.00000000000E+00  0.00000000000E+00 -0.18518960923E+04  0.18518960923E+04  0.50400001928E-02 0. -1.
    10030    2    1    2    0    0  0.00000000000E+00  0.00000000000E+00 -0.93206998109E+03  0.27717222035E+04  0.26103044887E+04 0.  0.
        4    1    3    3  502    0 -0.99476845480E+02  0.10558987217E+04 -0.12737327474E+04  0.16574723159E+04  0.12699999809E+01 0. -1.
       -4    1    3    3    0  502  0.99476845480E+02 -0.10558987217E+04  0.34166276629E+03  0.11142498876E+04  0.12699999809E+01 0.  1.
</event>
<event>
 5   0  0.1000421E-05  0.2606254E+04  0.7818609E-02  0.8366080E-01
       -1   -1    0    0    0  501  0.00000000000E+00  0.00000000000E+00  0.81288977143E+03  0.81288977145E+03  0.50400001928E-02 0.  1.
        1   -1    0    0  501    0  0.00000000000E+00  0.00000000000E+00 -0.20890156493E+04  0.20890156493E+04  0.50400001928E-02 0. -1.
    10030    2    1    2    0    0  0.00000000000E+00  0.00000000000E+00 -0.12761258779E+04  0.29019054208E+04  0.26062535976E+04 0.  0.
        3    1    3    3  502    0 -0.11682252436E+04 -0.30634803007E+03 -0.11830117415E+04  0.16905963818E+04  0.10100000352E+00 0. -1.
       -3    1    3    3    0  502  0.11682252436E+04  0.30634803007E+03 -0.93114136377E+02  0.12113090390E+04  0.10100000352E+00 0.  1.
</event>
<event>
 5   0  0.1034714E-05  0.2588276E+04  0.7818609E-02  0.8372194E-01
       -1   -1    0    0    0  501  0.00000000000E+00  0.00000000000E+00  0.15953146606E+04  0.15953146606E+04  0.50400001928E-02 0. -1.
        1   -1    0    0  501    0  0.00000000000E+00  0.00000000000E+00 -0.10498200590E+04  0.10498200590E+04  0.50400001928E-02 0.  1.
    10030    2    1    2    0    0  0.00000000000E+00  0.00000000000E+00  0.54549460154E+03  0.26451347196E+04  0.25882761299E+04 0.  0.
        5    1    3    3  502    0 -0.27481123986E+03 -0.40701916815E+03  0.14963740903E+04  0.15749105781E+04  0.46999998093E+01 0. -1.
       -5    1    3    3    0  502  0.27481123986E+03  0.40701916815E+03 -0.95087948880E+03  0.10702241415E+04  0.46999998093E+01 0.  1.
</event>
<event>
 5   0  0.2484618E-05  0.2450885E+04  0.7818609E-02  0.8420695E-01
       -2   -1    0    0    0  501  0.00000000000E+00  0.00000000000E+00  0.20148309868E+04  0.20148309868E+04  0.25500000920E-02 0. -1.
        2   -1    0    0  501    0  0.00000000000E+00  0.00000000000E+00 -0.74532773461E+03  0.74532773461E+03  0.25500000920E-02 0.  1.
    10030    2    1    2    0    0  0.00000000000E+00  0.00000000000E+00  0.12695032522E+04  0.27601587214E+04  0.24508850769E+04 0.  0.
        3    1    3    3  502    0 -0.56834436876E+03  0.72436771938E+03  0.15454932080E+04  0.17989644745E+04  0.10100000352E+00 0.  1.
       -3    1    3    3    0  502  0.56834436876E+03 -0.72436771938E+03 -0.27598995581E+03  0.96119424691E+03  0.10100000352E+00 0. -1.
</event>
<event>
 5   0  0.1025153E-05  0.2564863E+04  0.7818609E-02  0.8380235E-01
       -1   -1    0    0    0  501  0.00000000000E+00  0.00000000000E+00  0.91219887541E+03  0.91219887543E+03  0.50400001928E-02 0.  1.
        1   -1    0    0  501    0  0.00000000000E+00  0.00000000000E+00 -0.18029298095E+04  0.18029298095E+04  0.50400001928E-02 0. -1.
    10030    2    1    2    0    0  0.00000000000E+00  0.00000000000E+00 -0.89073093411E+03  0.27151286850E+04  0.25648629942E+04 0.  0.
        1    1    3    3  502    0 -0.19056119149E+03  0.78432501356E+03  0.60958955333E+03  0.10114735380E+04  0.50400001928E-02 0.  1.
       -1    1    3    3    0  502  0.19056119149E+03 -0.78432501356E+03 -0.15003204874E+04  0.17036551469E+04  0.50400001928E-02 0. -1.
</event>
<event>
 5   0  0.2555801E-05  0.2582924E+04  0.7818609E-02  0.8374025E-01
        2   -1    0    0  501    0  0.00000000000E+00  0.00000000000E+00  0.97492578508E+03  0.97492578508E+03  0.25500000920E-02 0. -1.
       -2   -1    0    0    0  501  0.00000000000E+00  0.00000000000E+00 -0.17107700525E+04  0.17107700525E+04  0.25500000920E-02 0.  1.
    10030    2    1    2    0    0  0.00000000000E+00  0.00000000000E+00 -0.73584426744E+03  0.26856958376E+04  0.25829237980E+04 0.  0.
        1    1    3    3  502    0  0.14588746171E+03 -0.96009015684E+03 -0.12531592001E+04  0.15853908797E+04  0.50400001928E-02 0.  1.
       -1    1    3    3    0  502 -0.14588746171E+03  0.96009015684E+03  0.51731493265E+03  0.11003049579E+04  0.50400001928E-02 0. -1.
</event>
<event>
 5   0  0.1000421E-05  0.2623340E+04  0.7818609E-02  0.8360316E-01
        1   -1    0    0  501    0  0.00000000000E+00  0.00000000000E+00  0.25328185968E+04  0.25328185968E+04  0.50400001928E-02 0. -1.
       -1   -1    0    0    0  501  0.00000000000E+00  0.00000000000E+00 -0.67927433705E+03  0.67927433707E+03  0.50400001928E-02 0.  1.
    10030    2    1    2    0    0  0.00000000000E+00  0.00000000000E+00  0.18535442598E+04  0.32120929339E+04  0.26233403693E+04 0.  0.
        3    1    3    3  502    0 -0.57376170478E+03  0.54461453371E+03  0.22078493288E+04  0.23452944704E+04  0.10100000352E+00 0. -1.
       -3    1    3    3    0  502  0.57376170478E+03 -0.54461453371E+03 -0.35430506899E+03  0.86679846350E+03  0.10100000352E+00 0.  1.
</event>
<event>
 5   0  0.9855352E-06  0.2636073E+04  0.7818609E-02  0.8356050E-01
       -1   -1    0    0    0  501  0.00000000000E+00  0.00000000000E+00  0.12837390264E+04  0.12837390264E+04  0.50400001928E-02 0. -1.
        1   -1    0    0  501    0  0.00000000000E+00  0.00000000000E+00 -0.13532502994E+04  0.13532502994E+04  0.50400001928E-02 0.  1.
    10030    2    1    2    0    0  0.00000000000E+00  0.00000000000E+00 -0.69511272961E+02  0.26369893258E+04  0.26360730049E+04 0.  0.
        2    1    3    3  502    0  0.32393540946E+03 -0.31831804592E+03  0.12029940262E+04  0.12858674718E+04  0.25500000920E-02 0. -1.
       -2    1    3    3    0  502 -0.32393540946E+03  0.31831804592E+03 -0.12725052992E+04  0.13511218540E+04  0.25500000920E-02 0.  1.
</event>
<event>
 5   0  0.1034714E-05  0.2329854E+04  0.7818609E-02  0.8466242E-01
        1   -1    0    0  501    0  0.00000000000E+00  0.00000000000E+00  0.10964683266E+04  0.10964683267E+04  0.50400001928E-02 0.  1.
       -1   -1    0    0    0  501  0.00000000000E+00  0.00000000000E+00 -0.12376597979E+04  0.12376597979E+04  0.50400001928E-02 0. -1.
    10030    2    1    2    0    0  0.00000000000E+00  0.00000000000E+00 -0.14119147128E+03  0.23341281246E+04  0.23298538732E+04 0.  0.
        5    1    3    3  502    0 -0.23928647053E+03 -0.16037753839E+03 -0.12014063501E+04  0.12354668259E+04  0.46999998093E+01 0. -1.
       -5    1    3    3    0  502  0.23928647053E+03  0.16037753839E+03  0.10602148789E+04  0.10986612987E+04  0.46999998093E+01 0.  1.
</event>
<event>
 5   0  0.2528460E-05  0.2595320E+04  0.7818609E-02  0.8369792E-01
       -2   -1    0    0    0  501  0.00000000000E+00  0.00000000000E+00  0.10846081974E+04  0.10846081974E+04  0.25500000920E-02 0.  1.
        2   -1    0    0  501    0  0.00000000000E+00  0.00000000000E+00 -0.15525624370E+04  0.15525624370E+04  0.25500000920E-02 0. -1.
    10030    2    1    2    0    0  0.00000000000E+00  0.00000000000E+00 -0.46795423964E+03  0.26371706344E+04  0.25953203627E+04 0.  0.
        5    1    3    3  502    0  0.63894205700E+03  0.35749461720E+02 -0.13810627996E+04  0.15221305866E+04  0.46999998093E+01 0. -1.
       -5    1    3    3    0  502 -0.63894205700E+03 -0.35749461720E+02  0.91310855992E+03  0.11150400479E+04  0.46999998093E+01 0.  1.
</event>
<event>
 5   0  0.2528460E-05  0.2582056E+04  0.7818609E-02  0.8374322E-01
        2   -1    0    0  501    0  0.00000000000E+00  0.00000000000E+00  0.10912401921E+04  0.10912401921E+04  0.25500000920E-02 0. -1.
       -2   -1    0    0    0  501  0.00000000000E+00  0.00000000000E+00 -0.15273935264E+04  0.15273935264E+04  0.25500000920E-02 0.  1.
    10030    2    1    2    0    0  0.00000000000E+00  0.00000000000E+00 -0.43615333435E+03  0.26186337185E+04  0.25820559291E+04 0.  0.
        5    1    3    3  502    0  0.86701403392E+03  0.76404110962E+03  0.36562768244E+03  0.12120964666E+04  0.46999998093E+01 0. -1.
       -5    1    3    3    0  502 -0.86701403392E+03 -0.76404110962E+03 -0.80178101678E+03  0.14065372519E+04  0.46999998093E+01 0.  1.
</event>
<event>
 5   0  0.2528460E-05  0.2583790E+04  0.7818609E-02  0.8373728E-01
        2   -1    0    0  501    0  0.00000000000E+00  0.00000000000E+00  0.26386906458E+04  0.26386906458E+04  0.25500000920E-02 0.  1.
       -2   -1    0    0    0  501  0.00000000000E+00  0.00000000000E+00 -0.63250793625E+03  0.63250793625E+03  0.25500000920E-02 0. -1.
    10030    2    1    2    0    0  0.00000000000E+00  0.00000000000E+00  0.20061827095E+04  0.32711985820E+04  0.25837900648E+04 0.  0.
        5    1    3    3  502    0  0.70063280141E+03  0.10840994406E+04  0.93594592898E+03  0.15944198918E+04  0.46999998093E+01 0. -1.
       -5    1    3    3    0  502 -0.70063280141E+03 -0.10840994406E+04  0.10702367805E+04  0.16767786902E+04  0.46999998093E+01 0.  1.
</event>
<event>
 5   0  0.1005492E-05  0.2622652E+04  0.7818609E-02  0.8360547E-01
        1   -1    0    0  501    0  0.00000000000E+00  0.00000000000E+00  0.72956945398E+03  0.72956945400E+03  0.50400001928E-02 0. -1.
       -1   -1    0    0    0  501  0.00000000000E+00  0.00000000000E+00 -0.23569736056E+04  0.23569736056E+04  0.50400001928E-02 0.  1.
    10030    2    1    2    0    0  0.00000000000E+00  0.00000000000E+00 -0.16274041516E+04  0.30865430596E+04  0.26226520521E+04 0.  0.
        4    1    3    3  502    0  0.84258964111E+03 -0.76073012305E+03 -0.15862461973E+04  0.19506015059E+04  0.12699999809E+01 0.  1.
       -4    1    3    3    0  502 -0.84258964111E+03  0.76073012305E+03 -0.41157954340E+02  0.11359415537E+04  0.12699999809E+01 0. -1.
</event>
<event>
 5   0  0.2662024E-05  0.2582098E+04  0.7818609E-02  0.8374308E-01
        2   -1    0    0  501    0  0.00000000000E+00  0.00000000000E+00  0.59390028077E+03  0.59390028078E+03  0.25500000920E-02 0.  1.
       -2   -1    0    0    0  501  0.00000000000E+00  0.00000000000E+00 -0.28065437796E+04  0.28065437796E+04  0.25500000920E-02 0. -1.
    10030    2    1    2    0    0  0.00000000000E+00  0.00000000000E+00 -0.22126434988E+04  0.34004440603E+04  0.25820977043E+04 0.  0.
        2    1    3    3  502    0 -0.39591071980E+03  0.12262066767E+04 -0.10003188250E+04  0.16312467207E+04  0.25500000920E-02 0.  1.
       -2    1    3    3    0  502  0.39591071980E+03 -0.12262066767E+04 -0.12123246738E+04  0.17691973397E+04  0.25500000920E-02 0. -1.
</event>
<event>
 5   0  0.2484618E-05  0.2570625E+04  0.7818609E-02  0.8378248E-01
        2   -1    0    0  501    0  0.00000000000E+00  0.00000000000E+00  0.14412134627E+04  0.14412134627E+04  0.25500000920E-02 0. -1.
       -2   -1    0    0    0  501  0.00000000000E+00  0.00000000000E+00 -0.11462757267E+04  0.11462757267E+04  0.25500000920E-02 0.  1.
    10030    2    1    2    0    0  0.00000000000E+00  0.00000000000E+00  0.29493773598E+03  0.25874891894E+04  0.25706248340E+04 0.  0.
        3    1    3    3  502    0  0.21425007997E+03  0.43942320700E+03 -0.10490398475E+04  0.11573592629E+04  0.10100000352E+00 0.  1.
       -3    1    3    3    0  502 -0.21425007997E+03 -0.43942320700E+03  0.13439775835E+04  0.14301299265E+04  0.10100000352E+00 0. -1.
</event>
<event>
 5   0  0.1025153E-05  0.2629563E+04  0.7818609E-02  0.8358228E-01
       -1   -1    0    0    0  501  0.00000000000E+00  0.00000000000E+00  0.10738831678E+04  0.10738831678E+04  0.50400001928E-02 0.  1.
        1   -1    0    0  501    0  0.00000000000E+00  0.00000000000E+00 -0.16097194470E+04  0.16097194471E+04  0.50400001928E-02 0. -1.
    10030    2    1    2    0    0  0.00000000000E+00  0.00000000000E+00 -0.53583627925E+03  0.26836026149E+04  0.26295631721E+04 0.  0.
        1    1    3    3  502    0 -0.89396675662E+03  0.95723779068E+03 -0.15079968635E+03  0.13184162072E+04  0.50400001928E-02 0. -1.
       -1    1    3    3    0  502  0.89396675662E+03 -0.95723779068E+03 -0.38503659291E+03  0.13651864077E+04  0.50400001928E-02 0.  1.
</event>
<event>
 5   0  0.2484618E-05  0.2599333E+04  0.7818609E-02  0.8368428E-01
        2   -1    0    0  501    0  0.00000000000E+00  0.00000000000E+00  0.18953874837E+04  0.18953874837E+04  0.25500000920E-02 0.  1.
       -2   -1    0    0    0  501  0.00000000000E+00  0.00000000000E+00 -0.89118100778E+03  0.89118100779E+03  0.25500000920E-02 0. -1.
    10030    2    1    2    0    0  0.00000000000E+00  0.00000000000E+00  0.10042064759E+04  0.27865684915E+04  0.25993332436E+04 0.  0.
        3    1    3    3  502    0 -0.58137892106E+03  0.10456994563E+04  0.10462527092E+04  0.15893814974E+04  0.10100000352E+00 0.  1.
       -3    1    3    3    0  502  0.58137892106E+03 -0.10456994563E+04 -0.42046233238E+02  0.11971869940E+04  0.10100000352E+00 0. -1.
</event>
<event>
 5   0  0.1005492E-05  0.2607570E+04  0.7818609E-02  0.8365634E-01
        1   -1    0    0  501    0  0.00000000000E+00  0.00000000000E+00  0.15226671468E+04  0.15226671468E+04  0.50400001928E-02 0. -1.
       -1   -1    0    0    0  501  0.00000000000E+00  0.00000000000E+00 -0.11163673959E+04  0.11163673959E+04  0.50400001928E-02 0.  1.
    10030    2    1    2    0    0  0.00000000000E+00  0.00000000000E+00  0.40629975090E+03  0.26390345427E+04  0.26075704842E+04 0.  0.
        4    1    3    3  502    0 -0.45564590735E+02 -0.50703382007E+03 -0.10116228444E+04  0.11324936286E+04  0.12699999809E+01 0.  1.
       -4    1    3    3    0  502  0.45564590735E+02  0.50703382007E+03  0.14179225953E+04  0.15065409141E+04  0.12699999809E+01 0. -1.
</event>
<event>
 5   0  0.2528460E-05  0.2609573E+04  0.7818609E-02  0.8364957E-01
        2   -1    0    0  501    0  0.00000000000E+00  0.00000000000E+00  0.26614037296E+04  0.26614037296E+04  0.25500000920E-02 0.  1.
       -2   -1    0    0    0  501  0.00000000000E+00  0.00000000000E+00 -0.63968788631E+03  0.63968788631E+03  0.25500000920E-02 0. -1.
    10030    2    1    2    0    0  0.00000000000E+00  0.00000000000E+00  0.20217158433E+04  0.33010916159E+04  0.26095729355E+04 0.  0.
        5    1    3    3  502    0  0.50983169484E+03 -0.90256870074E+03  0.84860050512E+01  0.10366545803E+04  0.46999998093E+01 0. -1.
       -5    1    3    3    0  502 -0.50983169484E+03  0.90256870074E+03  0.20132298382E+04  0.22644370356E+04  0.46999998093E+01 0.  1.
</event>
<event>
 5   0  0.1000421E-05  0.2731495E+04  0.7818609E-02  0.8324858E-01
        1   -1    0    0  501    0  0.00000000000E+00  0.00000000000E+00  0.11465866052E+04  0.11465866052E+04  0.50400001928E-02 0. -1.
       -1   -1    0    0    0  501  0.00000000000E+00  0.00000000000E+00 -0.16267995481E+04  0.16267995481E+04  0.50400001928E-02 0.  1.
    10030    2    1    2    0    0  0.00000000000E+00  0.00000000000E+00 -0.48021294292E+03  0.27733861533E+04  0.27314952471E+04 0.  0.
        3    1    3    3  502    0  0.20517141782E+03 -0.20878517563E+03  0.11143612257E+04  0.11521664428E+04  0.10100000352E+00 0. -1.
       -3    1    3    3    0  502 -0.20517141782E+03  0.20878517563E+03 -0.15945741686E+04  0.16212197105E+04  0.10100000352E+00 0.  1.
</event>
<event>
 5   0  0.2662024E-05  0.2627515E+04  0.7818609E-02  0.8358915E-01
       -2   -1    0    0    0  501  0.00000000000E+00  0.00000000000E+00  0.99631546010E+03  0.99631546011E+03  0.25500000920E-02 0.  1.
        2   -1    0    0  501    0  0.00000000000E+00  0.00000000000E+00 -0.17323416143E+04  0.17323416143E+04  0.25500000920E-02 0. -1.
    10030    2    1    2    0    0  0.00000000000E+00  0.00000000000E+00 -0.73602615424E+03  0.27286570744E+04  0.26275149724E+04 0.  0.
        2    1    3    3  502    0 -0.11772977478E+04 -0.33458438106E+03  0.12784121272E+03  0.12305771291E+04  0.25500000920E-02 0. -1.
       -2    1    3    3    0  502  0.11772977478E+04  0.33458438106E+03 -0.86386736696E+03  0.14980799454E+04  0.25500000920E-02 0.  1.
</event>
<event>
 5   0  0.1034714E-05  0.2625297E+04  0.7818609E-02  0.8359659E-01
       -1   -1    0    0    0  501  0.00000000000E+00  0.00000000000E+00  0.15617050379E+04  0.15617050379E+04  0.50400001928E-02 0. -1.
        1   -1    0    0  501    0  0.00000000000E+00  0.00000000000E+00 -0.11033108452E+04  0.11033108452E+04  0.50400001928E-02 0.  1.
    10030    2    1    2    0    0  0.00000000000E+00  0.00000000000E+00  0.45839419265E+03  0.26650158831E+04  0.26252970158E+04 0.  0.
        5    1    3    3  502    0 -0.41253879830E+03  0.11677688529E+04 -0.21229856177E+03  0.12565687897E+04  0.46999998093E+01 0.  1.
       -5    1    3    3    0  502  0.41253879830E+03 -0.11677688529E+04  0.67069275441E+03  0.14084470934E+04  0.46999998093E+01 0. -1.
</event>
<event>
 5   0  0.9855352E-06  0.2608238E+04  0.7818609E-02  0.8365408E-01
       -1   -1    0    0    0  501  0.00000000000E+00  0.00000000000E+00  0.93772330801E+03  0.93772330803E+03  0.50400001928E-02 0. -1.
        1   -1    0    0  501    0  0.00000000000E+00  0.00000000000E+00 -0.18136758337E+04  0.18136758337E+04  0.50400001928E-02 0.  1.
    10030    2    1    2    0    0  0.00000000000E+00  0.00000000000E+00 -0.87595252566E+03  0.27513991417E+04  0.26082377978E+04 0.  0.
        2    1    3    3  502    0  0.81826265734E+03  0.71816053857E+03 -0.11953079105E+04  0.16168083796E+04  0.25500000920E-02 0.  1.
       -2    1    3    3    0  502 -0.81826265734E+03 -0.71816053857E+03  0.31935538482E+03  0.11345907621E+04  0.25500000920E-02 0. -1.
</event>
<event>
 5   0  0.1034714E-05  0.2609811E+04  0.7818609E-02  0.8364876E-01
        1   -1    0    0  501    0  0.00000000000E+00  0.00000000000E+00  0.20374795815E+04  0.20374795815E+04  0.50400001928E-02 0. -1.
       -1   -1    0    0    0  501  0.00000000000E+00  0.00000000000E+00 -0.83572759854E+03  0.83572759856E+03  0.50400001928E-02 0.  1.
    10030    2    1    2    0    0  0.00000000000E+00  0.00000000000E+00  0.12017519829E+04  0.28732071800E+04  0.26098106581E+04 0.  0.
        5    1    3    3  502    0  0.10990532617E+04 -0.22052717406E+02 -0.17318617575E+03  0.11128431766E+04  0.46999998093E+01 0.  1.
       -5    1    3    3    0  502 -0.10990532617E+04  0.22052717406E+02  0.13749381587E+04  0.17603640034E+04  0.46999998093E+01 0. -1.
</event>
<event>
 5   0  0.2528460E-05  0.2606111E+04  0.7818609E-02  0.8366128E-01
        2   -1    0    0  501    0  0.00000000000E+00  0.00000000000E+00  0.20171486465E+04  0.20171486465E+04  0.25500000920E-02 0.  1.
       -2   -1    0    0    0  501  0.00000000000E+00  0.00000000000E+00 -0.84175929388E+03  0.84175929388E+03  0.25500000920E-02 0. -1.
    10030    2    1    2    0    0  0.00000000000E+00  0.00000000000E+00  0.11753893526E+04  0.28589079404E+04  0.26061109879E+04 0.  0.
        5    1    3    3  502    0  0.66618849835E+03 -0.11075801838E+04  0.76924944099E+03  0.15040969953E+04  0.46999998093E+01 0.  1.
       -5    1    3    3    0  502 -0.66618849835E+03  0.11075801838E+04  0.40613991162E+03  0.13548109450E+04  0.46999998093E+01 0. -1.
</event>
<event>
 5   0  0.1034714E-05  0.2663720E+04  0.7818609E-02  0.8346873E-01
       -1   -1    0    0    0  501  0.00000000000E+00  0.00000000000E+00  0.14929477488E+04  0.14929477488E+04  0.50400001928E-02 0. -1.
        1   -1    0    0  501    0  0.00000000000E+00  0.00000000000E+00 -0.11881534727E+04  0.11881534727E+04  0.50400001928E-02 0.  1.
    10030    2    1    2    0    0  0.00000000000E+00  0.00000000000E+00  0.30479427610E+03  0.26811012215E+04  0.26637199945E+04 0.  0.
        5    1    3    3  502    0  0.51243364113E+03 -0.53126552206E+03  0.12682326266E+04  0.14674015731E+04  0.46999998093E+01 0. -1.
       -5    1    3    3    0  502 -0.51243364113E+03  0.53126552206E+03 -0.96343835048E+03  0.12136996485E+04  0.46999998093E+01 0.  1.
</event>
<event>
 5   0  0.2555801E-05  0.2655840E+04  0.7818609E-02  0.8349477E-01
        2   -1    0    0  501    0  0.00000000000E+00  0.00000000000E+00  0.16472124070E+04  0.16472124070E+04  0.25500000920E-02 0. -1.
       -2   -1    0    0    0  501  0.00000000000E+00  0.00000000000E+00 -0.10705187601E+04  0.10705187601E+04  0.25500000920E-02 0.  1.
    10030    2    1    2    0    0  0.00000000000E+00  0.00000000000E+00  0.57669364696E+03  0.27177311671E+04  0.26558401936E+04 0.  0.
        1    1    3    3  502    0 -0.10432590396E+04  0.24140510149E+03 -0.51526000839E+03  0.11883428474E+04  0.50400001928E-02 0.  1.
       -1    1    3    3    0  502  0.10432590396E+04 -0.24140510149E+03  0.10919536554E+04  0.15293883196E+04  0.50400001928E-02 0. -1.
</event>
<event>
 5   0  0.2528460E-05  0.2606319E+04  0.7818609E-02  0.8366058E-01
        2   -1    0    0  501    0  0.00000000000E+00  0.00000000000E+00  0.23811050902E+04  0.23811050902E+04  0.25500000920E-02 0.  1.
       -2   -1    0    0    0  501  0.00000000000E+00  0.00000000000E+00 -0.71320859175E+03  0.71320859175E+03  0.25500000920E-02 0. -1.
    10030    2    1    2    0    0  0.00000000000E+00  0.00000000000E+00  0.16678964985E+04  0.30943136820E+04  0.26063189430E+04 0.  0.
        5    1    3    3  502    0  0.19476296518E+03 -0.12583416405E+04  0.50483297663E+03  0.13697571759E+04  0.46999998093E+01 0.  1.
       -5    1    3    3    0  502 -0.19476296518E+03  0.12583416405E+04  0.11630635218E+04  0.17245565060E+04  0.46999998093E+01 0. -1.
</event>
<event>
 5   0  0.2528460E-05  0.2441045E+04  0.7818609E-02  0.8424295E-01
        2   -1    0    0  501    0  0.00000000000E+00  0.00000000000E+00  0.10756302538E+04  0.10756302538E+04  0.25500000920E-02 0. -1.
       -2   -1    0    0    0  501  0.00000000000E+00  0.00000000000E+00 -0.13849318620E+04  0.13849318620E+04  0.25500000920E-02 0.  1.
    10030    2    1    2    0    0  0.00000000000E+00  0.00000000000E+00 -0.30930160818E+03  0.24605621158E+04  0.24410445389E+04 0.  0.
        5    1    3    3  502    0 -0.20213061876E+03  0.11871388165E+04  0.45677163090E+02  0.12050991037E+04  0.46999998093E+01 0.  1.
       -5    1    3    3    0  502  0.20213061876E+03 -0.11871388165E+04 -0.35497877127E+03  0.12554630121E+04  0.46999998093E+01 0. -1.
</event>
<event>
 5   0  0.1034714E-05  0.2700618E+04  0.7818609E-02  0.8334804E-01
       -1   -1    0    0    0  501  0.00000000000E+00  0.00000000000E+00  0.92470841301E+03  0.92470841302E+03  0.50400001928E-02 0. -1.
        1   -1    0    0  501    0  0.00000000000E+00  0.00000000000E+00 -0.19717938319E+04  0.19717938319E+04  0.50400001928E-02 0.  1.
    10030    2    1    2    0    0  0.00000000000E+00  0.00000000000E+00 -0.10470854189E+04  0.28965022449E+04  0.27006179627E+04 0.  0.
        5    1    3    3  502    0  0.11492350412E+04  0.60210508588E+03 -0.92490596148E+03  0.15933439183E+04  0.46999998093E+01 0.  1.
       -5    1    3    3    0  502 -0.11492350412E+04 -0.60210508588E+03 -0.12217945743E+03  0.13031583266E+04  0.46999998093E+01 0. -1.
</event>
<event>
 5   0  0.1034714E-05  0.2462324E+04  0.7818609E-02  0.8416532E-01
       -1   -1    0    0    0  501  0.00000000000E+00  0.00000000000E+00  0.12067766325E+04  0.12067766325E+04  0.50400001928E-02 0.  1.
        1   -1    0    0  501    0  0.00000000000E+00  0.00000000000E+00 -0.12560396379E+04  0.12560396379E+04  0.50400001928E-02 0. -1.
    10030    2    1    2    0    0  0.00000000000E+00  0.00000000000E+00 -0.49263005453E+02  0.24628162704E+04  0.24623235242E+04 0.  0.
        5    1    3    3  502    0  0.75524615925E+03 -0.86571138276E+03  0.41804517557E+03  0.12225534009E+04  0.46999998093E+01 0.  1.
       -5    1    3    3    0  502 -0.75524615925E+03  0.86571138276E+03 -0.46730818103E+03  0.12402628695E+04  0.46999998093E+01 0. -1.
</event>
<event>
 5   0  0.2528460E-05  0.2578370E+04  0.7818609E-02  0.8375586E-01
        2   -1    0    0  501    0  0.00000000000E+00  0.00000000000E+00  0.16794567278E+04  0.16794567278E+04  0.25500000920E-02 0. -1.
       -2   -1    0    0    0  501  0.00000000000E+00  0.00000000000E+00 -0.98960429761E+03  0.98960429761E+03  0.25500000920E-02 0.  1.
    10030    2    1    2    0    0  0.00000000000E+00  0.00000000000E+00  0.68985243024E+03  0.26690610255E+04  0.25783697140E+04 0.  0.
        5    1    3    3  502    0  0.27653811356E+03  0.71102685652E+03 -0.73082965992E+03  0.10564878612E+04  0.46999998093E+01 0. -1.
       -5    1    3    3    0  502 -0.27653811356E+03 -0.71102685652E+03  0.14206820902E+04  0.16125731643E+04  0.46999998093E+01 0.  1.
</event>
<event>
 5   0  0.1005492E-05  0.2594727E+04  0.7818609E-02  0.8369995E-01
       -1   -1    0    0    0  501  0.00000000000E+00  0.00000000000E+00  0.21482840343E+04  0.21482840343E+04  0.50400001928E-02 0. -1.
        1   -1    0    0  501    0  0.00000000000E+00  0.00000000000E+00 -0.78348665470E+03  0.78348665471E+03  0.50400001928E-02 0.  1.
    10030    2    1    2    0    0  0.00000000000E+00  0.00000000000E+00  0.13647973796E+04  0.29317706891E+04  0.25947268615E+04 0.  0.
        4    1    3    3  502    0  0.36688857124E+03 -0.57915719057E+03  0.19268853026E+04  0.20452185354E+04  0.12699999809E+01 0. -1.
       -4    1    3    3    0  502 -0.36688857124E+03  0.57915719057E+03 -0.56208792299E+03  0.88655215367E+03  0.12699999809E+01 0.  1.
</event>
<event>
 5   0  0.2555801E-05  0.2611959E+04  0.7818609E-02  0.8364150E-01
       -2   -1    0    0    0  501  0.00000000000E+00  0.00000000000E+00  0.10835584024E+04  0.10835584024E+04  0.25500000920E-02 0.  1.
        2   -1    0    0  501    0  0.00000000000E+00  0.00000000000E+00 -0.15740571621E+04  0.15740571621E+04  0.25500000920E-02 0. -1.
    10030    2    1    2    0    0  0.00000000000E+00  0.00000000000E+00 -0.49049875970E+03  0.26576155645E+04  0.26119593135E+04 0.  0.
        1    1    3    3  502    0  0.60197015843E+03  0.97762812468E+03 -0.87859109035E+03  0.14456995282E+04  0.50400001928E-02 0.  1.
       -1    1    3    3    0  502 -0.60197015843E+03 -0.97762812468E+03  0.38809233064E+03  0.12119160363E+04  0.50400001928E-02 0. -1.
</event>
<event>
 5   0  0.1034714E-05  0.2594405E+04  0.7818609E-02  0.8370104E-01
       -1   -1    0    0    0  501  0.00000000000E+00  0.00000000000E+00  0.18162974911E+04  0.18162974911E+04  0.50400001928E-02 0.  1.
        1   -1    0    0  501    0  0.00000000000E+00  0.00000000000E+00 -0.92646419201E+03  0.92646419202E+03  0.50400001928E-02 0. -1.
    10030    2    1    2    0    0  0.00000000000E+00  0.00000000000E+00  0.88983329911E+03  0.27427616831E+04  0.25944052017E+04 0.  0.
        5    1    3    3  502    0 -0.24715121575E+03  0.54845695055E+02  0.17899182947E+04  0.18077392968E+04  0.46999998093E+01 0.  1.
       -5    1    3    3    0  502  0.24715121575E+03 -0.54845695055E+02 -0.90008499555E+03  0.93502238633E+03  0.46999998093E+01 0. -1.
</event>
<event>
 5   0  0.1025153E-05  0.2558080E+04  0.7818609E-02  0.8382582E-01
       -1   -1    0    0    0  501  0.00000000000E+00  0.00000000000E+00  0.63626261270E+03  0.63626261272E+03  0.50400001928E-02 0. -1.
        1   -1    0    0  501    0  0.00000000000E+00  0.00000000000E+00 -0.25711753746E+04  0.25711753747E+04  0.50400001928E-02 0.  1.
    10030    2    1    2    0    0  0.00000000000E+00  0.00000000000E+00 -0.19349127619E+04  0.32074379874E+04  0.25580795622E+04 0.  0.
        1    1    3    3  502    0 -0.47343692919E+03  0.62038036926E+03 -0.22380723518E+04  0.23702282971E+04  0.50400001928E-02 0.  1.
       -1    1    3    3    0  502  0.47343692919E+03 -0.62038036926E+03  0.30315958987E+03  0.83720969025E+03  0.50400001928E-02 0. -1.
</event>
<event>
 5   0  0.1025153E-05  0.2607788E+04  0.7818609E-02  0.8365561E-01
       -1   -1    0    0    0  501  0.00000000000E+00  0.00000000000E+00  0.83134800353E+03  0.83134800355E+03  0.50400001928E-02 0. -1.
        1   -1    0    0  501    0  0.00000000000E+00  0.00000000000E+00 -0.20450389715E+04  0.20450389715E+04  0.50400001928E-02 0.  1.
    10030    2    1    2    0    0  0.00000000000E+00  0.00000000000E+00 -0.12136909680E+04  0.28763869751E+04  0.26077876188E+04 0.  0.
        1    1    3    3  502    0  0.94205682163E+03 -0.40010380845E+03  0.28418717495E+03  0.10622224170E+04  0.50400001928E-02 0. -1.
       -1    1    3    3    0  502 -0.94205682163E+03  0.40010380845E+03 -0.14978781429E+04  0.18141645581E+04  0.50400001928E-02 0.  1.
</event>
<event>
 5   0  0.1005492E-05  0.2600488E+04  0.7818609E-02  0.8368035E-01
       -1   -1    0    0    0  501  0.00000000000E+00  0.00000000000E+00  0.12838160065E+04  0.12838160065E+04  0.50400001928E-02 0.  1.
        1   -1    0    0  501    0  0.00000000000E+00  0.00000000000E+00 -0.13168826556E+04  0.13168826556E+04  0.50400001928E-02 0. -1.
    10030    2    1    2    0    0  0.00000000000E+00  0.00000000000E+00 -0.33066649137E+02  0.26006986621E+04  0.26004884402E+04 0.  0.
        4    1    3    3  502    0 -0.72464135008E+02  0.60625416506E+03  0.11315308420E+04  0.12857522401E+04  0.12699999809E+01 0.  1.
       -4    1    3    3    0  502  0.72464135008E+02 -0.60625416506E+03 -0.11645974911E+04  0.13149464220E+04  0.12699999809E+01 0. -1.
</event>
<event>
 5   0  0.2517854E-05  0.2593185E+04  0.7818609E-02  0.8370520E-01
        2   -1    0    0  501    0  0.00000000000E+00  0.00000000000E+00  0.16321261821E+04  0.16321261821E+04  0.25500000920E-02 0.  1.
       -2   -1    0    0    0  501  0.00000000000E+00  0.00000000000E+00 -0.10300382489E+04  0.10300382489E+04  0.25500000920E-02 0. -1.
    10030    2    1    2    0    0  0.00000000000E+00  0.00000000000E+00  0.60208793315E+03  0.26621644310E+04  0.25931852187E+04 0.  0.
        4    1    3    3  502    0  0.89638696123E+03  0.27962576525E+03  0.12189477572E+04  0.15386797590E+04  0.12699999809E+01 0.  1.
       -4    1    3    3    0  502 -0.89638696123E+03 -0.27962576525E+03 -0.61685982408E+03  0.11234846720E+04  0.12699999809E+01 0. -1.
</event>
<event>
 5   0  0.2484618E-05  0.2618049E+04  0.7818609E-02  0.8362096E-01
        2   -1    0    0  501    0  0.00000000000E+00  0.00000000000E+00  0.18512643102E+04  0.18512643102E+04  0.25500000920E-02 0.  1.
       -2   -1    0    0    0  501  0.00000000000E+00  0.00000000000E+00 -0.92560837514E+03  0.92560837514E+03  0.25500000920E-02 0. -1.
    10030    2    1    2    0    0  0.00000000000E+00  0.00000000000E+00  0.92565593501E+03  0.27768726853E+04  0.26180494648E+04 0.  0.
        3    1    3    3  502    0 -0.76538800896E+03 -0.18789657337E+03 -0.64576802052E+03  0.10188916886E+04  0.10100000352E+00 0. -1.
       -3    1    3    3    0  502  0.76538800896E+03  0.18789657337E+03  0.15714239555E+04  0.17579809967E+04  0.10100000352E+00 0.  1.
</event>
<event>
 5   0  0.1005492E-05  0.2605318E+04  0.7818609E-02  0.8366397E-01
        1   -1    0    0  501    0  0.00000000000E+00  0.00000000000E+00  0.13564938943E+04  0.13564938943E+04  0.50400001928E-02 0.  1.
       -1   -1    0    0    0  501  0.00000000000E+00  0.00000000000E+00 -0.12509605983E+04  0.12509605983E+04  0.50400001928E-02 0. -1.
    10030    2    1    2    0    0  0.00000000000E+00  0.00000000000E+00  0.10553329599E+03  0.26074544926E+04  0.26053179565E+04 0.  0.
        4    1    3    3  502    0  0.71150889918E+03 -0.70780885794E+03 -0.77838444563E+03  0.12700874974E+04  0.12699999809E+01 0. -1.
       -4    1    3    3    0  502 -0.71150889918E+03  0.70780885794E+03  0.88391774161E+03  0.13373669952E+04  0.12699999809E+01 0.  1.
</event>
<event>
 5   0  0.2528460E-05  0.2585421E+04  0.7818609E-02  0.8373170E-01
       -2   -1    0    0    0  501  0.00000000000E+00  0.00000000000E+00  0.49497162272E+03  0.49497162273E+03  0.25500000920E-02 0.  1.
        2   -1    0    0  501    0  0.00000000000E+00  0.00000000000E+00 -0.33761531895E+04  0.33761531895E+04  0.25500000920E-02 0. -1.
    10030    2    1    2    0    0  0.00000000000E+00  0.00000000000E+00 -0.28811815668E+04  0.38711248122E+04  0.25854206797E+04 0.  0.
        5    1    3    3  502    0 -0.37070001839E+03 -0.11973633497E+04 -0.96715239123E+03  0.15831940288E+04  0.46999998093E+01 0.  1.
       -5    1    3    3    0  502  0.37070001839E+03  0.11973633497E+04 -0.19140291755E+04  0.22879307834E+04  0.46999998093E+01 0. -1.
</event>
<event>
 5   0  0.2484618E-05  0.2602873E+04  0.7818609E-02  0.8367226E-01
       -2   -1    0    0    0  501  0.00000000000E+00  0.00000000000E+00  0.13763501058E+04  0.13763501058E+04  0.25500000920E-02 0.  1.
        2   -1    0    0  501    0  0.00000000000E+00  0.00000000000E+00 -0.12306002091E+04  0.12306002091E+04  0.25500000920E-02 0. -1.
    10030    2    1    2    0    0  0.00000000000E+00  0.00000000000E+00  0.14574989676E+03  0.26069503149E+04  0.26028728190E+04 0.  0.
        3    1    3    3  502    0 -0.11807667585E+04  0.97431654476E+02  0.61226632853E+03  0.13336315580E+04  0.10100000352E+00 0.  1.
       -3    1    3    3    0  502  0.11807667585E+04 -0.97431654476E+02 -0.46651643177E+03  0.12733187569E+04  0.10100000352E+00 0. -1.
</event>
<event>
 5   0  0.2517854E-05  0.2604930E+04  0.7818609E-02  0.8366529E-01
       -2   -1    0    0    0  501  0.00000000000E+00  0.00000000000E+00  0.93171267270E+03  0.93171267270E+03  0.25500000920E-02 0. -1.
        2   -1    0    0  501    0  0.00000000000E+00  0.00000000000E+00 -0.18207488269E+04  0.18207488269E+04  0.25500000920E-02 0.  1.
    10030    2    1    2    0    0  0.00000000000E+00  0.00000000000E+00 -0.88903615423E+03  0.27524614996E+04  0.26049297540E+04 0.  0.
        4    1    3    3  502    0 -0.67641180409E+03  0.68719179255E+03 -0.13696914867E+04  0.16750587662E+04  0.12699999809E+01 0.  1.
       -4    1    3    3    0  502  0.67641180409E+03 -0.68719179255E+03  0.48065533250E+03  0.10774027334E+04  0.12699999809E+01 0. -1.
</event>
<event>
 5   0  0.2662024E-05  0.2598799E+04  0.7818609E-02  0.8368609E-01
       -2   -1    0    0    0  501  0.00000000000E+00  0.00000000000E+00  0.11489153230E+04  0.11489153230E+04  0.25500000920E-02 0.  1.
        2   -1    0    0  501    0  0.00000000000E+00  0.00000000000E+00 -0.14695939812E+04  0.14695939812E+04  0.25500000920E-02 0. -1.
    10030    2    1    2    0    0  0.00000000000E+00  0.00000000000E+00 -0.32067865811E+03  0.26185093042E+04  0.25987989869E+04 0.  0.
        2    1    3    3  502    0 -0.33105410982E+03  0.12436695769E+04  0.20263543617E+02  0.12871369202E+04  0.25500000920E-02 0. -1.
       -2    1    3    3    0  502  0.33105410982E+03 -0.12436695769E+04 -0.34094220173E+03  0.13313723840E+04  0.25500000920E-02 0.  1.
</event>
<event>
 5   0  0.2662024E-05  0.2693201E+04  0.7818609E-02  0.8337214E-01
       -2   -1    0    0    0  501  0.00000000000E+00  0.00000000000E+00  0.87915062641E+03  0.87915062641E+03  0.25500000920E-02 0. -1.
        2   -1    0    0  501    0  0.00000000000E+00  0.00000000000E+00 -0.20625960187E+04  0.20625960187E+04  0.25500000920E-02 0.  1.
    10030    2    1    2    0    0  0.00000000000E+00  0.00000000000E+00 -0.11834453922E+04  0.29417466451E+04  0.26932007588E+04 0.  0.
        2    1    3    3  502    0 -0.55768671081E+03 -0.48586898994E+02 -0.19294759165E+04  0.20090426742E+04  0.25500000920E-02 0.  1.
       -2    1    3    3    0  502  0.55768671081E+03  0.48586898994E+02  0.74603052428E+03  0.93270397090E+03  0.25500000920E-02 0. -1.
</event>
<event>
 5   0  0.2662024E-05  0.2582759E+04  0.7818609E-02  0.8374081E-01
       -2   -1    0    0    0  501  0.00000000000E+00  0.00000000000E+00  0.82183428230E+03  0.82183428230E+03  0.25500000920E-02 0.  1.
        2   -1    0    0  501    0  0.00000000000E+00  0.00000000000E+00 -0.20291934115E+04  0.20291934115E+04  0.25500000920E-02 0. -1.
    10030    2    1    2    0    0  0.00000000000E+00  0.00000000000E+00 -0.12073591292E+04  0.28510276938E+04  0.25827587661E+04 0.  0.
        2    1    3    3  502    0 -0.67670086045E+03 -0.77404728603E+03 -0.14662439656E+04  0.17907944109E+04  0.25500000920E-02 0. -1.
       -2    1    3    3    0  502  0.67670086045E+03  0.77404728603E+03  0.25888483641E+03  0.10602332829E+04  0.25500000920E-02 0.  1.
</event>
<event>
 5   0  0.2484618E-05  0.2588850E+04  0.7818609E-02  0.8371998E-01
       -2   -1    0    0    0  501  0.00000000000E+00  0.00000000000E+00  0.10237332185E+04  0.10237332186E+04  0.25500000920E-02 0. -1.
        2   -1    0    0  501    0  0.00000000000E+00  0.00000000000E+00 -0.16366923377E+04  0.16366923377E+04  0.25500000920E-02 0.  1.
    10030    2    1    2    0    0  0.00000000000E+00  0.00000000000E+00 -0.61295911918E+03  0.26604255563E+04  0.25888501808E+04 0.  0.
        3    1    3    3  502    0  0.96773324528E+03  0.85953275164E+03 -0.32213624565E+03  0.13338200614E+04  0.10100000352E+00 0. -1.
       -3    1    3    3    0  502 -0.96773324528E+03 -0.85953275164E+03 -0.29082287353E+03  0.13266054949E+04  0.10100000352E+00 0.  1.
</event>
<event>
 5   0  0.2517854E-05  0.2631861E+04  0.7818609E-02  0.8357459E-01
       -2   -1    0    0    0  501  0.00000000000E+00  0.00000000000E+00  0.16180379568E+04  0.16180379568E+04  0.25500000920E-02 0.  1.
        2   -1    0    0  501    0  0.00000000000E+00  0.00000000000E+00 -0.10702299482E+04  0.10702299482E+04  0.25500000920E-02 0. -1.
    10030    2    1    2    0    0  0.00000000000E+00  0.00000000000E+00  0.54780800852E+03  0.26882679050E+04  0.26318606944E+04 0.  0.
        4    1    3    3  502    0 -0.27876449340E+03  0.10994474320E+04 -0.40761174214E+03  0.12052565054E+04  0.12699999809E+01 0. -1.
       -4    1    3    3    0  502  0.27876449340E+03 -0.10994474320E+04  0.95541975067E+03  0.14830113996E+04  0.12699999809E+01 0.  1.
</event>
<event>
 5   0  0.2555801E-05  0.2607894E+04  0.7818609E-02  0.8365525E-01
       -2   -1    0    0    0  501  0.00000000000E+00  0.00000000000E+00  0.14408426086E+04  0.14408426086E+04  0.25500000920E-02 0. -1.
        2   -1    0    0  501    0  0.00000000000E+00  0.00000000000E+00 -0.11800575327E+04  0.11800575327E+04  0.25500000920E-02 0.  1.
    10030    2    1    2    0    0  0.00000000000E+00  0.00000000000E+00  0.26078507592E+03  0.26209001413E+04  0.26078935359E+04 0.  0.
        1    1    3    3  502    0  0.67884446094E+03  0.29488132104E+03 -0.94850362189E+03  0.12030976338E+04  0.50400001928E-02 0.  1.
       -1    1    3    3    0  502 -0.67884446094E+03 -0.29488132104E+03  0.12092886978E+04  0.14178025075E+04  0.50400001928E-02 0. -1.
</event>
<event>
 5   0  0.1025153E-05  0.2613386E+04  0.7818609E-02  0.8363668E-01
       -1   -1    0    0    0  501  0.00000000000E+00  0.00000000000E+00  0.12167373321E+04  0.12167373322E+04  0.50400001928E-02 0.  1.
        1   -1    0    0  501    0  0.00000000000E+00  0.00000000000E+00 -0.14032995668E+04  0.14032995668E+04  0.50400001928E-02 0. -1.
    10030    2    1    2    0    0  0.00000000000E+00  0.00000000000E+00 -0.18656223467E+03  0.26200368990E+04  0.26133862869E+04 0.  0.
        1    1    3    3  502    0 -0.48687203742E+02 -0.12655046598E+04 -0.41593001635E+03  0.13329929731E+04  0.50400001928E-02 0. -1.
       -1    1    3    3    0  502  0.48687203742E+02  0.12655046598E+04  0.22936778168E+03  0.12870439259E+04  0.50400001928E-02 0.  1.
</event>
<event>
 5   0  0.1000421E-05  0.2590971E+04  0.7818609E-02  0.8371275E-01
        1   -1    0    0  501    0  0.00000000000E+00  0.00000000000E+00  0.14254882549E+04  0.14254882549E+04  0.50400001928E-02 0. -1.
       -1   -1    0    0    0  501  0.00000000000E+00  0.00000000000E+00 -0.11773388846E+04  0.11773388846E+04  0.50400001928E-02 0.  1.
    10030    2    1    2    0    0  0.00000000000E+00  0.00000000000E+00  0.24814937026E+03  0.26028271395E+04  0.25909710551E+04 0.  0.
        3    1    3    3  502    0  0.62603583327E+03  0.11280563488E+03  0.12577940343E+04  0.14095005565E+04  0.10100000352E+00 0. -1.
       -3    1    3    3    0  502 -0.62603583327E+03 -0.11280563488E+03 -0.10096446641E+04  0.11933265830E+04  0.10100000352E+00 0.  1.
</event>
<event>
 5   0  0.1025153E-05  0.2615243E+04  0.7818609E-02  0.8363042E-01
        1   -1    0    0  501    0  0.00000000000E+00  0.00000000000E+00  0.18031607466E+04  0.18031607466E+04  0.50400001928E-02 0. -1.
       -1   -1    0    0    0  501  0.00000000000E+00  0.00000000000E+00 -0.94826481569E+03  0.94826481570E+03  0.50400001928E-02 0.  1.
    10030    2    1    2    0    0  0.00000000000E+00  0.00000000000E+00  0.85489593093E+03  0.27514255623E+04  0.26152429280E+04 0.  0.
        1    1    3    3  502    0  0.14154224423E+03 -0.80505025458E+03 -0.64635377537E+03  0.10420716493E+04  0.50400001928E-02 0.  1.
       -1    1    3    3    0  502 -0.14154224423E+03  0.80505025458E+03  0.15012497063E+04  0.17093539130E+04  0.50400001928E-02 0. -1.
</event>
<event>
 5   0  0.2517854E-05  0.2245870E+04  0.7818609E-02  0.8499575E-01
        2   -1    0    0  501    0  0.00000000000E+00  0.00000000000E+00  0.14335415455E+04  0.14335415455E+04  0.25500000920E-02 0.  1.
       -2   -1    0    0    0  501  0.00000000000E+00  0.00000000000E+00 -0.87962752611E+03  0.87962752611E+03  0.25500000920E-02 0. -1.
    10030    2    1    2    0    0  0.00000000000E+00  0.00000000000E+00  0.55391401941E+03  0.23131690716E+04  0.22458696340E+04 0.  0.
        4    1    3    3  502    0  0.83108281193E+03  0.51796857021E+03 -0.28904734087E+03  0.10210485092E+04  0.12699999809E+01 0. -1.
       -4    1    3    3    0  502 -0.83108281193E+03 -0.51796857021E+03  0.84296136029E+03  0.12921205624E+04  0.12699999809E+01 0.  1.
</event>
<event>
 5   0  0.2662024E-05  0.2619542E+04  0.7818609E-02  0.8361593E-01
       -2   -1    0    0    0  501  0.00000000000E+00  0.00000000000E+00  0.88251264798E+03  0.88251264798E+03  0.25500000920E-02 0. -1.
        2   -1    0    0  501    0  0.00000000000E+00  0.00000000000E+00 -0.19438812110E+04  0.19438812110E+04  0.25500000920E-02 0.  1.
    10030    2    1    2    0    0  0.00000000000E+00  0.00000000000E+00 -0.10613685630E+04  0.28263938590E+04  0.26195417575E+04 0.  0.
        2    1    3    3  502    0  0.10101326895E+04  0.80120586942E+03 -0.77955091834E+03  0.15066514294E+04  0.25500000920E-02 0.  1.
       -2    1    3    3    0  502 -0.10101326895E+04 -0.80120586942E+03 -0.28181764468E+03  0.13197424296E+04  0.25500000920E-02 0. -1.
</event>
<event>
 5   0  0.2662024E-05  0.2591681E+04  0.7818609E-02  0.8371032E-01
       -2   -1    0    0    0  501  0.00000000000E+00  0.00000000000E+00  0.12887140664E+04  0.12887140664E+04  0.25500000920E-02 0.  1.
        2   -1    0    0  501    0  0.00000000000E+00  0.00000000000E+00 -0.13030063365E+04  0.13030063365E+04  0.25500000920E-02 0. -1.
    10030    2    1    2    0    0  0.00000000000E+00  0.00000000000E+00 -0.14292270121E+02  0.25917204029E+04  0.25916809946E+04 0.  0.
        2    1    3    3  502    0 -0.34733269099E+02  0.63279456123E+03  0.11231662512E+04  0.12896269944E+04  0.25500000920E-02 0.  1.
       -2    1    3    3    0  502  0.34733269099E+02 -0.63279456123E+03 -0.11374585213E+04  0.13020934085E+04  0.25500000920E-02 0. -1.
</event>
<event>
 5   0  0.2555801E-05  0.2619540E+04  0.7818609E-02  0.8361594E-01
       -2   -1    0    0    0  501  0.00000000000E+00  0.00000000000E+00  0.10803211649E+04  0.10803211649E+04  0.25500000920E-02 0. -1.
        2   -1    0    0  501    0  0.00000000000E+00  0.00000000000E+00 -0.15879519274E+04  0.15879519274E+04  0.25500000920E-02 0.  1.
    10030    2    1    2    0    0  0.00000000000E+00  0.00000000000E+00 -0.50763076253E+03  0.26682730923E+04  0.26195404757E+04 0.  0.
        1    1    3    3  502    0  0.11022321268E+04 -0.62632138051E+03 -0.58903335556E+03  0.13979107364E+04  0.50400001928E-02 0. -1.
       -1    1    3    3    0  502 -0.11022321268E+04  0.62632138051E+03  0.81402593034E+02  0.12703623559E+04  0.50400001928E-02 0.  1.
</event>
<event>
 5   0  0.2528460E-05  0.2615037E+04  0.7818609E-02  0.8363111E-01
       -2   -1    0    0    0  501  0.00000000000E+00  0.00000000000E+00  0.82839959319E+03  0.82839959319E+03  0.25500000920E-02 0. -1.
        2   -1    0    0  501    0  0.00000000000E+00  0.00000000000E+00 -0.20637444516E+04  0.20637444516E+04  0.25500000920E-02 0.  1.
    10030    2    1    2    0    0  0.00000000000E+00  0.00000000000E+00 -0.12353448584E+04  0.28921440448E+04  0.26150373337E+04 0.  0.
        5    1    3    3  502    0  0.52042574716E+03  0.62028599405E+01 -0.19442339029E+04  0.20126969451E+04  0.46999998093E+01 0.  1.
       -5    1    3    3    0  502 -0.52042574716E+03 -0.62028599405E+01  0.70888904446E+03  0.87944709968E+03  0.46999998093E+01 0. -1.
</event>
<event>
 5   0  0.9855352E-06  0.2602165E+04  0.7818609E-02  0.8367466E-01
        1   -1    0    0  501    0  0.00000000000E+00  0.00000000000E+00  0.11581139434E+04  0.11581139434E+04  0.50400001928E-02 0. -1.
       -1   -1    0    0    0  501  0.00000000000E+00  0.00000000000E+00 -0.14617005636E+04  0.14617005636E+04  0.50400001928E-02 0.  1.
    10030    2    1    2    0    0  0.00000000000E+00  0.00000000000E+00 -0.30358662025E+03  0.26198145070E+04  0.26021651014E+04 0.  0.
        2    1    3    3  502    0  0.70115276848E+03 -0.31634222165E+03  0.90467052946E+03  0.11874832095E+04  0.25500000920E-02 0. -1.
       -2    1    3    3    0  502 -0.70115276848E+03  0.31634222165E+03 -0.12082571497E+04  0.14323312975E+04  0.25500000920E-02 0.  1.
</event>
<event>
 5   0  0.1000421E-05  0.2610354E+04  0.7818609E-02  0.8364693E-01
       -1   -1    0    0    0  501  0.00000000000E+00  0.00000000000E+00  0.16370556846E+04  0.16370556846E+04  0.50400001928E-02 0.  1.
        1   -1    0    0  501    0  0.00000000000E+00  0.00000000000E+00 -0.10405796796E+04  0.10405796796E+04  0.50400001928E-02 0. -1.
    10030    2    1    2    0    0  0.00000000000E+00  0.00000000000E+00  0.59647600504E+03  0.26776353642E+04  0.26103539068E+04 0.  0.
        3    1    3    3  502    0  0.87700138045E+03  0.93001199962E+03  0.27944621377E+02  0.12786065278E+04  0.10100000352E+00 0. -1.
       -3    1    3    3    0  502 -0.87700138045E+03 -0.93001199962E+03  0.56853138367E+03  0.13990288364E+04  0.10100000352E+00 0.  1.
</event>
<event>
 5   0  0.1025153E-05  0.2590067E+04  0.7818609E-02  0.8371583E-01
        1   -1    0    0  501    0  0.00000000000E+00  0.00000000000E+00  0.14191434161E+04  0.14191434161E+04  0.50400001928E-02 0. -1.
       -1   -1    0    0    0  501  0.00000000000E+00  0.00000000000E+00 -0.11817774865E+04  0.11817774865E+04  0.50400001928E-02 0.  1.
    10030    2    1    2    0    0  0.00000000000E+00  0.00000000000E+00  0.23736592960E+03  0.26009209026E+04  0.25900669793E+04 0.  0.
        1    1    3    3  502    0 -0.12424820883E+03  0.11190393373E+04 -0.52386177557E+03  0.12418203637E+04  0.50400001928E-02 0.  1.
       -1    1    3    3    0  502  0.12424820883E+03 -0.11190393373E+04  0.76122770516E+03  0.13591005389E+04  0.50400001928E-02 0. -1.
</event>
<event>
 5   0  0.9855352E-06  0.2617660E+04  0.7818609E-02  0.8362227E-01
       -1   -1    0    0    0  501  0.00000000000E+00  0.00000000000E+00  0.12828386456E+04  0.12828386457E+04  0.50400001928E-02 0. -1.
        1   -1    0    0  501    0  0.00000000000E+00  0.00000000000E+00 -0.13353478035E+04  0.13353478035E+04  0.50400001928E-02 0.  1.
    10030    2    1    2    0    0  0.00000000000E+00  0.00000000000E+00 -0.52509157879E+02  0.26181864492E+04  0.26176598463E+04 0.  0.
        2    1    3    3  502    0 -0.10424397398E+04  0.70781513854E+03  0.32786874245E+03  0.13019910882E+04  0.25500000920E-02 0.  1.
       -2    1    3    3    0  502  0.10424397398E+04 -0.70781513854E+03 -0.38037790032E+03  0.13161953610E+04  0.25500000920E-02 0. -1.
</event>
<event>
 5   0  0.2484618E-05  0.2578902E+04  0.7818609E-02  0.8375403E-01
        2   -1    0    0  501    0  0.00000000000E+00  0.00000000000E+00  0.10293934847E+04  0.10293934847E+04  0.25500000920E-02 0. -1.
       -2   -1    0    0    0  501  0.00000000000E+00  0.00000000000E+00 -0.16152070744E+04  0.16152070744E+04  0.25500000920E-02 0.  1.
    10030    2    1    2    0    0  0.00000000000E+00  0.00000000000E+00 -0.58581358969E+03  0.26446005591E+04  0.25789018118E+04 0.  0.
        3    1    3    3  502    0  0.12456950954E+04  0.53177466045E+02  0.44254063521E+02  0.12476147426E+04  0.10100000352E+00 0. -1.
       -3    1    3    3    0  502 -0.12456950954E+04 -0.53177466045E+02 -0.63006765322E+03  0.13969858165E+04  0.10100000352E+00 0.  1.
</event>
<event>
 5   0  0.9855352E-06  0.2141291E+04  0.7818609E-02  0.8543269E-01
       -1   -1    0    0    0  501  0.00000000000E+00  0.00000000000E+00  0.11368708252E+04  0.11368708252E+04  0.50400001928E-02 0.  1.
        1   -1    0    0  501    0  0.00000000000E+00  0.00000000000E+00 -0.10082781013E+04  0.10082781013E+04  0.50400001928E-02 0. -1.
    10030    2    1    2    0    0  0.00000000000E+00  0.00000000000E+00  0.12859272389E+03  0.21451489265E+04  0.21412911591E+04 0.  0.
        2    1    3    3  502    0  0.83569100568E+03 -0.52648098574E+03 -0.34963112908E+03  0.10477612379E+04  0.25500000920E-02 0. -1.
       -2    1    3    3    0  502 -0.83569100568E+03  0.52648098574E+03  0.47822385297E+03  0.10973876885E+04  0.25500000920E-02 0.  1.
</event>
<event>
 5   0  0.2528460E-05  0.2610260E+04  0.7818609E-02  0.8364725E-01
        2   -1    0    0  501    0  0.00000000000E+00  0.00000000000E+00  0.15617360542E+04  0.15617360542E+04  0.25500000920E-02 0.  1.
       -2   -1    0    0    0  501  0.00000000000E+00  0.00000000000E+00 -0.10906861108E+04  0.10906861108E+04  0.25500000920E-02 0. -1.
    10030    2    1    2    0    0  0.00000000000E+00  0.00000000000E+00  0.47104994342E+03  0.26524221650E+04  0.26102596216E+04 0.  0.
        5    1    3    3  502    0 -0.56197637660E+03 -0.11064631876E+04 -0.17506042040E+03  0.12532942489E+04  0.46999998093E+01 0. -1.
       -5    1    3    3    0  502  0.56197637660E+03  0.11064631876E+04  0.64611036382E+03  0.13991279161E+04  0.46999998093E+01 0.  1.
</event>
<event>
 5   0  0.2555801E-05  0.2568520E+04  0.7818609E-02  0.8378973E-01
        2   -1    0    0  501    0  0.00000000000E+00  0.00000000000E+00  0.22892063265E+04  0.22892063265E+04  0.25500000920E-02 0. -1.
       -2   -1    0    0    0  501  0.00000000000E+00  0.00000000000E+00 -0.72047862785E+03  0.72047862786E+03  0.25500000920E-02 0.  1.
    10030    2    1    2    0    0  0.00000000000E+00  0.00000000000E+00  0.15687276986E+04  0.30096849543E+04  0.25685203779E+04 0.  0.
        1    1    3    3  502    0 -0.45800125152E+03 -0.10318607946E+03  0.21850496326E+04  0.22349170925E+04  0.50400001928E-02 0. -1.
       -1    1    3    3    0  502  0.45800125152E+03  0.10318607946E+03 -0.61632193398E+03  0.77476786183E+03  0.50400001928E-02 0.  1.
</event>
<event>
 5   0  0.1034714E-05  0.2626947E+04  0.7818609E-02  0.8359105E-01
       -1   -1    0    0    0  501  0.00000000000E+00  0.00000000000E+00  0.10835569219E+04  0.10835569219E+04  0.50400001928E-02 0. -1.
        1   -1    0    0  501    0  0.00000000000E+00  0.00000000000E+00 -0.15921751053E+04  0.15921751053E+04  0.50400001928E-02 0.  1.
    10030    2    1    2    0    0  0.00000000000E+00  0.00000000000E+00 -0.50861818344E+03  0.26757320272E+04  0.26269467876E+04 0.  0.
        5    1    3    3  502    0  0.27522481866E+02  0.10897744129E+03 -0.15872589735E+04  0.15912406194E+04  0.46999998093E+01 0.  1.
       -5    1    3    3    0  502 -0.27522481866E+02 -0.10897744129E+03  0.10786407901E+04  0.10844914079E+04  0.46999998093E+01 0. -1.
</event>
<event>
 5   0  0.1000421E-05  0.2421506E+04  0.7818609E-02  0.8431496E-01
       -1   -1    0    0    0  501  0.00000000000E+00  0.00000000000E+00  0.19643202003E+04  0.19643202003E+04  0.50400001928E-02 0.  1.
        1   -1    0    0  501    0  0.00000000000E+00  0.00000000000E+00 -0.74627478932E+03  0.74627478934E+03  0.50400001928E-02 0. -1.
    10030    2    1    2    0    0  0.00000000000E+00  0.00000000000E+00  0.12180454110E+04  0.27105949896E+04  0.24215058486E+04 0.  0.
        3    1    3    3  502    0 -0.19792553475E+03 -0.79607522032E+03 -0.38780267465E+03  0.90735946481E+03  0.10100000352E+00 0. -1.
       -3    1    3    3    0  502  0.19792553475E+03  0.79607522032E+03  0.16058480856E+04  0.18032355248E+04  0.10100000352E+00 0.  1.
</event>
<event>
 5   0  0.1005492E-05  0.2591333E+04  0.7818609E-02  0.8371151E-01
        1   -1    0    0  501    0  0.00000000000E+00  0.00000000000E+00  0.13574950619E+04  0.13574950619E+04  0.50400001928E-02 0. -1.
       -1   -1    0    0    0  501  0.00000000000E+00  0.00000000000E+00 -0.12366536996E+04  0.12366536996E+04  0.50400001928E-02 0.  1.
    10030    2    1    2    0    0  0.00000000000E+00  0.00000000000E+00  0.12084136236E+03  0.25941487615E+04  0.25913327000E+04 0.  0.
        4    1    3    3  502    0 -0.46900367727E+03  0.12568676076E+03 -0.11421291215E+04  0.12410568699E+04  0.12699999809E+01 0.  1.
       -4    1    3    3    0  502  0.46900367727E+03 -0.12568676076E+03  0.12629704839E+04  0.13530918916E+04  0.12699999809E+01 0. -1.
</event>
<event>
 5   0  0.1034714E-05  0.2443272E+04  0.7818609E-02  0.8423479E-01
       -1   -1    0    0    0  501  0.00000000000E+00  0.00000000000E+00  0.96777426691E+03  0.96777426692E+03  0.50400001928E-02 0. -1.
        1   -1    0    0  501    0  0.00000000000E+00  0.00000000000E+00 -0.15420894061E+04  0.15420894061E+04  0.50400001928E-02 0.  1.
    10030    2    1    2    0    0  0.00000000000E+00  0.00000000000E+00 -0.57431513915E+03  0.25098636730E+04  0.24432719410E+04 0.  0.
        5    1    3    3  502    0  0.41754388178E+03  0.11469853134E+04 -0.23626796664E+03  0.12432871126E+04  0.46999998093E+01 0.  1.
       -5    1    3    3    0  502 -0.41754388178E+03 -0.11469853134E+04 -0.33804717251E+03  0.12665765603E+04  0.46999998093E+01 0. -1.
</event>
<event>
 5   0  0.2662024E-05  0.2598854E+04  0.7818609E-02  0.8368590E-01
        2   -1    0    0  501    0  0.00000000000E+00  0.00000000000E+00  0.26609499707E+04  0.26609499707E+04  0.25500000920E-02 0. -1.
       -2   -1    0    0    0  501  0.00000000000E+00  0.00000000000E+00 -0.63455188026E+03  0.63455188026E+03  0.25500000920E-02 0.  1.
    10030    2    1    2    0    0  0.00000000000E+00  0.00000000000E+00  0.20263980904E+04  0.32955018510E+04  0.25988542146E+04 0.  0.
        2    1    3    3  502    0  0.40760020606E+03 -0.29594796738E+03 -0.50571592100E+03  0.71377287714E+03  0.25500000920E-02 0.  1.
       -2    1    3    3    0  502 -0.40760020606E+03  0.29594796738E+03  0.25321140114E+04  0.25817289738E+04  0.25500000920E-02 0. -1.
</event>
<event>
 5   0  0.9855352E-06  0.2585324E+04  0.7818609E-02  0.8373203E-01
        1   -1    0    0  501    0  0.00000000000E+00  0.00000000000E+00  0.13148834299E+04  0.13148834299E+04  0.50400001928E-02 0.  1.
       -1   -1    0    0    0  501  0.00000000000E+00  0.00000000000E+00 -0.12708161468E+04  0.12708161468E+04  0.50400001928E-02 0. -1.
    10030    2    1    2    0    0  0.00000000000E+00  0.00000000000E+00  0.44067283110E+02  0.25856995767E+04  0.25853240369E+04 0.  0.
        2    1    3    3  502    0 -0.46185202926E+03 -0.65017023817E+03  0.10395045991E+04  0.13101902331E+04  0.25500000920E-02 0.  1.
       -2    1    3    3    0  502  0.46185202926E+03  0.65017023817E+03 -0.99543731596E+03  0.12755093436E+04  0.25500000920E-02 0. -1.
</event>
<event>
 5   0  0.2528460E-05  0.2581318E+04  0.7818609E-02  0.8374575E-01
        2   -1    0    0  501    0  0.00000000000E+00  0.00000000000E+00  0.15700293385E+04  0.15700293385E+04  0.25500000920E-02 0. -1.
       -2   -1    0    0    0  501  0.00000000000E+00  0.00000000000E+00 -0.10609999898E+04  0.10609999898E+04  0.25500000920E-02 0.  1.
    10030    2    1    2    0    0  0.00000000000E+00  0.00000000000E+00  0.50902934869E+03  0.26310293283E+04  0.25813183547E+04 0.  0.
        5    1    3    3  502    0  0.15101957144E+03 -0.39365166012E+03  0.14978466846E+04  0.15560640478E+04  0.46999998093E+01 0. -1.
       -5    1    3    3    0  502 -0.15101957144E+03  0.39365166012E+03 -0.98881733589E+03  0.10749652805E+04  0.46999998093E+01 0.  1.
</event>
<event>
 5   0  0.1025153E-05  0.2629241E+04  0.7818609E-02  0.8358336E-01
        1   -1    0    0  501    0  0.00000000000E+00  0.00000000000E+00  0.88466308142E+03  0.88466308143E+03  0.50400001928E-02 0.  1.
       -1   -1    0    0    0  501  0.00000000000E+00  0.00000000000E+00 -0.19535421814E+04  0.19535421814E+04  0.50400001928E-02 0. -1.
    10030    2    1    2    0    0  0.00000000000E+00  0.00000000000E+00 -0.10688791000E+04  0.28382052628E+04  0.26292406857E+04 0.  0.
        1    1    3    3  502    0  0.95383129102E+03  0.36065349647E+03  0.36117628809E+03  0.10818102363E+04  0.50400001928E-02 0.  1.
       -1    1    3    3    0  502 -0.95383129102E+03 -0.36065349647E+03 -0.14300553880E+04  0.17563950265E+04  0.50400001928E-02 0. -1.
</event>
<event>
 5   0  0.2484618E-05  0.2619652E+04  0.7818609E-02  0.8361556E-01
        2   -1    0    0  501    0  0.00000000000E+00  0.00000000000E+00  0.16508237566E+04  0.16508237566E+04  0.25500000920E-02 0. -1.
       -2   -1    0    0    0  501  0.00000000000E+00  0.00000000000E+00 -0.10392657144E+04  0.10392657144E+04  0.25500000920E-02 0.  1.
    10030    2    1    2    0    0  0.00000000000E+00  0.00000000000E+00  0.61155804215E+03  0.26900894710E+04  0.26196522905E+04 0.  0.
        3    1    3    3  502    0 -0.12625319534E+04 -0.34662103045E+03  0.34570170758E+03  0.13541206567E+04  0.10100000352E+00 0. -1.
       -3    1    3    3    0  502  0.12625319534E+04  0.34662103045E+03  0.26585633457E+03  0.13359688143E+04  0.10100000352E+00 0.  1.
</event>
<event>
 5   0  0.2528460E-05  0.2616170E+04  0.7818609E-02  0.8362729E-01
       -2   -1    0    0    0  501  0.00000000000E+00  0.00000000000E+00  0.18322364013E+04  0.18322364013E+04  0.25500000920E-02 0.  1.
        2   -1    0    0  501    0  0.00000000000E+00  0.00000000000E+00 -0.93387828670E+03  0.93387828670E+03  0.25500000920E-02 0. -1.
    10030    2    1    2    0    0  0.00000000000E+00  0.00000000000E+00  0.89835811464E+03  0.27661146881E+04  0.26161695597E+04 0.  0.
        5    1    3    3  502    0 -0.71346910941E+02 -0.78293751629E+03 -0.65619898242E+03  0.10240609018E+04  0.46999998093E+01 0. -1.
       -5    1    3    3    0  502  0.71346910941E+02  0.78293751629E+03  0.15545570971E+04  0.17420537862E+04  0.46999998093E+01 0.  1.
</event>
<event>
 5   0  0.2528460E-05  0.2028453E+04  0.7818609E-02  0.8593433E-01
        2   -1    0    0  501    0  0.00000000000E+00  0.00000000000E+00  0.11647232942E+04  0.11647232942E+04  0.25500000920E-02 0.  1.
       -2   -1    0    0    0  501  0.00000000000E+00  0.00000000000E+00 -0.88317540013E+03  0.88317540014E+03  0.25500000920E-02 0. -1.
    10030    2    1    2    0    0  0.00000000000E+00  0.00000000000E+00  0.28154789405E+03  0.20478986943E+04  0.20284525741E+04 0.  0.
        5    1    3    3  502    0  0.76322481567E+03  0.65195961630E+03 -0.57706485918E+01  0.10038021971E+04  0.46999998093E+01 0.  1.
       -5    1    3    3    0  502 -0.76322481567E+03 -0.65195961630E+03  0.28731854264E+03  0.10440964972E+04  0.46999998093E+01 0. -1.
</event>
<event>
 5   0  0.2484618E-05  0.2509635E+04  0.7818609E-02  0.8399561E-01
        2   -1    0    0  501    0  0.00000000000E+00  0.00000000000E+00  0.15895318603E+04  0.15895318603E+04  0.25500000920E-02 0. -1.
       -2   -1    0    0    0  501  0.00000000000E+00  0.00000000000E+00 -0.99058557868E+03  0.99058557869E+03  0.25500000920E-02 0.  1.
    10030    2    1    2    0    0  0.00000000000E+00  0.00000000000E+00  0.59894628162E+03  0.25801174390E+04  0.25096353023E+04 0.  0.
        3    1    3    3  502    0  0.22285858321E+03 -0.69424942093E+01  0.15690028670E+04  0.15847662772E+04  0.10100000352E+00 0. -1.
       -3    1    3    3    0  502 -0.22285858321E+03  0.69424942093E+01 -0.97005658538E+03  0.99535116184E+03  0.10100000352E+00 0.  1.
</event>
<event>
 5   0  0.1025153E-05  0.2556644E+04  0.7818609E-02  0.8383079E-01
        1   -1    0    0  501    0  0.00000000000E+00  0.00000000000E+00  0.19369606184E+04  0.19369606184E+04  0.50400001928E-02 0. -1.
       -1   -1    0    0    0  501  0.00000000000E+00  0.00000000000E+00 -0.84364517862E+03  0.84364517863E+03  0.50400001928E-02 0.  1.
    10030    2    1    2    0    0  0.00000000000E+00  0.00000000000E+00  0.10933154398E+04  0.27806057970E+04  0.25566442748E+04 0.  0.
        1    1    3    3  502    0  0.97932099963E+03  0.78037562319E+03  0.82617669379E+03  0.15002078733E+04  0.50400001928E-02 0. -1.
       -1    1    3    3    0  502 -0.97932099963E+03 -0.78037562319E+03  0.26713874599E+03  0.12803979238E+04  0.50400001928E-02 0.  1.
</event>
<event>
 5   0  0.1005492E-05  0.2651448E+04  0.7818609E-02  0.8350933E-01
       -1   -1    0    0    0  501  0.00000000000E+00  0.00000000000E+00  0.11715904537E+04  0.11715904537E+04  0.50400001928E-02 0. -1.
        1   -1    0    0  501    0  0.00000000000E+00  0.00000000000E+00 -0.15001350869E+04  0.15001350869E+04  0.50400001928E-02 0.  1.
    10030    2    1    2    0    0  0.00000000000E+00  0.00000000000E+00 -0.32854463314E+03  0.26717255406E+04  0.26514478664E+04 0.  0.
        4    1    3    3  502    0  0.19802682372E+02  0.90490760907E+01 -0.14999543121E+04  0.15001128568E+04  0.12699999809E+01 0.  1.
       -4    1    3    3    0  502 -0.19802682372E+02 -0.90490760907E+01  0.11714096789E+04  0.11716126838E+04  0.12699999809E+01 0. -1.
</event>
<event>
 5   0  0.1034714E-05  0.2710713E+04  0.7818609E-02  0.8331537E-01
        1   -1    0    0  501    0  0.00000000000E+00  0.00000000000E+00  0.14568524442E+04  0.14568524442E+04  0.50400001928E-02 0.  1.
       -1   -1    0    0    0  501  0.00000000000E+00  0.00000000000E+00 -0.12609314123E+04  0.12609314123E+04  0.50400001928E-02 0. -1.
    10030    2    1    2    0    0  0.00000000000E+00  0.00000000000E+00  0.19592103194E+03  0.27177838565E+04  0.27107128287E+04 0.  0.
        5    1    3    3  502    0  0.16244537382E+03  0.10965733473E+04  0.87980705341E+03  0.14152540926E+04  0.46999998093E+01 0.  1.
       -5    1    3    3    0  502 -0.16244537382E+03 -0.10965733473E+04 -0.68388602147E+03  0.13025297639E+04  0.46999998093E+01 0. -1.
</event>
<event>
 5   0  0.2662024E-05  0.2933864E+04  0.7818609E-02  0.8262873E-01
       -2   -1    0    0    0  501  0.00000000000E+00  0.00000000000E+00  0.18376724837E+04  0.18376724837E+04  0.25500000920E-02 0.  1.
        2   -1    0    0  501    0  0.00000000000E+00  0.00000000000E+00 -0.11709866671E+04  0.11709866671E+04  0.25500000920E-02 0. -1.
    10030    2    1    2    0    0  0.00000000000E+00  0.00000000000E+00  0.66668581664E+03  0.30086591508E+04  0.29338643301E+04 0.  0.
        2    1    3    3  502    0  0.31720383299E+03 -0.95018113954E+03 -0.76562435518E+03  0.12608105024E+04  0.25500000920E-02 0. -1.
       -2    1    3    3    0  502 -0.31720383299E+03  0.95018113954E+03  0.14323101718E+04  0.17478486485E+04  0.25500000920E-02 0.  1.
</event>
<event>
 5   0  0.1000421E-05  0.2564739E+04  0.7818609E-02  0.8380278E-01
        1   -1    0    0  501    0  0.00000000000E+00  0.00000000000E+00  0.11027125093E+04  0.11027125093E+04  0.50400001928E-02 0. -1.
       -1   -1    0    0    0  501  0.00000000000E+00  0.00000000000E+00 -0.14912962913E+04  0.14912962913E+04  0.50400001928E-02 0.  1.
    10030    2    1    2    0    0  0.00000000000E+00  0.00000000000E+00 -0.38858378198E+03  0.25940088006E+04  0.25647386420E+04 0.  0.
        3    1    3    3  502    0 -0.35862647388E+02 -0.11115168754E+04 -0.84010486592E+03  0.13937474985E+04  0.10100000352E+00 0.  1.
       -3    1    3    3    0  502  0.35862647388E+02  0.11115168754E+04  0.45152108394E+03  0.12002613020E+04  0.10100000352E+00 0. -1.
</event>
<event>
 5   0  0.1005492E-05  0.2586478E+04  0.7818609E-02  0.8372809E-01
        1   -1    0    0  501    0  0.00000000000E+00  0.00000000000E+00  0.12792557693E+04  0.12792557693E+04  0.50400001928E-02 0.  1.
       -1   -1    0    0    0  501  0.00000000000E+00  0.00000000000E+00 -0.13073747026E+04  0.13073747026E+04  0.50400001928E-02 0. -1.
    10030    2    1    2    0    0  0.00000000000E+00  0.00000000000E+00 -0.28118933313E+02  0.25866304719E+04  0.25864776287E+04 0.  0.
        4    1    3    3  502    0  0.31173095323E+03 -0.71319661888E+03 -0.10469028622E+04  0.13045431461E+04  0.12699999809E+01 0. -1.
       -4    1    3    3    0  502 -0.31173095323E+03  0.71319661888E+03  0.10187839289E+04  0.12820873258E+04  0.12699999809E+01 0.  1.
</event>
<event>
 5   0  0.2517854E-05  0.2589226E+04  0.7818609E-02  0.8371870E-01
       -2   -1    0    0    0  501  0.00000000000E+00  0.00000000000E+00  0.16179281208E+04  0.16179281208E+04  0.25500000920E-02 0.  1.
        2   -1    0    0  501    0  0.00000000000E+00  0.00000000000E+00 -0.10359071594E+04  0.10359071594E+04  0.25500000920E-02 0. -1.
    10030    2    1    2    0    0  0.00000000000E+00  0.00000000000E+00  0.58202096148E+03  0.26538352802E+04  0.25892263892E+04 0.  0.
        4    1    3    3  502    0  0.85013417197E+03  0.46236355235E+03 -0.59039755454E+03  0.11336132719E+04  0.12699999809E+01 0. -1.
       -4    1    3    3    0  502 -0.85013417197E+03 -0.46236355235E+03  0.11724185160E+04  0.15202220083E+04  0.12699999809E+01 0.  1.
</event>
<event>
 5   0  0.1005492E-05  0.2584223E+04  0.7818609E-02  0.8373580E-01
       -1   -1    0    0    0  501  0.00000000000E+00  0.00000000000E+00  0.75650004011E+03  0.75650004013E+03  0.50400001928E-02 0.  1.
        1   -1    0    0  501    0  0.00000000000E+00  0.00000000000E+00 -0.22069423332E+04  0.22069423332E+04  0.50400001928E-02 0. -1.
    10030    2    1    2    0    0  0.00000000000E+00  0.00000000000E+00 -0.14504422931E+04  0.29634423733E+04  0.25842228725E+04 0.  0.
        4    1    3    3  502    0  0.25644278897E+03 -0.94427696207E+03 -0.16929321815E+04  0.19553625928E+04  0.12699999809E+01 0.  1.
       -4    1    3    3    0  502 -0.25644278897E+03  0.94427696207E+03  0.24248988841E+03  0.10080797806E+04  0.12699999809E+01 0. -1.
</event>
<event>
 5   0  0.1005492E-05  0.2366664E+04  0.7818609E-02  0.8452090E-01
        1   -1    0    0  501    0  0.00000000000E+00  0.00000000000E+00  0.20101783528E+04  0.20101783528E+04  0.50400001928E-02 0. -1.
       -1   -1    0    0    0  501  0.00000000000E+00  0.00000000000E+00 -0.69659241436E+03  0.69659241438E+03  0.50400001928E-02 0.  1.
    10030    2    1    2    0    0  0.00000000000E+00  0.00000000000E+00  0.13135859384E+04  0.27067707672E+04  0.23666643126E+04 0.  0.
        4    1    3    3  502    0  0.26523525861E+03  0.80823541666E+03  0.15976122572E+04  0.18099615378E+04  0.12699999809E+01 0. -1.
       -4    1    3    3    0  502 -0.26523525861E+03 -0.80823541666E+03 -0.28402631878E+03  0.89680922933E+03  0.12699999809E+01 0.  1.
</event>
<event>
 5   0  0.1025153E-05  0.2503677E+04  0.7818609E-02  0.8401677E-01
        1   -1    0    0  501    0  0.00000000000E+00  0.00000000000E+00  0.17208928371E+04  0.17208928372E+04  0.50400001928E-02 0.  1.
       -1   -1    0    0    0  501  0.00000000000E+00  0.00000000000E+00 -0.91063178337E+03  0.91063178339E+03  0.50400001928E-02 0. -1.
    10030    2    1    2    0    0  0.00000000000E+00  0.00000000000E+00  0.81026105377E+03  0.26315246205E+04  0.25036770665E+04 0.  0.
        1    1    3    3  502    0  0.40720592888E+03  0.13065924729E+02  0.16492600710E+04  0.16988367104E+04  0.50400001928E-02 0.  1.
       -1    1    3    3    0  502 -0.40720592888E+03 -0.13065924729E+02 -0.83899901718E+03  0.93268791016E+03  0.50400001928E-02 0. -1.
</event>
<event>
 5   0  0.2555801E-05  0.2611067E+04  0.7818609E-02  0.8364452E-01
        2   -1    0    0  501    0  0.00000000000E+00  0.00000000000E+00  0.28623633516E+04  0.28623633516E+04  0.25500000920E-02 0.  1.
       -2   -1    0    0    0  501  0.00000000000E+00  0.00000000000E+00 -0.59545841877E+03  0.59545841878E+03  0.25500000920E-02 0. -1.
    10030    2    1    2    0    0  0.00000000000E+00  0.00000000000E+00  0.22669049328E+04  0.34578217704E+04  0.26110674869E+04 0.  0.
        1    1    3    3  502    0 -0.74521406897E+02  0.12208663678E+04  0.52897307866E+03  0.13326217191E+04  0.50400001928E-02 0. -1.
       -1    1    3    3    0  502  0.74521406897E+02 -0.12208663678E+04  0.17379318542E+04  0.21252000513E+04  0.50400001928E-02 0.  1.
</event>
<event>
 5   0  0.1000421E-05  0.2544778E+04  0.7818609E-02  0.8387205E-01
       -1   -1    0    0    0  501  0.00000000000E+00  0.00000000000E+00  0.10411046457E+04  0.10411046457E+04  0.50400001928E-02 0.  1.
        1   -1    0    0  501    0  0.00000000000E+00  0.00000000000E+00 -0.15550539486E+04  0.15550539486E+04  0.50400001928E-02 0. -1.
    10030    2    1    2    0    0  0.00000000000E+00  0.00000000000E+00 -0.51394930297E+03  0.25961585943E+04  0.25447780966E+04 0.  0.
        3    1    3    3  502    0 -0.57613968338E+03  0.87334582700E+03  0.48173350010E+03  0.11518407197E+04  0.10100000352E+00 0.  1.
       -3    1    3    3    0  502  0.57613968338E+03 -0.87334582700E+03 -0.99568280307E+03  0.14443178746E+04  0.10100000352E+00 0. -1.
</event>
<event>
 5   0  0.2662024E-05  0.2612701E+04  0.7818609E-02  0.8363900E-01
        2   -1    0    0  501    0  0.00000000000E+00  0.00000000000E+00  0.21871586524E+04  0.21871586524E+04  0.25500000920E-02 0.  1.
       -2   -1    0    0    0  501  0.00000000000E+00  0.00000000000E+00 -0.78025983383E+03  0.78025983384E+03  0.25500000920E-02 0. -1.
    10030    2    1    2    0    0  0.00000000000E+00  0.00000000000E+00  0.14068988185E+04  0.29674184862E+04  0.26127013198E+04 0.  0.
        2    1    3    3  502    0 -0.39514737232E+03  0.41100871147E+02  0.21168838571E+04  0.21538402893E+04  0.25500000920E-02 0.  1.
       -2    1    3    3    0  502  0.39514737232E+03 -0.41100871147E+02 -0.70998503856E+03  0.81357819689E+03  0.25500000920E-02 0. -1.
</event>
<event>
 5   0  0.2484618E-05  0.2617533E+04  0.7818609E-02  0.8362270E-01
        2   -1    0    0  501    0  0.00000000000E+00  0.00000000000E+00  0.12635437098E+04  0.12635437098E+04  0.25500000920E-02 0.  1.
       -2   -1    0    0    0  501  0.00000000000E+00  0.00000000000E+00 -0.13556079919E+04  0.13556079919E+04  0.25500000920E-02 0. -1.
    10030    2    1    2    0    0  0.00000000000E+00  0.00000000000E+00 -0.92064282093E+02  0.26191517017E+04  0.26175331525E+04 0.  0.
        3    1    3    3  502    0  0.53510595578E+03 -0.11766627896E+04  0.15902441084E+03  0.13023680270E+04  0.10100000352E+00 0. -1.
       -3    1    3    3    0  502 -0.53510595578E+03  0.11766627896E+04 -0.25108869293E+03  0.13167836748E+04  0.10100000352E+00 0.  1.
</event>
<event>
 5   0  0.8605000E-06  0.2588874E+04  0.7818609E-02  0.8371990E-01
        3   -1    0    0  501    0  0.00000000000E+00  0.00000000000E+00  0.12565760560E+04  0.12565760600E+04  0.10100000352E+00 0. -1.
       -3   -1    0    0    0  501  0.00000000000E+00  0.00000000000E+00 -0.13334384481E+04  0.13334384519E+04  0.10100000352E+00 0.  1.
    10030    2    1    2    0    0  0.00000000000E+00  0.00000000000E+00 -0.76862392109E+02  0.25900145119E+04  0.25888737599E+04 0.  0.
        5    1    3    3  502    0  0.17890723172E+03 -0.45669924318E+03 -0.12368583412E+04  0.13305722988E+04  0.46999998093E+01 0.  1.
       -5    1    3    3    0  502 -0.17890723172E+03  0.45669924318E+03  0.11599959491E+04  0.12594422131E+04  0.46999998093E+01 0. -1.
</event>
<event>
 5   0  0.1034714E-05  0.2530556E+04  0.7818609E-02  0.8392180E-01
       -1   -1    0    0    0  501  0.00000000000E+00  0.00000000000E+00  0.14816909466E+04  0.14816909466E+04  0.50400001928E-02 0.  1.
        1   -1    0    0  501    0  0.00000000000E+00  0.00000000000E+00 -0.10804741655E+04  0.10804741655E+04  0.50400001928E-02 0. -1.
    10030    2    1    2    0    0  0.00000000000E+00  0.00000000000E+00  0.40121678108E+03  0.25621651121E+04  0.25305562939E+04 0.  0.
        5    1    3    3  502    0 -0.68682389363E+03 -0.16513743939E+03 -0.86222215536E+03  0.11146508736E+04  0.46999998093E+01 0. -1.
       -5    1    3    3    0  502  0.68682389363E+03  0.16513743939E+03  0.12634389364E+04  0.14475142386E+04  0.46999998093E+01 0.  1.
</event>
<event>
 5   0  0.2517854E-05  0.2611051E+04  0.7818609E-02  0.8364457E-01
       -2   -1    0    0    0  501  0.00000000000E+00  0.00000000000E+00  0.14422730782E+04  0.14422730782E+04  0.25500000920E-02 0.  1.
        2   -1    0    0  501    0  0.00000000000E+00  0.00000000000E+00 -0.11817434066E+04  0.11817434066E+04  0.25500000920E-02 0. -1.
    10030    2    1    2    0    0  0.00000000000E+00  0.00000000000E+00  0.26052967169E+03  0.26240164848E+04  0.26110509001E+04 0.  0.
        4    1    3    3  502    0  0.10839097175E+04 -0.14886824126E+03 -0.58557344987E+03  0.12409350938E+04  0.12699999809E+01 0. -1.
       -4    1    3    3    0  502 -0.10839097175E+04  0.14886824126E+03  0.84610312157E+03  0.13830813910E+04  0.12699999809E+01 0.  1.
</event>
<event>
 5   0  0.2517854E-05  0.2674011E+04  0.7818609E-02  0.8343487E-01
        2   -1    0    0  501    0  0.00000000000E+00  0.00000000000E+00  0.16127329411E+04  0.16127329411E+04  0.25500000920E-02 0. -1.
       -2   -1    0    0    0  501  0.00000000000E+00  0.00000000000E+00 -0.11084190505E+04  0.11084190505E+04  0.25500000920E-02 0.  1.
    10030    2    1    2    0    0  0.00000000000E+00  0.00000000000E+00  0.50431389068E+03  0.27211519916E+04  0.26740111558E+04 0.  0.
        4    1    3    3  502    0  0.13342206081E+04 -0.19603675112E+01  0.33989658493E+03  0.13768368732E+04  0.12699999809E+01 0.  1.
       -4    1    3    3    0  502 -0.13342206081E+04  0.19603675112E+01  0.16441730575E+03  0.13443151184E+04  0.12699999809E+01 0. -1.
</event>
<event>
 5   0  0.2662024E-05  0.2647389E+04  0.7818609E-02  0.8352280E-01
       -2   -1    0    0    0  501  0.00000000000E+00  0.00000000000E+00  0.98318202788E+03  0.98318202788E+03  0.25500000920E-02 0. -1.
        2   -1    0    0  501    0  0.00000000000E+00  0.00000000000E+00 -0.17821388361E+04  0.17821388361E+04  0.25500000920E-02 0.  1.
    10030    2    1    2    0    0  0.00000000000E+00  0.00000000000E+00 -0.79895680825E+03  0.27653208640E+04  0.26473888078E+04 0.  0.
        2    1    3    3  502    0  0.31024390570E+03  0.36009833671E+03  0.89096778053E+03  0.10098245784E+04  0.25500000920E-02 0. -1.
       -2    1    3    3    0  502 -0.31024390570E+03 -0.36009833671E+03 -0.16899245888E+04  0.17554962856E+04  0.25500000920E-02 0.  1.
</event>
<event>
 5   0  0.1034714E-05  0.2546346E+04  0.7818609E-02  0.8386658E-01
        1   -1    0    0  501    0  0.00000000000E+00  0.00000000000E+00  0.12860337128E+04  0.12860337128E+04  0.50400001928E-02 0.  1.
       -1   -1    0    0    0  501  0.00000000000E+00  0.00000000000E+00 -0.12604407766E+04  0.12604407766E+04  0.50400001928E-02 0. -1.
    10030    2    1    2    0    0  0.00000000000E+00  0.00000000000E+00  0.25592936152E+02  0.25464744894E+04  0.25463458773E+04 0.  0.
        5    1    3    3  502    0  0.11935542011E+04 -0.44262512493E+03 -0.86197856808E+01  0.12730220041E+04  0.46999998093E+01 0. -1.
       -5    1    3    3    0  502 -0.11935542011E+04  0.44262512493E+03  0.34212721833E+02  0.12734524854E+04  0.46999998093E+01 0.  1.
</event>
<event>
 5   0  0.2484618E-05  0.2451596E+04  0.7818609E-02  0.8420435E-01
       -2   -1    0    0    0  501  0.00000000000E+00  0.00000000000E+00  0.76713006840E+03  0.76713006840E+03  0.25500000920E-02 0.  1.
        2   -1    0    0  501    0  0.00000000000E+00  0.00000000000E+00 -0.19587041275E+04  0.19587041275E+04  0.25500000920E-02 0. -1.
    10030    2    1    2    0    0  0.00000000000E+00  0.00000000000E+00 -0.11915740591E+04  0.27258341959E+04  0.24515960771E+04 0.  0.
        3    1    3    3  502    0 -0.58217111095E+03 -0.63465999736E+02 -0.17931068723E+04  0.18863147673E+04  0.10100000352E+00 0. -1.
       -3    1    3    3    0  502  0.58217111095E+03  0.63465999736E+02  0.60153281318E+03  0.83951942865E+03  0.10100000352E+00 0.  1.
</event>
<event>
 5   0  0.8605000E-06  0.2694846E+04  0.7818609E-02  0.8336679E-01
       -3   -1    0    0    0  501  0.00000000000E+00  0.00000000000E+00  0.74222618465E+03  0.74222619152E+03  0.10100000352E+00 0.  1.
        3   -1    0    0  501    0  0.00000000000E+00  0.00000000000E+00 -0.24460862988E+04  0.24460863009E+04  0.10100000352E+00 0. -1.
    10030    2    1    2    0    0  0.00000000000E+00  0.00000000000E+00 -0.17038601142E+04  0.31883124924E+04  0.26948464262E+04 0.  0.
        4    1    3    3  502    0 -0.12671397855E+04  0.92895689908E+01 -0.13938665642E+04  0.18837715211E+04  0.12699999809E+01 0. -1.
       -4    1    3    3    0  502  0.12671397855E+04 -0.92895689908E+01 -0.30999355001E+03  0.13045409714E+04  0.12699999809E+01 0.  1.
</event>
<event>
 5   0  0.1000421E-05  0.2607120E+04  0.7818609E-02  0.8365787E-01
        1   -1    0    0  501    0  0.00000000000E+00  0.00000000000E+00  0.22824761227E+04  0.22824761227E+04  0.50400001928E-02 0.  1.
       -1   -1    0    0    0  501  0.00000000000E+00  0.00000000000E+00 -0.74448480532E+03  0.74448480534E+03  0.50400001928E-02 0. -1.
    10030    2    1    2    0    0  0.00000000000E+00  0.00000000000E+00  0.15379913174E+04  0.30269609281E+04  0.26071200908E+04 0.  0.
        3    1    3    3  502    0  0.59257461541E+03 -0.71427706364E+03 -0.29380120989E+03  0.97347601902E+03  0.10100000352E+00 0. -1.
       -3    1    3    3    0  502 -0.59257461541E+03  0.71427706364E+03  0.18317925273E+04  0.20534849091E+04  0.10100000352E+00 0.  1.
</event>
<event>
 5   0  0.8605000E-06  0.2687573E+04  0.7818609E-02  0.8339049E-01
        3   -1    0    0  501    0  0.00000000000E+00  0.00000000000E+00  0.25268758869E+04  0.25268758889E+04  0.10100000352E+00 0. -1.
       -3   -1    0    0    0  501  0.00000000000E+00  0.00000000000E+00 -0.71462215560E+03  0.71462216274E+03  0.10100000352E+00 0.  1.
    10030    2    1    2    0    0  0.00000000000E+00  0.00000000000E+00  0.18122537313E+04  0.32414980517E+04  0.26875725167E+04 0.  0.
        4    1    3    3  502    0  0.12143429135E+04 -0.37629042138E+03  0.38103869584E+03  0.13271832177E+04  0.12699999809E+01 0.  1.
       -4    1    3    3    0  502 -0.12143429135E+04  0.37629042138E+03  0.14312150355E+04  0.19143148340E+04  0.12699999809E+01 0. -1.
</event>
<event>
 5   0  0.2517854E-05  0.2559877E+04  0.7818609E-02  0.8381959E-01
        2   -1    0    0  501    0  0.00000000000E+00  0.00000000000E+00  0.13590245365E+04  0.13590245365E+04  0.25500000920E-02 0. -1.
       -2   -1    0    0    0  501  0.00000000000E+00  0.00000000000E+00 -0.12054544676E+04  0.12054544676E+04  0.25500000920E-02 0.  1.
    10030    2    1    2    0    0  0.00000000000E+00  0.00000000000E+00  0.15357006899E+03  0.25644790041E+04  0.25598767151E+04 0.  0.
        4    1    3    3  502    0 -0.90597948910E+03  0.32348583832E+02 -0.82838538121E+03  0.12280346975E+04  0.12699999809E+01 0.  1.
       -4    1    3    3    0  502  0.90597948910E+03 -0.32348583832E+02  0.98195545020E+03  0.13364443066E+04  0.12699999809E+01 0. -1.
</event>
<event>
 5   0  0.1005492E-05  0.2622602E+04  0.7818609E-02  0.8360564E-01
        1   -1    0    0  501    0  0.00000000000E+00  0.00000000000E+00  0.17298116922E+04  0.17298116922E+04  0.50400001928E-02 0.  1.
       -1   -1    0    0    0  501  0.00000000000E+00  0.00000000000E+00 -0.99404508529E+03  0.99404508530E+03  0.50400001928E-02 0. -1.
    10030    2    1    2    0    0  0.00000000000E+00  0.00000000000E+00  0.73576660689E+03  0.27238567775E+04  0.26226023802E+04 0.  0.
        4    1    3    3  502    0 -0.52641747563E+03  0.70139830487E+03  0.13804248638E+04  0.16354355255E+04  0.12699999809E+01 0.  1.
       -4    1    3    3    0  502  0.52641747563E+03 -0.70139830487E+03 -0.64465825686E+03  0.10884212520E+04  0.12699999809E+01 0. -1.
</event>
<event>
 5   0  0.1000421E-05  0.2603135E+04  0.7818609E-02  0.8367137E-01
        1   -1    0    0  501    0  0.00000000000E+00  0.00000000000E+00  0.18030507685E+04  0.18030507685E+04  0.50400001928E-02 0.  1.
       -1   -1    0    0    0  501  0.00000000000E+00  0.00000000000E+00 -0.93956230384E+03  0.93956230385E+03  0.50400001928E-02 0. -1.
    10030    2    1    2    0    0  0.00000000000E+00  0.00000000000E+00  0.86348846467E+03  0.27426130724E+04  0.26031354433E+04 0.  0.
        3    1    3    3  502    0 -0.10525497322E+04  0.69375058459E+03  0.77302583439E+03  0.14787561540E+04  0.10100000352E+00 0.  1.
       -3    1    3    3    0  502  0.10525497322E+04 -0.69375058459E+03  0.90462630276E+02  0.12638569183E+04  0.10100000352E+00 0. -1.
</event>
<event>
 5   0  0.2662024E-05  0.2596984E+04  0.7818609E-02  0.8369226E-01
        2   -1    0    0  501    0  0.00000000000E+00  0.00000000000E+00  0.19418442393E+04  0.19418442393E+04  0.25500000920E-02 0.  1.
       -2   -1    0    0    0  501  0.00000000000E+00  0.00000000000E+00 -0.86828875393E+03  0.86828875393E+03  0.25500000920E-02 0. -1.
    10030    2    1    2    0    0  0.00000000000E+00  0.00000000000E+00  0.10735554854E+04  0.28101329932E+04  0.25969840314E+04 0.  0.
        2    1    3    3  502    0 -0.21467540120E+03  0.10453048698E+04  0.13373189569E+04  0.17108973644E+04  0.25500000920E-02 0.  1.
       -2    1    3    3    0  502  0.21467540120E+03 -0.10453048698E+04 -0.26376347157E+03  0.10992356289E+04  0.25500000920E-02 0. -1.
</event>
<event>
 5   0  0.1000421E-05  0.2630438E+04  0.7818609E-02  0.8357935E-01
       -1   -1    0    0    0  501  0.00000000000E+00  0.00000000000E+00  0.14746778152E+04  0.14746778152E+04  0.50400001928E-02 0.  1.
        1   -1    0    0  501    0  0.00000000000E+00  0.00000000000E+00 -0.11730030386E+04  0.11730030386E+04  0.50400001928E-02 0. -1.
    10030    2    1    2    0    0  0.00000000000E+00  0.00000000000E+00  0.30167477658E+03  0.26476808539E+04  0.26304384108E+04 0.  0.
        3    1    3    3  502    0  0.64300493064E+03  0.96630659564E+03  0.77343681252E+03  0.13947789398E+04  0.10100000352E+00 0. -1.
       -3    1    3    3    0  502 -0.64300493064E+03 -0.96630659564E+03 -0.47176203594E+03  0.12529019141E+04  0.10100000352E+00 0.  1.
</event>
<event>
 5   0  0.2517854E-05  0.2591748E+04  0.7818609E-02  0.8371010E-01
        2   -1    0    0  501    0  0.00000000000E+00  0.00000000000E+00  0.20736169727E+04  0.20736169727E+04  0.25500000920E-02 0. -1.
       -2   -1    0    0    0  501  0.00000000000E+00  0.00000000000E+00 -0.80983605180E+03  0.80983605180E+03  0.25500000920E-02 0.  1.
    10030    2    1    2    0    0  0.00000000000E+00  0.00000000000E+00  0.12637809209E+04  0.28834530245E+04  0.25917482765E+04 0.  0.
        4    1    3    3  502    0  0.73916998034E+01 -0.58000073343E+03  0.19211222726E+04  0.20067804781E+04  0.12699999809E+01 0. -1.
       -4    1    3    3    0  502 -0.73916998034E+01  0.58000073343E+03 -0.65734135173E+03  0.87667254640E+03  0.12699999809E+01 0.  1.
</event>
<event>
 5   0  0.2555801E-05  0.2645883E+04  0.7818609E-02  0.8352781E-01
       -2   -1    0    0    0  501  0.00000000000E+00  0.00000000000E+00  0.93704806420E+03  0.93704806421E+03  0.25500000920E-02 0. -1.
        2   -1    0    0  501    0  0.00000000000E+00  0.00000000000E+00 -0.18677522751E+04  0.18677522751E+04  0.25500000920E-02 0.  1.
    10030    2    1    2    0    0  0.00000000000E+00  0.00000000000E+00 -0.93070421093E+03  0.28048003393E+04  0.26458825778E+04 0.  0.
        1    1    3    3  502    0  0.34955554114E+03  0.10199013022E+04 -0.12780721493E+04  0.16720813860E+04  0.50400001928E-02 0.  1.
       -1    1    3    3    0  502 -0.34955554114E+03 -0.10199013022E+04  0.34736793837E+03  0.11327189533E+04  0.50400001928E-02 0. -1.
</event>
<event>
 5   0  0.2484618E-05  0.2566092E+04  0.7818609E-02  0.8379811E-01
       -2   -1    0    0    0  501  0.00000000000E+00  0.00000000000E+00  0.85740662409E+03  0.85740662409E+03  0.25500000920E-02 0. -1.
        2   -1    0    0  501    0  0.00000000000E+00  0.00000000000E+00 -0.19199835617E+04  0.19199835617E+04  0.25500000920E-02 0.  1.
    10030    2    1    2    0    0  0.00000000000E+00  0.00000000000E+00 -0.10625769377E+04  0.27773901858E+04  0.25660916772E+04 0.  0.
        3    1    3    3  502    0  0.42009362548E+02 -0.11538811284E+04 -0.11368203509E+04  0.16203601345E+04  0.10100000352E+00 0.  1.
       -3    1    3    3    0  502 -0.42009362548E+02  0.11538811284E+04  0.74243413214E+02  0.11570300513E+04  0.10100000352E+00 0. -1.
</event>
<event>
 5   0  0.2484618E-05  0.2486876E+04  0.7818609E-02  0.8407676E-01
        2   -1    0    0  501    0  0.00000000000E+00  0.00000000000E+00  0.27396350851E+04  0.27396350851E+04  0.25500000920E-02 0.  1.
       -2   -1    0    0    0  501  0.00000000000E+00  0.00000000000E+00 -0.56435904851E+03  0.56435904851E+03  0.25500000920E-02 0. -1.
    10030    2    1    2    0    0  0.00000000000E+00  0.00000000000E+00  0.21752760366E+04  0.33039941336E+04  0.24868758311E+04 0.  0.
        3    1    3    3  502    0  0.12716986864E+03  0.11534460794E+04  0.49418426692E+03  0.12612803548E+04  0.10100000352E+00 0. -1.
       -3    1    3    3    0  502 -0.12716986864E+03 -0.11534460794E+04  0.16810917696E+04  0.20427137787E+04  0.10100000352E+00 0.  1.
</event>
<event>
 5   0  0.2528460E-05  0.2654695E+04  0.7818609E-02  0.8349856E-01
       -2   -1    0    0    0  501  0.00000000000E+00  0.00000000000E+00  0.10482524087E+04  0.10482524087E+04  0.25500000920E-02 0.  1.
        2   -1    0    0  501    0  0.00000000000E+00  0.00000000000E+00 -0.16807511398E+04  0.16807511398E+04  0.25500000920E-02 0. -1.
    10030    2    1    2    0    0  0.00000000000E+00  0.00000000000E+00 -0.63249873103E+03  0.27290035485E+04  0.26546950339E+04 0.  0.
        5    1    3    3  502    0  0.21312065774E+03  0.13051231848E+04 -0.43373937123E+03  0.13917323286E+04  0.46999998093E+01 0. -1.
       -5    1    3    3    0  502 -0.21312065774E+03 -0.13051231848E+04 -0.19875935981E+03  0.13372712199E+04  0.46999998093E+01 0.  1.
</event>
<event>
 5   0  0.1000421E-05  0.2601768E+04  0.7818609E-02  0.8367601E-01
        1   -1    0    0  501    0  0.00000000000E+00  0.00000000000E+00  0.17904056802E+04  0.17904056802E+04  0.50400001928E-02 0.  1.
       -1   -1    0    0    0  501  0.00000000000E+00  0.00000000000E+00 -0.94520400417E+03  0.94520400418E+03  0.50400001928E-02 0. -1.
    10030    2    1    2    0    0  0.00000000000E+00  0.00000000000E+00  0.84520167601E+03  0.27356096844E+04  0.26017675669E+04 0.  0.
        3    1    3    3  502    0  0.57856120018E+03  0.10538793487E+04 -0.99854992528E+02  0.12063854167E+04  0.10100000352E+00 0. -1.
       -3    1    3    3    0  502 -0.57856120018E+03 -0.10538793487E+04  0.94505666853E+03  0.15292242677E+04  0.10100000352E+00 0.  1.
</event>
<event>
 5   0  0.1005492E-05  0.1980670E+04  0.7818609E-02  0.8615712E-01
       -1   -1    0    0    0  501  0.00000000000E+00  0.00000000000E+00  0.83264267677E+03  0.83264267678E+03  0.50400001928E-02 0.  1.
        1   -1    0    0  501    0  0.00000000000E+00  0.00000000000E+00 -0.11778926101E+04  0.11778926101E+04  0.50400001928E-02 0. -1.
    10030    2    1    2    0    0  0.00000000000E+00  0.00000000000E+00 -0.34524993336E+03  0.20105352869E+04  0.19806702460E+04 0.  0.
        4    1    3    3  502    0 -0.71430685119E+03  0.67023672074E+03 -0.32080728243E+03  0.10307135707E+04  0.12699999809E+01 0. -1.
       -4    1    3    3    0  502  0.71430685119E+03 -0.67023672074E+03 -0.24442650936E+02  0.97982171622E+03  0.12699999809E+01 0.  1.
</event>
<event>
 5   0  0.2517854E-05  0.2401315E+04  0.7818609E-02  0.8439012E-01
       -2   -1    0    0    0  501  0.00000000000E+00  0.00000000000E+00  0.10148944747E+04  0.10148944747E+04  0.25500000920E-02 0.  1.
        2   -1    0    0  501    0  0.00000000000E+00  0.00000000000E+00 -0.14204215283E+04  0.14204215283E+04  0.25500000920E-02 0. -1.
    10030    2    1    2    0    0  0.00000000000E+00  0.00000000000E+00 -0.40552705362E+03  0.24353160030E+04  0.24013146073E+04 0.  0.
        4    1    3    3  502    0 -0.57614964365E+03 -0.90796493738E+03  0.33886563633E+03  0.11274663063E+04  0.12699999809E+01 0. -1.
       -4    1    3    3    0  502  0.57614964365E+03  0.90796493738E+03 -0.74439268995E+03  0.13078496967E+04  0.12699999809E+01 0.  1.
</event>
<event>
 5   0  0.1000421E-05  0.2611489E+04  0.7818609E-02  0.8364309E-01
        1   -1    0    0  501    0  0.00000000000E+00  0.00000000000E+00  0.14837514558E+04  0.14837514558E+04  0.50400001928E-02 0. -1.
       -1   -1    0    0    0  501  0.00000000000E+00  0.00000000000E+00 -0.11490933007E+04  0.11490933007E+04  0.50400001928E-02 0.  1.
    10030    2    1    2    0    0  0.00000000000E+00  0.00000000000E+00  0.33465815510E+03  0.26328447566E+04  0.26114891215E+04 0.  0.
        3    1    3    3  502    0 -0.91327201234E+03  0.55164901728E+02 -0.77187905661E+03  0.11970406105E+04  0.10100000352E+00 0.  1.
       -3    1    3    3    0  502  0.91327201234E+03 -0.55164901728E+02  0.11065372117E+04  0.14358041461E+04  0.10100000352E+00 0. -1.
</event>
<event>
 5   0  0.9855352E-06  0.2507371E+04  0.7818609E-02  0.8400364E-01
        1   -1    0    0  501    0  0.00000000000E+00  0.00000000000E+00  0.25150594159E+04  0.25150594159E+04  0.50400001928E-02 0.  1.
       -1   -1    0    0    0  501  0.00000000000E+00  0.00000000000E+00 -0.62492632690E+03  0.62492632692E+03  0.50400001928E-02 0. -1.
    10030    2    1    2    0    0  0.00000000000E+00  0.00000000000E+00  0.18901330890E+04  0.31399857428E+04  0.25073706090E+04 0.  0.
        2    1    3    3  502    0 -0.55356022347E+03 -0.24887598271E+03  0.23188133339E+04  0.23969279199E+04  0.25500000920E-02 0.  1.
       -2    1    3    3    0  502  0.55356022347E+03  0.24887598271E+03 -0.42868024492E+03  0.74305782290E+03  0.25500000920E-02 0. -1.
</event>
<event>
 5   0  0.1000421E-05  0.2527015E+04  0.7818609E-02  0.8393424E-01
        1   -1    0    0  501    0  0.00000000000E+00  0.00000000000E+00  0.10803032331E+04  0.10803032331E+04  0.50400001928E-02 0. -1.
       -1   -1    0    0    0  501  0.00000000000E+00  0.00000000000E+00 -0.14777811949E+04  0.14777811949E+04  0.50400001928E-02 0.  1.
    10030    2    1    2    0    0  0.00000000000E+00  0.00000000000E+00 -0.39747796180E+03  0.25580844281E+04  0.25270154750E+04 0.  0.
        3    1    3    3  502    0  0.87831865188E+03 -0.50466551316E+03  0.56574185006E+03  0.11602563447E+04  0.10100000352E+00 0. -1.
       -3    1    3    3    0  502 -0.87831865188E+03  0.50466551316E+03 -0.96321981186E+03  0.13978280833E+04  0.10100000352E+00 0.  1.
</event>
<event>
 5   0  0.1000421E-05  0.2629894E+04  0.7818609E-02  0.8358117E-01
        1   -1    0    0  501    0  0.00000000000E+00  0.00000000000E+00  0.16663089322E+04  0.16663089322E+04  0.50400001928E-02 0.  1.
       -1   -1    0    0    0  501  0.00000000000E+00  0.00000000000E+00 -0.10376737186E+04  0.10376737186E+04  0.50400001928E-02 0. -1.
    10030    2    1    2    0    0  0.00000000000E+00  0.00000000000E+00  0.62863521359E+03  0.27039826508E+04  0.26298935234E+04 0.  0.
        3    1    3    3  502    0 -0.86382370783E+03 -0.97897788094E+03  0.47523845522E+03  0.13894029974E+04  0.10100000352E+00 0.  1.
       -3    1    3    3    0  502  0.86382370783E+03  0.97897788094E+03  0.15339675837E+03  0.13145796535E+04  0.10100000352E+00 0. -1.
</event>
<event>
 5   0  0.1034714E-05  0.2583526E+04  0.7818609E-02  0.8373819E-01
       -1   -1    0    0    0  501  0.00000000000E+00  0.00000000000E+00  0.87959189764E+03  0.87959189766E+03  0.50400001928E-02 0.  1.
        1   -1    0    0  501    0  0.00000000000E+00  0.00000000000E+00 -0.18970746960E+04  0.18970746960E+04  0.50400001928E-02 0. -1.
    10030    2    1    2    0    0  0.00000000000E+00  0.00000000000E+00 -0.10174827984E+04  0.27766665937E+04  0.25835259100E+04 0.  0.
        5    1    3    3  502    0 -0.12453616200E+04  0.26276127834E+03 -0.74582346173E+03  0.14752097411E+04  0.46999998093E+01 0.  1.
       -5    1    3    3    0  502  0.12453616200E+04 -0.26276127834E+03 -0.27165933667E+03  0.13014568526E+04  0.46999998093E+01 0. -1.
</event>
<event>
 5   0  0.9855352E-06  0.2638214E+04  0.7818609E-02  0.8355335E-01
       -1   -1    0    0    0  501  0.00000000000E+00  0.00000000000E+00  0.79804932859E+03  0.79804932861E+03  0.50400001928E-02 0. -1.
        1   -1    0    0  501    0  0.00000000000E+00  0.00000000000E+00 -0.21803708097E+04  0.21803708097E+04  0.50400001928E-02 0.  1.
    10030    2    1    2    0    0  0.00000000000E+00  0.00000000000E+00 -0.13823214811E+04  0.29784201383E+04  0.26382141390E+04 0.  0.
        2    1    3    3  502    0 -0.11197795293E+04 -0.13414000226E+03  0.81280619664E+02  0.11307105172E+04  0.25500000920E-02 0. -1.
       -2    1    3    3    0  502  0.11197795293E+04  0.13414000226E+03 -0.14636021007E+04  0.18477096211E+04  0.25500000920E-02 0.  1.
</event>
<event>
 5   0  0.9855352E-06  0.2575390E+04  0.7818609E-02  0.8376609E-01
       -1   -1    0    0    0  501  0.00000000000E+00  0.00000000000E+00  0.13472809902E+04  0.13472809902E+04  0.50400001928E-02 0.  1.
        1   -1    0    0  501    0  0.00000000000E+00  0.00000000000E+00 -0.12307444464E+04  0.12307444464E+04  0.50400001928E-02 0. -1.
    10030    2    1    2    0    0  0.00000000000E+00  0.00000000000E+00  0.11653654384E+03  0.25780254366E+04  0.25753901425E+04 0.  0.
        2    1    3    3  502    0  0.10172414654E+04 -0.47761251628E+03  0.68761238525E+03  0.13174614632E+04  0.25500000920E-02 0.  1.
       -2    1    3    3    0  502 -0.10172414654E+04  0.47761251628E+03 -0.57107584141E+03  0.12605639735E+04  0.25500000920E-02 0. -1.
</event>
<event>
 5   0  0.2528460E-05  0.2596838E+04  0.7818609E-02  0.8369276E-01
        2   -1    0    0  501    0  0.00000000000E+00  0.00000000000E+00  0.15568739188E+04  0.15568739188E+04  0.25500000920E-02 0. -1.
       -2   -1    0    0    0  501  0.00000000000E+00  0.00000000000E+00 -0.10828699389E+04  0.10828699389E+04  0.25500000920E-02 0.  1.
    10030    2    1    2    0    0  0.00000000000E+00  0.00000000000E+00  0.47400397986E+03  0.26397438577E+04  0.25968380507E+04 0.  0.
        5    1    3    3  502    0  0.68352808166E+03  0.10782141984E+04 -0.37944901072E+01  0.12766334572E+04  0.46999998093E+01 0.  1.
       -5    1    3    3    0  502 -0.68352808166E+03 -0.10782141984E+04  0.47779846997E+03  0.13631104005E+04  0.46999998093E+01 0. -1.
</event>
<event>
 5   0  0.1000421E-05  0.2614060E+04  0.7818609E-02  0.8363441E-01
       -1   -1    0    0    0  501  0.00000000000E+00  0.00000000000E+00  0.11019425958E+04  0.11019425958E+04  0.50400001928E-02 0.  1.
        1   -1    0    0  501    0  0.00000000000E+00  0.00000000000E+00 -0.15502868236E+04  0.15502868237E+04  0.50400001928E-02 0. -1.
    10030    2    1    2    0    0  0.00000000000E+00  0.00000000000E+00 -0.44834422781E+03  0.26522294195E+04  0.26140597443E+04 0.  0.
        3    1    3    3  502    0 -0.72387209612E+03 -0.60854751767E+03  0.69122477268E+03  0.11713720969E+04  0.10100000352E+00 0.  1.
       -3    1    3    3    0  502  0.72387209612E+03  0.60854751767E+03 -0.11395690005E+04  0.14808573226E+04  0.10100000352E+00 0. -1.
</event>
<event>
 5   0  0.2528460E-05  0.2609794E+04  0.7818609E-02  0.8364882E-01
        2   -1    0    0  501    0  0.00000000000E+00  0.00000000000E+00  0.19867127387E+04  0.19867127387E+04  0.25500000920E-02 0. -1.
       -2   -1    0    0    0  501  0.00000000000E+00  0.00000000000E+00 -0.85707202583E+03  0.85707202584E+03  0.25500000920E-02 0.  1.
    10030    2    1    2    0    0  0.00000000000E+00  0.00000000000E+00  0.11296407129E+04  0.28437847646E+04  0.26097937939E+04 0.  0.
        5    1    3    3  502    0 -0.35186695690E+03 -0.50749349518E+03 -0.68775360094E+03  0.92433062732E+03  0.46999998093E+01 0.  1.
       -5    1    3    3    0  502  0.35186695690E+03  0.50749349518E+03  0.18173943138E+04  0.19194541372E+04  0.46999998093E+01 0. -1.
</event>
<event>
 5   0  0.1000421E-05  0.2579877E+04  0.7818609E-02  0.8375069E-01
        1   -1    0    0  501    0  0.00000000000E+00  0.00000000000E+00  0.24144349477E+04  0.24144349477E+04  0.50400001928E-02 0. -1.
       -1   -1    0    0    0  501  0.00000000000E+00  0.00000000000E+00 -0.68916373881E+03  0.68916373883E+03  0.50400001928E-02 0.  1.
    10030    2    1    2    0    0  0.00000000000E+00  0.00000000000E+00  0.17252712089E+04  0.31035986865E+04  0.25798767534E+04 0.  0.
        3    1    3    3  502    0 -0.67890649846E+03  0.74670362401E+02 -0.45378760829E+03  0.82000786600E+03  0.10100000352E+00 0.  1.
       -3    1    3    3    0  502  0.67890649846E+03 -0.74670362401E+02  0.21790588171E+04  0.22835908205E+04  0.10100000352E+00 0. -1.
</event>
<event>
 5   0  0.2517854E-05  0.2614605E+04  0.7818609E-02  0.8363257E-01
       -2   -1    0    0    0  501  0.00000000000E+00  0.00000000000E+00  0.21525055141E+04  0.21525055141E+04  0.25500000920E-02 0.  1.
        2   -1    0    0  501    0  0.00000000000E+00  0.00000000000E+00 -0.79397668412E+03  0.79397668412E+03  0.25500000920E-02 0. -1.
    10030    2    1    2    0    0  0.00000000000E+00  0.00000000000E+00  0.13585288300E+04  0.29464821983E+04  0.26146045136E+04 0.  0.
        4    1    3    3  502    0  0.12497574359E+04 -0.15034953841E+03  0.10769596679E+04  0.16566056777E+04  0.12699999809E+01 0. -1.
       -4    1    3    3    0  502 -0.12497574359E+04  0.15034953841E+03  0.28156916208E+03  0.12898765205E+04  0.12699999809E+01 0.  1.
</event>
<event>
 5   0  0.1005492E-05  0.1881270E+04  0.7818609E-02  0.8664236E-01
       -1   -1    0    0    0  501  0.00000000000E+00  0.00000000000E+00  0.43438261755E+03  0.43438261758E+03  0.50400001928E-02 0.  1.
        1   -1    0    0  501    0  0.00000000000E+00  0.00000000000E+00 -0.20369009802E+04  0.20369009802E+04  0.50400001928E-02 0. -1.
    10030    2    1    2    0    0  0.00000000000E+00  0.00000000000E+00 -0.16025183627E+04  0.24712835978E+04  0.18812701874E+04 0.  0.
        4    1    3    3  502    0 -0.78220618157E+03 -0.50427791455E+03 -0.98065458404E+03  0.13519718014E+04  0.12699999809E+01 0. -1.
       -4    1    3    3    0  502  0.78220618157E+03  0.50427791455E+03 -0.62186377862E+03  0.11193117964E+04  0.12699999809E+01 0.  1.
</event>
<event>
 5   0  0.2517854E-05  0.2568317E+04  0.7818609E-02  0.8379044E-01
        2   -1    0    0  501    0  0.00000000000E+00  0.00000000000E+00  0.14396397506E+04  0.14396397506E+04  0.25500000920E-02 0. -1.
       -2   -1    0    0    0  501  0.00000000000E+00  0.00000000000E+00 -0.11454689824E+04  0.11454689824E+04  0.25500000920E-02 0.  1.
    10030    2    1    2    0    0  0.00000000000E+00  0.00000000000E+00  0.29417076816E+03  0.25851087330E+04  0.25683167096E+04 0.  0.
        4    1    3    3  502    0  0.10520844718E+04 -0.15209467331E+03  0.87224462953E+03  0.13750733916E+04  0.12699999809E+01 0. -1.
       -4    1    3    3    0  502 -0.10520844718E+04  0.15209467331E+03 -0.57807386137E+03  0.12100353415E+04  0.12699999809E+01 0.  1.
</event>
<event>
 5   0  0.2662024E-05  0.2604139E+04  0.7818609E-02  0.8366797E-01
       -2   -1    0    0    0  501  0.00000000000E+00  0.00000000000E+00  0.12538198795E+04  0.12538198795E+04  0.25500000920E-02 0. -1.
        2   -1    0    0  501    0  0.00000000000E+00  0.00000000000E+00 -0.13521753572E+04  0.13521753572E+04  0.25500000920E-02 0.  1.
    10030    2    1    2    0    0  0.00000000000E+00  0.00000000000E+00 -0.98355477748E+02  0.26059952367E+04  0.26041385090E+04 0.  0.
        2    1    3    3  502    0  0.10976752057E+04  0.30578769298E+03  0.58134083491E+03  0.12792005850E+04  0.25500000920E-02 0. -1.
       -2    1    3    3    0  502 -0.10976752057E+04 -0.30578769298E+03 -0.67969631265E+03  0.13267946517E+04  0.25500000920E-02 0.  1.
</event>
<event>
 5   0  0.1025153E-05  0.2592744E+04  0.7818609E-02  0.8370670E-01
       -1   -1    0    0    0  501  0.00000000000E+00  0.00000000000E+00  0.85529837248E+03  0.85529837249E+03  0.50400001928E-02 0.  1.
        1   -1    0    0  501    0  0.00000000000E+00  0.00000000000E+00 -0.19649053970E+04  0.19649053970E+04  0.50400001928E-02 0. -1.
    10030    2    1    2    0    0  0.00000000000E+00  0.00000000000E+00 -0.11096070245E+04  0.28202037695E+04  0.25927440199E+04 0.  0.
        1    1    3    3  502    0  0.12213819321E+04 -0.35372012057E+03 -0.28029751547E+03  0.13020977094E+04  0.50400001928E-02 0.  1.
       -1    1    3    3    0  502 -0.12213819321E+04  0.35372012057E+03 -0.82930950905E+03  0.15181060601E+04  0.50400001928E-02 0. -1.
</event>
<event>
 5   0  0.8605000E-06  0.1985109E+04  0.7818609E-02  0.8613614E-01
        3   -1    0    0  501    0  0.00000000000E+00  0.00000000000E+00  0.30971507837E+03  0.30971509484E+03  0.10100000352E+00 0.  1.
       -3   -1    0    0    0  501  0.00000000000E+00  0.00000000000E+00 -0.31808734008E+04  0.31808734024E+04  0.10100000352E+00 0. -1.
    10030    2    1    2    0    0  0.00000000000E+00  0.00000000000E+00 -0.28711583225E+04  0.34905884973E+04  0.19851090511E+04 0.  0.
        1    1    3    3  502    0 -0.88116362195E+03 -0.34849075635E+03 -0.19550308408E+04  0.21725654707E+04  0.50400001928E-02 0. -1.
       -1    1    3    3    0  502  0.88116362195E+03  0.34849075635E+03 -0.91612748165E+03  0.13180230266E+04  0.50400001928E-02 0.  1.
</event>
<event>
 5   0  0.1025153E-05  0.2593556E+04  0.7818609E-02  0.8370393E-01
        1   -1    0    0  501    0  0.00000000000E+00  0.00000000000E+00  0.29820760025E+04  0.29820760025E+04  0.50400001928E-02 0. -1.
       -1   -1    0    0    0  501  0.00000000000E+00  0.00000000000E+00 -0.56391364849E+03  0.56391364851E+03  0.50400001928E-02 0.  1.
    10030    2    1    2    0    0  0.00000000000E+00  0.00000000000E+00  0.24181623540E+04  0.35459896510E+04  0.25935561368E+04 0.  0.
        1    1    3    3  502    0  0.16803326634E+03 -0.55510884062E+03 -0.37670158160E+03  0.69158158242E+03  0.50400001928E-02 0.  1.
       -1    1    3    3    0  502 -0.16803326634E+03  0.55510884062E+03  0.27948639356E+04  0.28544080686E+04  0.50400001928E-02 0. -1.
</event>
<event>
 5   0  0.2528460E-05  0.2575841E+04  0.7818609E-02  0.8376454E-01
        2   -1    0    0  501    0  0.00000000000E+00  0.00000000000E+00  0.77501640991E+03  0.77501640992E+03  0.25500000920E-02 0. -1.
       -2   -1    0    0    0  501  0.00000000000E+00  0.00000000000E+00 -0.21402640603E+04  0.21402640603E+04  0.25500000920E-02 0.  1.
    10030    2    1    2    0    0  0.00000000000E+00  0.00000000000E+00 -0.13652476504E+04  0.29152804702E+04  0.25758414301E+04 0.  0.
        5    1    3    3  502    0  0.94387008969E+03  0.65605594083E+03 -0.13400470510E+04  0.17655164492E+04  0.46999998093E+01 0.  1.
       -5    1    3    3    0  502 -0.94387008969E+03 -0.65605594083E+03 -0.25200599412E+02  0.11497640210E+04  0.46999998093E+01 0. -1.
</event>
<event>
 5   0  0.2484618E-05  0.2589137E+04  0.7818609E-02  0.8371900E-01
       -2   -1    0    0    0  501  0.00000000000E+00  0.00000000000E+00  0.71293961514E+03  0.71293961514E+03  0.25500000920E-02 0.  1.
        2   -1    0    0  501    0  0.00000000000E+00  0.00000000000E+00 -0.23507006313E+04  0.23507006313E+04  0.25500000920E-02 0. -1.
    10030    2    1    2    0    0  0.00000000000E+00  0.00000000000E+00 -0.16377610161E+04  0.30636402464E+04  0.25891370017E+04 0.  0.
        3    1    3    3  502    0 -0.19266115546E+03 -0.12689056286E+04 -0.10192260820E+04  0.16389208741E+04  0.10100000352E+00 0. -1.
       -3    1    3    3    0  502  0.19266115546E+03  0.12689056286E+04 -0.61853493409E+03  0.14247193723E+04  0.10100000352E+00 0.  1.
</event>
<event>
 5   0  0.2528460E-05  0.2614079E+04  0.7818609E-02  0.8363435E-01
        2   -1    0    0  501    0  0.00000000000E+00  0.00000000000E+00  0.11524589301E+04  0.11524589301E+04  0.25500000920E-02 0.  1.
       -2   -1    0    0    0  501  0.00000000000E+00  0.00000000000E+00 -0.14823541608E+04  0.14823541608E+04  0.25500000920E-02 0. -1.
    10030    2    1    2    0    0  0.00000000000E+00  0.00000000000E+00 -0.32989523073E+03  0.26348130909E+04  0.26140790273E+04 0.  0.
        5    1    3    3  502    0 -0.30245934889E+03  0.11946142236E+04  0.27410516020E+03  0.12624343665E+04  0.46999998093E+01 0. -1.
       -5    1    3    3    0  502  0.30245934889E+03 -0.11946142236E+04 -0.60400039093E+03  0.13723787244E+04  0.46999998093E+01 0.  1.
</event>
<event>
 5   0  0.9855352E-06  0.2542841E+04  0.7818609E-02  0.8387880E-01
       -1   -1    0    0    0  501  0.00000000000E+00  0.00000000000E+00  0.11541144073E+04  0.11541144074E+04  0.50400001928E-02 0.  1.
        1   -1    0    0  501    0  0.00000000000E+00  0.00000000000E+00 -0.14006492776E+04  0.14006492776E+04  0.50400001928E-02 0. -1.
    10030    2    1    2    0    0  0.00000000000E+00  0.00000000000E+00 -0.24653487029E+03  0.25547636850E+04  0.25428405463E+04 0.  0.
        2    1    3    3  502    0 -0.12469503106E+03 -0.12635333778E+04 -0.56291046524E+02  0.12709186164E+04  0.25500000920E-02 0. -1.
       -2    1    3    3    0  502  0.12469503106E+03  0.12635333778E+04 -0.19024382377E+03  0.12838450686E+04  0.25500000920E-02 0.  1.
</event>
<event>
 5   0  0.2517854E-05  0.2607694E+04  0.7818609E-02  0.8365593E-01
       -2   -1    0    0    0  501  0.00000000000E+00  0.00000000000E+00  0.85205233374E+03  0.85205233374E+03  0.25500000920E-02 0. -1.
        2   -1    0    0  501    0  0.00000000000E+00  0.00000000000E+00 -0.19952021783E+04  0.19952021783E+04  0.25500000920E-02 0.  1.
    10030    2    1    2    0    0  0.00000000000E+00  0.00000000000E+00 -0.11431498445E+04  0.28472545120E+04  0.26076937491E+04 0.  0.
        4    1    3    3  502    0 -0.10338150174E+04 -0.74674989941E+03 -0.86780337851E+03  0.15425606047E+04  0.12699999809E+01 0.  1.
       -4    1    3    3    0  502  0.10338150174E+04  0.74674989941E+03 -0.27534646602E+03  0.13046939073E+04  0.12699999809E+01 0. -1.
</event>
<event>
 5   0  0.1025153E-05  0.2538260E+04  0.7818609E-02  0.8389481E-01
        1   -1    0    0  501    0  0.00000000000E+00  0.00000000000E+00  0.10046322436E+04  0.10046322436E+04  0.50400001928E-02 0.  1.
       -1   -1    0    0    0  501  0.00000000000E+00  0.00000000000E+00 -0.16032636151E+04  0.16032636151E+04  0.50400001928E-02 0. -1.
    10030    2    1    2    0    0  0.00000000000E+00  0.00000000000E+00 -0.59863137154E+03  0.26078958587E+04  0.25382595003E+04 0.  0.
        1    1    3    3  502    0  0.12040317870E+04 -0.50888168559E+02 -0.70824007806E+03  0.13978147795E+04  0.50400001928E-02 0. -1.
       -1    1    3    3    0  502 -0.12040317870E+04  0.50888168559E+02  0.10960870653E+03  0.12100810792E+04  0.50400001928E-02 0.  1.
</event>
<event>
 5   0  0.2484618E-05  0.2549911E+04  0.7818609E-02  0.8385417E-01
       -2   -1    0    0    0  501  0.00000000000E+00  0.00000000000E+00  0.11627841784E+04  0.11627841784E+04  0.25500000920E-02 0.  1.
        2   -1    0    0  501    0  0.00000000000E+00  0.00000000000E+00 -0.13979473074E+04  0.13979473074E+04  0.25500000920E-02 0. -1.
    10030    2    1    2    0    0  0.00000000000E+00  0.00000000000E+00 -0.23516312898E+03  0.25607314858E+04  0.25499105955E+04 0.  0.
        3    1    3    3  502    0 -0.13665545416E+03 -0.11629540247E+04  0.38891399138E+03  0.12338520493E+04  0.10100000352E+00 0.  1.
       -3    1    3    3    0  502  0.13665545416E+03  0.11629540247E+04 -0.62407712037E+03  0.13268794365E+04  0.10100000352E+00 0. -1.
</event>
<event>
 5   0  0.1025153E-05  0.2639416E+04  0.7818609E-02  0.8354934E-01
        1   -1    0    0  501    0  0.00000000000E+00  0.00000000000E+00  0.21696713893E+04  0.21696713893E+04  0.50400001928E-02 0.  1.
       -1   -1    0    0    0  501  0.00000000000E+00  0.00000000000E+00 -0.80271554901E+03  0.80271554902E+03  0.50400001928E-02 0. -1.
    10030    2    1    2    0    0  0.00000000000E+00  0.00000000000E+00  0.13669558403E+04  0.29723869383E+04  0.26394158145E+04 0.  0.
        1    1    3    3  502    0  0.55773723656E+03  0.84605157369E+03 -0.26860788728E+03  0.10483435923E+04  0.50400001928E-02 0. -1.
       -1    1    3    3    0  502 -0.55773723656E+03 -0.84605157369E+03  0.16355637276E+04  0.19240433460E+04  0.50400001928E-02 0.  1.
</event>
<event>
 5   0  0.2528460E-05  0.2005037E+04  0.7818609E-02  0.8604269E-01
        2   -1    0    0  501    0  0.00000000000E+00  0.00000000000E+00  0.16592363453E+04  0.16592363453E+04  0.25500000920E-02 0. -1.
       -2   -1    0    0    0  501  0.00000000000E+00  0.00000000000E+00 -0.60572635300E+03  0.60572635301E+03  0.25500000920E-02 0.  1.
    10030    2    1    2    0    0  0.00000000000E+00  0.00000000000E+00  0.10535099923E+04  0.22649626983E+04  0.20050368378E+04 0.  0.
        5    1    3    3  502    0 -0.28358232633E+02 -0.47741458255E+03 -0.46853883868E+03  0.66953685958E+03  0.46999998093E+01 0.  1.
       -5    1    3    3    0  502  0.28358232633E+02  0.47741458255E+03  0.15220488310E+04  0.15954258387E+04  0.46999998093E+01 0. -1.
</event>
<event>
 5   0  0.8605000E-06  0.2598308E+04  0.7818609E-02  0.8368776E-01
       -3   -1    0    0    0  501  0.00000000000E+00  0.00000000000E+00  0.18469768137E+04  0.18469768165E+04  0.10100000352E+00 0.  1.
        3   -1    0    0  501    0  0.00000000000E+00  0.00000000000E+00 -0.91381826732E+03  0.91381827290E+03  0.10100000352E+00 0. -1.
    10030    2    1    2    0    0  0.00000000000E+00  0.00000000000E+00  0.93315854639E+03  0.27607950894E+04  0.25983080366E+04 0.  0.
        3    1    3    3  502    0  0.80572137461E+03  0.10190705017E+04  0.45545903026E+03  0.13766388631E+04  0.10100000352E+00 0.  1.
       -3    1    3    3    0  502 -0.80572137461E+03 -0.10190705017E+04  0.47769951613E+03  0.13841562263E+04  0.10100000352E+00 0. -1.
</event>
<event>
 5   0  0.1005492E-05  0.2603945E+04  0.7818609E-02  0.8366862E-01
       -1   -1    0    0    0  501  0.00000000000E+00  0.00000000000E+00  0.98023598253E+03  0.98023598254E+03  0.50400001928E-02 0. -1.
        1   -1    0    0  501    0  0.00000000000E+00  0.00000000000E+00 -0.17293109273E+04  0.17293109273E+04  0.50400001928E-02 0.  1.
    10030    2    1    2    0    0  0.00000000000E+00  0.00000000000E+00 -0.74907494473E+03  0.27095469098E+04  0.26039453112E+04 0.  0.
        4    1    3    3  502    0 -0.24600993800E+03  0.96708461152E+03 -0.12447282566E+04  0.15953443457E+04  0.12699999809E+01 0.  1.
       -4    1    3    3    0  502  0.24600993800E+03 -0.96708461152E+03  0.49565331191E+03  0.11142025641E+04  0.12699999809E+01 0. -1.
</event>
<event>
 5   0  0.2662024E-05  0.2614413E+04  0.7818609E-02  0.8363322E-01
       -2   -1    0    0    0  501  0.00000000000E+00  0.00000000000E+00  0.16374139638E+04  0.16374139638E+04  0.25500000920E-02 0. -1.
        2   -1    0    0  501    0  0.00000000000E+00  0.00000000000E+00 -0.10435898259E+04  0.10435898259E+04  0.25500000920E-02 0.  1.
    10030    2    1    2    0    0  0.00000000000E+00  0.00000000000E+00  0.59382413788E+03  0.26810037897E+04  0.26144127856E+04 0.  0.
        2    1    3    3  502    0  0.73992410553E+03  0.10764958916E+04  0.34774756959E+03  0.13517616131E+04  0.25500000920E-02 0. -1.
       -2    1    3    3    0  502 -0.73992410553E+03 -0.10764958916E+04  0.24607656829E+03  0.13292421766E+04  0.25500000920E-02 0.  1.
</event>
<event>
 5   0  0.2484618E-05  0.2612416E+04  0.7818609E-02  0.8363996E-01
        2   -1    0    0  501    0  0.00000000000E+00  0.00000000000E+00  0.17264300977E+04  0.17264300977E+04  0.25500000920E-02 0. -1.
       -2   -1    0    0    0  501  0.00000000000E+00  0.00000000000E+00 -0.98827025294E+03  0.98827025295E+03  0.25500000920E-02 0.  1.
    10030    2    1    2    0    0  0.00000000000E+00  0.00000000000E+00  0.73815984472E+03  0.27147003506E+04  0.26124161302E+04 0.  0.
        3    1    3    3  502    0  0.12727055733E+04 -0.27929129238E+03  0.27386039510E+03  0.13314588347E+04  0.10100000352E+00 0.  1.
       -3    1    3    3    0  502 -0.12727055733E+04  0.27929129238E+03  0.46429944962E+03  0.13832415159E+04  0.10100000352E+00 0. -1.
</event>
<event>
 5   0  0.1034714E-05  0.2590001E+04  0.7818609E-02  0.8371606E-01
       -1   -1    0    0    0  501  0.00000000000E+00  0.00000000000E+00  0.14264782903E+04  0.14264782903E+04  0.50400001928E-02 0.  1.
        1   -1    0    0  501    0  0.00000000000E+00  0.00000000000E+00 -0.11756409912E+04  0.11756409912E+04  0.50400001928E-02 0. -1.
    10030    2    1    2    0    0  0.00000000000E+00  0.00000000000E+00  0.25083729909E+03  0.26021192815E+04  0.25900010434E+04 0.  0.
        5    1    3    3  502    0 -0.10752409419E+03 -0.10361631908E+03  0.14177912642E+04  0.14256408843E+04  0.46999998093E+01 0.  1.
       -5    1    3    3    0  502  0.10752409419E+03  0.10361631908E+03 -0.11669539651E+04  0.11764783972E+04  0.46999998093E+01 0. -1.
</event>
<event>
 5   0  0.8605000E-06  0.2761367E+04  0.7818609E-02  0.8315364E-01
        4   -1    0    0  501    0  0.00000000000E+00  0.00000000000E+00  0.12379612476E+04  0.12379618990E+04  0.12699999809E+01 0.  1.
       -4   -1    0    0    0  501  0.00000000000E+00  0.00000000000E+00 -0.15398584877E+04  0.15398590114E+04  0.12699999809E+01 0. -1.
    10030    2    1    2    0    0  0.00000000000E+00  0.00000000000E+00 -0.30189724010E+03  0.27778209105E+04  0.27613668838E+04 0.  0.
        5    1    3    3  502    0 -0.15660352181E+03  0.21173371276E+03  0.12124534019E+04  0.12407341254E+04  0.46999998093E+01 0.  1.
       -5    1    3    3    0  502  0.15660352181E+03 -0.21173371276E+03 -0.15143506420E+04  0.15370867851E+04  0.46999998093E+01 0. -1.
</event>
<event>
 5   0  0.2555801E-05  0.2575759E+04  0.7818609E-02  0.8376482E-01
       -2   -1    0    0    0  501  0.00000000000E+00  0.00000000000E+00  0.12096485509E+04  0.12096485509E+04  0.25500000920E-02 0. -1.
        2   -1    0    0  501    0  0.00000000000E+00  0.00000000000E+00 -0.13711702232E+04  0.13711702232E+04  0.25500000920E-02 0.  1.
    10030    2    1    2    0    0  0.00000000000E+00  0.00000000000E+00 -0.16152167227E+03  0.25808187741E+04  0.25757593626E+04 0.  0.
        1    1    3    3  502    0 -0.29067043338E+01 -0.89885213496E+03  0.84337966613E+03  0.12325716493E+04  0.50400001928E-02 0. -1.
       -1    1    3    3    0  502  0.29067043338E+01  0.89885213496E+03 -0.10049013384E+04  0.13482471247E+04  0.50400001928E-02 0.  1.
</event>
<event>
 5   0  0.2662024E-05  0.2599387E+04  0.7818609E-02  0.8368409E-01
        2   -1    0    0  501    0  0.00000000000E+00  0.00000000000E+00  0.18500810682E+04  0.18500810682E+04  0.25500000920E-02 0.  1.
       -2   -1    0    0    0  501  0.00000000000E+00  0.00000000000E+00 -0.91304275847E+03  0.91304275848E+03  0.25500000920E-02 0. -1.
    10030    2    1    2    0    0  0.00000000000E+00  0.00000000000E+00  0.93703830976E+03  0.27631238267E+04  0.25993869446E+04 0.  0.
        2    1    3    3  502    0 -0.12649189611E+04  0.18705135040E+03  0.71598129764E+03  0.14654819700E+04  0.25500000920E-02 0. -1.
       -2    1    3    3    0  502  0.12649189611E+04 -0.18705135040E+03  0.22105701212E+03  0.12976418567E+04  0.25500000920E-02 0.  1.
</event>
<event>
 5   0  0.9855352E-06  0.2631852E+04  0.7818609E-02  0.8357462E-01
       -1   -1    0    0    0  501  0.00000000000E+00  0.00000000000E+00  0.87103340303E+03  0.87103340305E+03  0.50400001928E-02 0. -1.
        1   -1    0    0  501    0  0.00000000000E+00  0.00000000000E+00 -0.19880536502E+04  0.19880536502E+04  0.50400001928E-02 0.  1.
    10030    2    1    2    0    0  0.00000000000E+00  0.00000000000E+00 -0.11170202472E+04  0.28590870533E+04  0.26318519232E+04 0.  0.
        2    1    3    3  502    0  0.10799387554E+04  0.51643055905E+03  0.35205362383E+02  0.11975840911E+04  0.25500000920E-02 0. -1.
       -2    1    3    3    0  502 -0.10799387554E+04 -0.51643055905E+03 -0.11522256096E+04  0.16615029621E+04  0.25500000920E-02 0.  1.
</event>
<event>
 5   0  0.2517854E-05  0.2476823E+04  0.7818609E-02  0.8411289E-01
        2   -1    0    0  501    0  0.00000000000E+00  0.00000000000E+00  0.11535582572E+04  0.11535582573E+04  0.25500000920E-02 0.  1.
       -2   -1    0    0    0  501  0.00000000000E+00  0.00000000000E+00 -0.13295066701E+04  0.13295066701E+04  0.25500000920E-02 0. -1.
    10030    2    1    2    0    0  0.00000000000E+00  0.00000000000E+00 -0.17594841285E+03  0.24830649274E+04  0.24768232859E+04 0.  0.
        4    1    3    3  502    0 -0.92175476818E+03 -0.79151825137E+03  0.15248182318E+03  0.12244939013E+04  0.12699999809E+01 0.  1.
       -4    1    3    3    0  502  0.92175476818E+03  0.79151825137E+03 -0.32843023603E+03  0.12585710261E+04  0.12699999809E+01 0. -1.
</event>
<event>
 5   0  0.2528460E-05  0.2397832E+04  0.7818609E-02  0.8440316E-01
       -2   -1    0    0    0  501  0.00000000000E+00  0.00000000000E+00  0.12688890553E+04  0.12688890553E+04  0.25500000920E-02 0.  1.
        2   -1    0    0  501    0  0.00000000000E+00  0.00000000000E+00 -0.11328012021E+04  0.11328012021E+04  0.25500000920E-02 0. -1.
    10030    2    1    2    0    0  0.00000000000E+00  0.00000000000E+00  0.13608785315E+03  0.24016902574E+04  0.23978315597E+04 0.  0.
        5    1    3    3  502    0  0.62946348438E+03  0.85626233160E+03  0.62388516843E+03  0.12323409642E+04  0.46999998093E+01 0. -1.
       -5    1    3    3    0  502 -0.62946348438E+03 -0.85626233160E+03 -0.48779731528E+03  0.11693492932E+04  0.46999998093E+01 0.  1.
</event>
<event>
 5   0  0.2517854E-05  0.2639544E+04  0.7818609E-02  0.8354892E-01
        2   -1    0    0  501    0  0.00000000000E+00  0.00000000000E+00  0.16064437197E+04  0.16064437197E+04  0.25500000920E-02 0. -1.
       -2   -1    0    0    0  501  0.00000000000E+00  0.00000000000E+00 -0.10842573499E+04  0.10842573499E+04  0.25500000920E-02 0.  1.
    10030    2    1    2    0    0  0.00000000000E+00  0.00000000000E+00  0.52218636981E+03  0.26907010696E+04  0.26395442108E+04 0.  0.
        4    1    3    3  502    0  0.98027857799E+03  0.19999810032E+03  0.11385021818E+04  0.15156299553E+04  0.12699999809E+01 0. -1.
       -4    1    3    3    0  502 -0.98027857799E+03 -0.19999810032E+03 -0.61631581197E+03  0.11750711143E+04  0.12699999809E+01 0.  1.
</event>
<event>
 5   0  0.2662024E-05  0.2638311E+04  0.7818609E-02  0.8355303E-01
        2   -1    0    0  501    0  0.00000000000E+00  0.00000000000E+00  0.14730391876E+04  0.14730391876E+04  0.25500000920E-02 0. -1.
       -2   -1    0    0    0  501  0.00000000000E+00  0.00000000000E+00 -0.11813477658E+04  0.11813477658E+04  0.25500000920E-02 0.  1.
    10030    2    1    2    0    0  0.00000000000E+00  0.00000000000E+00  0.29169142179E+03  0.26543869534E+04  0.26383112426E+04 0.  0.
        2    1    3    3  502    0  0.81099843112E+03 -0.69346445039E+03 -0.63448327046E+03  0.12414428782E+04  0.25500000920E-02 0.  1.
       -2    1    3    3    0  502 -0.81099843112E+03  0.69346445039E+03  0.92617469225E+03  0.14129440753E+04  0.25500000920E-02 0. -1.
</event>
<event>
 5   0  0.2528460E-05  0.2605035E+04  0.7818609E-02  0.8366493E-01
       -2   -1    0    0    0  501  0.00000000000E+00  0.00000000000E+00  0.13957003535E+04  0.13957003535E+04  0.25500000920E-02 0. -1.
        2   -1    0    0  501    0  0.00000000000E+00  0.00000000000E+00 -0.12155558919E+04  0.12155558919E+04  0.25500000920E-02 0.  1.
    10030    2    1    2    0    0  0.00000000000E+00  0.00000000000E+00  0.18014446160E+03  0.26112562455E+04  0.26050349619E+04 0.  0.
        5    1    3    3  502    0  0.10605479175E+04 -0.69077937785E+03  0.39836431080E+03  0.13268964724E+04  0.46999998093E+01 0.  1.
       -5    1    3    3    0  502 -0.10605479175E+04  0.69077937785E+03 -0.21821984920E+03  0.12843597731E+04  0.46999998093E+01 0. -1.
</event>
<event>
 5   0  0.1025153E-05  0.2593250E+04  0.7818609E-02  0.8370497E-01
       -1   -1    0    0    0  501  0.00000000000E+00  0.00000000000E+00  0.99617585650E+03  0.99617585651E+03  0.50400001928E-02 0. -1.
        1   -1    0    0  501    0  0.00000000000E+00  0.00000000000E+00 -0.16876909351E+04  0.16876909351E+04  0.50400001928E-02 0.  1.
    10030    2    1    2    0    0  0.00000000000E+00  0.00000000000E+00 -0.69151507858E+03  0.26838667916E+04  0.25932504413E+04 0.  0.
        1    1    3    3  502    0 -0.30433352992E+03  0.24142101807E+03  0.93453614699E+03  0.10120577135E+04  0.50400001928E-02 0. -1.
       -1    1    3    3    0  502  0.30433352992E+03 -0.24142101807E+03 -0.16260512256E+04  0.16718090781E+04  0.50400001928E-02 0.  1.
</event>
<event>
 5   0  0.2484618E-05  0.2591055E+04  0.7818609E-02  0.8371246E-01
        2   -1    0    0  501    0  0.00000000000E+00  0.00000000000E+00  0.79900261338E+03  0.79900261338E+03  0.25500000920E-02 0. -1.
       -2   -1    0    0    0  501  0.00000000000E+00  0.00000000000E+00 -0.21006089016E+04  0.21006089016E+04  0.25500000920E-02 0.  1.
    10030    2    1    2    0    0  0.00000000000E+00  0.00000000000E+00 -0.13016062883E+04  0.28996115150E+04  0.25910553851E+04 0.  0.
        3    1    3    3  502    0  0.55420811252E+03  0.97039062472E+03 -0.13842841713E+04  0.17790579737E+04  0.10100000352E+00 0.  1.
       -3    1    3    3    0  502 -0.55420811252E+03 -0.97039062472E+03  0.82677883042E+02  0.11205535414E+04  0.10100000352E+00 0. -1.
</event>
<event>
 5   0  0.1025153E-05  0.2600581E+04  0.7818609E-02  0.8368004E-01
       -1   -1    0    0    0  501  0.00000000000E+00  0.00000000000E+00  0.12477623277E+04  0.12477623277E+04  0.50400001928E-02 0.  1.
        1   -1    0    0  501    0  0.00000000000E+00  0.00000000000E+00 -0.13550298317E+04  0.13550298317E+04  0.50400001928E-02 0. -1.
    10030    2    1    2    0    0  0.00000000000E+00  0.00000000000E+00 -0.10726750402E+03  0.26027921594E+04  0.26005808405E+04 0.  0.
        1    1    3    3  502    0 -0.31887733583E+03 -0.55572108543E+03 -0.11860756508E+04  0.13480668119E+04  0.50400001928E-02 0. -1.
       -1    1    3    3    0  502  0.31887733583E+03  0.55572108543E+03  0.10788081467E+04  0.12547253475E+04  0.50400001928E-02 0.  1.
</event>
<event>
 5   0  0.2662024E-05  0.2256292E+04  0.7818609E-02  0.8495357E-01
       -2   -1    0    0    0  501  0.00000000000E+00  0.00000000000E+00  0.16791993964E+04  0.16791993964E+04  0.25500000920E-02 0. -1.
        2   -1    0    0  501    0  0.00000000000E+00  0.00000000000E+00 -0.75792873989E+03  0.75792873990E+03  0.25500000920E-02 0.  1.
    10030    2    1    2    0    0  0.00000000000E+00  0.00000000000E+00  0.92127065655E+03  0.24371281363E+04  0.22562920756E+04 0.  0.
        2    1    3    3  502    0  0.93552178903E+02 -0.31268958947E+03  0.16270879035E+04  0.16595004776E+04  0.25500000920E-02 0. -1.
       -2    1    3    3    0  502 -0.93552178903E+02  0.31268958947E+03 -0.70581724693E+03  0.77762765872E+03  0.25500000920E-02 0.  1.
</event>
<event>
 5   0  0.2528460E-05  0.2546815E+04  0.7818609E-02  0.8386495E-01
        2   -1    0    0  501    0  0.00000000000E+00  0.00000000000E+00  0.11043203920E+04  0.11043203920E+04  0.25500000920E-02 0.  1.
       -2   -1    0    0    0  501  0.00000000000E+00  0.00000000000E+00 -0.14683840738E+04  0.14683840738E+04  0.25500000920E-02 0. -1.
    10030    2    1    2    0    0  0.00000000000E+00  0.00000000000E+00 -0.36406368178E+03  0.25727044658E+04  0.25468148547E+04 0.  0.
        5    1    3    3  502    0 -0.10973749633E+04 -0.59945257458E+03  0.61183592805E+02  0.12519347911E+04  0.46999998093E+01 0.  1.
       -5    1    3    3    0  502  0.10973749633E+04  0.59945257458E+03 -0.42524727459E+03  0.13207696747E+04  0.46999998093E+01 0. -1.
</event>
<event>
 5   0  0.1025153E-05  0.2604995E+04  0.7818609E-02  0.8366506E-01
       -1   -1    0    0    0  501  0.00000000000E+00  0.00000000000E+00  0.19282523158E+04  0.19282523158E+04  0.50400001928E-02 0. -1.
        1   -1    0    0  501    0  0.00000000000E+00  0.00000000000E+00 -0.87981236312E+03  0.87981236314E+03  0.50400001928E-02 0.  1.
    10030    2    1    2    0    0  0.00000000000E+00  0.00000000000E+00  0.10484399527E+04  0.28080646790E+04  0.26049953756E+04 0.  0.
        1    1    3    3  502    0 -0.55426690316E+02 -0.72753380083E+03 -0.63883307454E+03  0.96978618597E+03  0.50400001928E-02 0.  1.
       -1    1    3    3    0  502  0.55426690316E+02  0.72753380083E+03  0.16872730272E+04  0.18382784930E+04  0.50400001928E-02 0. -1.
</event>
<event>
 5   0  0.1005492E-05  0.2622884E+04  0.7818609E-02  0.8360469E-01
       -1   -1    0    0    0  501  0.00000000000E+00  0.00000000000E+00  0.12405178717E+04  0.12405178717E+04  0.50400001928E-02 0.  1.
        1   -1    0    0  501    0  0.00000000000E+00  0.00000000000E+00 -0.13864208672E+04  0.13864208672E+04  0.50400001928E-02 0. -1.
    10030    2    1    2    0    0  0.00000000000E+00  0.00000000000E+00 -0.14590299545E+03  0.26269387389E+04  0.26228838049E+04 0.  0.
        4    1    3    3  502    0  0.51655624257E+03  0.10602085045E+04  0.50152555767E+03  0.12815622976E+04  0.12699999809E+01 0.  1.
       -4    1    3    3    0  502 -0.51655624257E+03 -0.10602085045E+04 -0.64742855312E+03  0.13453764414E+04  0.12699999809E+01 0. -1.
</event>
<event>
 5   0  0.1034714E-05  0.2465032E+04  0.7818609E-02  0.8415550E-01
        1   -1    0    0  501    0  0.00000000000E+00  0.00000000000E+00  0.11730807496E+04  0.11730807496E+04  0.50400001928E-02 0. -1.
       -1   -1    0    0    0  501  0.00000000000E+00  0.00000000000E+00 -0.12949624609E+04  0.12949624609E+04  0.50400001928E-02 0.  1.
    10030    2    1    2    0    0  0.00000000000E+00  0.00000000000E+00 -0.12188171129E+03  0.24680432104E+04  0.24650318734E+04 0.  0.
        5    1    3    3  502    0 -0.97505788875E+03  0.27090296991E+03 -0.76532509309E+03  0.12688068780E+04  0.46999998093E+01 0. -1.
       -5    1    3    3    0  502  0.97505788875E+03 -0.27090296991E+03  0.64344338180E+03  0.11992363325E+04  0.46999998093E+01 0.  1.
</event>
<event>
 5   0  0.8605000E-06  0.2600563E+04  0.7818609E-02  0.8368010E-01
        3   -1    0    0  501    0  0.00000000000E+00  0.00000000000E+00  0.17172226108E+04  0.17172226138E+04  0.10100000352E+00 0. -1.
       -3   -1    0    0    0  501  0.00000000000E+00  0.00000000000E+00 -0.98457374063E+03  0.98457374581E+03  0.10100000352E+00 0.  1.
    10030    2    1    2    0    0  0.00000000000E+00  0.00000000000E+00  0.73264887017E+03  0.27017963596E+04  0.26005632470E+04 0.  0.
        5    1    3    3  502    0  0.81419281847E+03 -0.10115495724E+04  0.29610856519E+03  0.13318576708E+04  0.46999998093E+01 0.  1.
       -5    1    3    3    0  502 -0.81419281847E+03  0.10115495724E+04  0.43654030498E+03  0.13699386887E+04  0.46999998093E+01 0. -1.
</event>
<event>
 5   0  0.8605000E-06  0.2614718E+04  0.7818609E-02  0.8363219E-01
       -3   -1    0    0    0  501  0.00000000000E+00  0.00000000000E+00  0.79689236539E+03  0.79689237179E+03  0.10100000352E+00 0.  1.
        3   -1    0    0  501    0  0.00000000000E+00  0.00000000000E+00 -0.21448157487E+04  0.21448157511E+04  0.10100000352E+00 0. -1.
    10030    2    1    2    0    0  0.00000000000E+00  0.00000000000E+00 -0.13479233833E+04  0.29417081229E+04  0.26147178113E+04 0.  0.
        4    1    3    3  502    0 -0.53539421778E+03 -0.10382607274E+04 -0.13343555373E+04  0.17734538672E+04  0.12699999809E+01 0. -1.
       -4    1    3    3    0  502  0.53539421778E+03  0.10382607274E+04 -0.13567846049E+02  0.11682542556E+04  0.12699999809E+01 0.  1.
</event>
<event>
 5   0  0.1000421E-05  0.2144487E+04  0.7818609E-02  0.8541896E-01
       -1   -1    0    0    0  501  0.00000000000E+00  0.00000000000E+00  0.70341920329E+03  0.70341920330E+03  0.50400001928E-02 0.  1.
        1   -1    0    0  501    0  0.00000000000E+00  0.00000000000E+00 -0.16344540911E+04  0.16344540912E+04  0.50400001928E-02 0. -1.
    10030    2    1    2    0    0  0.00000000000E+00  0.00000000000E+00 -0.93103488786E+03  0.23378732945E+04  0.21444872531E+04 0.  0.
        3    1    3    3  502    0 -0.21245783414E+02 -0.10621288058E+04 -0.62401526459E+03  0.12320568347E+04  0.10100000352E+00 0.  1.
       -3    1    3    3    0  502  0.21245783414E+02  0.10621288058E+04 -0.30701962327E+03  0.11058164597E+04  0.10100000352E+00 0. -1.
</event>
<event>
 5   0  0.2528460E-05  0.2499007E+04  0.7818609E-02  0.8403340E-01
        2   -1    0    0  501    0  0.00000000000E+00  0.00000000000E+00  0.13476259880E+04  0.13476259880E+04  0.25500000920E-02 0. -1.
       -2   -1    0    0    0  501  0.00000000000E+00  0.00000000000E+00 -0.11585250277E+04  0.11585250277E+04  0.25500000920E-02 0.  1.
    10030    2    1    2    0    0  0.00000000000E+00  0.00000000000E+00  0.18910096030E+03  0.25061510156E+04  0.24990065506E+04 0.  0.
        5    1    3    3  502    0  0.24828538663E+02 -0.41109269559E+03  0.12775936494E+04  0.13423417164E+04  0.46999998093E+01 0. -1.
       -5    1    3    3    0  502 -0.24828538663E+02  0.41109269559E+03 -0.10884926891E+04  0.11638092992E+04  0.46999998093E+01 0.  1.
</event>
<event>
 5   0  0.8605000E-06  0.2594382E+04  0.7818609E-02  0.8370112E-01
        3   -1    0    0  501    0  0.00000000000E+00  0.00000000000E+00  0.99006027011E+03  0.99006027526E+03  0.10100000352E+00 0. -1.
       -3   -1    0    0    0  501  0.00000000000E+00  0.00000000000E+00 -0.16995984622E+04  0.16995984652E+04  0.10100000352E+00 0.  1.
    10030    2    1    2    0    0  0.00000000000E+00  0.00000000000E+00 -0.70953819211E+03  0.26896587405E+04  0.25943823338E+04 0.  0.
        4    1    3    3  502    0  0.59658096067E+03  0.13026811792E+02  0.83932143240E+03  0.10298255290E+04  0.12699999809E+01 0. -1.
       -4    1    3    3    0  502 -0.59658096067E+03 -0.13026811792E+02 -0.15488596245E+04  0.16598332114E+04  0.12699999809E+01 0.  1.
</event>
<event>
 5   0  0.2528460E-05  0.2586622E+04  0.7818609E-02  0.8372760E-01
       -2   -1    0    0    0  501  0.00000000000E+00  0.00000000000E+00  0.68313268714E+03  0.68313268714E+03  0.25500000920E-02 0.  1.
        2   -1    0    0  501    0  0.00000000000E+00  0.00000000000E+00 -0.24485044034E+04  0.24485044034E+04  0.25500000920E-02 0. -1.
    10030    2    1    2    0    0  0.00000000000E+00  0.00000000000E+00 -0.17653717162E+04  0.31316370905E+04  0.25866220385E+04 0.  0.
        5    1    3    3  502    0 -0.69007516059E+03 -0.58196547822E+03  0.23860230513E+03  0.93372410010E+03  0.46999998093E+01 0.  1.
       -5    1    3    3    0  502  0.69007516059E+03  0.58196547822E+03 -0.20039740214E+04  0.21979129904E+04  0.46999998093E+01 0. -1.
</event>
<event>
 5   0  0.1005492E-05  0.2536373E+04  0.7818609E-02  0.8390141E-01
        1   -1    0    0  501    0  0.00000000000E+00  0.00000000000E+00  0.83337569907E+03  0.83337569909E+03  0.50400001928E-02 0. -1.
       -1   -1    0    0    0  501  0.00000000000E+00  0.00000000000E+00 -0.19298583828E+04  0.19298583828E+04  0.50400001928E-02 0.  1.
    10030    2    1    2    0    0  0.00000000000E+00  0.00000000000E+00 -0.10964826838E+04  0.27632340819E+04  0.25363730632E+04 0.  0.
        4    1    3    3  502    0 -0.39203355531E+03  0.17909769722E+03 -0.18476182228E+04  0.18972245528E+04  0.12699999809E+01 0.  1.
       -4    1    3    3    0  502  0.39203355531E+03 -0.17909769722E+03  0.75113553903E+03  0.86600952913E+03  0.12699999809E+01 0. -1.
</event>
<event>
 5   0  0.1034714E-05  0.2597849E+04  0.7818609E-02  0.8368932E-01
       -1   -1    0    0    0  501  0.00000000000E+00  0.00000000000E+00  0.11994109847E+04  0.11994109847E+04  0.50400001928E-02 0. -1.
        1   -1    0    0  501    0  0.00000000000E+00  0.00000000000E+00 -0.14066942665E+04  0.14066942665E+04  0.50400001928E-02 0.  1.
    10030    2    1    2    0    0  0.00000000000E+00  0.00000000000E+00 -0.20728328180E+03  0.26061052512E+04  0.25978487680E+04 0.  0.
        5    1    3    3  502    0 -0.81712425668E+03 -0.48976016246E+03 -0.98941186153E+03  0.13735046375E+04  0.46999998093E+01 0.  1.
       -5    1    3    3    0  502  0.81712425668E+03  0.48976016246E+03  0.78212857973E+03  0.12326006137E+04  0.46999998093E+01 0. -1.
</event>
<event>
 5   0  0.2484618E-05  0.2334010E+04  0.7818609E-02  0.8464631E-01
        2   -1    0    0  501    0  0.00000000000E+00  0.00000000000E+00  0.20832292081E+04  0.20832292081E+04  0.25500000920E-02 0. -1.
       -2   -1    0    0    0  501  0.00000000000E+00  0.00000000000E+00 -0.65374494716E+03  0.65374494717E+03  0.25500000920E-02 0.  1.
    10030    2    1    2    0    0  0.00000000000E+00  0.00000000000E+00  0.14294842610E+04  0.27369741553E+04  0.23340099131E+04 0.  0.
        3    1    3    3  502    0 -0.21603534389E+03 -0.26987154386E+03 -0.59232677638E+03  0.68582281984E+03  0.10100000352E+00 0.  1.
       -3    1    3    3    0  502  0.21603534389E+03  0.26987154386E+03  0.20218110374E+04  0.20511513355E+04  0.10100000352E+00 0. -1.
</event>
<event>
 5   0  0.2528460E-05  0.2669937E+04  0.7818609E-02  0.8344826E-01
        2   -1    0    0  501    0  0.00000000000E+00  0.00000000000E+00  0.12275512952E+04  0.12275512952E+04  0.25500000920E-02 0.  1.
       -2   -1    0    0    0  501  0.00000000000E+00  0.00000000000E+00 -0.14517850281E+04  0.14517850281E+04  0.25500000920E-02 0. -1.
    10030    2    1    2    0    0  0.00000000000E+00  0.00000000000E+00 -0.22423373293E+03  0.26793363233E+04  0.26699367720E+04 0.  0.
        5    1    3    3  502    0 -0.67462595008E+02  0.12169898745E+04  0.43432096718E+03  0.12939367639E+04  0.46999998093E+01 0.  1.
       -5    1    3    3    0  502  0.67462595008E+02 -0.12169898745E+04 -0.65855470011E+03  0.13853995595E+04  0.46999998093E+01 0. -1.
</event>
<event>
 5   0  0.8605000E-06  0.2687823E+04  0.7818609E-02  0.8338967E-01
        3   -1    0    0  501    0  0.00000000000E+00  0.00000000000E+00  0.10540703641E+04  0.10540703690E+04  0.10100000352E+00 0.  1.
       -3   -1    0    0    0  501  0.00000000000E+00  0.00000000000E+00 -0.17134511610E+04  0.17134511639E+04  0.10100000352E+00 0. -1.
    10030    2    1    2    0    0  0.00000000000E+00  0.00000000000E+00 -0.65938079684E+03  0.27675215329E+04  0.26878229852E+04 0.  0.
        1    1    3    3  502    0  0.62169288127E+02  0.51973728759E+03 -0.16041755632E+04  0.16874155108E+04  0.50400001928E-02 0. -1.
       -1    1    3    3    0  502 -0.62169288127E+02 -0.51973728759E+03  0.94479476634E+03  0.10801060221E+04  0.50400001928E-02 0.  1.
</event>
<event>
 5   0  0.2517854E-05  0.2585259E+04  0.7818609E-02  0.8373226E-01
        2   -1    0    0  501    0  0.00000000000E+00  0.00000000000E+00  0.89117038457E+03  0.89117038457E+03  0.25500000920E-02 0.  1.
       -2   -1    0    0    0  501  0.00000000000E+00  0.00000000000E+00 -0.18749393035E+04  0.18749393035E+04  0.25500000920E-02 0. -1.
    10030    2    1    2    0    0  0.00000000000E+00  0.00000000000E+00 -0.98376891890E+03  0.27661096880E+04  0.25852585017E+04 0.  0.
        4    1    3    3  502    0  0.84625012478E+03  0.97370280630E+03 -0.57915197137E+03  0.14140915980E+04  0.12699999809E+01 0. -1.
       -4    1    3    3    0  502 -0.84625012478E+03 -0.97370280630E+03 -0.40461694753E+03  0.13520180900E+04  0.12699999809E+01 0.  1.
</event>
<event>
 5   0  0.1025153E-05  0.2583736E+04  0.7818609E-02  0.8373747E-01
        1   -1    0    0  501    0  0.00000000000E+00  0.00000000000E+00  0.18207530767E+04  0.18207530767E+04  0.50400001928E-02 0. -1.
       -1   -1    0    0    0  501  0.00000000000E+00  0.00000000000E+00 -0.91661163846E+03  0.91661163847E+03  0.50400001928E-02 0.  1.
    10030    2    1    2    0    0  0.00000000000E+00  0.00000000000E+00  0.90414143828E+03  0.27373647152E+04  0.25837364114E+04 0.  0.
        1    1    3    3  502    0  0.80343891893E+03 -0.79175613868E+03 -0.21507906566E+03  0.11483252519E+04  0.50400001928E-02 0. -1.
       -1    1    3    3    0  502 -0.80343891893E+03  0.79175613868E+03  0.11192205039E+04  0.15890394633E+04  0.50400001928E-02 0.  1.
</event>
<event>
 5   0  0.1005492E-05  0.2634272E+04  0.7818609E-02  0.8356652E-01
       -1   -1    0    0    0  501  0.00000000000E+00  0.00000000000E+00  0.12098934604E+04  0.12098934604E+04  0.50400001928E-02 0.  1.
        1   -1    0    0  501    0  0.00000000000E+00  0.00000000000E+00 -0.14338842441E+04  0.14338842441E+04  0.50400001928E-02 0. -1.
    10030    2    1    2    0    0  0.00000000000E+00  0.00000000000E+00 -0.22399078370E+03  0.26437777045E+04  0.26342719449E+04 0.  0.
        4    1    3    3  502    0 -0.31000176286E+03 -0.81408328310E+03  0.87950320021E+03  0.12378853650E+04  0.12699999809E+01 0.  1.
       -4    1    3    3    0  502  0.31000176286E+03  0.81408328310E+03 -0.11034939839E+04  0.14058923395E+04  0.12699999809E+01 0. -1.
</event>
<event>
 5   0  0.1005492E-05  0.2640931E+04  0.7818609E-02  0.8354429E-01
        1   -1    0    0  501    0  0.00000000000E+00  0.00000000000E+00  0.15175666028E+04  0.15175666028E+04  0.50400001928E-02 0. -1.
       -1   -1    0    0    0  501  0.00000000000E+00  0.00000000000E+00 -0.11489640593E+04  0.11489640593E+04  0.50400001928E-02 0.  1.
    10030    2    1    2    0    0  0.00000000000E+00  0.00000000000E+00  0.36860254342E+03  0.26665306621E+04  0.26409312632E+04 0.  0.
        4    1    3    3  502    0  0.37075523674E+03 -0.96981910909E+03 -0.63946203719E+03  0.12193940544E+04  0.12699999809E+01 0.  1.
       -4    1    3    3    0  502 -0.37075523674E+03  0.96981910909E+03  0.10080645806E+04  0.14471366078E+04  0.12699999809E+01 0. -1.
</event>
<event>
 5   0  0.1005492E-05  0.1995825E+04  0.7818609E-02  0.8608575E-01
       -1   -1    0    0    0  501  0.00000000000E+00  0.00000000000E+00  0.66377517843E+03  0.66377517845E+03  0.50400001928E-02 0. -1.
        1   -1    0    0  501    0  0.00000000000E+00  0.00000000000E+00 -0.15002513231E+04  0.15002513231E+04  0.50400001928E-02 0.  1.
    10030    2    1    2    0    0  0.00000000000E+00  0.00000000000E+00 -0.83647614471E+03  0.21640265016E+04  0.19958252326E+04 0.  0.
        4    1    3    3  502    0 -0.24763375874E+03 -0.48803046610E+03 -0.13230288574E+04  0.14317482966E+04  0.12699999809E+01 0.  1.
       -4    1    3    3    0  502  0.24763375874E+03  0.48803046610E+03  0.48655271274E+03  0.73227820498E+03  0.12699999809E+01 0. -1.
</event>
<event>
 5   0  0.1025153E-05  0.2599915E+04  0.7818609E-02  0.8368230E-01
       -1   -1    0    0    0  501  0.00000000000E+00  0.00000000000E+00  0.14154183500E+04  0.14154183500E+04  0.50400001928E-02 0.  1.
        1   -1    0    0  501    0  0.00000000000E+00  0.00000000000E+00 -0.11939151203E+04  0.11939151203E+04  0.50400001928E-02 0. -1.
    10030    2    1    2    0    0  0.00000000000E+00  0.00000000000E+00  0.22150322972E+03  0.26093334703E+04  0.25999148983E+04 0.  0.
        1    1    3    3  502    0  0.49636581456E+03 -0.12014381448E+04  0.10319227522E+03  0.13040250318E+04  0.50400001928E-02 0.  1.
       -1    1    3    3    0  502 -0.49636581456E+03  0.12014381448E+04  0.11831095450E+03  0.13053084385E+04  0.50400001928E-02 0. -1.
</event>
<event>
 5   0  0.1034714E-05  0.2470289E+04  0.7818609E-02  0.8413647E-01
        1   -1    0    0  501    0  0.00000000000E+00  0.00000000000E+00  0.17085447689E+04  0.17085447689E+04  0.50400001928E-02 0. -1.
       -1   -1    0    0    0  501  0.00000000000E+00  0.00000000000E+00 -0.89291303392E+03  0.89291303394E+03  0.50400001928E-02 0.  1.
    10030    2    1    2    0    0  0.00000000000E+00  0.00000000000E+00  0.81563173494E+03  0.26014578028E+04  0.24702889654E+04 0.  0.
        5    1    3    3  502    0  0.88856181390E+03 -0.76697678928E+03  0.30034707970E+01  0.11738085888E+04  0.46999998093E+01 0.  1.
       -5    1    3    3    0  502 -0.88856181390E+03  0.76697678928E+03  0.81262826414E+03  0.14276492140E+04  0.46999998093E+01 0. -1.
</event>
<event>
 5   0  0.2517854E-05  0.2584512E+04  0.7818609E-02  0.8373481E-01
        2   -1    0    0  501    0  0.00000000000E+00  0.00000000000E+00  0.23773853222E+04  0.23773853222E+04  0.25500000920E-02 0.  1.
       -2   -1    0    0    0  501  0.00000000000E+00  0.00000000000E+00 -0.70242127697E+03  0.70242127697E+03  0.25500000920E-02 0. -1.
    10030    2    1    2    0    0  0.00000000000E+00  0.00000000000E+00  0.16749640452E+04  0.30798065992E+04  0.25845123593E+04 0.  0.
        4    1    3    3  502    0  0.10571006477E+04 -0.69557208641E+03  0.52527680439E+03  0.13701093536E+04  0.12699999809E+01 0. -1.
       -4    1    3    3    0  502 -0.10571006477E+04  0.69557208641E+03  0.11496872408E+04  0.17096972455E+04  0.12699999809E+01 0.  1.
</event>
<event>
 5   0  0.1034714E-05  0.2571654E+04  0.7818609E-02  0.8377894E-01
       -1   -1    0    0    0  501  0.00000000000E+00  0.00000000000E+00  0.11267412299E+04  0.11267412299E+04  0.50400001928E-02 0. -1.
        1   -1    0    0  501    0  0.00000000000E+00  0.00000000000E+00 -0.14673744554E+04  0.14673744554E+04  0.50400001928E-02 0.  1.
    10030    2    1    2    0    0  0.00000000000E+00  0.00000000000E+00 -0.34063322552E+03  0.25941156853E+04  0.25716541747E+04 0.  0.
        5    1    3    3  502    0  0.34002338740E+03 -0.55628123486E+03 -0.12882674927E+04  0.14438559274E+04  0.46999998093E+01 0.  1.
       -5    1    3    3    0  502 -0.34002338740E+03  0.55628123486E+03  0.94763426721E+03  0.11502597579E+04  0.46999998093E+01 0. -1.
</event>
<event>
 5   0  0.2517854E-05  0.2613269E+04  0.7818609E-02  0.8363708E-01
       -2   -1    0    0    0  501  0.00000000000E+00  0.00000000000E+00  0.95621811094E+03  0.95621811095E+03  0.25500000920E-02 0.  1.
        2   -1    0    0  501    0  0.00000000000E+00  0.00000000000E+00 -0.17854643216E+04  0.17854643216E+04  0.25500000920E-02 0. -1.
    10030    2    1    2    0    0  0.00000000000E+00  0.00000000000E+00 -0.82924621069E+03  0.27416824326E+04  0.26132686971E+04 0.  0.
        4    1    3    3  502    0 -0.10627245851E+04  0.75595941359E+03 -0.49877380228E+03  0.13962933422E+04  0.12699999809E+01 0. -1.
       -4    1    3    3    0  502  0.10627245851E+04 -0.75595941359E+03 -0.33047240842E+03  0.13453890904E+04  0.12699999809E+01 0.  1.
</event>
<event>
 5   0  0.1025153E-05  0.2317043E+04  0.7818609E-02  0.8471232E-01
        1   -1    0    0  501    0  0.00000000000E+00  0.00000000000E+00  0.99035616932E+03  0.99035616933E+03  0.50400001928E-02 0. -1.
       -1   -1    0    0    0  501  0.00000000000E+00  0.00000000000E+00 -0.13552414848E+04  0.13552414848E+04  0.50400001928E-02 0.  1.
    10030    2    1    2    0    0  0.00000000000E+00  0.00000000000E+00 -0.36488531545E+03  0.23455976541E+04  0.23170427405E+04 0.  0.
        1    1    3    3  502    0  0.79805859325E+03  0.52514468662E+03 -0.84587966808E+03  0.12760042606E+04  0.50400001928E-02 0.  1.
       -1    1    3    3    0  502 -0.79805859325E+03 -0.52514468662E+03  0.48099435263E+03  0.10695933935E+04  0.50400001928E-02 0. -1.
</event>
<event>
 5   0  0.2555801E-05  0.2690437E+04  0.7818609E-02  0.8338115E-01
        2   -1    0    0  501    0  0.00000000000E+00  0.00000000000E+00  0.17075775645E+04  0.17075775645E+04  0.25500000920E-02 0. -1.
       -2   -1    0    0    0  501  0.00000000000E+00  0.00000000000E+00 -0.10597542546E+04  0.10597542546E+04  0.25500000920E-02 0.  1.
    10030    2    1    2    0    0  0.00000000000E+00  0.00000000000E+00  0.64782330982E+03  0.27673318191E+04  0.26904368337E+04 0.  0.
        1    1    3    3  502    0  0.69953107762E+03 -0.10628735113E+04 -0.12510690236E+03  0.12785521368E+04  0.50400001928E-02 0.  1.
       -1    1    3    3    0  502 -0.69953107762E+03  0.10628735113E+04  0.77293021218E+03  0.14887796823E+04  0.50400001928E-02 0. -1.
</event>
<event>
 5   0  0.1000421E-05  0.2562706E+04  0.7818609E-02  0.8380981E-01
       -1   -1    0    0    0  501  0.00000000000E+00  0.00000000000E+00  0.15280630581E+04  0.15280630581E+04  0.50400001928E-02 0. -1.
        1   -1    0    0  501    0  0.00000000000E+00  0.00000000000E+00 -0.10744748966E+04  0.10744748966E+04  0.50400001928E-02 0.  1.
    10030    2    1    2    0    0  0.00000000000E+00  0.00000000000E+00  0.45358816155E+03  0.26025379547E+04  0.25627059108E+04 0.  0.
        3    1    3    3  502    0 -0.30588495569E+03 -0.77733096703E+03  0.12135216433E+04  0.14732426234E+04  0.10100000352E+00 0. -1.
       -3    1    3    3    0  502  0.30588495569E+03  0.77733096703E+03 -0.75993348177E+03  0.11292953313E+04  0.10100000352E+00 0.  1.
</event>
<event>
 5   0  0.2662024E-05  0.2562103E+04  0.7818609E-02  0.8381189E-01
       -2   -1    0    0    0  501  0.00000000000E+00  0.00000000000E+00  0.93860472642E+03  0.93860472643E+03  0.25500000920E-02 0.  1.
        2   -1    0    0  501    0  0.00000000000E+00  0.00000000000E+00 -0.17484386272E+04  0.17484386272E+04  0.25500000920E-02 0. -1.
    10030    2    1    2    0    0  0.00000000000E+00  0.00000000000E+00 -0.80983390074E+03  0.26870433536E+04  0.25621028546E+04 0.  0.
        2    1    3    3  502    0 -0.47299856506E+03 -0.10259267967E+04 -0.10383911548E+04  0.15344411442E+04  0.25500000920E-02 0. -1.
       -2    1    3    3    0  502  0.47299856506E+03  0.10259267967E+04  0.22855725409E+03  0.11526022094E+04  0.25500000920E-02 0.  1.
</event>
<event>
 5   0  0.1025153E-05  0.2610493E+04  0.7818609E-02  0.8364646E-01
       -1   -1    0    0    0  501  0.00000000000E+00  0.00000000000E+00  0.11906615034E+04  0.11906615034E+04  0.50400001928E-02 0.  1.
        1   -1    0    0  501    0  0.00000000000E+00  0.00000000000E+00 -0.14308591659E+04  0.14308591659E+04  0.50400001928E-02 0. -1.
    10030    2    1    2    0    0  0.00000000000E+00  0.00000000000E+00 -0.24019766256E+03  0.26215206693E+04  0.26104933830E+04 0.  0.
        1    1    3    3  502    0 -0.14370774457E+03  0.68739823845E+03  0.98477632133E+03  0.12095257985E+04  0.50400001928E-02 0.  1.
       -1    1    3    3    0  502  0.14370774457E+03 -0.68739823845E+03 -0.12249739839E+04  0.14119948708E+04  0.50400001928E-02 0. -1.
</event>
<event>
 5   0  0.1000421E-05  0.2508294E+04  0.7818609E-02  0.8400037E-01
        1   -1    0    0  501    0  0.00000000000E+00  0.00000000000E+00  0.17203340950E+04  0.17203340950E+04  0.50400001928E-02 0. -1.
       -1   -1    0    0    0  501  0.00000000000E+00  0.00000000000E+00 -0.91429058864E+03  0.91429058865E+03  0.50400001928E-02 0.  1.
    10030    2    1    2    0    0  0.00000000000E+00  0.00000000000E+00  0.80604350637E+03  0.26346246837E+04  0.25082944583E+04 0.  0.
        3    1    3    3  502    0  0.64032963949E+03  0.96735975021E+03  0.90354941315E+03  0.14704449958E+04  0.10100000352E+00 0. -1.
       -3    1    3    3    0  502 -0.64032963949E+03 -0.96735975021E+03 -0.97505906781E+02  0.11641796878E+04  0.10100000352E+00 0.  1.
</event>
<event>
 5   0  0.1025153E-05  0.2348267E+04  0.7818609E-02  0.8459130E-01
       -1   -1    0    0    0  501  0.00000000000E+00  0.00000000000E+00  0.15882144345E+04  0.15882144345E+04  0.50400001928E-02 0. -1.
        1   -1    0    0  501    0  0.00000000000E+00  0.00000000000E+00 -0.86801203220E+03  0.86801203221E+03  0.50400001928E-02 0.  1.
    10030    2    1    2    0    0  0.00000000000E+00  0.00000000000E+00  0.72020240234E+03  0.24562264668E+04  0.23482667982E+04 0.  0.
        1    1    3    3  502    0 -0.40976597925E+03  0.10570128080E+04  0.40428137775E+02  0.11343803014E+04  0.50400001928E-02 0. -1.
       -1    1    3    3    0  502  0.40976597925E+03 -0.10570128080E+04  0.67977426456E+03  0.13218461653E+04  0.50400001928E-02 0.  1.
</event>
<event>
 5   0  0.2528460E-05  0.2577419E+04  0.7818609E-02  0.8375912E-01
       -2   -1    0    0    0  501  0.00000000000E+00  0.00000000000E+00  0.92528546087E+03  0.92528546088E+03  0.25500000920E-02 0.  1.
        2   -1    0    0  501    0  0.00000000000E+00  0.00000000000E+00 -0.17948756608E+04  0.17948756608E+04  0.25500000920E-02 0. -1.
    10030    2    1    2    0    0  0.00000000000E+00  0.00000000000E+00 -0.86959019990E+03  0.27201611216E+04  0.25774191378E+04 0.  0.
        5    1    3    3  502    0 -0.10953948356E+04  0.31246665685E+03 -0.10708541696E+04  0.15634180503E+04  0.46999998093E+01 0. -1.
       -5    1    3    3    0  502  0.10953948356E+04 -0.31246665685E+03  0.20126396971E+03  0.11567430713E+04  0.46999998093E+01 0.  1.
</event>
<event>
 5   0  0.2484618E-05  0.2554733E+04  0.7818609E-02  0.8383742E-01
       -2   -1    0    0    0  501  0.00000000000E+00  0.00000000000E+00  0.90186591991E+03  0.90186591991E+03  0.25500000920E-02 0.  1.
        2   -1    0    0  501    0  0.00000000000E+00  0.00000000000E+00 -0.18092096842E+04  0.18092096842E+04  0.25500000920E-02 0. -1.
    10030    2    1    2    0    0  0.00000000000E+00  0.00000000000E+00 -0.90734376425E+03  0.27110756041E+04  0.25547325153E+04 0.  0.
        3    1    3    3  502    0  0.40142658521E+03 -0.78377287873E+03 -0.14356215138E+04  0.16841770601E+04  0.10100000352E+00 0. -1.
       -3    1    3    3    0  502 -0.40142658521E+03  0.78377287873E+03  0.52827774954E+03  0.10268985440E+04  0.10100000352E+00 0.  1.
</event>
<event>
 5   0  0.2555801E-05  0.2626739E+04  0.7818609E-02  0.8359175E-01
        2   -1    0    0  501    0  0.00000000000E+00  0.00000000000E+00  0.16979909155E+04  0.16979909155E+04  0.25500000920E-02 0.  1.
       -2   -1    0    0    0  501  0.00000000000E+00  0.00000000000E+00 -0.10158710028E+04  0.10158710028E+04  0.25500000920E-02 0. -1.
    10030    2    1    2    0    0  0.00000000000E+00  0.00000000000E+00  0.68211991269E+03  0.27138619183E+04  0.26267392212E+04 0.  0.
        1    1    3    3  502    0 -0.70573147606E+03  0.95628499991E+03  0.91852747818E+03  0.15020754460E+04  0.50400001928E-02 0.  1.
       -1    1    3    3    0  502  0.70573147606E+03 -0.95628499991E+03 -0.23640756549E+03  0.12117864723E+04  0.50400001928E-02 0. -1.
</event>
<event>
 5   0  0.9855352E-06  0.2451318E+04  0.7818609E-02  0.8420537E-01
        1   -1    0    0  501    0  0.00000000000E+00  0.00000000000E+00  0.15290150295E+04  0.15290150295E+04  0.50400001928E-02 0.  1.
       -1   -1    0    0    0  501  0.00000000000E+00  0.00000000000E+00 -0.98248832264E+03  0.98248832266E+03  0.50400001928E-02 0. -1.
    10030    2    1    2    0    0  0.00000000000E+00  0.00000000000E+00  0.54652670688E+03  0.25115033522E+04  0.24513175328E+04 0.  0.
        2    1    3    3  502    0 -0.77256571729E+03  0.76478623743E+03  0.85327554156E+03  0.13819677733E+04  0.25500000920E-02 0.  1.
       -2    1    3    3    0  502  0.77256571729E+03 -0.76478623743E+03 -0.30674883468E+03  0.11295355789E+04  0.25500000920E-02 0. -1.
</event>
<event>
 5   0  0.1025153E-05  0.2550246E+04  0.7818609E-02  0.8385301E-01
       -1   -1    0    0    0  501  0.00000000000E+00  0.00000000000E+00  0.83210761817E+03  0.83210761818E+03  0.50400001928E-02 0.  1.
        1   -1    0    0  501    0  0.00000000000E+00  0.00000000000E+00 -0.19540009490E+04  0.19540009490E+04  0.50400001928E-02 0. -1.
    10030    2    1    2    0    0  0.00000000000E+00  0.00000000000E+00 -0.11218933308E+04  0.27861085672E+04  0.25502463219E+04 0.  0.
        1    1    3    3  502    0 -0.12289548224E+04  0.30047425213E+03 -0.38709253740E+03  0.13230477558E+04  0.50400001928E-02 0. -1.
       -1    1    3    3    0  502  0.12289548224E+04 -0.30047425213E+03 -0.73480079345E+03  0.14630608114E+04  0.50400001928E-02 0.  1.
</event>
<event>
 5   0  0.2528460E-05  0.2602022E+04  0.7818609E-02  0.8367515E-01
        2   -1    0    0  501    0  0.00000000000E+00  0.00000000000E+00  0.25496254273E+04  0.25496254273E+04  0.25500000920E-02 0.  1.
       -2   -1    0    0    0  501  0.00000000000E+00  0.00000000000E+00 -0.66387364757E+03  0.66387364758E+03  0.25500000920E-02 0. -1.
    10030    2    1    2    0    0  0.00000000000E+00  0.00000000000E+00  0.18857517797E+04  0.32134990749E+04  0.26020216236E+04 0.  0.
        5    1    3    3  502    0 -0.32276363801E+03  0.12450711986E+04  0.70140751227E+03  0.14650505943E+04  0.46999998093E+01 0. -1.
       -5    1    3    3    0  502  0.32276363801E+03 -0.12450711986E+04  0.11843442675E+04  0.17484484806E+04  0.46999998093E+01 0.  1.
</event>
<event>
 5   0  0.1000421E-05  0.2314683E+04  0.7818609E-02  0.8472154E-01
       -1   -1    0    0    0  501  0.00000000000E+00  0.00000000000E+00  0.51561054416E+03  0.51561054418E+03  0.50400001928E-02 0. -1.
        1   -1    0    0  501    0  0.00000000000E+00  0.00000000000E+00 -0.25977729404E+04  0.25977729404E+04  0.50400001928E-02 0.  1.
    10030    2    1    2    0    0  0.00000000000E+00  0.00000000000E+00 -0.20821623962E+04  0.31133834845E+04  0.23146828028E+04 0.  0.
        3    1    3    3  502    0 -0.81365334166E+03  0.46916703689E+03 -0.19506526346E+04  0.21649931132E+04  0.10100000352E+00 0.  1.
       -3    1    3    3    0  502  0.81365334166E+03 -0.46916703689E+03 -0.13150976156E+03  0.94839037136E+03  0.10100000352E+00 0. -1.
</event>
<event>
 5   0  0.1005492E-05  0.2597988E+04  0.7818609E-02  0.8368885E-01
       -1   -1    0    0    0  501  0.00000000000E+00  0.00000000000E+00  0.99867102739E+03  0.99867102740E+03  0.50400001928E-02 0.  1.
        1   -1    0    0  501    0  0.00000000000E+00  0.00000000000E+00 -0.16896314818E+04  0.16896314818E+04  0.50400001928E-02 0. -1.
    10030    2    1    2    0    0  0.00000000000E+00  0.00000000000E+00 -0.69096045441E+03  0.26883025092E+04  0.25979884587E+04 0.  0.
        4    1    3    3  502    0 -0.18855769623E+02 -0.96986404348E+03 -0.12394535933E+04  0.15739245934E+04  0.12699999809E+01 0. -1.
       -4    1    3    3    0  502  0.18855769623E+02  0.96986404348E+03  0.54849313890E+03  0.11143779158E+04  0.12699999809E+01 0.  1.
</event>
<event>
 5   0  0.2528460E-05  0.1922064E+04  0.7818609E-02  0.8643951E-01
        2   -1    0    0  501    0  0.00000000000E+00  0.00000000000E+00  0.17307965775E+04  0.17307965775E+04  0.25500000920E-02 0.  1.
       -2   -1    0    0    0  501  0.00000000000E+00  0.00000000000E+00 -0.53361691987E+03  0.53361691987E+03  0.25500000920E-02 0. -1.
    10030    2    1    2    0    0  0.00000000000E+00  0.00000000000E+00  0.11971796576E+04  0.22644134973E+04  0.19220638268E+04 0.  0.
        5    1    3    3  502    0  0.19375886705E+03  0.80111891551E+03  0.11808057604E+04  0.14400202600E+04  0.46999998093E+01 0.  1.
       -5    1    3    3    0  502 -0.19375886705E+03 -0.80111891551E+03  0.16373897225E+02  0.82439323739E+03  0.46999998093E+01 0. -1.
</event>
<event>
 5   0  0.1034714E-05  0.2660844E+04  0.7818609E-02  0.8347823E-01
       -1   -1    0    0    0  501  0.00000000000E+00  0.00000000000E+00  0.80111177445E+03  0.80111177446E+03  0.50400001928E-02 0. -1.
        1   -1    0    0  501    0  0.00000000000E+00  0.00000000000E+00 -0.22094581848E+04  0.22094581848E+04  0.50400001928E-02 0.  1.
    10030    2    1    2    0    0  0.00000000000E+00  0.00000000000E+00 -0.14083464103E+04  0.30105699592E+04  0.26608442021E+04 0.  0.
        5    1    3    3  502    0 -0.66804550803E+03 -0.30565843549E+03 -0.19591417693E+04  0.20923600173E+04  0.46999998093E+01 0.  1.
       -5    1    3    3    0  502  0.66804550803E+03  0.30565843549E+03  0.55079535895E+03  0.91820994191E+03  0.46999998093E+01 0. -1.
</event>
<event>
 5   0  0.2528460E-05  0.2593002E+04  0.7818609E-02  0.8370582E-01
        2   -1    0    0  501    0  0.00000000000E+00  0.00000000000E+00  0.16035592442E+04  0.16035592442E+04  0.25500000920E-02 0. -1.
       -2   -1    0    0    0  501  0.00000000000E+00  0.00000000000E+00 -0.10482400274E+04  0.10482400274E+04  0.25500000920E-02 0.  1.
    10030    2    1    2    0    0  0.00000000000E+00  0.00000000000E+00  0.55531921679E+03  0.26517992716E+04  0.25930021104E+04 0.  0.
        5    1    3    3  502    0 -0.48043133164E+03  0.54021973111E+03 -0.82296012513E+03  0.10954163956E+04  0.46999998093E+01 0.  1.
       -5    1    3    3    0  502  0.48043133164E+03 -0.54021973111E+03  0.13782793419E+04  0.15563828760E+04  0.46999998093E+01 0. -1.
</event>
<event>
 5   0  0.2517854E-05  0.2582303E+04  0.7818609E-02  0.8374237E-01
       -2   -1    0    0    0  501  0.00000000000E+00  0.00000000000E+00  0.18521045740E+04  0.18521045740E+04  0.25500000920E-02 0. -1.
        2   -1    0    0  501    0  0.00000000000E+00  0.00000000000E+00 -0.90009606365E+03  0.90009606365E+03  0.25500000920E-02 0.  1.
    10030    2    1    2    0    0  0.00000000000E+00  0.00000000000E+00  0.95200851036E+03  0.27522006377E+04  0.25823028765E+04 0.  0.
        4    1    3    3  502    0  0.80593422468E+03  0.19035536234E+03 -0.57977951367E+03  0.10108961548E+04  0.12699999809E+01 0.  1.
       -4    1    3    3    0  502 -0.80593422468E+03 -0.19035536234E+03  0.15317880240E+04  0.17413044828E+04  0.12699999809E+01 0. -1.
</event>
<event>
 5   0  0.2555801E-05  0.2584519E+04  0.7818609E-02  0.8373479E-01
       -2   -1    0    0    0  501  0.00000000000E+00  0.00000000000E+00  0.10951321878E+04  0.10951321878E+04  0.25500000920E-02 0. -1.
        2   -1    0    0  501    0  0.00000000000E+00  0.00000000000E+00 -0.15248708720E+04  0.15248708720E+04  0.25500000920E-02 0.  1.
    10030    2    1    2    0    0  0.00000000000E+00  0.00000000000E+00 -0.42973868421E+03  0.26200030598E+04  0.25845194325E+04 0.  0.
        1    1    3    3  502    0  0.24313118240E+02  0.12112607864E+04  0.24096105904E+03  0.12352352215E+04  0.50400001928E-02 0.  1.
       -1    1    3    3    0  502 -0.24313118240E+02 -0.12112607864E+04 -0.67069974325E+03  0.13847678383E+04  0.50400001928E-02 0. -1.
</event>
<event>
 5   0  0.2555801E-05  0.2685005E+04  0.7818609E-02  0.8339887E-01
       -2   -1    0    0    0  501  0.00000000000E+00  0.00000000000E+00  0.81425651222E+03  0.81425651223E+03  0.25500000920E-02 0.  1.
        2   -1    0    0  501    0  0.00000000000E+00  0.00000000000E+00 -0.22134463997E+04  0.22134463997E+04  0.25500000920E-02 0. -1.
    10030    2    1    2    0    0  0.00000000000E+00  0.00000000000E+00 -0.13991898875E+04  0.30277029120E+04  0.26850051363E+04 0.  0.
        1    1    3    3  502    0 -0.26891477968E+03 -0.11921694605E+03  0.77747006475E+03  0.83125660332E+03  0.50400001928E-02 0.  1.
       -1    1    3    3    0  502  0.26891477968E+03  0.11921694605E+03 -0.21766599523E+04  0.21964463087E+04  0.50400001928E-02 0. -1.
</event>
<event>
 5   0  0.9855352E-06  0.2584184E+04  0.7818609E-02  0.8373594E-01
        1   -1    0    0  501    0  0.00000000000E+00  0.00000000000E+00  0.16900662876E+04  0.16900662876E+04  0.50400001928E-02 0.  1.
       -1   -1    0    0    0  501  0.00000000000E+00  0.00000000000E+00 -0.98783178416E+03  0.98783178417E+03  0.50400001928E-02 0. -1.
    10030    2    1    2    0    0  0.00000000000E+00  0.00000000000E+00  0.70223450342E+03  0.26778980718E+04  0.25841835819E+04 0.  0.
        2    1    3    3  502    0  0.13484299297E+03 -0.10740823669E+04 -0.37991999478E+03  0.11472466021E+04  0.25500000920E-02 0. -1.
       -2    1    3    3    0  502 -0.13484299297E+03  0.10740823669E+04  0.10821544982E+04  0.15306514697E+04  0.25500000920E-02 0.  1.
</event>
<event>
 5   0  0.2555801E-05  0.2566283E+04  0.7818609E-02  0.8379745E-01
       -2   -1    0    0    0  501  0.00000000000E+00  0.00000000000E+00  0.86562183369E+03  0.86562183369E+03  0.25500000920E-02 0. -1.
        2   -1    0    0  501    0  0.00000000000E+00  0.00000000000E+00 -0.19020461280E+04  0.19020461280E+04  0.25500000920E-02 0.  1.
    10030    2    1    2    0    0  0.00000000000E+00  0.00000000000E+00 -0.10364242943E+04  0.27676679617E+04  0.25662834271E+04 0.  0.
        1    1    3    3  502    0  0.13570484517E+03  0.10758856177E+04  0.22155051395E+03  0.11068108680E+04  0.50400001928E-02 0. -1.
       -1    1    3    3    0  502 -0.13570484517E+03 -0.10758856177E+04 -0.12579748083E+04  0.16608570937E+04  0.50400001928E-02 0.  1.
</event>
<event>
 5   0  0.1034714E-05  0.2542891E+04  0.7818609E-02  0.8387863E-01
       -1   -1    0    0    0  501  0.00000000000E+00  0.00000000000E+00  0.17010301792E+04  0.17010301792E+04  0.50400001928E-02 0.  1.
        1   -1    0    0  501    0  0.00000000000E+00  0.00000000000E+00 -0.95035011413E+03  0.95035011414E+03  0.50400001928E-02 0. -1.
    10030    2    1    2    0    0  0.00000000000E+00  0.00000000000E+00  0.75068006508E+03  0.26513802934E+04  0.25428914448E+04 0.  0.
        5    1    3    3  502    0 -0.11971761724E+04  0.39926956887E+03  0.53654930514E+03  0.13713330096E+04  0.46999998093E+01 0.  1.
       -5    1    3    3    0  502  0.11971761724E+04 -0.39926956887E+03  0.21413075994E+03  0.12800472838E+04  0.46999998093E+01 0. -1.
</event>
<event>
 5   0  0.1000421E-05  0.2201319E+04  0.7818609E-02  0.8517879E-01
       -1   -1    0    0    0  501  0.00000000000E+00  0.00000000000E+00  0.13517674433E+04  0.13517674433E+04  0.50400001928E-02 0.  1.
        1   -1    0    0  501    0  0.00000000000E+00  0.00000000000E+00 -0.89619802966E+03  0.89619802967E+03  0.50400001928E-02 0. -1.
    10030    2    1    2    0    0  0.00000000000E+00  0.00000000000E+00  0.45556941360E+03  0.22479654729E+04  0.22013189857E+04 0.  0.
        3    1    3    3  502    0  0.35517375742E+03  0.52268510830E+03 -0.69247893720E+03  0.93748344469E+03  0.10100000352E+00 0. -1.
       -3    1    3    3    0  502 -0.35517375742E+03 -0.52268510830E+03  0.11480483508E+04  0.13104820282E+04  0.10100000352E+00 0.  1.
</event>
<event>
 5   0  0.2517854E-05  0.2527771E+04  0.7818609E-02  0.8393158E-01
       -2   -1    0    0    0  501  0.00000000000E+00  0.00000000000E+00  0.83540773977E+03  0.83540773977E+03  0.25500000920E-02 0. -1.
        2   -1    0    0  501    0  0.00000000000E+00  0.00000000000E+00 -0.19121280862E+04  0.19121280862E+04  0.25500000920E-02 0.  1.
    10030    2    1    2    0    0  0.00000000000E+00  0.00000000000E+00 -0.10767203464E+04  0.27475358260E+04  0.25277710360E+04 0.  0.
        4    1    3    3  502    0  0.70968141205E+03 -0.48851889809E+03 -0.15434751684E+04  0.17676582330E+04  0.12699999809E+01 0.  1.
       -4    1    3    3    0  502 -0.70968141205E+03  0.48851889809E+03  0.46675482198E+03  0.97987759294E+03  0.12699999809E+01 0. -1.
</event>
<event>
 5   0  0.1005492E-05  0.2466837E+04  0.7818609E-02  0.8414896E-01
        1   -1    0    0  501    0  0.00000000000E+00  0.00000000000E+00  0.91823239732E+03  0.91823239734E+03  0.50400001928E-02 0. -1.
       -1   -1    0    0    0  501  0.00000000000E+00  0.00000000000E+00 -0.16567926347E+04  0.16567926348E+04  0.50400001928E-02 0.  1.
    10030    2    1    2    0    0  0.00000000000E+00  0.00000000000E+00 -0.73856023743E+03  0.25750250321E+04  0.24668365758E+04 0.  0.
        4    1    3    3  502    0 -0.96025602412E+03  0.18419521035E+03 -0.11541187957E+04  0.15126173723E+04  0.12699999809E+01 0.  1.
       -4    1    3    3    0  502  0.96025602412E+03 -0.18419521035E+03  0.41555855828E+03  0.10624076598E+04  0.12699999809E+01 0. -1.
</event>
<event>
 5   0  0.2484618E-05  0.2485869E+04  0.7818609E-02  0.8408037E-01
       -2   -1    0    0    0  501  0.00000000000E+00  0.00000000000E+00  0.48882064821E+03  0.48882064822E+03  0.25500000920E-02 0. -1.
        2   -1    0    0  501    0  0.00000000000E+00  0.00000000000E+00 -0.31604353959E+04  0.31604353959E+04  0.25500000920E-02 0.  1.
    10030    2    1    2    0    0  0.00000000000E+00  0.00000000000E+00 -0.26716147477E+04  0.36492560442E+04  0.24858689257E+04 0.  0.
        3    1    3    3  502    0  0.11215911834E+04  0.52714190422E+03 -0.14753886334E+04  0.19268152479E+04  0.10100000352E+00 0.  1.
       -3    1    3    3    0  502 -0.11215911834E+04 -0.52714190422E+03 -0.11962261143E+04  0.17224407962E+04  0.10100000352E+00 0. -1.
</event>
<event>
 5   0  0.2484618E-05  0.2907738E+04  0.7818609E-02  0.8270579E-01
        2   -1    0    0  501    0  0.00000000000E+00  0.00000000000E+00  0.22069726540E+04  0.22069726540E+04  0.25500000920E-02 0. -1.
       -2   -1    0    0    0  501  0.00000000000E+00  0.00000000000E+00 -0.95775314463E+03  0.95775314463E+03  0.25500000920E-02 0.  1.
    10030    2    1    2    0    0  0.00000000000E+00  0.00000000000E+00  0.12492195093E+04  0.31647257986E+04  0.29077379521E+04 0.  0.
        3    1    3    3  502    0  0.14349936449E+04  0.16589523549E+03  0.44574738199E+03  0.15117601426E+04  0.10100000352E+00 0.  1.
       -3    1    3    3    0  502 -0.14349936449E+04 -0.16589523549E+03  0.80347212736E+03  0.16529656560E+04  0.10100000352E+00 0. -1.
</event>
<event>
 5   0  0.2484618E-05  0.2579542E+04  0.7818609E-02  0.8375184E-01
       -2   -1    0    0    0  501  0.00000000000E+00  0.00000000000E+00  0.14352604288E+04  0.14352604288E+04  0.25500000920E-02 0. -1.
        2   -1    0    0  501    0  0.00000000000E+00  0.00000000000E+00 -0.11590291888E+04  0.11590291888E+04  0.25500000920E-02 0.  1.
    10030    2    1    2    0    0  0.00000000000E+00  0.00000000000E+00  0.27623123998E+03  0.25942896176E+04  0.25795416108E+04 0.  0.
        3    1    3    3  502    0 -0.12597242293E+04 -0.35653405324E+02 -0.13792111514E+03  0.12677533449E+04  0.10100000352E+00 0.  1.
       -3    1    3    3    0  502  0.12597242293E+04  0.35653405324E+02  0.41415235512E+03  0.13265362727E+04  0.10100000352E+00 0. -1.
</event>
<event>
 5   0  0.9855352E-06  0.2591619E+04  0.7818609E-02  0.8371054E-01
        1   -1    0    0  501    0  0.00000000000E+00  0.00000000000E+00  0.69170348848E+03  0.69170348850E+03  0.50400001928E-02 0.  1.
       -1   -1    0    0    0  501  0.00000000000E+00  0.00000000000E+00 -0.24275174585E+04  0.24275174585E+04  0.50400001928E-02 0. -1.
    10030    2    1    2    0    0  0.00000000000E+00  0.00000000000E+00 -0.17358139700E+04  0.31192209470E+04  0.25916190263E+04 0.  0.
        2    1    3    3  502    0 -0.89483174614E+03 -0.93574894570E+03 -0.80453473938E+03  0.15243444788E+04  0.25500000920E-02 0.  1.
       -2    1    3    3    0  502  0.89483174614E+03  0.93574894570E+03 -0.93127923065E+03  0.15948764682E+04  0.25500000920E-02 0. -1.
</event>
<event>
 5   0  0.2528460E-05  0.2624850E+04  0.7818609E-02  0.8359809E-01
        2   -1    0    0  501    0  0.00000000000E+00  0.00000000000E+00  0.10335761238E+04  0.10335761238E+04  0.25500000920E-02 0. -1.
       -2   -1    0    0    0  501  0.00000000000E+00  0.00000000000E+00 -0.16665046346E+04  0.16665046346E+04  0.25500000920E-02 0.  1.
    10030    2    1    2    0    0  0.00000000000E+00  0.00000000000E+00 -0.63292851079E+03  0.27000807583E+04  0.26248500151E+04 0.  0.
        5    1    3    3  502    0  0.65694742930E+03 -0.57497213959E+03  0.69155233728E+03  0.11137502464E+04  0.46999998093E+01 0. -1.
       -5    1    3    3    0  502 -0.65694742930E+03  0.57497213959E+03 -0.13244808481E+04  0.15863305119E+04  0.46999998093E+01 0.  1.
</event>
<event>
 5   0  0.2528460E-05  0.2593157E+04  0.7818609E-02  0.8370529E-01
       -2   -1    0    0    0  501  0.00000000000E+00  0.00000000000E+00  0.56249947476E+03  0.56249947477E+03  0.25500000920E-02 0.  1.
        2   -1    0    0  501    0  0.00000000000E+00  0.00000000000E+00 -0.29886537089E+04  0.29886537089E+04  0.25500000920E-02 0. -1.
    10030    2    1    2    0    0  0.00000000000E+00  0.00000000000E+00 -0.24261542341E+04  0.35511531836E+04  0.25931572582E+04 0.  0.
        5    1    3    3  502    0  0.46597715834E+03 -0.53148389084E+03 -0.27015965655E+04  0.27925357529E+04  0.46999998093E+01 0. -1.
       -5    1    3    3    0  502 -0.46597715834E+03  0.53148389084E+03  0.27544233141E+03  0.75861743076E+03  0.46999998093E+01 0.  1.
</event>
<event>
 5   0  0.2517854E-05  0.2602629E+04  0.7818609E-02  0.8367309E-01
       -2   -1    0    0    0  501  0.00000000000E+00  0.00000000000E+00  0.10529494338E+04  0.10529494338E+04  0.25500000920E-02 0.  1.
        2   -1    0    0  501    0  0.00000000000E+00  0.00000000000E+00 -0.16082626286E+04  0.16082626286E+04  0.25500000920E-02 0. -1.
    10030    2    1    2    0    0  0.00000000000E+00  0.00000000000E+00 -0.55531319481E+03  0.26612120624E+04  0.26026288434E+04 0.  0.
        4    1    3    3  502    0  0.31451109048E+03  0.40451426083E+03  0.94545792056E+03  0.10753796100E+04  0.12699999809E+01 0.  1.
       -4    1    3    3    0  502 -0.31451109048E+03 -0.40451426083E+03 -0.15007711154E+04  0.15858324523E+04  0.12699999809E+01 0. -1.
</event>
<event>
 5   0  0.2517854E-05  0.2664118E+04  0.7818609E-02  0.8346742E-01
       -2   -1    0    0    0  501  0.00000000000E+00  0.00000000000E+00  0.19975399561E+04  0.19975399561E+04  0.25500000920E-02 0. -1.
        2   -1    0    0  501    0  0.00000000000E+00  0.00000000000E+00 -0.88828295883E+03  0.88828295883E+03  0.25500000920E-02 0.  1.
    10030    2    1    2    0    0  0.00000000000E+00  0.00000000000E+00  0.11092569972E+04  0.28858229149E+04  0.26641176420E+04 0.  0.
        4    1    3    3  502    0  0.94062448168E+02  0.10100768410E+04  0.14897647266E+04  0.18023605418E+04  0.12699999809E+01 0. -1.
       -4    1    3    3    0  502 -0.94062448168E+02 -0.10100768410E+04 -0.38050772941E+03  0.10834623731E+04  0.12699999809E+01 0.  1.
</event>
<event>
 5   0  0.9855352E-06  0.2566406E+04  0.7818609E-02  0.8379703E-01
       -1   -1    0    0    0  501  0.00000000000E+00  0.00000000000E+00  0.12292932707E+04  0.12292932707E+04  0.50400001928E-02 0. -1.
        1   -1    0    0  501    0  0.00000000000E+00  0.00000000000E+00 -0.13394770677E+04  0.13394770678E+04  0.50400001928E-02 0.  1.
    10030    2    1    2    0    0  0.00000000000E+00  0.00000000000E+00 -0.11018379704E+03  0.25687703385E+04  0.25664061609E+04 0.  0.
        2    1    3    3  502    0 -0.28423086569E+03 -0.68367287750E+02  0.11955185385E+04  0.12307419904E+04  0.25500000920E-02 0. -1.
       -2    1    3    3    0  502  0.28423086569E+03  0.68367287750E+02 -0.13057023356E+04  0.13380283480E+04  0.25500000920E-02 0.  1.
</event>
<event>
 5   0  0.2484618E-05  0.2550608E+04  0.7818609E-02  0.8385175E-01
       -2   -1    0    0    0  501  0.00000000000E+00  0.00000000000E+00  0.81708624081E+03  0.81708624081E+03  0.25500000920E-02 0.  1.
        2   -1    0    0  501    0  0.00000000000E+00  0.00000000000E+00 -0.19904878910E+04  0.19904878910E+04  0.25500000920E-02 0. -1.
    10030    2    1    2    0    0  0.00000000000E+00  0.00000000000E+00 -0.11734016502E+04  0.28075741318E+04  0.25506079810E+04 0.  0.
        3    1    3    3  502    0  0.10868987872E+04 -0.26506610751E+03  0.87178660340E+02  0.11221448855E+04  0.10100000352E+00 0.  1.
       -3    1    3    3    0  502 -0.10868987872E+04  0.26506610751E+03 -0.12605803105E+04  0.16854292463E+04  0.10100000352E+00 0. -1.
</event>
<event>
 5   0  0.1005492E-05  0.2623641E+04  0.7818609E-02  0.8360215E-01
        1   -1    0    0  501    0  0.00000000000E+00  0.00000000000E+00  0.10809365939E+04  0.10809365939E+04  0.50400001928E-02 0.  1.
       -1   -1    0    0    0  501  0.00000000000E+00  0.00000000000E+00 -0.15920201167E+04  0.15920201167E+04  0.50400001928E-02 0. -1.
    10030    2    1    2    0    0  0.00000000000E+00  0.00000000000E+00 -0.51108352283E+03  0.26729567106E+04  0.26236408309E+04 0.  0.
        4    1    3    3  502    0  0.69406170602E+03  0.78625649815E+03  0.54727410994E+03  0.11829756958E+04  0.12699999809E+01 0.  1.
       -4    1    3    3    0  502 -0.69406170602E+03 -0.78625649815E+03 -0.10583576328E+04  0.14899810148E+04  0.12699999809E+01 0. -1.
</event>
<event>
 5   0  0.2555801E-05  0.2590406E+04  0.7818609E-02  0.8371467E-01
       -2   -1    0    0    0  501  0.00000000000E+00  0.00000000000E+00  0.87980372531E+03  0.87980372532E+03  0.25500000920E-02 0.  1.
        2   -1    0    0  501    0  0.00000000000E+00  0.00000000000E+00 -0.19067336854E+04  0.19067336854E+04  0.25500000920E-02 0. -1.
    10030    2    1    2    0    0  0.00000000000E+00  0.00000000000E+00 -0.10269299601E+04  0.27865374108E+04  0.25904064543E+04 0.  0.
        1    1    3    3  502    0 -0.65037180858E+02  0.11386116373E+04 -0.11738564439E+04  0.16366445083E+04  0.50400001928E-02 0.  1.
       -1    1    3    3    0  502  0.65037180858E+02 -0.11386116373E+04  0.14692648378E+03  0.11498929025E+04  0.50400001928E-02 0. -1.
</event>
<event>
 5   0  0.2662024E-05  0.2647918E+04  0.7818609E-02  0.8352104E-01
       -2   -1    0    0    0  501  0.00000000000E+00  0.00000000000E+00  0.13494907595E+04  0.13494907595E+04  0.25500000920E-02 0. -1.
        2   -1    0    0  501    0  0.00000000000E+00  0.00000000000E+00 -0.12989104209E+04  0.12989104209E+04  0.25500000920E-02 0.  1.
    10030    2    1    2    0    0  0.00000000000E+00  0.00000000000E+00  0.50580338604E+02  0.26484011804E+04  0.26479181335E+04 0.  0.
        2    1    3    3  502    0 -0.12311211112E+04  0.16940493584E+03  0.48200284667E+03  0.13329230911E+04  0.25500000920E-02 0. -1.
       -2    1    3    3    0  502  0.12311211112E+04 -0.16940493584E+03 -0.43142250807E+03  0.13154780892E+04  0.25500000920E-02 0.  1.
</event>
<event>
 5   0  0.1005492E-05  0.2594716E+04  0.7818609E-02  0.8369998E-01
       -1   -1    0    0    0  501  0.00000000000E+00  0.00000000000E+00  0.63870239284E+03  0.63870239286E+03  0.50400001928E-02 0. -1.
        1   -1    0    0  501    0  0.00000000000E+00  0.00000000000E+00 -0.26352449414E+04  0.26352449414E+04  0.50400001928E-02 0.  1.
    10030    2    1    2    0    0  0.00000000000E+00  0.00000000000E+00 -0.19965425485E+04  0.32739473342E+04  0.25947155912E+04 0.  0.
        4    1    3    3  502    0  0.41184257611E+03  0.94570094322E+03 -0.54130204705E+01  0.10315015730E+04  0.12699999809E+01 0. -1.
       -4    1    3    3    0  502 -0.41184257611E+03 -0.94570094322E+03 -0.19911295281E+04  0.22424457612E+04  0.12699999809E+01 0.  1.
</event>
<event>
 5   0  0.9855352E-06  0.2600178E+04  0.7818609E-02  0.8368141E-01
       -1   -1    0    0    0  501  0.00000000000E+00  0.00000000000E+00  0.96338654816E+03  0.96338654817E+03  0.50400001928E-02 0. -1.
        1   -1    0    0  501    0  0.00000000000E+00  0.00000000000E+00 -0.17544678887E+04  0.17544678887E+04  0.50400001928E-02 0.  1.
    10030    2    1    2    0    0  0.00000000000E+00  0.00000000000E+00 -0.79108134053E+03  0.27178544369E+04  0.26001775041E+04 0.  0.
        2    1    3    3  502    0 -0.11965345415E+03  0.10836612441E+04  0.34474364850E+03  0.11434539012E+04  0.25500000920E-02 0. -1.
       -2    1    3    3    0  502  0.11965345415E+03 -0.10836612441E+04 -0.11358249890E+04  0.15744005357E+04  0.25500000920E-02 0.  1.
</event>
<event>
 5   0  0.2517854E-05  0.2466790E+04  0.7818609E-02  0.8414913E-01
        2   -1    0    0  501    0  0.00000000000E+00  0.00000000000E+00  0.20211366678E+04  0.20211366678E+04  0.25500000920E-02 0.  1.
       -2   -1    0    0    0  501  0.00000000000E+00  0.00000000000E+00 -0.75267682265E+03  0.75267682266E+03  0.25500000920E-02 0. -1.
    10030    2    1    2    0    0  0.00000000000E+00  0.00000000000E+00  0.12684598451E+04  0.27738134904E+04  0.24667895940E+04 0.  0.
        4    1    3    3  502    0 -0.75753663536E+03 -0.77843288784E+03  0.12912874018E+04  0.16873779309E+04  0.12699999809E+01 0.  1.
       -4    1    3    3    0  502  0.75753663536E+03  0.77843288784E+03 -0.22827556640E+02  0.10864355595E+04  0.12699999809E+01 0. -1.
</event>
<event>
 5   0  0.2517854E-05  0.2292041E+04  0.7818609E-02  0.8481066E-01
        2   -1    0    0  501    0  0.00000000000E+00  0.00000000000E+00  0.10228993197E+04  0.10228993197E+04  0.25500000920E-02 0.  1.
       -2   -1    0    0    0  501  0.00000000000E+00  0.00000000000E+00 -0.12839607204E+04  0.12839607204E+04  0.25500000920E-02 0. -1.
    10030    2    1    2    0    0  0.00000000000E+00  0.00000000000E+00 -0.26106140067E+03  0.23068600401E+04  0.22920406169E+04 0.  0.
        4    1    3    3  502    0  0.74175602040E+03  0.87150687366E+03 -0.19120905693E+03  0.11602968331E+04  0.12699999809E+01 0.  1.
       -4    1    3    3    0  502 -0.74175602040E+03 -0.87150687366E+03 -0.69852343747E+02  0.11465632069E+04  0.12699999809E+01 0. -1.
</event>
<event>
 5   0  0.1005492E-05  0.2581840E+04  0.7818609E-02  0.8374396E-01
       -1   -1    0    0    0  501  0.00000000000E+00  0.00000000000E+00  0.87417800804E+03  0.87417800805E+03  0.50400001928E-02 0. -1.
        1   -1    0    0  501    0  0.00000000000E+00  0.00000000000E+00 -0.19063325820E+04  0.19063325820E+04  0.50400001928E-02 0.  1.
    10030    2    1    2    0    0  0.00000000000E+00  0.00000000000E+00 -0.10321545740E+04  0.27805105901E+04  0.25818396691E+04 0.  0.
        4    1    3    3  502    0  0.96240322035E+03 -0.81451209289E+03 -0.21758061222E+03  0.12794502115E+04  0.12699999809E+01 0.  1.
       -4    1    3    3    0  502 -0.96240322035E+03  0.81451209289E+03 -0.81457396175E+03  0.15010603786E+04  0.12699999809E+01 0. -1.
</event>
<event>
 5   0  0.9855352E-06  0.2502462E+04  0.7818609E-02  0.8402109E-01
       -1   -1    0    0    0  501  0.00000000000E+00  0.00000000000E+00  0.94619128458E+03  0.94619128459E+03  0.50400001928E-02 0.  1.
        1   -1    0    0  501    0  0.00000000000E+00  0.00000000000E+00 -0.16546111256E+04  0.16546111256E+04  0.50400001928E-02 0. -1.
    10030    2    1    2    0    0  0.00000000000E+00  0.00000000000E+00 -0.70841984097E+03  0.26008024102E+04  0.25024616891E+04 0.  0.
        2    1    3    3  502    0 -0.11110051047E+04 -0.57544205588E+03 -0.34317553515E+03  0.12973956029E+04  0.25500000920E-02 0. -1.
       -2    1    3    3    0  502  0.11110051047E+04  0.57544205588E+03 -0.36524430582E+03  0.13034068073E+04  0.25500000920E-02 0.  1.
</event>
<event>
 5   0  0.2528460E-05  0.2657046E+04  0.7818609E-02  0.8349078E-01
        2   -1    0    0  501    0  0.00000000000E+00  0.00000000000E+00  0.17123035452E+04  0.17123035452E+04  0.25500000920E-02 0.  1.
       -2   -1    0    0    0  501  0.00000000000E+00  0.00000000000E+00 -0.10307599462E+04  0.10307599462E+04  0.25500000920E-02 0. -1.
    10030    2    1    2    0    0  0.00000000000E+00  0.00000000000E+00  0.68154359897E+03  0.27430634913E+04  0.26570464129E+04 0.  0.
        5    1    3    3  502    0  0.99172315181E+03 -0.85257498117E+03  0.99644885993E+02  0.13116211731E+04  0.46999998093E+01 0.  1.
       -5    1    3    3    0  502 -0.99172315181E+03  0.85257498117E+03  0.58189871298E+03  0.14314423183E+04  0.46999998093E+01 0. -1.
</event>
<event>
 5   0  0.2528460E-05  0.2606174E+04  0.7818609E-02  0.8366107E-01
        2   -1    0    0  501    0  0.00000000000E+00  0.00000000000E+00  0.19367788835E+04  0.19367788835E+04  0.25500000920E-02 0. -1.
       -2   -1    0    0    0  501  0.00000000000E+00  0.00000000000E+00 -0.87673175868E+03  0.87673175869E+03  0.25500000920E-02 0.  1.
    10030    2    1    2    0    0  0.00000000000E+00  0.00000000000E+00  0.10600471249E+04  0.28135106422E+04  0.26061738674E+04 0.  0.
        5    1    3    3  502    0  0.72924407816E+03 -0.94404326803E+02 -0.63134207503E+03  0.96918729261E+03  0.46999998093E+01 0.  1.
       -5    1    3    3    0  502 -0.72924407816E+03  0.94404326803E+02  0.16913891999E+04  0.18443233496E+04  0.46999998093E+01 0. -1.
</event>
<event>
 5   0  0.1034714E-05  0.2478148E+04  0.7818609E-02  0.8410812E-01
        1   -1    0    0  501    0  0.00000000000E+00  0.00000000000E+00  0.13053344408E+04  0.13053344408E+04  0.50400001928E-02 0.  1.
       -1   -1    0    0    0  501  0.00000000000E+00  0.00000000000E+00 -0.11761766623E+04  0.11761766623E+04  0.50400001928E-02 0. -1.
    10030    2    1    2    0    0  0.00000000000E+00  0.00000000000E+00  0.12915777854E+03  0.24815111031E+04  0.24781476193E+04 0.  0.
        5    1    3    3  502    0  0.16234397483E+03  0.48228911588E+03  0.11958571079E+04  0.12996363607E+04  0.46999998093E+01 0.  1.
       -5    1    3    3    0  502 -0.16234397483E+03 -0.48228911588E+03 -0.10666993294E+04  0.11818747424E+04  0.46999998093E+01 0. -1.
</event>
<event>
 5   0  0.2662024E-05  0.2598735E+04  0.7818609E-02  0.8368631E-01
       -2   -1    0    0    0  501  0.00000000000E+00  0.00000000000E+00  0.12909788807E+04  0.12909788807E+04  0.25500000920E-02 0.  1.
        2   -1    0    0  501    0  0.00000000000E+00  0.00000000000E+00 -0.13078108046E+04  0.13078108046E+04  0.25500000920E-02 0. -1.
    10030    2    1    2    0    0  0.00000000000E+00  0.00000000000E+00 -0.16831923950E+02  0.25987896853E+04  0.25987351759E+04 0.  0.
        2    1    3    3  502    0  0.10167892675E+04 -0.37134852257E+03 -0.72717716069E+03  0.13040501381E+04  0.25500000920E-02 0. -1.
       -2    1    3    3    0  502 -0.10167892675E+04  0.37134852257E+03  0.71034523674E+03  0.12947395472E+04  0.25500000920E-02 0.  1.
</event>
<event>
 5   0  0.1005492E-05  0.2493395E+04  0.7818609E-02  0.8405342E-01
        1   -1    0    0  501    0  0.00000000000E+00  0.00000000000E+00  0.15839680034E+04  0.15839680034E+04  0.50400001928E-02 0.  1.
       -1   -1    0    0    0  501  0.00000000000E+00  0.00000000000E+00 -0.98124136266E+03  0.98124136268E+03  0.50400001928E-02 0. -1.
    10030    2    1    2    0    0  0.00000000000E+00  0.00000000000E+00  0.60272664071E+03  0.25652093661E+04  0.24933952130E+04 0.  0.
        4    1    3    3  502    0  0.94260335049E+03  0.20031217569E+03  0.11151105615E+04  0.14738043362E+04  0.12699999809E+01 0.  1.
       -4    1    3    3    0  502 -0.94260335049E+03 -0.20031217569E+03 -0.51238392078E+03  0.10914050299E+04  0.12699999809E+01 0. -1.
</event>
<event>
 5   0  0.2484618E-05  0.2553113E+04  0.7818609E-02  0.8384304E-01
       -2   -1    0    0    0  501  0.00000000000E+00  0.00000000000E+00  0.51649910640E+03  0.51649910641E+03  0.25500000920E-02 0. -1.
        2   -1    0    0  501    0  0.00000000000E+00  0.00000000000E+00 -0.31550805826E+04  0.31550805826E+04  0.25500000920E-02 0.  1.
    10030    2    1    2    0    0  0.00000000000E+00  0.00000000000E+00 -0.26385814762E+04  0.36715796890E+04  0.25531128463E+04 0.  0.
        3    1    3    3  502    0  0.10446145729E+04 -0.39909328123E+03 -0.43384785955E+03  0.11994661431E+04  0.10100000352E+00 0. -1.
       -3    1    3    3    0  502 -0.10446145729E+04  0.39909328123E+03 -0.22047336166E+04  0.24721135458E+04  0.10100000352E+00 0.  1.
</event>
<event>
 5   0  0.8605000E-06  0.2591443E+04  0.7818609E-02  0.8371114E-01
        4   -1    0    0  501    0  0.00000000000E+00  0.00000000000E+00  0.17698683609E+04  0.17698688166E+04  0.12699999809E+01 0.  1.
       -4   -1    0    0    0  501  0.00000000000E+00  0.00000000000E+00 -0.94859726566E+03  0.94859811581E+03  0.12699999809E+01 0. -1.
    10030    2    1    2    0    0  0.00000000000E+00  0.00000000000E+00  0.82127109527E+03  0.27184669324E+04  0.25914428897E+04 0.  0.
        1    1    3    3  502    0 -0.62155438842E+03  0.11316234450E+04  0.29575703854E+03  0.13245277290E+04  0.50400001928E-02 0.  1.
       -1    1    3    3    0  502  0.62155438842E+03 -0.11316234450E+04  0.52551405673E+03  0.13939392034E+04  0.50400001928E-02 0. -1.
</event>
<event>
 5   0  0.2662024E-05  0.2436714E+04  0.7818609E-02  0.8425885E-01
       -2   -1    0    0    0  501  0.00000000000E+00  0.00000000000E+00  0.21897848991E+04  0.21897848991E+04  0.25500000920E-02 0. -1.
        2   -1    0    0  501    0  0.00000000000E+00  0.00000000000E+00 -0.67787211918E+03  0.67787211919E+03  0.25500000920E-02 0.  1.
    10030    2    1    2    0    0  0.00000000000E+00  0.00000000000E+00  0.15119127799E+04  0.28676570182E+04  0.24367142878E+04 0.  0.
        2    1    3    3  502    0  0.31931198453E+03  0.92347997243E+03  0.16124108272E+04  0.18853763758E+04  0.25500000920E-02 0. -1.
       -2    1    3    3    0  502 -0.31931198453E+03 -0.92347997243E+03 -0.10049804731E+03  0.98228064241E+03  0.25500000920E-02 0.  1.
</event>
<event>
 5   0  0.1000421E-05  0.2560674E+04  0.7818609E-02  0.8381683E-01
        1   -1    0    0  501    0  0.00000000000E+00  0.00000000000E+00  0.11661148427E+04  0.11661148427E+04  0.50400001928E-02 0. -1.
       -1   -1    0    0    0  501  0.00000000000E+00  0.00000000000E+00 -0.14057470344E+04  0.14057470344E+04  0.50400001928E-02 0.  1.
    10030    2    1    2    0    0  0.00000000000E+00  0.00000000000E+00 -0.23963219170E+03  0.25718618771E+04  0.25606737253E+04 0.  0.
        3    1    3    3  502    0  0.41067645309E+03  0.12084256066E+04 -0.17810171340E+02  0.12764265777E+04  0.10100000352E+00 0. -1.
       -3    1    3    3    0  502 -0.41067645309E+03 -0.12084256066E+04 -0.22182202036E+03  0.12954352994E+04  0.10100000352E+00 0.  1.
</event>
<event>
 5   0  0.2662024E-05  0.2419761E+04  0.7818609E-02  0.8432142E-01
        2   -1    0    0  501    0  0.00000000000E+00  0.00000000000E+00  0.18135178189E+04  0.18135178189E+04  0.25500000920E-02 0. -1.
       -2   -1    0    0    0  501  0.00000000000E+00  0.00000000000E+00 -0.80716656767E+03  0.80716656767E+03  0.25500000920E-02 0.  1.
    10030    2    1    2    0    0  0.00000000000E+00  0.00000000000E+00  0.10063512513E+04  0.26206843866E+04  0.24197611066E+04 0.  0.
        2    1    3    3  502    0  0.87504742347E+03 -0.66279669576E+03  0.10541448006E+04  0.15219161323E+04  0.25500000920E-02 0. -1.
       -2    1    3    3    0  502 -0.87504742347E+03  0.66279669576E+03 -0.47793549332E+02  0.10987682543E+04  0.25500000920E-02 0.  1.
</event>
<event>
 5   0  0.1034714E-05  0.2589338E+04  0.7818609E-02  0.8371832E-01
       -1   -1    0    0    0  501  0.00000000000E+00  0.00000000000E+00  0.76410080305E+03  0.76410080307E+03  0.50400001928E-02 0.  1.
        1   -1    0    0  501    0  0.00000000000E+00  0.00000000000E+00 -0.21936479813E+04  0.21936479813E+04  0.50400001928E-02 0. -1.
    10030    2    1    2    0    0  0.00000000000E+00  0.00000000000E+00 -0.14295471782E+04  0.29577487844E+04  0.25893382816E+04 0.  0.
        5    1    3    3  502    0 -0.38132880132E+03  0.73350258485E+03  0.42333405483E+03  0.92880111363E+03  0.46999998093E+01 0.  1.
       -5    1    3    3    0  502  0.38132880132E+03 -0.73350258485E+03 -0.18528812331E+04  0.20289476707E+04  0.46999998093E+01 0. -1.
</event>
<event>
 5   0  0.1005492E-05  0.2636810E+04  0.7818609E-02  0.8355804E-01
        1   -1    0    0  501    0  0.00000000000E+00  0.00000000000E+00  0.13487938532E+04  0.13487938532E+04  0.50400001928E-02 0. -1.
       -1   -1    0    0    0  501  0.00000000000E+00  0.00000000000E+00 -0.12887007019E+04  0.12887007019E+04  0.50400001928E-02 0.  1.
    10030    2    1    2    0    0  0.00000000000E+00  0.00000000000E+00  0.60093151300E+02  0.26374945551E+04  0.26368098796E+04 0.  0.
        4    1    3    3  502    0  0.45678975031E+03  0.19489273748E+03 -0.11915608126E+04  0.12909139546E+04  0.12699999809E+01 0.  1.
       -4    1    3    3    0  502 -0.45678975031E+03 -0.19489273748E+03  0.12516539639E+04  0.13465806004E+04  0.12699999809E+01 0. -1.
</event>
<event>
 5   0  0.2484618E-05  0.2570158E+04  0.7818609E-02  0.8378409E-01
       -2   -1    0    0    0  501  0.00000000000E+00  0.00000000000E+00  0.81597484042E+03  0.81597484042E+03  0.25500000920E-02 0. -1.
        2   -1    0    0  501    0  0.00000000000E+00  0.00000000000E+00 -0.20238719837E+04  0.20238719837E+04  0.25500000920E-02 0.  1.
    10030    2    1    2    0    0  0.00000000000E+00  0.00000000000E+00 -0.12078971432E+04  0.28398468241E+04  0.25701584534E+04 0.  0.
        3    1    3    3  502    0  0.38568702461E+03  0.82529225948E+03 -0.16054612717E+04  0.18459056584E+04  0.10100000352E+00 0.  1.
       -3    1    3    3    0  502 -0.38568702461E+03 -0.82529225948E+03  0.39756412843E+03  0.99394116573E+03  0.10100000352E+00 0. -1.
</event>
<event>
 5   0  0.1000421E-05  0.2596651E+04  0.7818609E-02  0.8369340E-01
        1   -1    0    0  501    0  0.00000000000E+00  0.00000000000E+00  0.17031702912E+04  0.17031702912E+04  0.50400001928E-02 0. -1.
       -1   -1    0    0    0  501  0.00000000000E+00  0.00000000000E+00 -0.98971249916E+03  0.98971249917E+03  0.50400001928E-02 0.  1.
    10030    2    1    2    0    0  0.00000000000E+00  0.00000000000E+00  0.71345779201E+03  0.26928827903E+04  0.25966508625E+04 0.  0.
        3    1    3    3  502    0 -0.37010767709E+03  0.10928280196E+04 -0.26064517251E+03  0.11828730656E+04  0.10100000352E+00 0.  1.
       -3    1    3    3    0  502  0.37010767709E+03 -0.10928280196E+04  0.97410296452E+03  0.15100097247E+04  0.10100000352E+00 0. -1.
</event>
<event>
 5   0  0.9855352E-06  0.2590381E+04  0.7818609E-02  0.8371476E-01
       -1   -1    0    0    0  501  0.00000000000E+00  0.00000000000E+00  0.92744108495E+03  0.92744108496E+03  0.50400001928E-02 0.  1.
        1   -1    0    0  501    0  0.00000000000E+00  0.00000000000E+00 -0.18087598340E+04  0.18087598340E+04  0.50400001928E-02 0. -1.
    10030    2    1    2    0    0  0.00000000000E+00  0.00000000000E+00 -0.88131874905E+03  0.27362009190E+04  0.25903808082E+04 0.  0.
        2    1    3    3  502    0  0.10249019656E+04  0.52481738387E+02 -0.12752910924E+04  0.16369318075E+04  0.25500000920E-02 0. -1.
       -2    1    3    3    0  502 -0.10249019656E+04 -0.52481738387E+02  0.39397234338E+03  0.10992691115E+04  0.25500000920E-02 0.  1.
</event>
<event>
 5   0  0.9855352E-06  0.2599398E+04  0.7818609E-02  0.8368406E-01
        1   -1    0    0  501    0  0.00000000000E+00  0.00000000000E+00  0.82798668028E+03  0.82798668029E+03  0.50400001928E-02 0.  1.
       -1   -1    0    0    0  501  0.00000000000E+00  0.00000000000E+00 -0.20401499501E+04  0.20401499501E+04  0.50400001928E-02 0. -1.
    10030    2    1    2    0    0  0.00000000000E+00  0.00000000000E+00 -0.12121632698E+04  0.28681366304E+04  0.25993976106E+04 0.  0.
        2    1    3    3  502    0  0.15438691144E+03 -0.30046996187E+03  0.77869941934E+03  0.84881700153E+03  0.25500000920E-02 0.  1.
       -2    1    3    3    0  502 -0.15438691144E+03  0.30046996187E+03 -0.19908626891E+04  0.20193196288E+04  0.25500000920E-02 0. -1.
</event>
<event>
 5   0  0.2517854E-05  0.2588522E+04  0.7818609E-02  0.8372111E-01
        2   -1    0    0  501    0  0.00000000000E+00  0.00000000000E+00  0.76708859572E+03  0.76708859572E+03  0.25500000920E-02 0. -1.
       -2   -1    0    0    0  501  0.00000000000E+00  0.00000000000E+00 -0.21837257299E+04  0.21837257299E+04  0.25500000920E-02 0.  1.
    10030    2    1    2    0    0  0.00000000000E+00  0.00000000000E+00 -0.14166371342E+04  0.29508143256E+04  0.25885216658E+04 0.  0.
        4    1    3    3  502    0  0.51531756799E+03 -0.81155524051E+03  0.27953225113E+03  0.10011563298E+04  0.12699999809E+01 0. -1.
       -4    1    3    3    0  502 -0.51531756799E+03  0.81155524051E+03 -0.16961693853E+04  0.19496579959E+04  0.12699999809E+01 0.  1.
</event>
<event>
 5   0  0.1025153E-05  0.2416880E+04  0.7818609E-02  0.8433211E-01
        1   -1    0    0  501    0  0.00000000000E+00  0.00000000000E+00  0.89651469428E+03  0.89651469429E+03  0.50400001928E-02 0. -1.
       -1   -1    0    0    0  501  0.00000000000E+00  0.00000000000E+00 -0.16288937920E+04  0.16288937920E+04  0.50400001928E-02 0.  1.
    10030    2    1    2    0    0  0.00000000000E+00  0.00000000000E+00 -0.73237909768E+03  0.25254084863E+04  0.24168799887E+04 0.  0.
        1    1    3    3  502    0 -0.28270290273E+03  0.26866791814E+03 -0.15613262382E+04  0.16092989168E+04  0.50400001928E-02 0.  1.
       -1    1    3    3    0  502  0.28270290273E+03 -0.26866791814E+03  0.82894714053E+03  0.91610956946E+03  0.50400001928E-02 0. -1.
</event>
<event>
 5   0  0.1025153E-05  0.2624935E+04  0.7818609E-02  0.8359780E-01
        1   -1    0    0  501    0  0.00000000000E+00  0.00000000000E+00  0.13290259238E+04  0.13290259238E+04  0.50400001928E-02 0. -1.
       -1   -1    0    0    0  501  0.00000000000E+00  0.00000000000E+00 -0.12961156141E+04  0.12961156141E+04  0.50400001928E-02 0.  1.
    10030    2    1    2    0    0  0.00000000000E+00  0.00000000000E+00  0.32910309702E+02  0.26251415379E+04  0.26249352383E+04 0.  0.
        1    1    3    3  502    0 -0.13588070202E+02 -0.64530475191E+03 -0.11264244009E+04  0.12982429624E+04  0.50400001928E-02 0.  1.
       -1    1    3    3    0  502  0.13588070202E+02  0.64530475191E+03  0.11593347106E+04  0.13268985755E+04  0.50400001928E-02 0. -1.
</event>
<event>
 5   0  0.2528460E-05  0.2579070E+04  0.7818609E-02  0.8375346E-01
       -2   -1    0    0    0  501  0.00000000000E+00  0.00000000000E+00  0.94071776457E+03  0.94071776457E+03  0.25500000920E-02 0. -1.
        2   -1    0    0  501    0  0.00000000000E+00  0.00000000000E+00 -0.17676927561E+04  0.17676927561E+04  0.25500000920E-02 0.  1.
    10030    2    1    2    0    0  0.00000000000E+00  0.00000000000E+00 -0.82697499150E+03  0.27084105206E+04  0.25790695826E+04 0.  0.
        5    1    3    3  502    0 -0.27406207491E+03  0.14897549245E+03  0.90049099579E+03  0.95300044163E+03  0.46999998093E+01 0. -1.
       -5    1    3    3    0  502  0.27406207491E+03 -0.14897549245E+03 -0.17274659873E+04  0.17554100790E+04  0.46999998093E+01 0.  1.
</event>
<event>
 5   0  0.2555801E-05  0.2282921E+04  0.7818609E-02  0.8484686E-01
        2   -1    0    0  501    0  0.00000000000E+00  0.00000000000E+00  0.15425495698E+04  0.15425495698E+04  0.25500000920E-02 0.  1.
       -2   -1    0    0    0  501  0.00000000000E+00  0.00000000000E+00 -0.84466115487E+03  0.84466115488E+03  0.25500000920E-02 0. -1.
    10030    2    1    2    0    0  0.00000000000E+00  0.00000000000E+00  0.69788841495E+03  0.23872107247E+04  0.22829206741E+04 0.  0.
        1    1    3    3  502    0 -0.41806416386E+03 -0.51566124531E+03 -0.62204838509E+03  0.90974081937E+03  0.50400001928E-02 0. -1.
       -1    1    3    3    0  502  0.41806416386E+03  0.51566124531E+03  0.13199368000E+04  0.14774699053E+04  0.50400001928E-02 0.  1.
</event>
<event>
 5   0  0.2555801E-05  0.2601498E+04  0.7818609E-02  0.8367693E-01
        2   -1    0    0  501    0  0.00000000000E+00  0.00000000000E+00  0.16462403912E+04  0.16462403912E+04  0.25500000920E-02 0.  1.
       -2   -1    0    0    0  501  0.00000000000E+00  0.00000000000E+00 -0.10277647496E+04  0.10277647496E+04  0.25500000920E-02 0. -1.
    10030    2    1    2    0    0  0.00000000000E+00  0.00000000000E+00  0.61847564158E+03  0.26740051408E+04  0.26014979097E+04 0.  0.
        1    1    3    3  502    0  0.32661902039E+03  0.12588946601E+04  0.28738270798E+03  0.13319476606E+04  0.50400001928E-02 0. -1.
       -1    1    3    3    0  502 -0.32661902039E+03 -0.12588946601E+04  0.33109293360E+03  0.13420574803E+04  0.50400001928E-02 0.  1.
</event>
<event>
 5   0  0.1000421E-05  0.2598533E+04  0.7818609E-02  0.8368700E-01
       -1   -1    0    0    0  501  0.00000000000E+00  0.00000000000E+00  0.12362603488E+04  0.12362603488E+04  0.50400001928E-02 0. -1.
        1   -1    0    0  501    0  0.00000000000E+00  0.00000000000E+00 -0.13654832461E+04  0.13654832461E+04  0.50400001928E-02 0.  1.
    10030    2    1    2    0    0  0.00000000000E+00  0.00000000000E+00 -0.12922289725E+03  0.26017435949E+04  0.25985325044E+04 0.  0.
        3    1    3    3  502    0  0.63631088392E+03  0.18073653272E+03  0.10550439057E+04  0.12452609720E+04  0.10100000352E+00 0. -1.
       -3    1    3    3    0  502 -0.63631088392E+03 -0.18073653272E+03 -0.11842668030E+04  0.13564826229E+04  0.10100000352E+00 0.  1.
</event>
<event>
 5   0  0.2528460E-05  0.2603284E+04  0.7818609E-02  0.8367086E-01
       -2   -1    0    0    0  501  0.00000000000E+00  0.00000000000E+00  0.78358040640E+03  0.78358040641E+03  0.25500000920E-02 0. -1.
        2   -1    0    0  501    0  0.00000000000E+00  0.00000000000E+00 -0.21622191123E+04  0.21622191123E+04  0.25500000920E-02 0.  1.
    10030    2    1    2    0    0  0.00000000000E+00  0.00000000000E+00 -0.13786387059E+04  0.29457995187E+04  0.26032844875E+04 0.  0.
        5    1    3    3  502    0 -0.63664569627E+02 -0.89683635896E+03  0.37572930186E+03  0.97445535068E+03  0.46999998093E+01 0. -1.
       -5    1    3    3    0  502  0.63664569627E+02  0.89683635896E+03 -0.17543680078E+04  0.19713441681E+04  0.46999998093E+01 0.  1.
</event>
<event>
 5   0  0.2662024E-05  0.2597186E+04  0.7818609E-02  0.8369158E-01
       -2   -1    0    0    0  501  0.00000000000E+00  0.00000000000E+00  0.16366542242E+04  0.16366542242E+04  0.25500000920E-02 0.  1.
        2   -1    0    0  501    0  0.00000000000E+00  0.00000000000E+00 -0.10303605938E+04  0.10303605938E+04  0.25500000920E-02 0. -1.
    10030    2    1    2    0    0  0.00000000000E+00  0.00000000000E+00  0.60629363045E+03  0.26670148180E+04  0.25971861837E+04 0.  0.
        2    1    3    3  502    0 -0.10266316435E+04  0.12340931491E+03 -0.50355821616E+03  0.11501188058E+04  0.25500000920E-02 0. -1.
       -2    1    3    3    0  502  0.10266316435E+04 -0.12340931491E+03  0.11098518466E+04  0.15168960122E+04  0.25500000920E-02 0.  1.
</event>
<event>
 5   0  0.1034714E-05  0.2653765E+04  0.7818609E-02  0.8350164E-01
        1   -1    0    0  501    0  0.00000000000E+00  0.00000000000E+00  0.17273926491E+04  0.17273926492E+04  0.50400001928E-02 0.  1.
       -1   -1    0    0    0  501  0.00000000000E+00  0.00000000000E+00 -0.10192337289E+04  0.10192337289E+04  0.50400001928E-02 0. -1.
    10030    2    1    2    0    0  0.00000000000E+00  0.00000000000E+00  0.70815892027E+03  0.27466263780E+04  0.26537647605E+04 0.  0.
        5    1    3    3  502    0  0.12669570189E+04  0.32830359577E+03  0.12819625610E+03  0.13150740316E+04  0.46999998093E+01 0. -1.
       -5    1    3    3    0  502 -0.12669570189E+04 -0.32830359577E+03  0.57996266417E+03  0.14315523464E+04  0.46999998093E+01 0.  1.
</event>
<event>
 5   0  0.2555801E-05  0.2637834E+04  0.7818609E-02  0.8355462E-01
       -2   -1    0    0    0  501  0.00000000000E+00  0.00000000000E+00  0.68582863191E+03  0.68582863191E+03  0.25500000920E-02 0.  1.
        2   -1    0    0  501    0  0.00000000000E+00  0.00000000000E+00 -0.25364093892E+04  0.25364093892E+04  0.25500000920E-02 0. -1.
    10030    2    1    2    0    0  0.00000000000E+00  0.00000000000E+00 -0.18505807573E+04  0.32222380211E+04  0.26378340974E+04 0.  0.
        1    1    3    3  502    0 -0.66148049196E+03 -0.10183909809E+04 -0.29662017407E+03  0.12500640619E+04  0.50400001928E-02 0.  1.
       -1    1    3    3    0  502  0.66148049196E+03  0.10183909809E+04 -0.15539605832E+04  0.19721739592E+04  0.50400001928E-02 0. -1.
</event>
<event>
 5   0  0.2517854E-05  0.2606660E+04  0.7818609E-02  0.8365942E-01
        2   -1    0    0  501    0  0.00000000000E+00  0.00000000000E+00  0.15888661805E+04  0.15888661805E+04  0.25500000920E-02 0.  1.
       -2   -1    0    0    0  501  0.00000000000E+00  0.00000000000E+00 -0.10691077922E+04  0.10691077922E+04  0.25500000920E-02 0. -1.
    10030    2    1    2    0    0  0.00000000000E+00  0.00000000000E+00  0.51975838827E+03  0.26579739727E+04  0.26066600962E+04 0.  0.
        4    1    3    3  502    0  0.12206044780E+04  0.42062020782E+03  0.77840451014E+02  0.12933898869E+04  0.12699999809E+01 0. -1.
       -4    1    3    3    0  502 -0.12206044780E+04 -0.42062020782E+03  0.44191793725E+03  0.13645840857E+04  0.12699999809E+01 0.  1.
</event>
<event>
 5   0  0.2555801E-05  0.2639756E+04  0.7818609E-02  0.8354821E-01
       -2   -1    0    0    0  501  0.00000000000E+00  0.00000000000E+00  0.12854078362E+04  0.12854078362E+04  0.25500000920E-02 0. -1.
        2   -1    0    0  501    0  0.00000000000E+00  0.00000000000E+00 -0.13552728900E+04  0.13552728900E+04  0.25500000920E-02 0.  1.
    10030    2    1    2    0    0  0.00000000000E+00  0.00000000000E+00 -0.69865053823E+02  0.26406807263E+04  0.26397563471E+04 0.  0.
        1    1    3    3  502    0  0.53889361451E+02 -0.13135826028E+04 -0.15191395421E+03  0.13234353657E+04  0.50400001928E-02 0.  1.
       -1    1    3    3    0  502 -0.53889361451E+02  0.13135826028E+04  0.82048900390E+02  0.13172453605E+04  0.50400001928E-02 0. -1.
</event>
<event>
 5   0  0.2662024E-05  0.2637369E+04  0.7818609E-02  0.8355618E-01
       -2   -1    0    0    0  501  0.00000000000E+00  0.00000000000E+00  0.83189438556E+03  0.83189438556E+03  0.25500000920E-02 0.  1.
        2   -1    0    0  501    0  0.00000000000E+00  0.00000000000E+00 -0.20903238390E+04  0.20903238390E+04  0.25500000920E-02 0. -1.
    10030    2    1    2    0    0  0.00000000000E+00  0.00000000000E+00 -0.12584294535E+04  0.29222182246E+04  0.26373688901E+04 0.  0.
        2    1    3    3  502    0  0.98454334490E+03 -0.26719674082E+03  0.29662215562E+03  0.10624050073E+04  0.25500000920E-02 0.  1.
       -2    1    3    3    0  502 -0.98454334490E+03  0.26719674082E+03 -0.15550516091E+04  0.18598132173E+04  0.25500000920E-02 0. -1.
</event>
<event>
 5   0  0.9855352E-06  0.2595312E+04  0.7818609E-02  0.8369795E-01
       -1   -1    0    0    0  501  0.00000000000E+00  0.00000000000E+00  0.13843919018E+04  0.13843919018E+04  0.50400001928E-02 0.  1.
        1   -1    0    0  501    0  0.00000000000E+00  0.00000000000E+00 -0.12163541335E+04  0.12163541335E+04  0.50400001928E-02 0. -1.
    10030    2    1    2    0    0  0.00000000000E+00  0.00000000000E+00  0.16803776825E+03  0.26007460353E+04  0.25953117826E+04 0.  0.
        2    1    3    3  502    0 -0.37686730045E+03 -0.29641971805E+03 -0.11243323189E+04  0.12222997892E+04  0.25500000920E-02 0. -1.
       -2    1    3    3    0  502  0.37686730045E+03  0.29641971805E+03  0.12923700871E+04  0.13784462461E+04  0.25500000920E-02 0.  1.
</event>
<event>
 5   0  0.9855352E-06  0.2577967E+04  0.7818609E-02  0.8375724E-01
       -1   -1    0    0    0  501  0.00000000000E+00  0.00000000000E+00  0.90239938747E+03  0.90239938748E+03  0.50400001928E-02 0.  1.
        1   -1    0    0  501    0  0.00000000000E+00  0.00000000000E+00 -0.18411784033E+04  0.18411784033E+04  0.50400001928E-02 0. -1.
    10030    2    1    2    0    0  0.00000000000E+00  0.00000000000E+00 -0.93877901580E+03  0.27435777908E+04  0.25779668449E+04 0.  0.
        2    1    3    3  502    0 -0.10381518282E+04  0.89107900731E+02  0.33815747017E+03  0.10954678959E+04  0.25500000920E-02 0.  1.
       -2    1    3    3    0  502  0.10381518282E+04 -0.89107900731E+02 -0.12769364860E+04  0.16481098949E+04  0.25500000920E-02 0. -1.
</event>
<event>
 5   0  0.2555801E-05  0.2595070E+04  0.7818609E-02  0.8369878E-01
       -2   -1    0    0    0  501  0.00000000000E+00  0.00000000000E+00  0.62826123980E+03  0.62826123981E+03  0.25500000920E-02 0. -1.
        2   -1    0    0  501    0  0.00000000000E+00  0.00000000000E+00 -0.26797729949E+04  0.26797729949E+04  0.25500000920E-02 0.  1.
    10030    2    1    2    0    0  0.00000000000E+00  0.00000000000E+00 -0.20515117551E+04  0.33080342347E+04  0.25950703298E+04 0.  0.
        1    1    3    3  502    0 -0.55384223142E+03  0.93847370187E+03 -0.19236305433E+04  0.22108434078E+04  0.50400001928E-02 0.  1.
       -1    1    3    3    0  502  0.55384223142E+03 -0.93847370187E+03 -0.12788121177E+03  0.10971908270E+04  0.50400001928E-02 0. -1.
</event>
<event>
 5   0  0.1025153E-05  0.2615568E+04  0.7818609E-02  0.8362932E-01
        1   -1    0    0  501    0  0.00000000000E+00  0.00000000000E+00  0.15057635061E+04  0.15057635061E+04  0.50400001928E-02 0.  1.
       -1   -1    0    0    0  501  0.00000000000E+00  0.00000000000E+00 -0.11358349187E+04  0.11358349187E+04  0.50400001928E-02 0. -1.
    10030    2    1    2    0    0  0.00000000000E+00  0.00000000000E+00  0.36992858735E+03  0.26415984248E+04  0.26155678309E+04 0.  0.
        1    1    3    3  502    0  0.10785255868E+04  0.61938947122E+03  0.59326237950E+03  0.13779771440E+04  0.50400001928E-02 0.  1.
       -1    1    3    3    0  502 -0.10785255868E+04 -0.61938947122E+03 -0.22333379215E+03  0.12636212808E+04  0.50400001928E-02 0. -1.
</event>
<event>
 5   0  0.1034714E-05  0.1946181E+04  0.7818609E-02  0.8632204E-01
       -1   -1    0    0    0  501  0.00000000000E+00  0.00000000000E+00  0.10694778192E+04  0.10694778193E+04  0.50400001928E-02 0.  1.
        1   -1    0    0  501    0  0.00000000000E+00  0.00000000000E+00 -0.88539042853E+03  0.88539042854E+03  0.50400001928E-02 0. -1.
    10030    2    1    2    0    0  0.00000000000E+00  0.00000000000E+00  0.18408739071E+03  0.19548682478E+04  0.19461813119E+04 0.  0.
        5    1    3    3  502    0  0.89534358355E+03 -0.18258378775E+03 -0.24397356330E+03  0.94579181734E+03  0.46999998093E+01 0. -1.
       -5    1    3    3    0  502 -0.89534358355E+03  0.18258378775E+03  0.42806095402E+03  0.10090764305E+04  0.46999998093E+01 0.  1.
</event>
<event>
 5   0  0.2484618E-05  0.2615022E+04  0.7818609E-02  0.8363116E-01
       -2   -1    0    0    0  501  0.00000000000E+00  0.00000000000E+00  0.15324493966E+04  0.15324493966E+04  0.25500000920E-02 0.  1.
        2   -1    0    0  501    0  0.00000000000E+00  0.00000000000E+00 -0.11155900645E+04  0.11155900645E+04  0.25500000920E-02 0. -1.
    10030    2    1    2    0    0  0.00000000000E+00  0.00000000000E+00  0.41685933203E+03  0.26480394611E+04  0.26150222341E+04 0.  0.
        3    1    3    3  502    0  0.12023891388E+04 -0.20113042287E+03 -0.27018179230E+03  0.12486758183E+04  0.10100000352E+00 0. -1.
       -3    1    3    3    0  502 -0.12023891388E+04  0.20113042287E+03  0.68704112432E+03  0.13993636428E+04  0.10100000352E+00 0.  1.
</event>
<event>
 5   0  0.1005492E-05  0.2635092E+04  0.7818609E-02  0.8356378E-01
       -1   -1    0    0    0  501  0.00000000000E+00  0.00000000000E+00  0.90337938823E+03  0.90337938824E+03  0.50400001928E-02 0. -1.
        1   -1    0    0  501    0  0.00000000000E+00  0.00000000000E+00 -0.19215922545E+04  0.19215922545E+04  0.50400001928E-02 0.  1.
    10030    2    1    2    0    0  0.00000000000E+00  0.00000000000E+00 -0.10182128663E+04  0.28249716428E+04  0.26350915243E+04 0.  0.
        4    1    3    3  502    0  0.13111415375E+04  0.10117292628E+03 -0.42203094524E+03  0.13811009463E+04  0.12699999809E+01 0.  1.
       -4    1    3    3    0  502 -0.13111415375E+04 -0.10117292628E+03 -0.59618192107E+03  0.14438706965E+04  0.12699999809E+01 0. -1.
</event>
<event>
 5   0  0.2662024E-05  0.2602118E+04  0.7818609E-02  0.8367482E-01
        2   -1    0    0  501    0  0.00000000000E+00  0.00000000000E+00  0.14268061474E+04  0.14268061474E+04  0.25500000920E-02 0. -1.
       -2   -1    0    0    0  501  0.00000000000E+00  0.00000000000E+00 -0.11863945734E+04  0.11863945734E+04  0.25500000920E-02 0.  1.
    10030    2    1    2    0    0  0.00000000000E+00  0.00000000000E+00  0.24041157401E+03  0.26132007209E+04  0.26021184221E+04 0.  0.
        2    1    3    3  502    0 -0.64378250325E+03 -0.89440097690E+02  0.12520816465E+04  0.14107316867E+04  0.25500000920E-02 0. -1.
       -2    1    3    3    0  502  0.64378250325E+03  0.89440097690E+02 -0.10116700724E+04  0.12024690341E+04  0.25500000920E-02 0.  1.
</event>
<event>
 5   0  0.1005492E-05  0.2542226E+04  0.7818609E-02  0.8388095E-01
       -1   -1    0    0    0  501  0.00000000000E+00  0.00000000000E+00  0.68553037177E+03  0.68553037179E+03  0.50400001928E-02 0.  1.
        1   -1    0    0  501    0  0.00000000000E+00  0.00000000000E+00 -0.23569018928E+04  0.23569018928E+04  0.50400001928E-02 0. -1.
    10030    2    1    2    0    0  0.00000000000E+00  0.00000000000E+00 -0.16713715210E+04  0.30424322646E+04  0.25422256633E+04 0.  0.
        4    1    3    3  502    0  0.92423811864E+03  0.85995576977E+03 -0.65823338083E+03  0.14237320051E+04  0.12699999809E+01 0.  1.
       -4    1    3    3    0  502 -0.92423811864E+03 -0.85995576977E+03 -0.10131381402E+04  0.16187002594E+04  0.12699999809E+01 0. -1.
</event>
<event>
 5   0  0.1025153E-05  0.2467755E+04  0.7818609E-02  0.8414564E-01
        1   -1    0    0  501    0  0.00000000000E+00  0.00000000000E+00  0.20451914646E+04  0.20451914646E+04  0.50400001928E-02 0. -1.
       -1   -1    0    0    0  501  0.00000000000E+00  0.00000000000E+00 -0.74440672807E+03  0.74440672809E+03  0.50400001928E-02 0.  1.
    10030    2    1    2    0    0  0.00000000000E+00  0.00000000000E+00  0.13007847365E+04  0.27895981927E+04  0.24677554875E+04 0.  0.
        1    1    3    3  502    0  0.18975708304E+03 -0.73870200052E+03  0.17468208485E+04  0.19060617705E+04  0.50400001928E-02 0. -1.
       -1    1    3    3    0  502 -0.18975708304E+03  0.73870200052E+03 -0.44603611198E+03  0.88353642220E+03  0.50400001928E-02 0.  1.
</event>
<event>
 5   0  0.2528460E-05  0.2745113E+04  0.7818609E-02  0.8320514E-01
       -2   -1    0    0    0  501  0.00000000000E+00  0.00000000000E+00  0.11829549803E+04  0.11829549803E+04  0.25500000920E-02 0. -1.
        2   -1    0    0  501    0  0.00000000000E+00  0.00000000000E+00 -0.15925471833E+04  0.15925471833E+04  0.25500000920E-02 0.  1.
    10030    2    1    2    0    0  0.00000000000E+00  0.00000000000E+00 -0.40959220295E+03  0.27755021636E+04  0.27451132012E+04 0.  0.
        5    1    3    3  502    0  0.47229047386E+03  0.85635281672E+03 -0.11785207996E+04  0.15314476169E+04  0.46999998093E+01 0.  1.
       -5    1    3    3    0  502 -0.47229047386E+03 -0.85635281672E+03  0.76892859661E+03  0.12440545467E+04  0.46999998093E+01 0. -1.
</event>
<event>
 5   0  0.1000421E-05  0.2592068E+04  0.7818609E-02  0.8370900E-01
        1   -1    0    0  501    0  0.00000000000E+00  0.00000000000E+00  0.20842718027E+04  0.20842718027E+04  0.50400001928E-02 0.  1.
       -1   -1    0    0    0  501  0.00000000000E+00  0.00000000000E+00 -0.80589504818E+03  0.80589504819E+03  0.50400001928E-02 0. -1.
    10030    2    1    2    0    0  0.00000000000E+00  0.00000000000E+00  0.12783767545E+04  0.28901668509E+04  0.25920681510E+04 0.  0.
        3    1    3    3  502    0  0.95496362767E+03 -0.87546021240E+03  0.67967087678E+03  0.14629896188E+04  0.10100000352E+00 0.  1.
       -3    1    3    3    0  502 -0.95496362767E+03  0.87546021240E+03  0.59870587773E+03  0.14271772321E+04  0.10100000352E+00 0. -1.
</event>
<event>
 5   0  0.1000421E-05  0.2663600E+04  0.7818609E-02  0.8346913E-01
        1   -1    0    0  501    0  0.00000000000E+00  0.00000000000E+00  0.69995372584E+03  0.69995372586E+03  0.50400001928E-02 0.  1.
       -1   -1    0    0    0  501  0.00000000000E+00  0.00000000000E+00 -0.25340129723E+04  0.25340129723E+04  0.50400001928E-02 0. -1.
    10030    2    1    2    0    0  0.00000000000E+00  0.00000000000E+00 -0.18340592465E+04  0.32339666982E+04  0.26636004365E+04 0.  0.
        3    1    3    3  502    0  0.61773581358E+03  0.10384086335E+04 -0.23689611589E+03  0.12312634996E+04  0.10100000352E+00 0.  1.
       -3    1    3    3    0  502 -0.61773581358E+03 -0.10384086335E+04 -0.15971631306E+04  0.20027031985E+04  0.10100000352E+00 0. -1.
</event>
<event>
 5   0  0.2662024E-05  0.2651433E+04  0.7818609E-02  0.8350937E-01
        2   -1    0    0  501    0  0.00000000000E+00  0.00000000000E+00  0.17940524455E+04  0.17940524455E+04  0.25500000920E-02 0. -1.
       -2   -1    0    0    0  501  0.00000000000E+00  0.00000000000E+00 -0.97963932738E+03  0.97963932738E+03  0.25500000920E-02 0.  1.
    10030    2    1    2    0    0  0.00000000000E+00  0.00000000000E+00  0.81441311810E+03  0.27736917729E+04  0.26514330698E+04 0.  0.
        2    1    3    3  502    0  0.48955686646E+03  0.12259071876E+04  0.27904213670E+03  0.13492141684E+04  0.25500000920E-02 0. -1.
       -2    1    3    3    0  502 -0.48955686646E+03 -0.12259071876E+04  0.53537098140E+03  0.14244776045E+04  0.25500000920E-02 0.  1.
</event>
<event>
 5   0  0.2517854E-05  0.2660784E+04  0.7818609E-02  0.8347842E-01
        2   -1    0    0  501    0  0.00000000000E+00  0.00000000000E+00  0.12050270134E+04  0.12050270134E+04  0.25500000920E-02 0.  1.
       -2   -1    0    0    0  501  0.00000000000E+00  0.00000000000E+00 -0.14687994791E+04  0.14687994791E+04  0.25500000920E-02 0. -1.
    10030    2    1    2    0    0  0.00000000000E+00  0.00000000000E+00 -0.26377246574E+03  0.26738264925E+04  0.26607841323E+04 0.  0.
        4    1    3    3  502    0 -0.12970850096E+04 -0.69601070390E+02 -0.42081531624E+03  0.13654160444E+04  0.12699999809E+01 0.  1.
       -4    1    3    3    0  502  0.12970850096E+04  0.69601070390E+02  0.15704285050E+03  0.13084104481E+04  0.12699999809E+01 0. -1.
</event>
<event>
 5   0  0.1000421E-05  0.2822267E+04  0.7818609E-02  0.8296388E-01
       -1   -1    0    0    0  501  0.00000000000E+00  0.00000000000E+00  0.10157600155E+04  0.10157600155E+04  0.50400001928E-02 0.  1.
        1   -1    0    0  501    0  0.00000000000E+00  0.00000000000E+00 -0.19604023764E+04  0.19604023764E+04  0.50400001928E-02 0. -1.
    10030    2    1    2    0    0  0.00000000000E+00  0.00000000000E+00 -0.94464236092E+03  0.29761623919E+04  0.28222674205E+04 0.  0.
        3    1    3    3  502    0  0.75207597412E+02  0.13204404127E+04 -0.99116573639E+03  0.16527639255E+04  0.10100000352E+00 0.  1.
       -3    1    3    3    0  502 -0.75207597412E+02 -0.13204404127E+04  0.46523375474E+02  0.13233984664E+04  0.10100000352E+00 0. -1.
</event>
<event>
 5   0  0.2662024E-05  0.2656253E+04  0.7818609E-02  0.8349341E-01
       -2   -1    0    0    0  501  0.00000000000E+00  0.00000000000E+00  0.95746689190E+03  0.95746689190E+03  0.25500000920E-02 0.  1.
        2   -1    0    0  501    0  0.00000000000E+00  0.00000000000E+00 -0.18422773725E+04  0.18422773725E+04  0.25500000920E-02 0. -1.
    10030    2    1    2    0    0  0.00000000000E+00  0.00000000000E+00 -0.88481048064E+03  0.27997442644E+04  0.26562526912E+04 0.  0.
        2    1    3    3  502    0  0.41842252047E+03  0.12143447444E+04 -0.86200913763E+02  0.12872999500E+04  0.25500000920E-02 0. -1.
       -2    1    3    3    0  502 -0.41842252047E+03 -0.12143447444E+04 -0.79860956687E+03  0.15124443144E+04  0.25500000920E-02 0.  1.
</event>
<event>
 5   0  0.2517854E-05  0.1863431E+04  0.7818609E-02  0.8673276E-01
        2   -1    0    0  501    0  0.00000000000E+00  0.00000000000E+00  0.82419617672E+03  0.82419617672E+03  0.25500000920E-02 0.  1.
       -2   -1    0    0    0  501  0.00000000000E+00  0.00000000000E+00 -0.10532609771E+04  0.10532609771E+04  0.25500000920E-02 0. -1.
    10030    2    1    2    0    0  0.00000000000E+00  0.00000000000E+00 -0.22906480035E+03  0.18774571538E+04  0.18634308899E+04 0.  0.
        4    1    3    3  502    0  0.39120801781E+02 -0.26527419712E+03  0.78447949138E+03  0.82904193023E+03  0.12699999809E+01 0.  1.
       -4    1    3    3    0  502 -0.39120801781E+02  0.26527419712E+03 -0.10135442917E+04  0.10484152236E+04  0.12699999809E+01 0. -1.
</event>
<event>
 5   0  0.2484618E-05  0.2617162E+04  0.7818609E-02  0.8362395E-01
        2   -1    0    0  501    0  0.00000000000E+00  0.00000000000E+00  0.17612840030E+04  0.17612840030E+04  0.25500000920E-02 0.  1.
       -2   -1    0    0    0  501  0.00000000000E+00  0.00000000000E+00 -0.97223652891E+03  0.97223652892E+03  0.25500000920E-02 0. -1.
    10030    2    1    2    0    0  0.00000000000E+00  0.00000000000E+00  0.78904747405E+03  0.27335205319E+04  0.26171623148E+04 0.  0.
        3    1    3    3  502    0  0.29221830011E+03 -0.12491746452E+04  0.66397774995E+03  0.14445398201E+04  0.10100000352E+00 0.  1.
       -3    1    3    3    0  502 -0.29221830011E+03  0.12491746452E+04  0.12506972410E+03  0.12889807118E+04  0.10100000352E+00 0. -1.
</event>
<event>
 5   0  0.1000421E-05  0.2650040E+04  0.7818609E-02  0.8351400E-01
        1   -1    0    0  501    0  0.00000000000E+00  0.00000000000E+00  0.10059545946E+04  0.10059545946E+04  0.50400001928E-02 0.  1.
       -1   -1    0    0    0  501  0.00000000000E+00  0.00000000000E+00 -0.17452848893E+04  0.17452848893E+04  0.50400001928E-02 0. -1.
    10030    2    1    2    0    0  0.00000000000E+00  0.00000000000E+00 -0.73933029470E+03  0.27512394839E+04  0.26500395116E+04 0.  0.
        3    1    3    3  502    0 -0.30490540982E+03 -0.42432576436E+03  0.89447869061E+03  0.10359110972E+04  0.10100000352E+00 0.  1.
       -3    1    3    3    0  502  0.30490540982E+03  0.42432576436E+03 -0.16338089853E+04  0.17153283866E+04  0.10100000352E+00 0. -1.
</event>
<event>
 5   0  0.2662024E-05  0.2587222E+04  0.7818609E-02  0.8372555E-01
       -2   -1    0    0    0  501  0.00000000000E+00  0.00000000000E+00  0.14067229024E+04  0.14067229024E+04  0.25500000920E-02 0.  1.
        2   -1    0    0  501    0  0.00000000000E+00  0.00000000000E+00 -0.11895939013E+04  0.11895939013E+04  0.25500000920E-02 0. -1.
    10030    2    1    2    0    0  0.00000000000E+00  0.00000000000E+00  0.21712900103E+03  0.25963168037E+04  0.25872216647E+04 0.  0.
        2    1    3    3  502    0 -0.10572194386E+04  0.40464115281E+03 -0.51972076586E+03  0.12456151405E+04  0.25500000920E-02 0. -1.
       -2    1    3    3    0  502  0.10572194386E+04 -0.40464115281E+03  0.73684976689E+03  0.13507016632E+04  0.25500000920E-02 0.  1.
</event>
<event>
 5   0  0.8605000E-06  0.2578250E+04  0.7818609E-02  0.8375627E-01
        3   -1    0    0  501    0  0.00000000000E+00  0.00000000000E+00  0.92617172203E+03  0.92617172754E+03  0.10100000352E+00 0.  1.
       -3   -1    0    0    0  501  0.00000000000E+00  0.00000000000E+00 -0.17943137891E+04  0.17943137920E+04  0.10100000352E+00 0. -1.
    10030    2    1    2    0    0  0.00000000000E+00  0.00000000000E+00 -0.86814206708E+03  0.27204855195E+04  0.25782495638E+04 0.  0.
        2    1    3    3  502    0 -0.67688415904E+03 -0.12222671892E+03 -0.15845092246E+04  0.17273624456E+04  0.25500000920E-02 0. -1.
       -2    1    3    3    0  502  0.67688415904E+03  0.12222671892E+03  0.71636715751E+03  0.99312307391E+03  0.25500000920E-02 0.  1.
</event>
<event>
 5   0  0.1005492E-05  0.2617772E+04  0.7818609E-02  0.8362189E-01
       -1   -1    0    0    0  501  0.00000000000E+00  0.00000000000E+00  0.83624219027E+03  0.83624219028E+03  0.50400001928E-02 0. -1.
        1   -1    0    0  501    0  0.00000000000E+00  0.00000000000E+00 -0.20486682043E+04  0.20486682044E+04  0.50400001928E-02 0.  1.
    10030    2    1    2    0    0  0.00000000000E+00  0.00000000000E+00 -0.12124260141E+04  0.28849103946E+04  0.26177721722E+04 0.  0.
        4    1    3    3  502    0  0.15980223095E+03 -0.88612012363E+02 -0.20345420894E+04  0.20427314968E+04  0.12699999809E+01 0.  1.
       -4    1    3    3    0  502 -0.15980223095E+03  0.88612012363E+02  0.82211607530E+03  0.84217889781E+03  0.12699999809E+01 0. -1.
</event>
<event>
 5   0  0.2662024E-05  0.2541047E+04  0.7818609E-02  0.8388506E-01
        2   -1    0    0  501    0  0.00000000000E+00  0.00000000000E+00  0.26596720681E+04  0.26596720681E+04  0.25500000920E-02 0. -1.
       -2   -1    0    0    0  501  0.00000000000E+00  0.00000000000E+00 -0.60692830072E+03  0.60692830072E+03  0.25500000920E-02 0.  1.
    10030    2    1    2    0    0  0.00000000000E+00  0.00000000000E+00  0.20527437674E+04  0.32666003688E+04  0.25410472241E+04 0.  0.
        2    1    3    3  502    0 -0.37558255873E+03 -0.12137398974E+04  0.10239834644E+04  0.16317992929E+04  0.25500000920E-02 0. -1.
       -2    1    3    3    0  502  0.37558255873E+03  0.12137398974E+04  0.10287603030E+04  0.16348010759E+04  0.25500000920E-02 0.  1.
</event>
<event>
 5   0  0.1034714E-05  0.2601888E+04  0.7818609E-02  0.8367560E-01
       -1   -1    0    0    0  501  0.00000000000E+00  0.00000000000E+00  0.98838664962E+03  0.98838664963E+03  0.50400001928E-02 0. -1.
        1   -1    0    0  501    0  0.00000000000E+00  0.00000000000E+00 -0.17123419285E+04  0.17123419285E+04  0.50400001928E-02 0.  1.
    10030    2    1    2    0    0  0.00000000000E+00  0.00000000000E+00 -0.72395527889E+03  0.27007285782E+04  0.26018884694E+04 0.  0.
        5    1    3    3  502    0 -0.97116665902E+03 -0.35905185681E+03  0.45556604989E+03  0.11312141403E+04  0.46999998093E+01 0. -1.
       -5    1    3    3    0  502  0.97116665902E+03  0.35905185681E+03 -0.11795213288E+04  0.15695144378E+04  0.46999998093E+01 0.  1.
</event>
<event>
 5   0  0.1000421E-05  0.2568438E+04  0.7818609E-02  0.8379002E-01
        1   -1    0    0  501    0  0.00000000000E+00  0.00000000000E+00  0.12289106249E+04  0.12289106249E+04  0.50400001928E-02 0.  1.
       -1   -1    0    0    0  501  0.00000000000E+00  0.00000000000E+00 -0.13420165818E+04  0.13420165818E+04  0.50400001928E-02 0. -1.
    10030    2    1    2    0    0  0.00000000000E+00  0.00000000000E+00 -0.11310595687E+03  0.25709272067E+04  0.25684379971E+04 0.  0.
        3    1    3    3  502    0  0.91230257851E+03 -0.81076042440E+03  0.34332131380E+03  0.12678714427E+04  0.10100000352E+00 0.  1.
       -3    1    3    3    0  502 -0.91230257851E+03  0.81076042440E+03 -0.45642727067E+03  0.13030557640E+04  0.10100000352E+00 0. -1.
</event>
<event>
 5   0  0.1000421E-05  0.2630134E+04  0.7818609E-02  0.8358037E-01
        1   -1    0    0  501    0  0.00000000000E+00  0.00000000000E+00  0.16672557830E+04  0.16672557830E+04  0.50400001928E-02 0. -1.
       -1   -1    0    0    0  501  0.00000000000E+00  0.00000000000E+00 -0.10372743456E+04  0.10372743456E+04  0.50400001928E-02 0.  1.
    10030    2    1    2    0    0  0.00000000000E+00  0.00000000000E+00  0.62998143738E+03  0.27045301286E+04  0.26301343321E+04 0.  0.
        3    1    3    3  502    0  0.75695842969E+03 -0.10624128651E+04  0.48611455505E+03  0.13921259034E+04  0.10100000352E+00 0. -1.
       -3    1    3    3    0  502 -0.75695842969E+03  0.10624128651E+04  0.14386688233E+03  0.13124042251E+04  0.10100000352E+00 0.  1.
</event>
<event>
 5   0  0.9855352E-06  0.2574088E+04  0.7818609E-02  0.8377056E-01
        1   -1    0    0  501    0  0.00000000000E+00  0.00000000000E+00  0.10038943046E+04  0.10038943046E+04  0.50400001928E-02 0.  1.
       -1   -1    0    0    0  501  0.00000000000E+00  0.00000000000E+00 -0.16500567613E+04  0.16500567613E+04  0.50400001928E-02 0. -1.
    10030    2    1    2    0    0  0.00000000000E+00  0.00000000000E+00 -0.64616245670E+03  0.26539510659E+04  0.25740882540E+04 0.  0.
        2    1    3    3  502    0  0.57846901655E+03 -0.11305675429E+04 -0.53854638487E+03  0.13794352398E+04  0.25500000920E-02 0.  1.
       -2    1    3    3    0  502 -0.57846901655E+03  0.11305675429E+04 -0.10761607183E+03  0.12745158261E+04  0.25500000920E-02 0. -1.
</event>
<event>
 5   0  0.2528460E-05  0.2687275E+04  0.7818609E-02  0.8339146E-01
        2   -1    0    0  501    0  0.00000000000E+00  0.00000000000E+00  0.17876623711E+04  0.17876623711E+04  0.25500000920E-02 0. -1.
       -2   -1    0    0    0  501  0.00000000000E+00  0.00000000000E+00 -0.10099007735E+04  0.10099007736E+04  0.25500000920E-02 0.  1.
    10030    2    1    2    0    0  0.00000000000E+00  0.00000000000E+00  0.77776159753E+03  0.27975631446E+04  0.26872749107E+04 0.  0.
        5    1    3    3  502    0  0.45643027245E+02  0.12992057857E+04  0.74240664911E+03  0.14970666926E+04  0.46999998093E+01 0. -1.
       -5    1    3    3    0  502 -0.45643027245E+02 -0.12992057857E+04  0.35354948418E+02  0.13004964520E+04  0.46999998093E+01 0.  1.
</event>
<event>
 5   0  0.1005492E-05  0.2625296E+04  0.7818609E-02  0.8359659E-01
        1   -1    0    0  501    0  0.00000000000E+00  0.00000000000E+00  0.11880345336E+04  0.11880345336E+04  0.50400001928E-02 0.  1.
       -1   -1    0    0    0  501  0.00000000000E+00  0.00000000000E+00 -0.14503322289E+04  0.14503322289E+04  0.50400001928E-02 0. -1.
    10030    2    1    2    0    0  0.00000000000E+00  0.00000000000E+00 -0.26229769531E+03  0.26383667626E+04  0.26252960010E+04 0.  0.
        4    1    3    3  502    0 -0.64187475658E+03  0.10113419931E+04 -0.67068986900E+03  0.13728227647E+04  0.12699999809E+01 0. -1.
       -4    1    3    3    0  502  0.64187475658E+03 -0.10113419931E+04  0.40839217369E+03  0.12655439978E+04  0.12699999809E+01 0.  1.
</event>
<event>
 5   0  0.1000421E-05  0.2501099E+04  0.7818609E-02  0.8402594E-01
        1   -1    0    0  501    0  0.00000000000E+00  0.00000000000E+00  0.12971490013E+04  0.12971490013E+04  0.50400001928E-02 0.  1.
       -1   -1    0    0    0  501  0.00000000000E+00  0.00000000000E+00 -0.12056241197E+04  0.12056241197E+04  0.50400001928E-02 0. -1.
    10030    2    1    2    0    0  0.00000000000E+00  0.00000000000E+00  0.91524881613E+02  0.25027731211E+04  0.25010990567E+04 0.  0.
        3    1    3    3  502    0 -0.86314944494E+03  0.32799603562E+03  0.88969265875E+03  0.12822485722E+04  0.10100000352E+00 0.  1.
       -3    1    3    3    0  502  0.86314944494E+03 -0.32799603562E+03 -0.79816777714E+03  0.12205245488E+04  0.10100000352E+00 0. -1.
</event>
<event>
 5   0  0.2662024E-05  0.2617464E+04  0.7818609E-02  0.8362293E-01
        2   -1    0    0  501    0  0.00000000000E+00  0.00000000000E+00  0.15490130680E+04  0.15490130680E+04  0.25500000920E-02 0. -1.
       -2   -1    0    0    0  501  0.00000000000E+00  0.00000000000E+00 -0.11057228085E+04  0.11057228085E+04  0.25500000920E-02 0.  1.
    10030    2    1    2    0    0  0.00000000000E+00  0.00000000000E+00  0.44329025948E+03  0.26547358765E+04  0.26174637189E+04 0.  0.
        2    1    3    3  502    0  0.59553791739E+03  0.33217692665E+03  0.13545887387E+04  0.15165479131E+04  0.25500000920E-02 0. -1.
       -2    1    3    3    0  502 -0.59553791739E+03 -0.33217692665E+03 -0.91129847925E+03  0.11381879634E+04  0.25500000920E-02 0.  1.
</event>
<event>
 5   0  0.9855352E-06  0.2609296E+04  0.7818609E-02  0.8365050E-01
       -1   -1    0    0    0  501  0.00000000000E+00  0.00000000000E+00  0.14501985784E+04  0.14501985784E+04  0.50400001928E-02 0. -1.
        1   -1    0    0  501    0  0.00000000000E+00  0.00000000000E+00 -0.11737058764E+04  0.11737058764E+04  0.50400001928E-02 0.  1.
    10030    2    1    2    0    0  0.00000000000E+00  0.00000000000E+00  0.27649270197E+03  0.26239044548E+04  0.26092961453E+04 0.  0.
        2    1    3    3  502    0 -0.62892052405E+03 -0.14207518809E+03  0.12787831943E+04  0.14321357626E+04  0.25500000920E-02 0. -1.
       -2    1    3    3    0  502  0.62892052405E+03  0.14207518809E+03 -0.10022904923E+04  0.11917686922E+04  0.25500000920E-02 0.  1.
</event>
<event>
 5   0  0.2528460E-05  0.2617447E+04  0.7818609E-02  0.8362299E-01
        2   -1    0    0  501    0  0.00000000000E+00  0.00000000000E+00  0.12099573308E+04  0.12099573308E+04  0.25500000920E-02 0. -1.
       -2   -1    0    0    0  501  0.00000000000E+00  0.00000000000E+00 -0.14155522397E+04  0.14155522397E+04  0.25500000920E-02 0.  1.
    10030    2    1    2    0    0  0.00000000000E+00  0.00000000000E+00 -0.20559490889E+03  0.26255095704E+04  0.26174474661E+04 0.  0.
        5    1    3    3  502    0  0.35325226955E+03  0.51733736890E+03  0.10497894660E+04  0.12224995428E+04  0.46999998093E+01 0. -1.
       -5    1    3    3    0  502 -0.35325226955E+03 -0.51733736890E+03 -0.12553843748E+04  0.14030100277E+04  0.46999998093E+01 0.  1.
</event>
<event>
 5   0  0.1025153E-05  0.2614199E+04  0.7818609E-02  0.8363394E-01
        1   -1    0    0  501    0  0.00000000000E+00  0.00000000000E+00  0.18604983685E+04  0.18604983685E+04  0.50400001928E-02 0. -1.
       -1   -1    0    0    0  501  0.00000000000E+00  0.00000000000E+00 -0.91830721100E+03  0.91830721101E+03  0.50400001928E-02 0.  1.
    10030    2    1    2    0    0  0.00000000000E+00  0.00000000000E+00  0.94219115746E+03  0.27788055795E+04  0.26141989732E+04 0.  0.
        1    1    3    3  502    0  0.26038011537E+03  0.12288639300E+04  0.86947262937E+02  0.12591521709E+04  0.50400001928E-02 0. -1.
       -1    1    3    3    0  502 -0.26038011537E+03 -0.12288639300E+04  0.85524389452E+03  0.15196534086E+04  0.50400001928E-02 0.  1.
</event>
<event>
 5   0  0.2484618E-05  0.2614492E+04  0.7818609E-02  0.8363295E-01
       -2   -1    0    0    0  501  0.00000000000E+00  0.00000000000E+00  0.87109064979E+03  0.87109064980E+03  0.25500000920E-02 0. -1.
        2   -1    0    0  501    0  0.00000000000E+00  0.00000000000E+00 -0.19617851298E+04  0.19617851298E+04  0.25500000920E-02 0.  1.
    10030    2    1    2    0    0  0.00000000000E+00  0.00000000000E+00 -0.10906944800E+04  0.28328757796E+04  0.26144924429E+04 0.  0.
        3    1    3    3  502    0 -0.21064929072E+03 -0.96920027557E+03 -0.14680464897E+04  0.17716892515E+04  0.10100000352E+00 0.  1.
       -3    1    3    3    0  502  0.21064929072E+03  0.96920027557E+03  0.37735200973E+03  0.10611865280E+04  0.10100000352E+00 0. -1.
</event>
<event>
 5   0  0.2528460E-05  0.2356395E+04  0.7818609E-02  0.8456011E-01
        2   -1    0    0  501    0  0.00000000000E+00  0.00000000000E+00  0.13199000202E+04  0.13199000202E+04  0.25500000920E-02 0. -1.
       -2   -1    0    0    0  501  0.00000000000E+00  0.00000000000E+00 -0.10517077288E+04  0.10517077288E+04  0.25500000920E-02 0.  1.
    10030    2    1    2    0    0  0.00000000000E+00  0.00000000000E+00  0.26819229144E+03  0.23716077490E+04  0.23563947483E+04 0.  0.
        5    1    3    3  502    0 -0.51753976160E+03  0.36971218731E+03  0.11322613103E+04  0.12986809735E+04  0.46999998093E+01 0. -1.
       -5    1    3    3    0  502  0.51753976160E+03 -0.36971218731E+03 -0.86406901883E+03  0.10729267755E+04  0.46999998093E+01 0.  1.
</event>
<event>
 5   0  0.1025153E-05  0.2584745E+04  0.7818609E-02  0.8373402E-01
        1   -1    0    0  501    0  0.00000000000E+00  0.00000000000E+00  0.12181256548E+04  0.12181256549E+04  0.50400001928E-02 0. -1.
       -1   -1    0    0    0  501  0.00000000000E+00  0.00000000000E+00 -0.13711447319E+04  0.13711447319E+04  0.50400001928E-02 0.  1.
    10030    2    1    2    0    0  0.00000000000E+00  0.00000000000E+00 -0.15301907706E+03  0.25892703868E+04  0.25847449193E+04 0.  0.
        1    1    3    3  502    0  0.77349019207E+03 -0.10138980708E+04  0.13350054028E+03  0.12822241495E+04  0.50400001928E-02 0.  1.
       -1    1    3    3    0  502 -0.77349019207E+03  0.10138980708E+04 -0.28651961733E+03  0.13070462373E+04  0.50400001928E-02 0. -1.
</event>
<event>
 5   0  0.2662024E-05  0.2625498E+04  0.7818609E-02  0.8359591E-01
       -2   -1    0    0    0  501  0.00000000000E+00  0.00000000000E+00  0.11071434203E+04  0.11071434203E+04  0.25500000920E-02 0. -1.
        2   -1    0    0  501    0  0.00000000000E+00  0.00000000000E+00 -0.15565369452E+04  0.15565369452E+04  0.25500000920E-02 0.  1.
    10030    2    1    2    0    0  0.00000000000E+00  0.00000000000E+00 -0.44939352493E+03  0.26636803654E+04  0.26254977717E+04 0.  0.
        2    1    3    3  502    0  0.87097080177E+03  0.96471798510E+03 -0.41187570742E+03  0.13634194243E+04  0.25500000920E-02 0. -1.
       -2    1    3    3    0  502 -0.87097080177E+03 -0.96471798510E+03 -0.37517817503E+02  0.13002609411E+04  0.25500000920E-02 0.  1.
</event>
<event>
 5   0  0.2528460E-05  0.2805621E+04  0.7818609E-02  0.8301525E-01
       -2   -1    0    0    0  501  0.00000000000E+00  0.00000000000E+00  0.10671247288E+04  0.10671247288E+04  0.25500000920E-02 0.  1.
        2   -1    0    0  501    0  0.00000000000E+00  0.00000000000E+00 -0.18440934242E+04  0.18440934242E+04  0.25500000920E-02 0. -1.
    10030    2    1    2    0    0  0.00000000000E+00  0.00000000000E+00 -0.77696869544E+03  0.29112181530E+04  0.28056212825E+04 0.  0.
        5    1    3    3  502    0  0.25321027806E+02  0.46756379205E+03 -0.17606001324E+04  0.18218100808E+04  0.46999998093E+01 0. -1.
       -5    1    3    3    0  502 -0.25321027806E+02 -0.46756379205E+03  0.98363143698E+03  0.10894080723E+04  0.46999998093E+01 0.  1.
</event>
<event>
 5   0  0.9855352E-06  0.2559074E+04  0.7818609E-02  0.8382237E-01
       -1   -1    0    0    0  501  0.00000000000E+00  0.00000000000E+00  0.74401471381E+03  0.74401471383E+03  0.50400001928E-02 0.  1.
        1   -1    0    0  501    0  0.00000000000E+00  0.00000000000E+00 -0.22005134993E+04  0.22005134993E+04  0.50400001928E-02 0. -1.
    10030    2    1    2    0    0  0.00000000000E+00  0.00000000000E+00 -0.14564987855E+04  0.29445282131E+04  0.25590735991E+04 0.  0.
        2    1    3    3  502    0 -0.12707106495E+04 -0.13240180634E+03 -0.80943663647E+03  0.15124230432E+04  0.25500000920E-02 0.  1.
       -2    1    3    3    0  502  0.12707106495E+04  0.13240180634E+03 -0.64706214899E+03  0.14321051699E+04  0.25500000920E-02 0. -1.
</event>
<event>
 5   0  0.2528460E-05  0.2573734E+04  0.7818609E-02  0.8377178E-01
        2   -1    0    0  501    0  0.00000000000E+00  0.00000000000E+00  0.15667240669E+04  0.15667240669E+04  0.25500000920E-02 0.  1.
       -2   -1    0    0    0  501  0.00000000000E+00  0.00000000000E+00 -0.10569992311E+04  0.10569992311E+04  0.25500000920E-02 0. -1.
    10030    2    1    2    0    0  0.00000000000E+00  0.00000000000E+00  0.50972483577E+03  0.26237232980E+04  0.25737335791E+04 0.  0.
        5    1    3    3  502    0  0.86414299326E+02 -0.63799341247E+03 -0.88100589185E+03  0.10911904036E+04  0.46999998093E+01 0. -1.
       -5    1    3    3    0  502 -0.86414299326E+02  0.63799341247E+03  0.13907307276E+04  0.15325328943E+04  0.46999998093E+01 0.  1.
</event>
<event>
 5   0  0.1005492E-05  0.2596774E+04  0.7818609E-02  0.8369298E-01
       -1   -1    0    0    0  501  0.00000000000E+00  0.00000000000E+00  0.11176332401E+04  0.11176332401E+04  0.50400001928E-02 0.  1.
        1   -1    0    0  501    0  0.00000000000E+00  0.00000000000E+00 -0.15083739736E+04  0.15083739736E+04  0.50400001928E-02 0. -1.
    10030    2    1    2    0    0  0.00000000000E+00  0.00000000000E+00 -0.39074073353E+03  0.26260072137E+04  0.25967740690E+04 0.  0.
        4    1    3    3  502    0  0.50560367824E+03 -0.36383288737E+03  0.95666356460E+03  0.11415849675E+04  0.12699999809E+01 0.  1.
       -4    1    3    3    0  502 -0.50560367824E+03  0.36383288737E+03 -0.13474042981E+04  0.14844222462E+04  0.12699999809E+01 0. -1.
</event>
<event>
 5   0  0.1034714E-05  0.2238553E+04  0.7818609E-02  0.8502551E-01
        1   -1    0    0  501    0  0.00000000000E+00  0.00000000000E+00  0.11599936958E+04  0.11599936958E+04  0.50400001928E-02 0.  1.
       -1   -1    0    0    0  501  0.00000000000E+00  0.00000000000E+00 -0.10799885385E+04  0.10799885385E+04  0.50400001928E-02 0. -1.
    10030    2    1    2    0    0  0.00000000000E+00  0.00000000000E+00  0.80005157328E+02  0.22399822343E+04  0.22385530114E+04 0.  0.
        5    1    3    3  502    0  0.10804955093E+04 -0.15116678674E+03 -0.21002864724E+03  0.11110607840E+04  0.46999998093E+01 0. -1.
       -5    1    3    3    0  502 -0.10804955093E+04  0.15116678674E+03  0.29003380457E+03  0.11289214503E+04  0.46999998093E+01 0.  1.
</event>
<event>
 5   0  0.1034714E-05  0.2487329E+04  0.7818609E-02  0.8407513E-01
        1   -1    0    0  501    0  0.00000000000E+00  0.00000000000E+00  0.14907337176E+04  0.14907337176E+04  0.50400001928E-02 0.  1.
       -1   -1    0    0    0  501  0.00000000000E+00  0.00000000000E+00 -0.10375439942E+04  0.10375439943E+04  0.50400001928E-02 0. -1.
    10030    2    1    2    0    0  0.00000000000E+00  0.00000000000E+00  0.45318972333E+03  0.25282777119E+04  0.24873293435E+04 0.  0.
        5    1    3    3  502    0  0.54761736020E+02  0.52375064434E+03  0.13718043500E+04  0.14694158193E+04  0.46999998093E+01 0.  1.
       -5    1    3    3    0  502 -0.54761736020E+02 -0.52375064434E+03 -0.91861462669E+03  0.10588618926E+04  0.46999998093E+01 0. -1.
</event>
<event>
 5   0  0.8605000E-06  0.1875777E+04  0.7818609E-02  0.8667008E-01
        3   -1    0    0  501    0  0.00000000000E+00  0.00000000000E+00  0.71411571137E+03  0.71411571851E+03  0.10100000352E+00 0. -1.
       -3   -1    0    0    0  501  0.00000000000E+00  0.00000000000E+00 -0.12317820267E+04  0.12317820308E+04  0.10100000352E+00 0.  1.
    10030    2    1    2    0    0  0.00000000000E+00  0.00000000000E+00 -0.51766631530E+03  0.19458977493E+04  0.18757770755E+04 0.  0.
        4    1    3    3  502    0 -0.66954617933E+03 -0.58227302933E+03 -0.57399821772E+03  0.10567920958E+04  0.12699999809E+01 0.  1.
       -4    1    3    3    0  502  0.66954617933E+03  0.58227302933E+03  0.56331902429E+02  0.88910565350E+03  0.12699999809E+01 0. -1.
</event>
<event>
 5   0  0.2484618E-05  0.2555005E+04  0.7818609E-02  0.8383648E-01
        2   -1    0    0  501    0  0.00000000000E+00  0.00000000000E+00  0.16971701491E+04  0.16971701491E+04  0.25500000920E-02 0. -1.
       -2   -1    0    0    0  501  0.00000000000E+00  0.00000000000E+00 -0.96160799740E+03  0.96160799740E+03  0.25500000920E-02 0.  1.
    10030    2    1    2    0    0  0.00000000000E+00  0.00000000000E+00  0.73556215172E+03  0.26587781465E+04  0.25550048050E+04 0.  0.
        3    1    3    3  502    0 -0.89750721212E+03 -0.87654245986E+03  0.11680816984E+03  0.12599563637E+04  0.10100000352E+00 0.  1.
       -3    1    3    3    0  502  0.89750721212E+03  0.87654245986E+03  0.61875398188E+03  0.13988217828E+04  0.10100000352E+00 0. -1.
</event>
<event>
 5   0  0.1034714E-05  0.2643701E+04  0.7818609E-02  0.8353507E-01
        1   -1    0    0  501    0  0.00000000000E+00  0.00000000000E+00  0.97910825239E+03  0.97910825240E+03  0.50400001928E-02 0.  1.
       -1   -1    0    0    0  501  0.00000000000E+00  0.00000000000E+00 -0.17845710962E+04  0.17845710962E+04  0.50400001928E-02 0. -1.
    10030    2    1    2    0    0  0.00000000000E+00  0.00000000000E+00 -0.80546284382E+03  0.27636793486E+04  0.26437006542E+04 0.  0.
        5    1    3    3  502    0  0.12335121073E+04  0.38471188197E+03 -0.69414930169E+03  0.14667722025E+04  0.46999998093E+01 0. -1.
       -5    1    3    3    0  502 -0.12335121073E+04 -0.38471188197E+03 -0.11131354213E+03  0.12969071461E+04  0.46999998093E+01 0.  1.
</event>
<event>
 5   0  0.1034714E-05  0.1879559E+04  0.7818609E-02  0.8665099E-01
       -1   -1    0    0    0  501  0.00000000000E+00  0.00000000000E+00  0.99654792754E+03  0.99654792756E+03  0.50400001928E-02 0.  1.
        1   -1    0    0  501    0  0.00000000000E+00  0.00000000000E+00 -0.88624499579E+03  0.88624499580E+03  0.50400001928E-02 0. -1.
    10030    2    1    2    0    0  0.00000000000E+00  0.00000000000E+00  0.11030293175E+03  0.18827929234E+04  0.18795591120E+04 0.  0.
        5    1    3    3  502    0  0.30410419303E+02 -0.87001661261E+03  0.40975179032E+03  0.96217062909E+03  0.46999998093E+01 0.  1.
       -5    1    3    3    0  502 -0.30410419303E+02  0.87001661261E+03 -0.29944885857E+03  0.92062229427E+03  0.46999998093E+01 0. -1.
</event>
<event>
 5   0  0.2484618E-05  0.2645491E+04  0.7818609E-02  0.8352911E-01
        2   -1    0    0  501    0  0.00000000000E+00  0.00000000000E+00  0.22983334098E+04  0.22983334098E+04  0.25500000920E-02 0.  1.
       -2   -1    0    0    0  501  0.00000000000E+00  0.00000000000E+00 -0.76127145710E+03  0.76127145710E+03  0.25500000920E-02 0. -1.
    10030    2    1    2    0    0  0.00000000000E+00  0.00000000000E+00  0.15370619528E+04  0.30596048670E+04  0.26454909743E+04 0.  0.
        3    1    3    3  502    0  0.13398587010E+03  0.98826227243E+03 -0.23641878136E+03  0.10249431120E+04  0.10100000352E+00 0. -1.
       -3    1    3    3    0  502 -0.13398587010E+03 -0.98826227243E+03  0.17734807341E+04  0.20346617549E+04  0.10100000352E+00 0.  1.
</event>
<event>
 5   0  0.2555801E-05  0.2560460E+04  0.7818609E-02  0.8381757E-01
        2   -1    0    0  501    0  0.00000000000E+00  0.00000000000E+00  0.19562367235E+04  0.19562367235E+04  0.25500000920E-02 0. -1.
       -2   -1    0    0    0  501  0.00000000000E+00  0.00000000000E+00 -0.83782778930E+03  0.83782778931E+03  0.25500000920E-02 0.  1.
    10030    2    1    2    0    0  0.00000000000E+00  0.00000000000E+00  0.11184089342E+04  0.27940645128E+04  0.25604604972E+04 0.  0.
        1    1    3    3  502    0 -0.49852898316E+03  0.88507200124E+03  0.14094621686E+04  0.17373736499E+04  0.50400001928E-02 0. -1.
       -1    1    3    3    0  502  0.49852898316E+03 -0.88507200124E+03 -0.29105323448E+03  0.10566908629E+04  0.50400001928E-02 0.  1.
</event>
<event>
 5   0  0.2517854E-05  0.2643069E+04  0.7818609E-02  0.8353717E-01
        2   -1    0    0  501    0  0.00000000000E+00  0.00000000000E+00  0.11517338468E+04  0.11517338468E+04  0.25500000920E-02 0.  1.
       -2   -1    0    0    0  501  0.00000000000E+00  0.00000000000E+00 -0.15163688953E+04  0.15163688953E+04  0.25500000920E-02 0. -1.
    10030    2    1    2    0    0  0.00000000000E+00  0.00000000000E+00 -0.36463504851E+03  0.26681027421E+04  0.26430689593E+04 0.  0.
        4    1    3    3  502    0  0.26519907266E+03  0.38180109039E+03 -0.14311072524E+04  0.15047166516E+04  0.12699999809E+01 0. -1.
       -4    1    3    3    0  502 -0.26519907266E+03 -0.38180109039E+03  0.10664722039E+04  0.11633860904E+04  0.12699999809E+01 0.  1.
</event>
<event>
 5   0  0.9855352E-06  0.2610873E+04  0.7818609E-02  0.8364517E-01
       -1   -1    0    0    0  501  0.00000000000E+00  0.00000000000E+00  0.11809809604E+04  0.11809809604E+04  0.50400001928E-02 0. -1.
        1   -1    0    0  501    0  0.00000000000E+00  0.00000000000E+00 -0.14430073941E+04  0.14430073941E+04  0.50400001928E-02 0.  1.
    10030    2    1    2    0    0  0.00000000000E+00  0.00000000000E+00 -0.26202643368E+03  0.26239883545E+04  0.26108728488E+04 0.  0.
        2    1    3    3  502    0 -0.86044876606E+02 -0.92765963446E+03 -0.10500510221E+04  0.14037675261E+04  0.25500000920E-02 0.  1.
       -2    1    3    3    0  502  0.86044876606E+02  0.92765963446E+03  0.78802458843E+03  0.12202208284E+04  0.25500000920E-02 0. -1.
</event>
<event>
 5   0  0.2528460E-05  0.2264044E+04  0.7818609E-02  0.8492235E-01
        2   -1    0    0  501    0  0.00000000000E+00  0.00000000000E+00  0.99510616601E+03  0.99510616601E+03  0.25500000920E-02 0.  1.
       -2   -1    0    0    0  501  0.00000000000E+00  0.00000000000E+00 -0.12877758701E+04  0.12877758701E+04  0.25500000920E-02 0. -1.
    10030    2    1    2    0    0  0.00000000000E+00  0.00000000000E+00 -0.29266970405E+03  0.22828820361E+04  0.22640439119E+04 0.  0.
        5    1    3    3  502    0 -0.90934808356E+03  0.50991439108E+03 -0.59105451475E+03  0.11984549023E+04  0.46999998093E+01 0. -1.
       -5    1    3    3    0  502  0.90934808356E+03 -0.50991439108E+03  0.29838481070E+03  0.10844271338E+04  0.46999998093E+01 0.  1.
</event>
<event>
 5   0  0.1005492E-05  0.2628649E+04  0.7818609E-02  0.8358534E-01
        1   -1    0    0  501    0  0.00000000000E+00  0.00000000000E+00  0.14986451046E+04  0.14986451046E+04  0.50400001928E-02 0.  1.
       -1   -1    0    0    0  501  0.00000000000E+00  0.00000000000E+00 -0.11526740025E+04  0.11526740026E+04  0.50400001928E-02 0. -1.
    10030    2    1    2    0    0  0.00000000000E+00  0.00000000000E+00  0.34597110207E+03  0.26513191072E+04  0.26286492738E+04 0.  0.
        4    1    3    3  502    0 -0.18462410163E+03 -0.10740606436E+04 -0.56803084984E+03  0.12289641916E+04  0.12699999809E+01 0. -1.
       -4    1    3    3    0  502  0.18462410163E+03  0.10740606436E+04  0.91400195191E+03  0.14223549156E+04  0.12699999809E+01 0.  1.
</event>
<event>
 5   0  0.2555801E-05  0.2279866E+04  0.7818609E-02  0.8485902E-01
       -2   -1    0    0    0  501  0.00000000000E+00  0.00000000000E+00  0.72557466574E+03  0.72557466574E+03  0.25500000920E-02 0. -1.
        2   -1    0    0  501    0  0.00000000000E+00  0.00000000000E+00 -0.17909222275E+04  0.17909222275E+04  0.25500000920E-02 0.  1.
    10030    2    1    2    0    0  0.00000000000E+00  0.00000000000E+00 -0.10653475617E+04  0.25164968932E+04  0.22798664843E+04 0.  0.
        1    1    3    3  502    0 -0.19092888216E+03 -0.83528720452E+03 -0.13625672474E+04  0.16095800868E+04  0.50400001928E-02 0. -1.
       -1    1    3    3    0  502  0.19092888216E+03  0.83528720452E+03  0.29721968573E+03  0.90691680637E+03  0.50400001928E-02 0.  1.
</event>
<event>
 5   0  0.2528460E-05  0.2621403E+04  0.7818609E-02  0.8360967E-01
       -2   -1    0    0    0  501  0.00000000000E+00  0.00000000000E+00  0.11537118500E+04  0.11537118500E+04  0.25500000920E-02 0.  1.
        2   -1    0    0  501    0  0.00000000000E+00  0.00000000000E+00 -0.14890530961E+04  0.14890530961E+04  0.25500000920E-02 0. -1.
    10030    2    1    2    0    0  0.00000000000E+00  0.00000000000E+00 -0.33534124609E+03  0.26427649461E+04  0.26214028322E+04 0.  0.
        5    1    3    3  502    0  0.63640738321E+03  0.10538008462E+04 -0.62123189194E+03  0.13789350001E+04  0.46999998093E+01 0. -1.
       -5    1    3    3    0  502 -0.63640738321E+03 -0.10538008462E+04  0.28589064585E+03  0.12638299460E+04  0.46999998093E+01 0.  1.
</event>
<event>
 5   0  0.2662024E-05  0.2575788E+04  0.7818609E-02  0.8376472E-01
       -2   -1    0    0    0  501  0.00000000000E+00  0.00000000000E+00  0.20809347693E+04  0.20809347693E+04  0.25500000920E-02 0.  1.
        2   -1    0    0  501    0  0.00000000000E+00  0.00000000000E+00 -0.79708005023E+03  0.79708005023E+03  0.25500000920E-02 0. -1.
    10030    2    1    2    0    0  0.00000000000E+00  0.00000000000E+00  0.12838547190E+04  0.28780148195E+04  0.25757884932E+04 0.  0.
        2    1    3    3  502    0 -0.56174244567E+03 -0.96660877373E+01  0.19367928194E+04  0.20166344323E+04  0.25500000920E-02 0.  1.
       -2    1    3    3    0  502  0.56174244567E+03  0.96660877373E+01 -0.65293810033E+03  0.86138038716E+03  0.25500000920E-02 0. -1.
</event>
<event>
 5   0  0.1025153E-05  0.2599441E+04  0.7818609E-02  0.8368391E-01
       -1   -1    0    0    0  501  0.00000000000E+00  0.00000000000E+00  0.16358405815E+04  0.16358405815E+04  0.50400001928E-02 0. -1.
        1   -1    0    0  501    0  0.00000000000E+00  0.00000000000E+00 -0.10326634207E+04  0.10326634207E+04  0.50400001928E-02 0.  1.
    10030    2    1    2    0    0  0.00000000000E+00  0.00000000000E+00  0.60317716083E+03  0.26685040022E+04  0.25994405018E+04 0.  0.
        1    1    3    3  502    0 -0.50118546414E+01 -0.61666118101E+02 -0.10311508808E+04  0.10330053087E+04  0.50400001928E-02 0.  1.
       -1    1    3    3    0  502  0.50118546414E+01  0.61666118101E+02  0.16343280416E+04  0.16354986935E+04  0.50400001928E-02 0. -1.
</event>
<event>
 5   0  0.1005492E-05  0.2569650E+04  0.7818609E-02  0.8378584E-01
       -1   -1    0    0    0  501  0.00000000000E+00  0.00000000000E+00  0.13327736630E+04  0.13327736630E+04  0.50400001928E-02 0. -1.
        1   -1    0    0  501    0  0.00000000000E+00  0.00000000000E+00 -0.12386010033E+04  0.12386010034E+04  0.50400001928E-02 0.  1.
    10030    2    1    2    0    0  0.00000000000E+00  0.00000000000E+00  0.94172659635E+02  0.25713746663E+04  0.25696496230E+04 0.  0.
        4    1    3    3  502    0  0.37878727447E+03 -0.43487006961E+03  0.11959778954E+04  0.13277637275E+04  0.12699999809E+01 0. -1.
       -4    1    3    3    0  502 -0.37878727447E+03  0.43487006961E+03 -0.11018052358E+04  0.12436109389E+04  0.12699999809E+01 0.  1.
</event>
<event>
 5   0  0.2662024E-05  0.2545622E+04  0.7818609E-02  0.8386910E-01
       -2   -1    0    0    0  501  0.00000000000E+00  0.00000000000E+00  0.11289228538E+04  0.11289228538E+04  0.25500000920E-02 0.  1.
        2   -1    0    0  501    0  0.00000000000E+00  0.00000000000E+00 -0.14350389383E+04  0.14350389383E+04  0.25500000920E-02 0. -1.
    10030    2    1    2    0    0  0.00000000000E+00  0.00000000000E+00 -0.30611608456E+03  0.25639617921E+04  0.25456223236E+04 0.  0.
        2    1    3    3  502    0  0.47807287370E+02 -0.64221054702E+03  0.95272585274E+03  0.11499593358E+04  0.25500000920E-02 0.  1.
       -2    1    3    3    0  502 -0.47807287370E+02  0.64221054702E+03 -0.12588419373E+04  0.14140024563E+04  0.25500000920E-02 0. -1.
</event>
<event>
 5   0  0.2528460E-05  0.2609154E+04  0.7818609E-02  0.8365098E-01
        2   -1    0    0  501    0  0.00000000000E+00  0.00000000000E+00  0.18320586667E+04  0.18320586667E+04  0.25500000920E-02 0. -1.
       -2   -1    0    0    0  501  0.00000000000E+00  0.00000000000E+00 -0.92896678240E+03  0.92896678240E+03  0.25500000920E-02 0.  1.
    10030    2    1    2    0    0  0.00000000000E+00  0.00000000000E+00  0.90309188425E+03  0.27610254491E+04  0.26091543800E+04 0.  0.
        5    1    3    3  502    0  0.18971027302E+03 -0.12761587185E+04  0.24709418001E+03  0.13136394811E+04  0.46999998093E+01 0. -1.
       -5    1    3    3    0  502 -0.18971027302E+03  0.12761587185E+04  0.65599770424E+03  0.14473859680E+04  0.46999998093E+01 0.  1.
</event>
<event>
 5   0  0.1005492E-05  0.2525553E+04  0.7818609E-02  0.8393938E-01
       -1   -1    0    0    0  501  0.00000000000E+00  0.00000000000E+00  0.89852012152E+03  0.89852012153E+03  0.50400001928E-02 0.  1.
        1   -1    0    0  501    0  0.00000000000E+00  0.00000000000E+00 -0.17747009783E+04  0.17747009783E+04  0.50400001928E-02 0. -1.
    10030    2    1    2    0    0  0.00000000000E+00  0.00000000000E+00 -0.87618085682E+03  0.26732210999E+04  0.25255530394E+04 0.  0.
        4    1    3    3  502    0 -0.21416314219E+03 -0.37761748360E+02 -0.17547309310E+04  0.17681555515E+04  0.12699999809E+01 0. -1.
       -4    1    3    3    0  502  0.21416314219E+03  0.37761748360E+02  0.87855007420E+03  0.90506554839E+03  0.12699999809E+01 0.  1.
</event>
<event>
 5   0  0.9855352E-06  0.2585703E+04  0.7818609E-02  0.8373074E-01
        1   -1    0    0  501    0  0.00000000000E+00  0.00000000000E+00  0.14044019647E+04  0.14044019647E+04  0.50400001928E-02 0.  1.
       -1   -1    0    0    0  501  0.00000000000E+00  0.00000000000E+00 -0.11901617117E+04  0.11901617117E+04  0.50400001928E-02 0. -1.
    10030    2    1    2    0    0  0.00000000000E+00  0.00000000000E+00  0.21424025299E+03  0.25945636765E+04  0.25857033444E+04 0.  0.
        2    1    3    3  502    0 -0.90972147478E+03  0.49948923678E+03  0.88072420118E+03  0.13611604527E+04  0.25500000920E-02 0.  1.
       -2    1    3    3    0  502  0.90972147478E+03 -0.49948923678E+03 -0.66648394819E+03  0.12334032238E+04  0.25500000920E-02 0. -1.
</event>
<event>
 5   0  0.2517854E-05  0.2599426E+04  0.7818609E-02  0.8368396E-01
        2   -1    0    0  501    0  0.00000000000E+00  0.00000000000E+00  0.18307507920E+04  0.18307507920E+04  0.25500000920E-02 0.  1.
       -2   -1    0    0    0  501  0.00000000000E+00  0.00000000000E+00 -0.92271109453E+03  0.92271109454E+03  0.25500000920E-02 0. -1.
    10030    2    1    2    0    0  0.00000000000E+00  0.00000000000E+00  0.90803969745E+03  0.27534618865E+04  0.25994261421E+04 0.  0.
        4    1    3    3  502    0  0.69788149762E+02  0.88807655642E+03 -0.54847784659E+03  0.10461261478E+04  0.12699999809E+01 0. -1.
       -4    1    3    3    0  502 -0.69788149762E+02 -0.88807655642E+03  0.14565175440E+04  0.17073357388E+04  0.12699999809E+01 0.  1.
</event>
<event>
 5   0  0.1034714E-05  0.2621477E+04  0.7818609E-02  0.8360942E-01
        1   -1    0    0  501    0  0.00000000000E+00  0.00000000000E+00  0.13158543428E+04  0.13158543428E+04  0.50400001928E-02 0. -1.
       -1   -1    0    0    0  501  0.00000000000E+00  0.00000000000E+00 -0.13056428010E+04  0.13056428011E+04  0.50400001928E-02 0.  1.
    10030    2    1    2    0    0  0.00000000000E+00  0.00000000000E+00  0.10211541783E+02  0.26214971439E+04  0.26214772553E+04 0.  0.
        5    1    3    3  502    0  0.37070819986E+03  0.72281501685E+03 -0.10235552994E+04  0.13067416191E+04  0.46999998093E+01 0.  1.
       -5    1    3    3    0  502 -0.37070819986E+03 -0.72281501685E+03  0.10337668412E+04  0.13147555248E+04  0.46999998093E+01 0. -1.
</event>
<event>
 5   0  0.2517854E-05  0.2586021E+04  0.7818609E-02  0.8372965E-01
       -2   -1    0    0    0  501  0.00000000000E+00  0.00000000000E+00  0.11483998643E+04  0.11483998643E+04  0.25500000920E-02 0.  1.
        2   -1    0    0  501    0  0.00000000000E+00  0.00000000000E+00 -0.14558307916E+04  0.14558307916E+04  0.25500000920E-02 0. -1.
    10030    2    1    2    0    0  0.00000000000E+00  0.00000000000E+00 -0.30743092728E+03  0.26042306558E+04  0.25860207914E+04 0.  0.
        4    1    3    3  502    0  0.59980999656E+03 -0.98556820591E+03 -0.74157041193E+03  0.13715119428E+04  0.12699999809E+01 0. -1.
       -4    1    3    3    0  502 -0.59980999656E+03  0.98556820591E+03  0.43413948465E+03  0.12327187130E+04  0.12699999809E+01 0.  1.
</event>
<event>
 5   0  0.2517854E-05  0.2599342E+04  0.7818609E-02  0.8368425E-01
       -2   -1    0    0    0  501  0.00000000000E+00  0.00000000000E+00  0.84739839784E+03  0.84739839784E+03  0.25500000920E-02 0.  1.
        2   -1    0    0  501    0  0.00000000000E+00  0.00000000000E+00 -0.19933308206E+04  0.19933308206E+04  0.25500000920E-02 0. -1.
    10030    2    1    2    0    0  0.00000000000E+00  0.00000000000E+00 -0.11459324228E+04  0.28407292184E+04  0.25993424890E+04 0.  0.
        4    1    3    3  502    0 -0.45824161693E+03  0.11939705944E+04 -0.31996731408E+03  0.13183064344E+04  0.12699999809E+01 0.  1.
       -4    1    3    3    0  502  0.45824161693E+03 -0.11939705944E+04 -0.82596510868E+03  0.15224227841E+04  0.12699999809E+01 0. -1.
</event>
<event>
 5   0  0.2484618E-05  0.2575108E+04  0.7818609E-02  0.8376706E-01
       -2   -1    0    0    0  501  0.00000000000E+00  0.00000000000E+00  0.78176374197E+03  0.78176374198E+03  0.25500000920E-02 0.  1.
        2   -1    0    0  501    0  0.00000000000E+00  0.00000000000E+00 -0.21205831183E+04  0.21205831183E+04  0.25500000920E-02 0. -1.
    10030    2    1    2    0    0  0.00000000000E+00  0.00000000000E+00 -0.13388193764E+04  0.29023468603E+04  0.25751077599E+04 0.  0.
        3    1    3    3  502    0 -0.33609872970E+03  0.61342246787E+03 -0.18877727414E+04  0.20131903570E+04  0.10100000352E+00 0. -1.
       -3    1    3    3    0  502  0.33609872970E+03 -0.61342246787E+03  0.54895336503E+03  0.88915650331E+03  0.10100000352E+00 0.  1.
</event>
<event>
 5   0  0.9855352E-06  0.2596011E+04  0.7818609E-02  0.8369557E-01
       -1   -1    0    0    0  501  0.00000000000E+00  0.00000000000E+00  0.12911094180E+04  0.12911094180E+04  0.50400001928E-02 0. -1.
        1   -1    0    0  501    0  0.00000000000E+00  0.00000000000E+00 -0.13049385054E+04  0.13049385054E+04  0.50400001928E-02 0.  1.
    10030    2    1    2    0    0  0.00000000000E+00  0.00000000000E+00 -0.13829087397E+02  0.25960479234E+04  0.25960110895E+04 0.  0.
        2    1    3    3  502    0 -0.15546849536E+03 -0.51139475935E+03  0.11759476820E+04  0.12917228819E+04  0.25500000920E-02 0. -1.
       -2    1    3    3    0  502  0.15546849536E+03  0.51139475935E+03 -0.11897767694E+04  0.13043250415E+04  0.25500000920E-02 0.  1.
</event>
<event>
 5   0  0.1025153E-05  0.2574308E+04  0.7818609E-02  0.8376981E-01
       -1   -1    0    0    0  501  0.00000000000E+00  0.00000000000E+00  0.13979085865E+04  0.13979085865E+04  0.50400001928E-02 0. -1.
        1   -1    0    0  501    0  0.00000000000E+00  0.00000000000E+00 -0.11851741679E+04  0.11851741679E+04  0.50400001928E-02 0.  1.
    10030    2    1    2    0    0  0.00000000000E+00  0.00000000000E+00  0.21273441865E+03  0.25830827544E+04  0.25743077872E+04 0.  0.
        1    1    3    3  502    0  0.61174015592E+03 -0.46313241137E+03  0.11433537815E+04  0.13769442685E+04  0.50400001928E-02 0. -1.
       -1    1    3    3    0  502 -0.61174015592E+03  0.46313241137E+03 -0.93061936283E+03  0.12061384860E+04  0.50400001928E-02 0.  1.
</event>
<event>
 5   0  0.1034714E-05  0.2604239E+04  0.7818609E-02  0.8366763E-01
        1   -1    0    0  501    0  0.00000000000E+00  0.00000000000E+00  0.18919614588E+04  0.18919614588E+04  0.50400001928E-02 0. -1.
       -1   -1    0    0    0  501  0.00000000000E+00  0.00000000000E+00 -0.89616800371E+03  0.89616800372E+03  0.50400001928E-02 0.  1.
    10030    2    1    2    0    0  0.00000000000E+00  0.00000000000E+00  0.99579345510E+03  0.27881294625E+04  0.26042391009E+04 0.  0.
        5    1    3    3  502    0 -0.52684907145E+03  0.67848599883E+03  0.15455549423E+04  0.17682407541E+04  0.46999998093E+01 0. -1.
       -5    1    3    3    0  502  0.52684907145E+03 -0.67848599883E+03 -0.54976148725E+03  0.10198887084E+04  0.46999998093E+01 0.  1.
</event>
<event>
 5   0  0.2555801E-05  0.2618016E+04  0.7818609E-02  0.8362107E-01
       -2   -1    0    0    0  501  0.00000000000E+00  0.00000000000E+00  0.11949226459E+04  0.11949226459E+04  0.25500000920E-02 0.  1.
        2   -1    0    0  501    0  0.00000000000E+00  0.00000000000E+00 -0.14339853897E+04  0.14339853897E+04  0.25500000920E-02 0. -1.
    10030    2    1    2    0    0  0.00000000000E+00  0.00000000000E+00 -0.23906274379E+03  0.26289080356E+04  0.26180157495E+04 0.  0.
        1    1    3    3  502    0  0.20956113678E+03 -0.63989239539E+03 -0.12467539758E+04  0.14169592880E+04  0.50400001928E-02 0. -1.
       -1    1    3    3    0  502 -0.20956113678E+03  0.63989239539E+03  0.10076912320E+04  0.12119487476E+04  0.50400001928E-02 0.  1.
</event>
<event>
 5   0  0.2528460E-05  0.2607904E+04  0.7818609E-02  0.8365521E-01
        2   -1    0    0  501    0  0.00000000000E+00  0.00000000000E+00  0.22422866254E+04  0.22422866254E+04  0.25500000920E-02 0.  1.
       -2   -1    0    0    0  501  0.00000000000E+00  0.00000000000E+00 -0.75828424586E+03  0.75828424586E+03  0.25500000920E-02 0. -1.
    10030    2    1    2    0    0  0.00000000000E+00  0.00000000000E+00  0.14840023795E+04  0.30005708712E+04  0.26079038500E+04 0.  0.
        5    1    3    3  502    0 -0.22685577099E+03 -0.37787239484E+03 -0.66997480979E+03  0.80195973925E+03  0.46999998093E+01 0. -1.
       -5    1    3    3    0  502  0.22685577099E+03  0.37787239484E+03  0.21539771893E+04  0.21986111320E+04  0.46999998093E+01 0.  1.
</event>
<event>
 5   0  0.2517854E-05  0.2588477E+04  0.7818609E-02  0.8372126E-01
       -2   -1    0    0    0  501  0.00000000000E+00  0.00000000000E+00  0.10268447307E+04  0.10268447307E+04  0.25500000920E-02 0. -1.
        2   -1    0    0  501    0  0.00000000000E+00  0.00000000000E+00 -0.16312626215E+04  0.16312626215E+04  0.25500000920E-02 0.  1.
    10030    2    1    2    0    0  0.00000000000E+00  0.00000000000E+00 -0.60441789077E+03  0.26581073522E+04  0.25884771023E+04 0.  0.
        4    1    3    3  502    0 -0.12773468966E+04 -0.31913955918E+02 -0.51370604048E+03  0.13771452733E+04  0.12699999809E+01 0. -1.
       -4    1    3    3    0  502  0.12773468966E+04  0.31913955918E+02 -0.90711850288E+02  0.12809620789E+04  0.12699999809E+01 0.  1.
</event>
<event>
 5   0  0.1034714E-05  0.2620802E+04  0.7818609E-02  0.8361169E-01
       -1   -1    0    0    0  501  0.00000000000E+00  0.00000000000E+00  0.20408319947E+04  0.20408319947E+04  0.50400001928E-02 0. -1.
        1   -1    0    0  501    0  0.00000000000E+00  0.00000000000E+00 -0.84139770660E+03  0.84139770662E+03  0.50400001928E-02 0.  1.
    10030    2    1    2    0    0  0.00000000000E+00  0.00000000000E+00  0.11994342881E+04  0.28822297013E+04  0.26208024419E+04 0.  0.
        5    1    3    3  502    0  0.28076049477E+03  0.12020769740E+04  0.11618461936E+03  0.12398937303E+04  0.46999998093E+01 0.  1.
       -5    1    3    3    0  502 -0.28076049477E+03 -0.12020769740E+04  0.10832496687E+04  0.16423359710E+04  0.46999998093E+01 0. -1.
</event>
<event>
 5   0  0.1025153E-05  0.2629813E+04  0.7818609E-02  0.8358144E-01
       -1   -1    0    0    0  501  0.00000000000E+00  0.00000000000E+00  0.19326577750E+04  0.19326577750E+04  0.50400001928E-02 0. -1.
        1   -1    0    0  501    0  0.00000000000E+00  0.00000000000E+00 -0.89461210461E+03  0.89461210463E+03  0.50400001928E-02 0.  1.
    10030    2    1    2    0    0  0.00000000000E+00  0.00000000000E+00  0.10380456704E+04  0.28272698796E+04  0.26298129512E+04 0.  0.
        1    1    3    3  502    0  0.29535658720E+03  0.12498397894E+04  0.21562043527E+03  0.13022392963E+04  0.50400001928E-02 0.  1.
       -1    1    3    3    0  502 -0.29535658720E+03 -0.12498397894E+04  0.82242523513E+03  0.15250305833E+04  0.50400001928E-02 0. -1.
</event>
<event>
 5   0  0.9855352E-06  0.2623119E+04  0.7818609E-02  0.8360390E-01
        1   -1    0    0  501    0  0.00000000000E+00  0.00000000000E+00  0.94849776370E+03  0.94849776371E+03  0.50400001928E-02 0.  1.
       -1   -1    0    0    0  501  0.00000000000E+00  0.00000000000E+00 -0.18135928191E+04  0.18135928191E+04  0.50400001928E-02 0. -1.
    10030    2    1    2    0    0  0.00000000000E+00  0.00000000000E+00 -0.86509505537E+03  0.27620905828E+04  0.26231193135E+04 0.  0.
        2    1    3    3  502    0 -0.60243295818E+03  0.11389088615E+04 -0.17429937937E+03  0.13001611967E+04  0.25500000920E-02 0.  1.
       -2    1    3    3    0  502  0.60243295818E+03 -0.11389088615E+04 -0.69079567600E+03  0.14619293861E+04  0.25500000920E-02 0. -1.
</event>
<event>
 5   0  0.9855352E-06  0.2595395E+04  0.7818609E-02  0.8369767E-01
       -1   -1    0    0    0  501  0.00000000000E+00  0.00000000000E+00  0.79218555661E+03  0.79218555663E+03  0.50400001928E-02 0.  1.
        1   -1    0    0  501    0  0.00000000000E+00  0.00000000000E+00 -0.21257890293E+04  0.21257890293E+04  0.50400001928E-02 0. -1.
    10030    2    1    2    0    0  0.00000000000E+00  0.00000000000E+00 -0.13336034727E+04  0.29179745859E+04  0.25953954346E+04 0.  0.
        2    1    3    3  502    0 -0.83283853112E+03 -0.98358497767E+03 -0.49644342516E+03  0.13811283436E+04  0.25500000920E-02 0.  1.
       -2    1    3    3    0  502  0.83283853112E+03  0.98358497767E+03 -0.83716004751E+03  0.15368462423E+04  0.25500000920E-02 0. -1.
</event>
<event>
 5   0  0.1034714E-05  0.2580749E+04  0.7818609E-02  0.8374770E-01
       -1   -1    0    0    0  501  0.00000000000E+00  0.00000000000E+00  0.12096570478E+04  0.12096570478E+04  0.50400001928E-02 0.  1.
        1   -1    0    0  501    0  0.00000000000E+00  0.00000000000E+00 -0.13764781399E+04  0.13764781400E+04  0.50400001928E-02 0. -1.
    10030    2    1    2    0    0  0.00000000000E+00  0.00000000000E+00 -0.16682109213E+03  0.25861351878E+04  0.25807491030E+04 0.  0.
        5    1    3    3  502    0 -0.13142611883E+02 -0.11080261304E+04 -0.74596344755E+03  0.13358061944E+04  0.46999998093E+01 0. -1.
       -5    1    3    3    0  502  0.13142611883E+02  0.11080261304E+04  0.57914235541E+03  0.12503289934E+04  0.46999998093E+01 0.  1.
</event>
<event>
 5   0  0.2555801E-05  0.2525644E+04  0.7818609E-02  0.8393906E-01
       -2   -1    0    0    0  501  0.00000000000E+00  0.00000000000E+00  0.79360157856E+03  0.79360157856E+03  0.25500000920E-02 0.  1.
        2   -1    0    0  501    0  0.00000000000E+00  0.00000000000E+00 -0.20094709264E+04  0.20094709264E+04  0.25500000920E-02 0. -1.
    10030    2    1    2    0    0  0.00000000000E+00  0.00000000000E+00 -0.12158693479E+04  0.28030725050E+04  0.25256439173E+04 0.  0.
        1    1    3    3  502    0  0.94232322180E+03 -0.28440558672E+03 -0.14859471905E+04  0.17823856611E+04  0.50400001928E-02 0.  1.
       -1    1    3    3    0  502 -0.94232322180E+03  0.28440558672E+03  0.27007784263E+03  0.10206868438E+04  0.50400001928E-02 0. -1.
</event>
<event>
 5   0  0.9855352E-06  0.2845119E+04  0.7818609E-02  0.8289396E-01
       -1   -1    0    0    0  501  0.00000000000E+00  0.00000000000E+00  0.16797364694E+04  0.16797364694E+04  0.50400001928E-02 0.  1.
        1   -1    0    0  501    0  0.00000000000E+00  0.00000000000E+00 -0.12047574249E+04  0.12047574249E+04  0.50400001928E-02 0. -1.
    10030    2    1    2    0    0  0.00000000000E+00  0.00000000000E+00  0.47497904451E+03  0.28844938943E+04  0.28451186151E+04 0.  0.
        2    1    3    3  502    0 -0.53824563757E+03 -0.13150668210E+04  0.16898311803E+03  0.14309662485E+04  0.25500000920E-02 0. -1.
       -2    1    3    3    0  502  0.53824563757E+03  0.13150668210E+04  0.30599592649E+03  0.14535276458E+04  0.25500000920E-02 0.  1.
</event>
<event>
 5   0  0.1025153E-05  0.2608063E+04  0.7818609E-02  0.8365467E-01
        1   -1    0    0  501    0  0.00000000000E+00  0.00000000000E+00  0.14462756043E+04  0.14462756043E+04  0.50400001928E-02 0.  1.
       -1   -1    0    0    0  501  0.00000000000E+00  0.00000000000E+00 -0.11757777117E+04  0.11757777117E+04  0.50400001928E-02 0. -1.
    10030    2    1    2    0    0  0.00000000000E+00  0.00000000000E+00  0.27049789266E+03  0.26220533160E+04  0.26080633585E+04 0.  0.
        1    1    3    3  502    0  0.45715658274E+03 -0.92572272927E+03 -0.66560665980E+03  0.12284082946E+04  0.50400001928E-02 0. -1.
       -1    1    3    3    0  502 -0.45715658274E+03  0.92572272927E+03  0.93610455245E+03  0.13936450214E+04  0.50400001928E-02 0.  1.
</event>
<event>
 5   0  0.2517854E-05  0.2589923E+04  0.7818609E-02  0.8371632E-01
        2   -1    0    0  501    0  0.00000000000E+00  0.00000000000E+00  0.97987261163E+03  0.97987261163E+03  0.25500000920E-02 0. -1.
       -2   -1    0    0    0  501  0.00000000000E+00  0.00000000000E+00 -0.17113703084E+04  0.17113703084E+04  0.25500000920E-02 0.  1.
    10030    2    1    2    0    0  0.00000000000E+00  0.00000000000E+00 -0.73149769675E+03  0.26912429200E+04  0.25899226966E+04 0.  0.
        4    1    3    3  502    0  0.55439376863E+01 -0.96112614259E+03 -0.12675292826E+04  0.15907313703E+04  0.12699999809E+01 0.  1.
       -4    1    3    3    0  502 -0.55439376863E+01  0.96112614259E+03  0.53603158583E+03  0.11005115497E+04  0.12699999809E+01 0. -1.
</event>
<event>
 5   0  0.1034714E-05  0.2604103E+04  0.7818609E-02  0.8366809E-01
       -1   -1    0    0    0  501  0.00000000000E+00  0.00000000000E+00  0.11702733605E+04  0.11702733605E+04  0.50400001928E-02 0.  1.
        1   -1    0    0  501    0  0.00000000000E+00  0.00000000000E+00 -0.14486681222E+04  0.14486681222E+04  0.50400001928E-02 0. -1.
    10030    2    1    2    0    0  0.00000000000E+00  0.00000000000E+00 -0.27839476164E+03  0.26189414827E+04  0.26041026951E+04 0.  0.
        5    1    3    3  502    0  0.71419428841E+03 -0.32490402588E+03 -0.11841945603E+04  0.14205544531E+04  0.46999998093E+01 0. -1.
       -5    1    3    3    0  502 -0.71419428841E+03  0.32490402588E+03  0.90579979861E+03  0.11983870296E+04  0.46999998093E+01 0.  1.
</event>
<event>
 5   0  0.1034714E-05  0.2611664E+04  0.7818609E-02  0.8364250E-01
        1   -1    0    0  501    0  0.00000000000E+00  0.00000000000E+00  0.19217256870E+04  0.19217256870E+04  0.50400001928E-02 0. -1.
       -1   -1    0    0    0  501  0.00000000000E+00  0.00000000000E+00 -0.88732599725E+03  0.88732599726E+03  0.50400001928E-02 0.  1.
    10030    2    1    2    0    0  0.00000000000E+00  0.00000000000E+00  0.10343996897E+04  0.28090516842E+04  0.26116639613E+04 0.  0.
        5    1    3    3  502    0  0.10468422923E+02  0.12230766816E+04  0.10090923908E+04  0.15856593897E+04  0.46999998093E+01 0.  1.
       -5    1    3    3    0  502 -0.10468422923E+02 -0.12230766816E+04  0.25307298946E+02  0.12233922946E+04  0.46999998093E+01 0. -1.
</event>
<event>
 5   0  0.9855352E-06  0.2218573E+04  0.7818609E-02  0.8510737E-01
       -1   -1    0    0    0  501  0.00000000000E+00  0.00000000000E+00  0.13906871503E+04  0.13906871503E+04  0.50400001928E-02 0.  1.
        1   -1    0    0  501    0  0.00000000000E+00  0.00000000000E+00 -0.88482649586E+03  0.88482649587E+03  0.50400001928E-02 0. -1.
    10030    2    1    2    0    0  0.00000000000E+00  0.00000000000E+00  0.50586065444E+03  0.22755136462E+04  0.22185732695E+04 0.  0.
        2    1    3    3  502    0  0.42731433955E+03 -0.47638860194E+03  0.11822607542E+04  0.13443526828E+04  0.25500000920E-02 0.  1.
       -2    1    3    3    0  502 -0.42731433955E+03  0.47638860194E+03 -0.67640009972E+03  0.93116096340E+03  0.25500000920E-02 0. -1.
</event>
<event>
 5   0  0.2555801E-05  0.2625151E+04  0.7818609E-02  0.8359708E-01
       -2   -1    0    0    0  501  0.00000000000E+00  0.00000000000E+00  0.14858093620E+04  0.14858093620E+04  0.25500000920E-02 0. -1.
        2   -1    0    0  501    0  0.00000000000E+00  0.00000000000E+00 -0.11595398007E+04  0.11595398007E+04  0.25500000920E-02 0.  1.
    10030    2    1    2    0    0  0.00000000000E+00  0.00000000000E+00  0.32626956136E+03  0.26453491627E+04  0.26251514939E+04 0.  0.
        1    1    3    3  502    0  0.12146396137E+04 -0.14431375317E+03 -0.31663678678E+03  0.12635009717E+04  0.50400001928E-02 0.  1.
       -1    1    3    3    0  502 -0.12146396137E+04  0.14431375317E+03  0.64290634814E+03  0.13818481911E+04  0.50400001928E-02 0. -1.
</event>
<event>
 5   0  0.1005492E-05  0.1955915E+04  0.7818609E-02  0.8627514E-01
       -1   -1    0    0    0  501  0.00000000000E+00  0.00000000000E+00  0.12047662162E+04  0.12047662162E+04  0.50400001928E-02 0.  1.
        1   -1    0    0  501    0  0.00000000000E+00  0.00000000000E+00 -0.79384797464E+03  0.79384797466E+03  0.50400001928E-02 0. -1.
    10030    2    1    2    0    0  0.00000000000E+00  0.00000000000E+00  0.41091824159E+03  0.19986141909E+04  0.19559153568E+04 0.  0.
        4    1    3    3  502    0  0.51812484794E+02 -0.54378777450E+03  0.10343457502E+04  0.11697274986E+04  0.12699999809E+01 0.  1.
       -4    1    3    3    0  502 -0.51812484794E+02  0.54378777450E+03 -0.62342750857E+03  0.82888669227E+03  0.12699999809E+01 0. -1.
</event>
<event>
 5   0  0.2555801E-05  0.2575752E+04  0.7818609E-02  0.8376485E-01
        2   -1    0    0  501    0  0.00000000000E+00  0.00000000000E+00  0.24268981931E+04  0.24268981931E+04  0.25500000920E-02 0. -1.
       -2   -1    0    0    0  501  0.00000000000E+00  0.00000000000E+00 -0.68343410584E+03  0.68343410584E+03  0.25500000920E-02 0.  1.
    10030    2    1    2    0    0  0.00000000000E+00  0.00000000000E+00  0.17434640873E+04  0.31103322989E+04  0.25757523146E+04 0.  0.
        1    1    3    3  502    0  0.30427518793E+03 -0.11586760995E+04  0.14426220450E+04  0.18751725409E+04  0.50400001928E-02 0. -1.
       -1    1    3    3    0  502 -0.30427518793E+03  0.11586760995E+04  0.30084204229E+03  0.12351597580E+04  0.50400001928E-02 0.  1.
</event>
<event>
 5   0  0.2484618E-05  0.2628005E+04  0.7818609E-02  0.8358750E-01
        2   -1    0    0  501    0  0.00000000000E+00  0.00000000000E+00  0.14470731652E+04  0.14470731652E+04  0.25500000920E-02 0. -1.
       -2   -1    0    0    0  501  0.00000000000E+00  0.00000000000E+00 -0.11931685681E+04  0.11931685681E+04  0.25500000920E-02 0.  1.
    10030    2    1    2    0    0  0.00000000000E+00  0.00000000000E+00  0.25390459707E+03  0.26402417333E+04  0.26280047309E+04 0.  0.
        3    1    3    3  502    0  0.10401821750E+04 -0.42976218509E+03  0.80828987023E+03  0.13856431783E+04  0.10100000352E+00 0. -1.
       -3    1    3    3    0  502 -0.10401821750E+04  0.42976218509E+03 -0.55438527316E+03  0.12545985550E+04  0.10100000352E+00 0.  1.
</event>
<event>
 5   0  0.2484618E-05  0.2652860E+04  0.7818609E-02  0.8350464E-01
       -2   -1    0    0    0  501  0.00000000000E+00  0.00000000000E+00  0.11984705526E+04  0.11984705526E+04  0.25500000920E-02 0. -1.
        2   -1    0    0  501    0  0.00000000000E+00  0.00000000000E+00 -0.14680511828E+04  0.14680511828E+04  0.25500000920E-02 0.  1.
    10030    2    1    2    0    0  0.00000000000E+00  0.00000000000E+00 -0.26958063014E+03  0.26665217354E+04  0.26528596738E+04 0.  0.
        3    1    3    3  502    0  0.93625112082E+03 -0.17709528716E+03 -0.10623031154E+04  0.14270307710E+04  0.10100000352E+00 0.  1.
       -3    1    3    3    0  502 -0.93625112082E+03  0.17709528716E+03  0.79272248530E+03  0.12394909644E+04  0.10100000352E+00 0. -1.
</event>
<event>
 5   0  0.1025153E-05  0.2614704E+04  0.7818609E-02  0.8363224E-01
       -1   -1    0    0    0  501  0.00000000000E+00  0.00000000000E+00  0.70250843951E+03  0.70250843953E+03  0.50400001928E-02 0. -1.
        1   -1    0    0  501    0  0.00000000000E+00  0.00000000000E+00 -0.24329514002E+04  0.24329514002E+04  0.50400001928E-02 0.  1.
    10030    2    1    2    0    0  0.00000000000E+00  0.00000000000E+00 -0.17304429607E+04  0.31354598397E+04  0.26147037244E+04 0.  0.
        1    1    3    3  502    0 -0.75745300209E+03  0.41095923919E+03 -0.20441571245E+04  0.22183779877E+04  0.50400001928E-02 0.  1.
       -1    1    3    3    0  502  0.75745300209E+03 -0.41095923919E+03  0.31371416384E+03  0.91708185201E+03  0.50400001928E-02 0. -1.
</event>
<event>
 5   0  0.1034714E-05  0.2608073E+04  0.7818609E-02  0.8365464E-01
       -1   -1    0    0    0  501  0.00000000000E+00  0.00000000000E+00  0.58132693792E+03  0.58132693795E+03  0.50400001928E-02 0. -1.
        1   -1    0    0  501    0  0.00000000000E+00  0.00000000000E+00 -0.29252228830E+04  0.29252228830E+04  0.50400001928E-02 0.  1.
    10030    2    1    2    0    0  0.00000000000E+00  0.00000000000E+00 -0.23438959451E+04  0.35065498209E+04  0.26080727454E+04 0.  0.
        5    1    3    3  502    0  0.51462664994E+03  0.11951057327E+04 -0.10565208389E+04  0.16761195286E+04  0.46999998093E+01 0. -1.
       -5    1    3    3    0  502 -0.51462664994E+03 -0.11951057327E+04 -0.12873751062E+04  0.18304302924E+04  0.46999998093E+01 0.  1.
</event>
<event>
 5   0  0.2484618E-05  0.2573514E+04  0.7818609E-02  0.8377254E-01
       -2   -1    0    0    0  501  0.00000000000E+00  0.00000000000E+00  0.10910331727E+04  0.10910331727E+04  0.25500000920E-02 0. -1.
        2   -1    0    0  501    0  0.00000000000E+00  0.00000000000E+00 -0.15175926317E+04  0.15175926317E+04  0.25500000920E-02 0.  1.
    10030    2    1    2    0    0  0.00000000000E+00  0.00000000000E+00 -0.42655945901E+03  0.26086258043E+04  0.25735142539E+04 0.  0.
        3    1    3    3  502    0  0.23821088660E+03 -0.12644300631E+04 -0.19837942398E+03  0.13018764215E+04  0.10100000352E+00 0.  1.
       -3    1    3    3    0  502 -0.23821088660E+03  0.12644300631E+04 -0.22818003503E+03  0.13067493828E+04  0.10100000352E+00 0. -1.
</event>
<event>
 5   0  0.1034714E-05  0.2562893E+04  0.7818609E-02  0.8380916E-01
       -1   -1    0    0    0  501  0.00000000000E+00  0.00000000000E+00  0.18339702333E+04  0.18339702333E+04  0.50400001928E-02 0. -1.
        1   -1    0    0  501    0  0.00000000000E+00  0.00000000000E+00 -0.89538290373E+03  0.89538290374E+03  0.50400001928E-02 0.  1.
    10030    2    1    2    0    0  0.00000000000E+00  0.00000000000E+00  0.93858732959E+03  0.27293531371E+04  0.25628933594E+04 0.  0.
        5    1    3    3  502    0 -0.12770847423E+04 -0.10544553449E+03  0.47397255927E+03  0.13662855765E+04  0.46999998093E+01 0. -1.
       -5    1    3    3    0  502  0.12770847423E+04  0.10544553449E+03  0.46461477033E+03  0.13630675605E+04  0.46999998093E+01 0.  1.
</event>
<event>
 5   0  0.2662024E-05  0.2584252E+04  0.7818609E-02  0.8373570E-01
        2   -1    0    0  501    0  0.00000000000E+00  0.00000000000E+00  0.77921699987E+03  0.77921699987E+03  0.25500000920E-02 0. -1.
       -2   -1    0    0    0  501  0.00000000000E+00  0.00000000000E+00 -0.21426509950E+04  0.21426509950E+04  0.25500000920E-02 0.  1.
    10030    2    1    2    0    0  0.00000000000E+00  0.00000000000E+00 -0.13634339951E+04  0.29218679949E+04  0.25842523716E+04 0.  0.
        2    1    3    3  502    0  0.11602056068E+04  0.56877003709E+03 -0.67753593589E+03  0.14589829847E+04  0.25500000920E-02 0. -1.
       -2    1    3    3    0  502 -0.11602056068E+04 -0.56877003709E+03 -0.68589805923E+03  0.14628850101E+04  0.25500000920E-02 0.  1.
</event>
<event>
 5   0  0.1000421E-05  0.2584090E+04  0.7818609E-02  0.8373626E-01
        1   -1    0    0  501    0  0.00000000000E+00  0.00000000000E+00  0.11920109241E+04  0.11920109241E+04  0.50400001928E-02 0.  1.
       -1   -1    0    0    0  501  0.00000000000E+00  0.00000000000E+00 -0.14004738488E+04  0.14004738488E+04  0.50400001928E-02 0. -1.
    10030    2    1    2    0    0  0.00000000000E+00  0.00000000000E+00 -0.20846292473E+03  0.25924847729E+04  0.25840898798E+04 0.  0.
        3    1    3    3  502    0  0.66682684520E+03  0.66213965922E+03 -0.99384389605E+03  0.13677765423E+04  0.10100000352E+00 0. -1.
       -3    1    3    3    0  502 -0.66682684520E+03 -0.66213965922E+03  0.78538097132E+03  0.12247082306E+04  0.10100000352E+00 0.  1.
</event>
<event>
 5   0  0.1025153E-05  0.2596574E+04  0.7818609E-02  0.8369366E-01
        1   -1    0    0  501    0  0.00000000000E+00  0.00000000000E+00  0.30368411134E+04  0.30368411134E+04  0.50400001928E-02 0. -1.
       -1   -1    0    0    0  501  0.00000000000E+00  0.00000000000E+00 -0.55503361148E+03  0.55503361150E+03  0.50400001928E-02 0.  1.
    10030    2    1    2    0    0  0.00000000000E+00  0.00000000000E+00  0.24818075020E+04  0.35918747249E+04  0.25965738123E+04 0.  0.
        1    1    3    3  502    0 -0.11798822153E+04 -0.49925095158E+03  0.15316475357E+04  0.19968269149E+04  0.50400001928E-02 0.  1.
       -1    1    3    3    0  502  0.11798822153E+04  0.49925095158E+03  0.95015996628E+03  0.15950478100E+04  0.50400001928E-02 0. -1.
</event>
<event>
 5   0  0.1005492E-05  0.2586933E+04  0.7818609E-02  0.8372653E-01
        1   -1    0    0  501    0  0.00000000000E+00  0.00000000000E+00  0.13797678503E+04  0.13797678504E+04  0.50400001928E-02 0.  1.
       -1   -1    0    0    0  501  0.00000000000E+00  0.00000000000E+00 -0.12125632272E+04  0.12125632272E+04  0.50400001928E-02 0. -1.
    10030    2    1    2    0    0  0.00000000000E+00  0.00000000000E+00  0.16720462315E+03  0.25923310776E+04  0.25869331320E+04 0.  0.
        4    1    3    3  502    0  0.11038609340E+04  0.60807558678E+03  0.37539586651E+03  0.13149861408E+04  0.12699999809E+01 0.  1.
       -4    1    3    3    0  502 -0.11038609340E+04 -0.60807558678E+03 -0.20819124336E+03  0.12773449368E+04  0.12699999809E+01 0. -1.
</event>
<event>
 5   0  0.2517854E-05  0.2629218E+04  0.7818609E-02  0.8358344E-01
       -2   -1    0    0    0  501  0.00000000000E+00  0.00000000000E+00  0.14982522681E+04  0.14982522681E+04  0.25500000920E-02 0. -1.
        2   -1    0    0  501    0  0.00000000000E+00  0.00000000000E+00 -0.11534754785E+04  0.11534754785E+04  0.25500000920E-02 0.  1.
    10030    2    1    2    0    0  0.00000000000E+00  0.00000000000E+00  0.34477678956E+03  0.26517277466E+04  0.26292183264E+04 0.  0.
        4    1    3    3  502    0 -0.18375673543E+03 -0.38822264900E+03 -0.10807108293E+04  0.11629363149E+04  0.12699999809E+01 0.  1.
       -4    1    3    3    0  502  0.18375673543E+03  0.38822264900E+03  0.14254876188E+04  0.14887914318E+04  0.12699999809E+01 0. -1.
</event>
<event>
 5   0  0.1000421E-05  0.2602855E+04  0.7818609E-02  0.8367232E-01
       -1   -1    0    0    0  501  0.00000000000E+00  0.00000000000E+00  0.81329059313E+03  0.81329059315E+03  0.50400001928E-02 0.  1.
        1   -1    0    0  501    0  0.00000000000E+00  0.00000000000E+00 -0.20825448676E+04  0.20825448676E+04  0.50400001928E-02 0. -1.
    10030    2    1    2    0    0  0.00000000000E+00  0.00000000000E+00 -0.12692542745E+04  0.28958354607E+04  0.26028554709E+04 0.  0.
        3    1    3    3  502    0 -0.52972465361E+03  0.62327618287E+03  0.49155320117E+03  0.95430915775E+03  0.10100000352E+00 0.  1.
       -3    1    3    3    0  502  0.52972465361E+03 -0.62327618287E+03 -0.17608074756E+04  0.19415263030E+04  0.10100000352E+00 0. -1.
</event>
<event>
 5   0  0.1034714E-05  0.2609043E+04  0.7818609E-02  0.8365136E-01
       -1   -1    0    0    0  501  0.00000000000E+00  0.00000000000E+00  0.18409558218E+04  0.18409558218E+04  0.50400001928E-02 0.  1.
        1   -1    0    0  501    0  0.00000000000E+00  0.00000000000E+00 -0.92439822324E+03  0.92439822325E+03  0.50400001928E-02 0. -1.
    10030    2    1    2    0    0  0.00000000000E+00  0.00000000000E+00  0.91655759858E+03  0.27653540451E+04  0.26090429592E+04 0.  0.
        5    1    3    3  502    0 -0.13187674896E+03 -0.73432575208E+03  0.15924969861E+04  0.17586058478E+04  0.46999998093E+01 0.  1.
       -5    1    3    3    0  502  0.13187674896E+03  0.73432575208E+03 -0.67593938755E+03  0.10067481973E+04  0.46999998093E+01 0. -1.
</event>
<event>
 5   0  0.1005492E-05  0.2603466E+04  0.7818609E-02  0.8367025E-01
        1   -1    0    0  501    0  0.00000000000E+00  0.00000000000E+00  0.11421668409E+04  0.11421668409E+04  0.50400001928E-02 0.  1.
       -1   -1    0    0    0  501  0.00000000000E+00  0.00000000000E+00 -0.14835909448E+04  0.14835909448E+04  0.50400001928E-02 0. -1.
    10030    2    1    2    0    0  0.00000000000E+00  0.00000000000E+00 -0.34142410398E+03  0.26257577857E+04  0.26034656768E+04 0.  0.
        4    1    3    3  502    0 -0.93559867571E+02  0.11882625731E+03  0.11332752333E+04  0.11433230058E+04  0.12699999809E+01 0.  1.
       -4    1    3    3    0  502  0.93559867571E+02 -0.11882625731E+03 -0.14746993373E+04  0.14824347799E+04  0.12699999809E+01 0. -1.
</event>
<event>
 5   0  0.2662024E-05  0.2566565E+04  0.7818609E-02  0.8379648E-01
        2   -1    0    0  501    0  0.00000000000E+00  0.00000000000E+00  0.11663359164E+04  0.11663359164E+04  0.25500000920E-02 0.  1.
       -2   -1    0    0    0  501  0.00000000000E+00  0.00000000000E+00 -0.14119549572E+04  0.14119549572E+04  0.25500000920E-02 0. -1.
    10030    2    1    2    0    0  0.00000000000E+00  0.00000000000E+00 -0.24561904082E+03  0.25782908736E+04  0.25665648474E+04 0.  0.
        2    1    3    3  502    0 -0.46175391923E+03 -0.75718671289E+03 -0.10545519917E+04  0.13779072187E+04  0.25500000920E-02 0. -1.
       -2    1    3    3    0  502  0.46175391923E+03  0.75718671289E+03  0.80893295084E+03  0.12003836549E+04  0.25500000920E-02 0.  1.
</event>
<event>
 5   0  0.2517854E-05  0.2628403E+04  0.7818609E-02  0.8358617E-01
       -2   -1    0    0    0  501  0.00000000000E+00  0.00000000000E+00  0.75900437105E+03  0.75900437105E+03  0.25500000920E-02 0.  1.
        2   -1    0    0  501    0  0.00000000000E+00  0.00000000000E+00 -0.22755155160E+04  0.22755155160E+04  0.25500000920E-02 0. -1.
    10030    2    1    2    0    0  0.00000000000E+00  0.00000000000E+00 -0.15165111449E+04  0.30345198870E+04  0.26284034873E+04 0.  0.
        4    1    3    3  502    0 -0.11382327713E+04  0.46531253420E+03 -0.22288740600E+03  0.12497079678E+04  0.12699999809E+01 0.  1.
       -4    1    3    3    0  502  0.11382327713E+04 -0.46531253420E+03 -0.12936237389E+04  0.17848119192E+04  0.12699999809E+01 0. -1.
</event>
<event>
 5   0  0.2517854E-05  0.2535554E+04  0.7818609E-02  0.8390428E-01
       -2   -1    0    0    0  501  0.00000000000E+00  0.00000000000E+00  0.10872420457E+04  0.10872420457E+04  0.25500000920E-02 0.  1.
        2   -1    0    0  501    0  0.00000000000E+00  0.00000000000E+00 -0.14782891507E+04  0.14782891507E+04  0.25500000920E-02 0. -1.
    10030    2    1    2    0    0  0.00000000000E+00  0.00000000000E+00 -0.39104710500E+03  0.25655311965E+04  0.25355536835E+04 0.  0.
        4    1    3    3  502    0  0.11336780601E+04  0.56715744387E+03 -0.17624580468E+03  0.12798272175E+04  0.12699999809E+01 0. -1.
       -4    1    3    3    0  502 -0.11336780601E+04 -0.56715744387E+03 -0.21480130033E+03  0.12857039790E+04  0.12699999809E+01 0.  1.
</event>
<event>
 5   0  0.1005492E-05  0.2576029E+04  0.7818609E-02  0.8376389E-01
        1   -1    0    0  501    0  0.00000000000E+00  0.00000000000E+00  0.12139092878E+04  0.12139092878E+04  0.50400001928E-02 0.  1.
       -1   -1    0    0    0  501  0.00000000000E+00  0.00000000000E+00 -0.13666437112E+04  0.13666437112E+04  0.50400001928E-02 0. -1.
    10030    2    1    2    0    0  0.00000000000E+00  0.00000000000E+00 -0.15273442339E+03  0.25805529990E+04  0.25760291102E+04 0.  0.
        4    1    3    3  502    0  0.77399573605E+03 -0.92550925866E+03  0.37536049644E+03  0.12635402259E+04  0.12699999809E+01 0.  1.
       -4    1    3    3    0  502 -0.77399573605E+03  0.92550925866E+03 -0.52809491983E+03  0.13170127731E+04  0.12699999809E+01 0. -1.
</event>
<event>
 5   0  0.2662024E-05  0.2648400E+04  0.7818609E-02  0.8351944E-01
       -2   -1    0    0    0  501  0.00000000000E+00  0.00000000000E+00  0.12645112558E+04  0.12645112558E+04  0.25500000920E-02 0. -1.
        2   -1    0    0  501    0  0.00000000000E+00  0.00000000000E+00 -0.13867061195E+04  0.13867061195E+04  0.25500000920E-02 0.  1.
    10030    2    1    2    0    0  0.00000000000E+00  0.00000000000E+00 -0.12219486368E+03  0.26512173754E+04  0.26483998918E+04 0.  0.
        2    1    3    3  502    0 -0.11217172324E+03 -0.46102799951E+03 -0.12986877604E+04  0.13826493449E+04  0.25500000920E-02 0.  1.
       -2    1    3    3    0  502  0.11217172324E+03  0.46102799951E+03  0.11764928968E+04  0.12685680305E+04  0.25500000920E-02 0. -1.
</event>
<event>
 5   0  0.2517854E-05  0.2592692E+04  0.7818609E-02  0.8370688E-01
        2   -1    0    0  501    0  0.00000000000E+00  0.00000000000E+00  0.20986705905E+04  0.20986705905E+04  0.25500000920E-02 0. -1.
       -2   -1    0    0    0  501  0.00000000000E+00  0.00000000000E+00 -0.80075144680E+03  0.80075144681E+03  0.25500000920E-02 0.  1.
    10030    2    1    2    0    0  0.00000000000E+00  0.00000000000E+00  0.12979191437E+04  0.28994220373E+04  0.25926924320E+04 0.  0.
        4    1    3    3  502    0 -0.51219045964E+03 -0.98417039722E+03  0.13987927151E+04  0.17853719810E+04  0.12699999809E+01 0. -1.
       -4    1    3    3    0  502  0.51219045964E+03  0.98417039722E+03 -0.10087357141E+03  0.11140500563E+04  0.12699999809E+01 0.  1.
</event>
<event>
 5   0  0.2528460E-05  0.2581472E+04  0.7818609E-02  0.8374522E-01
       -2   -1    0    0    0  501  0.00000000000E+00  0.00000000000E+00  0.14433007809E+04  0.14433007809E+04  0.25500000920E-02 0. -1.
        2   -1    0    0  501    0  0.00000000000E+00  0.00000000000E+00 -0.11542984698E+04  0.11542984698E+04  0.25500000920E-02 0.  1.
    10030    2    1    2    0    0  0.00000000000E+00  0.00000000000E+00  0.28900231118E+03  0.25975992507E+04  0.25814723573E+04 0.  0.
        5    1    3    3  502    0 -0.11283133366E+04 -0.41219810605E+03  0.61965819543E+03  0.13516643937E+04  0.46999998093E+01 0. -1.
       -5    1    3    3    0  502  0.11283133366E+04  0.41219810605E+03 -0.33065588425E+03  0.12459348570E+04  0.46999998093E+01 0.  1.
</event>
<event>
 5   0  0.9855352E-06  0.2567162E+04  0.7818609E-02  0.8379442E-01
       -1   -1    0    0    0  501  0.00000000000E+00  0.00000000000E+00  0.12969634895E+04  0.12969634895E+04  0.50400001928E-02 0. -1.
        1   -1    0    0  501    0  0.00000000000E+00  0.00000000000E+00 -0.12703369334E+04  0.12703369334E+04  0.50400001928E-02 0.  1.
    10030    2    1    2    0    0  0.00000000000E+00  0.00000000000E+00  0.26626556119E+02  0.25673004229E+04  0.25671623416E+04 0.  0.
        2    1    3    3  502    0 -0.14248128790E+03 -0.91738942922E+03  0.89974481022E+03  0.12928437670E+04  0.25500000920E-02 0. -1.
       -2    1    3    3    0  502  0.14248128790E+03  0.91738942922E+03 -0.87311825410E+03  0.12744566559E+04  0.25500000920E-02 0.  1.
</event>
<event>
 5   0  0.2528460E-05  0.2540666E+04  0.7818609E-02  0.8388640E-01
       -2   -1    0    0    0  501  0.00000000000E+00  0.00000000000E+00  0.62900353884E+03  0.62900353884E+03  0.25500000920E-02 0. -1.
        2   -1    0    0  501    0  0.00000000000E+00  0.00000000000E+00 -0.25655598056E+04  0.25655598056E+04  0.25500000920E-02 0.  1.
    10030    2    1    2    0    0  0.00000000000E+00  0.00000000000E+00 -0.19365562668E+04  0.31945633444E+04  0.25406662093E+04 0.  0.
        5    1    3    3  502    0  0.12142442453E+04  0.35576365438E+03 -0.82620484457E+03  0.15111563123E+04  0.46999998093E+01 0. -1.
       -5    1    3    3    0  502 -0.12142442453E+04 -0.35576365438E+03 -0.11103514222E+04  0.16834070321E+04  0.46999998093E+01 0.  1.
</event>
<event>
 5   0  0.1034714E-05  0.2582332E+04  0.7818609E-02  0.8374227E-01
        1   -1    0    0  501    0  0.00000000000E+00  0.00000000000E+00  0.74477809491E+03  0.74477809492E+03  0.50400001928E-02 0. -1.
       -1   -1    0    0    0  501  0.00000000000E+00  0.00000000000E+00 -0.22383983947E+04  0.22383983947E+04  0.50400001928E-02 0.  1.
    10030    2    1    2    0    0  0.00000000000E+00  0.00000000000E+00 -0.14936202998E+04  0.29831764896E+04  0.25823323505E+04 0.  0.
        5    1    3    3  502    0  0.95048831652E+03 -0.77051822396E+02 -0.17524026849E+04  0.19950694934E+04  0.46999998093E+01 0. -1.
       -5    1    3    3    0  502 -0.95048831652E+03  0.77051822396E+02  0.25878238515E+03  0.98810699625E+03  0.46999998093E+01 0.  1.
</event>
<event>
 5   0  0.9855352E-06  0.2506479E+04  0.7818609E-02  0.8400681E-01
        1   -1    0    0  501    0  0.00000000000E+00  0.00000000000E+00  0.19693022240E+04  0.19693022240E+04  0.50400001928E-02 0.  1.
       -1   -1    0    0    0  501  0.00000000000E+00  0.00000000000E+00 -0.79754590347E+03  0.79754590349E+03  0.50400001928E-02 0. -1.
    10030    2    1    2    0    0  0.00000000000E+00  0.00000000000E+00  0.11717563206E+04  0.27668481275E+04  0.25064787424E+04 0.  0.
        2    1    3    3  502    0  0.37027710147E+02  0.12211647450E+03 -0.79035580777E+03  0.80059089899E+03  0.25500000920E-02 0. -1.
       -2    1    3    3    0  502 -0.37027710147E+02 -0.12211647450E+03  0.19621121283E+04  0.19662572285E+04  0.25500000920E-02 0.  1.
</event>
<event>
 5   0  0.2555801E-05  0.2584117E+04  0.7818609E-02  0.8373616E-01
        2   -1    0    0  501    0  0.00000000000E+00  0.00000000000E+00  0.14508784475E+04  0.14508784475E+04  0.25500000920E-02 0. -1.
       -2   -1    0    0    0  501  0.00000000000E+00  0.00000000000E+00 -0.11506240666E+04  0.11506240666E+04  0.25500000920E-02 0.  1.
    10030    2    1    2    0    0  0.00000000000E+00  0.00000000000E+00  0.30025438086E+03  0.26015025141E+04  0.25841173808E+04 0.  0.
        1    1    3    3  502    0 -0.24796116116E+03 -0.11202797563E+04 -0.44792683780E+03  0.12317263989E+04  0.50400001928E-02 0.  1.
       -1    1    3    3    0  502  0.24796116116E+03  0.11202797563E+04  0.74818121866E+03  0.13697761152E+04  0.50400001928E-02 0. -1.
</event>
<event>
 5   0  0.1005492E-05  0.1954215E+04  0.7818609E-02  0.8628331E-01
        1   -1    0    0  501    0  0.00000000000E+00  0.00000000000E+00  0.14920739984E+04  0.14920739984E+04  0.50400001928E-02 0. -1.
       -1   -1    0    0    0  501  0.00000000000E+00  0.00000000000E+00 -0.63987369548E+03  0.63987369550E+03  0.50400001928E-02 0.  1.
    10030    2    1    2    0    0  0.00000000000E+00  0.00000000000E+00  0.85220030291E+03  0.21319476939E+04  0.19542148329E+04 0.  0.
        4    1    3    3  502    0  0.97394687085E+03  0.71738379800E+02  0.46091470951E+03  0.10798902188E+04  0.12699999809E+01 0.  1.
       -4    1    3    3    0  502 -0.97394687085E+03 -0.71738379800E+02  0.39128559340E+03  0.10520574751E+04  0.12699999809E+01 0. -1.
</event>
<event>
 5   0  0.2484618E-05  0.2480292E+04  0.7818609E-02  0.8410040E-01
        2   -1    0    0  501    0  0.00000000000E+00  0.00000000000E+00  0.94763981261E+03  0.94763981261E+03  0.25500000920E-02 0.  1.
       -2   -1    0    0    0  501  0.00000000000E+00  0.00000000000E+00 -0.16229398704E+04  0.16229398704E+04  0.25500000920E-02 0. -1.
    10030    2    1    2    0    0  0.00000000000E+00  0.00000000000E+00 -0.67530005776E+03  0.25705796830E+04  0.24802922688E+04 0.  0.
        3    1    3    3  502    0 -0.71882333553E+03 -0.63191554651E+03  0.47968821421E+03  0.10705722949E+04  0.10100000352E+00 0.  1.
       -3    1    3    3    0  502  0.71882333553E+03  0.63191554651E+03 -0.11549882720E+04  0.15000073881E+04  0.10100000352E+00 0. -1.
</event>
<event>
 5   0  0.1034714E-05  0.2670248E+04  0.7818609E-02  0.8344724E-01
       -1   -1    0    0    0  501  0.00000000000E+00  0.00000000000E+00  0.77677572331E+03  0.77677572333E+03  0.50400001928E-02 0.  1.
        1   -1    0    0  501    0  0.00000000000E+00  0.00000000000E+00 -0.22948139160E+04  0.22948139161E+04  0.50400001928E-02 0. -1.
    10030    2    1    2    0    0  0.00000000000E+00  0.00000000000E+00 -0.15180381927E+04  0.30715896394E+04  0.26702477335E+04 0.  0.
        5    1    3    3  502    0  0.10809475532E+04 -0.56808453058E+03 -0.13799325600E+04  0.18426620978E+04  0.46999998093E+01 0. -1.
       -5    1    3    3    0  502 -0.10809475532E+04  0.56808453058E+03 -0.13810563270E+03  0.12289275415E+04  0.46999998093E+01 0.  1.
</event>
<event>
 5   0  0.1000421E-05  0.2618739E+04  0.7818609E-02  0.8361864E-01
       -1   -1    0    0    0  501  0.00000000000E+00  0.00000000000E+00  0.10324548149E+04  0.10324548149E+04  0.50400001928E-02 0. -1.
        1   -1    0    0  501    0  0.00000000000E+00  0.00000000000E+00 -0.16605553951E+04  0.16605553951E+04  0.50400001928E-02 0.  1.
    10030    2    1    2    0    0  0.00000000000E+00  0.00000000000E+00 -0.62810058018E+03  0.26930102100E+04  0.26187389432E+04 0.  0.
        3    1    3    3  502    0 -0.32565373980E+03  0.12579217275E+04 -0.47996732823E+03  0.13852025401E+04  0.10100000352E+00 0.  1.
       -3    1    3    3    0  502  0.32565373980E+03 -0.12579217275E+04 -0.14813325195E+03  0.13078076699E+04  0.10100000352E+00 0. -1.
</event>
<event>
 5   0  0.8605000E-06  0.2572966E+04  0.7818609E-02  0.8377443E-01
       -3   -1    0    0    0  501  0.00000000000E+00  0.00000000000E+00  0.15157450217E+04  0.15157450250E+04  0.10100000352E+00 0.  1.
        3   -1    0    0  501    0  0.00000000000E+00  0.00000000000E+00 -0.10918973632E+04  0.10918973679E+04  0.10100000352E+00 0. -1.
    10030    2    1    2    0    0  0.00000000000E+00  0.00000000000E+00  0.42384765846E+03  0.26076423929E+04  0.25729656064E+04 0.  0.
        4    1    3    3  502    0  0.10074723890E+04 -0.78106294461E+03  0.36453308178E+02  0.12753001194E+04  0.12699999809E+01 0.  1.
       -4    1    3    3    0  502 -0.10074723890E+04  0.78106294461E+03  0.38739435028E+03  0.13323422734E+04  0.12699999809E+01 0. -1.
</event>
<event>
 5   0  0.2662024E-05  0.2561163E+04  0.7818609E-02  0.8381514E-01
       -2   -1    0    0    0  501  0.00000000000E+00  0.00000000000E+00  0.10681001853E+04  0.10681001853E+04  0.25500000920E-02 0.  1.
        2   -1    0    0  501    0  0.00000000000E+00  0.00000000000E+00 -0.15353321336E+04  0.15353321336E+04  0.25500000920E-02 0. -1.
    10030    2    1    2    0    0  0.00000000000E+00  0.00000000000E+00 -0.46723194824E+03  0.26034323189E+04  0.25611626550E+04 0.  0.
        2    1    3    3  502    0 -0.11569922969E+04 -0.28825428766E+03  0.24117613107E+03  0.12165063237E+04  0.25500000920E-02 0.  1.
       -2    1    3    3    0  502  0.11569922969E+04  0.28825428766E+03 -0.70840807931E+03  0.13869259952E+04  0.25500000920E-02 0. -1.
</event>
<event>
 5   0  0.2528460E-05  0.2588427E+04  0.7818609E-02  0.8372143E-01
       -2   -1    0    0    0  501  0.00000000000E+00  0.00000000000E+00  0.90667221963E+03  0.90667221964E+03  0.25500000920E-02 0.  1.
        2   -1    0    0  501    0  0.00000000000E+00  0.00000000000E+00 -0.18474027301E+04  0.18474027301E+04  0.25500000920E-02 0. -1.
    10030    2    1    2    0    0  0.00000000000E+00  0.00000000000E+00 -0.94073051044E+03  0.27540749497E+04  0.25884271161E+04 0.  0.
        5    1    3    3  502    0  0.38207610610E+02  0.10261642508E+04 -0.13084897258E+04  0.16633220806E+04  0.46999998093E+01 0. -1.
       -5    1    3    3    0  502 -0.38207610610E+02 -0.10261642508E+04  0.36775921541E+03  0.10907528692E+04  0.46999998093E+01 0.  1.
</event>
<event>
 5   0  0.1005492E-05  0.2600306E+04  0.7818609E-02  0.8368097E-01
        1   -1    0    0  501    0  0.00000000000E+00  0.00000000000E+00  0.11095691081E+04  0.11095691081E+04  0.50400001928E-02 0. -1.
       -1   -1    0    0    0  501  0.00000000000E+00  0.00000000000E+00 -0.15234719713E+04  0.15234719713E+04  0.50400001928E-02 0.  1.
    10030    2    1    2    0    0  0.00000000000E+00  0.00000000000E+00 -0.41390286321E+03  0.26330410794E+04  0.26003057023E+04 0.  0.
        4    1    3    3  502    0 -0.25141881177E+03 -0.10548223979E+04  0.51938915639E+03  0.12023428873E+04  0.12699999809E+01 0. -1.
       -4    1    3    3    0  502  0.25141881177E+03  0.10548223979E+04 -0.93329201960E+03  0.14306981921E+04  0.12699999809E+01 0.  1.
</event>
<event>
 5   0  0.2517854E-05  0.2594880E+04  0.7818609E-02  0.8369943E-01
        2   -1    0    0  501    0  0.00000000000E+00  0.00000000000E+00  0.11206440504E+04  0.11206440504E+04  0.25500000920E-02 0.  1.
       -2   -1    0    0    0  501  0.00000000000E+00  0.00000000000E+00 -0.15021274168E+04  0.15021274168E+04  0.25500000920E-02 0. -1.
    10030    2    1    2    0    0  0.00000000000E+00  0.00000000000E+00 -0.38148336638E+03  0.26227714672E+04  0.25948796909E+04 0.  0.
        4    1    3    3  502    0  0.29452116911E+03  0.12128827170E+04  0.16735640232E+03  0.12593001955E+04  0.12699999809E+01 0.  1.
       -4    1    3    3    0  502 -0.29452116911E+03 -0.12128827170E+04 -0.54883976870E+03  0.13634712717E+04  0.12699999809E+01 0. -1.
</event>
<event>
 5   0  0.1034714E-05  0.2606964E+04  0.7818609E-02  0.8365839E-01
       -1   -1    0    0    0  501  0.00000000000E+00  0.00000000000E+00  0.12080150166E+04  0.12080150166E+04  0.50400001928E-02 0.  1.
        1   -1    0    0  501    0  0.00000000000E+00  0.00000000000E+00 -0.14064938933E+04  0.14064938933E+04  0.50400001928E-02 0. -1.
    10030    2    1    2    0    0  0.00000000000E+00  0.00000000000E+00 -0.19847887673E+03  0.26145089099E+04  0.26069643218E+04 0.  0.
        5    1    3    3  502    0 -0.26590495249E+03 -0.40694723109E+03  0.11136953262E+04  0.12151752393E+04  0.46999998093E+01 0.  1.
       -5    1    3    3    0  502  0.26590495249E+03  0.40694723109E+03 -0.13121742029E+04  0.13993336705E+04  0.46999998093E+01 0. -1.
</event>
<event>
 5   0  0.2662024E-05  0.2657294E+04  0.7818609E-02  0.8348996E-01
        2   -1    0    0  501    0  0.00000000000E+00  0.00000000000E+00  0.22435849083E+04  0.22435849083E+04  0.25500000920E-02 0.  1.
       -2   -1    0    0    0  501  0.00000000000E+00  0.00000000000E+00 -0.78682248234E+03  0.78682248234E+03  0.25500000920E-02 0. -1.
    10030    2    1    2    0    0  0.00000000000E+00  0.00000000000E+00  0.14567624259E+04  0.30304073906E+04  0.26572941477E+04 0.  0.
        2    1    3    3  502    0  0.11117130168E+03  0.98525007648E+03 -0.28023880995E+03  0.10303448753E+04  0.25500000920E-02 0. -1.
       -2    1    3    3    0  502 -0.11117130168E+03 -0.98525007648E+03  0.17370012359E+04  0.20000625153E+04  0.25500000920E-02 0.  1.
</event>
<event>
 5   0  0.2484618E-05  0.2660032E+04  0.7818609E-02  0.8348091E-01
        2   -1    0    0  501    0  0.00000000000E+00  0.00000000000E+00  0.18976676728E+04  0.18976676728E+04  0.25500000920E-02 0. -1.
       -2   -1    0    0    0  501  0.00000000000E+00  0.00000000000E+00 -0.93216665622E+03  0.93216665622E+03  0.25500000920E-02 0.  1.
    10030    2    1    2    0    0  0.00000000000E+00  0.00000000000E+00  0.96550101663E+03  0.28298343291E+04  0.26600319767E+04 0.  0.
        3    1    3    3  502    0  0.13264711072E+04 -0.75924078910E+02  0.41845707791E+03  0.13929811198E+04  0.10100000352E+00 0. -1.
       -3    1    3    3    0  502 -0.13264711072E+04  0.75924078910E+02  0.54704393872E+03  0.14368532093E+04  0.10100000352E+00 0.  1.
</event>
<event>
 5   0  0.9855352E-06  0.2600410E+04  0.7818609E-02  0.8368062E-01
        1   -1    0    0  501    0  0.00000000000E+00  0.00000000000E+00  0.13230322049E+04  0.13230322049E+04  0.50400001928E-02 0. -1.
       -1   -1    0    0    0  501  0.00000000000E+00  0.00000000000E+00 -0.12777716497E+04  0.12777716498E+04  0.50400001928E-02 0.  1.
    10030    2    1    2    0    0  0.00000000000E+00  0.00000000000E+00  0.45260555106E+02  0.26008038546E+04  0.26004100008E+04 0.  0.
        2    1    3    3  502    0  0.60286187807E+02 -0.73309419705E+03 -0.10496662008E+04  0.12817412606E+04  0.25500000920E-02 0.  1.
       -2    1    3    3    0  502 -0.60286187807E+02  0.73309419705E+03  0.10949267559E+04  0.13190625940E+04  0.25500000920E-02 0. -1.
</event>
<event>
 5   0  0.1034714E-05  0.2566580E+04  0.7818609E-02  0.8379642E-01
        1   -1    0    0  501    0  0.00000000000E+00  0.00000000000E+00  0.16138712833E+04  0.16138712833E+04  0.50400001928E-02 0.  1.
       -1   -1    0    0    0  501  0.00000000000E+00  0.00000000000E+00 -0.10204245202E+04  0.10204245202E+04  0.50400001928E-02 0. -1.
    10030    2    1    2    0    0  0.00000000000E+00  0.00000000000E+00  0.59344676306E+03  0.26342958036E+04  0.25665804721E+04 0.  0.
        5    1    3    3  502    0  0.11363033902E+03 -0.52641077765E+03  0.14922691983E+04  0.15864771070E+04  0.46999998093E+01 0.  1.
       -5    1    3    3    0  502 -0.11363033902E+03  0.52641077765E+03 -0.89882243525E+03  0.10478186966E+04  0.46999998093E+01 0. -1.
</event>
<event>
 5   0  0.2484618E-05  0.2593643E+04  0.7818609E-02  0.8370364E-01
       -2   -1    0    0    0  501  0.00000000000E+00  0.00000000000E+00  0.65273521308E+03  0.65273521308E+03  0.25500000920E-02 0.  1.
        2   -1    0    0  501    0  0.00000000000E+00  0.00000000000E+00 -0.25764603802E+04  0.25764603802E+04  0.25500000920E-02 0. -1.
    10030    2    1    2    0    0  0.00000000000E+00  0.00000000000E+00 -0.19237251671E+04  0.32291955933E+04  0.25936433180E+04 0.  0.
        3    1    3    3  502    0 -0.27323953725E+03 -0.53382186426E+03  0.46973074339E+03  0.76175626612E+03  0.10100000352E+00 0.  1.
       -3    1    3    3    0  502  0.27323953725E+03  0.53382186426E+03 -0.23934559105E+04  0.24674393272E+04  0.10100000352E+00 0. -1.
</event>
<event>
 5   0  0.2484618E-05  0.2595458E+04  0.7818609E-02  0.8369746E-01
       -2   -1    0    0    0  501  0.00000000000E+00  0.00000000000E+00  0.10964813369E+04  0.10964813369E+04  0.25500000920E-02 0.  1.
        2   -1    0    0  501    0  0.00000000000E+00  0.00000000000E+00 -0.15359137272E+04  0.15359137272E+04  0.25500000920E-02 0. -1.
    10030    2    1    2    0    0  0.00000000000E+00  0.00000000000E+00 -0.43943239026E+03  0.26323950641E+04  0.25954581383E+04 0.  0.
        3    1    3    3  502    0  0.60429076223E+03 -0.10900142152E+04 -0.58652936115E+03  0.13774305850E+04  0.10100000352E+00 0. -1.
       -3    1    3    3    0  502 -0.60429076223E+03  0.10900142152E+04  0.14709697089E+03  0.12549644791E+04  0.10100000352E+00 0.  1.
</event>
<event>
 5   0  0.2662024E-05  0.2536118E+04  0.7818609E-02  0.8390230E-01
        2   -1    0    0  501    0  0.00000000000E+00  0.00000000000E+00  0.12269099963E+04  0.12269099963E+04  0.25500000920E-02 0. -1.
       -2   -1    0    0    0  501  0.00000000000E+00  0.00000000000E+00 -0.13105880491E+04  0.13105880491E+04  0.25500000920E-02 0.  1.
    10030    2    1    2    0    0  0.00000000000E+00  0.00000000000E+00 -0.83678052761E+02  0.25374980454E+04  0.25361179614E+04 0.  0.
        2    1    3    3  502    0 -0.42889608114E+03 -0.57474750515E+03  0.10045249957E+04  0.12342434971E+04  0.25500000920E-02 0. -1.
       -2    1    3    3    0  502  0.42889608114E+03  0.57474750515E+03 -0.10882030485E+04  0.13032545483E+04  0.25500000920E-02 0.  1.
</event>
<event>
 5   0  0.1025153E-05  0.2597914E+04  0.7818609E-02  0.8368910E-01
       -1   -1    0    0    0  501  0.00000000000E+00  0.00000000000E+00  0.15056668345E+04  0.15056668345E+04  0.50400001928E-02 0. -1.
        1   -1    0    0  501    0  0.00000000000E+00  0.00000000000E+00 -0.11206263489E+04  0.11206263489E+04  0.50400001928E-02 0.  1.
    10030    2    1    2    0    0  0.00000000000E+00  0.00000000000E+00  0.38504048559E+03  0.26262931834E+04  0.25979144923E+04 0.  0.
        1    1    3    3  502    0 -0.13521764617E+03  0.73034095441E+03  0.12698102089E+04  0.14710879268E+04  0.50400001928E-02 0. -1.
       -1    1    3    3    0  502  0.13521764617E+03 -0.73034095441E+03 -0.88476972334E+03  0.11552052566E+04  0.50400001928E-02 0.  1.
</event>
<event>
 5   0  0.2517854E-05  0.2604322E+04  0.7818609E-02  0.8366734E-01
       -2   -1    0    0    0  501  0.00000000000E+00  0.00000000000E+00  0.11318233933E+04  0.11318233934E+04  0.25500000920E-02 0. -1.
        2   -1    0    0  501    0  0.00000000000E+00  0.00000000000E+00 -0.14981345973E+04  0.14981345973E+04  0.25500000920E-02 0.  1.
    10030    2    1    2    0    0  0.00000000000E+00  0.00000000000E+00 -0.36631120390E+03  0.26299579906E+04  0.26043223945E+04 0.  0.
        4    1    3    3  502    0 -0.89043386408E+03 -0.44922944935E+03 -0.10286199435E+04  0.14327386941E+04  0.12699999809E+01 0.  1.
       -4    1    3    3    0  502  0.89043386408E+03  0.44922944935E+03  0.66230873961E+03  0.11972192965E+04  0.12699999809E+01 0. -1.
</event>
<event>
 5   0  0.2484618E-05  0.2617532E+04  0.7818609E-02  0.8362270E-01
       -2   -1    0    0    0  501  0.00000000000E+00  0.00000000000E+00  0.10199652137E+04  0.10199652137E+04  0.25500000920E-02 0.  1.
        2   -1    0    0  501    0  0.00000000000E+00  0.00000000000E+00 -0.16793404332E+04  0.16793404332E+04  0.25500000920E-02 0. -1.
    10030    2    1    2    0    0  0.00000000000E+00  0.00000000000E+00 -0.65937521949E+03  0.26993056470E+04  0.26175322912E+04 0.  0.
        3    1    3    3  502    0 -0.38449510876E+03  0.12233440310E+04 -0.59861559230E+02  0.12837408318E+04  0.10100000352E+00 0.  1.
       -3    1    3    3    0  502  0.38449510876E+03 -0.12233440310E+04 -0.59951366026E+03  0.14155648151E+04  0.10100000352E+00 0. -1.
</event>
<event>
 5   0  0.9855352E-06  0.2612048E+04  0.7818609E-02  0.8364120E-01
        1   -1    0    0  501    0  0.00000000000E+00  0.00000000000E+00  0.12725077246E+04  0.12725077246E+04  0.50400001928E-02 0.  1.
       -1   -1    0    0    0  501  0.00000000000E+00  0.00000000000E+00 -0.13404225529E+04  0.13404225529E+04  0.50400001928E-02 0. -1.
    10030    2    1    2    0    0  0.00000000000E+00  0.00000000000E+00 -0.67914828295E+02  0.26129302776E+04  0.26120475133E+04 0.  0.
        2    1    3    3  502    0 -0.97160909354E+03  0.74654119002E+03  0.41824632419E+03  0.12947115380E+04  0.25500000920E-02 0.  1.
       -2    1    3    3    0  502  0.97160909354E+03 -0.74654119002E+03 -0.48616115249E+03  0.13182187395E+04  0.25500000920E-02 0. -1.
</event>
<event>
 5   0  0.1025153E-05  0.2583202E+04  0.7818609E-02  0.8373930E-01
       -1   -1    0    0    0  501  0.00000000000E+00  0.00000000000E+00  0.56841618600E+03  0.56841618602E+03  0.50400001928E-02 0.  1.
        1   -1    0    0  501    0  0.00000000000E+00  0.00000000000E+00 -0.29348791773E+04  0.29348791773E+04  0.50400001928E-02 0. -1.
    10030    2    1    2    0    0  0.00000000000E+00  0.00000000000E+00 -0.23664629913E+04  0.35032953633E+04  0.25832017562E+04 0.  0.
        1    1    3    3  502    0 -0.10900247966E+04  0.56952415718E+03 -0.17184018241E+04  0.21131532485E+04  0.50400001928E-02 0. -1.
       -1    1    3    3    0  502  0.10900247966E+04 -0.56952415718E+03 -0.64806116721E+03  0.13901421148E+04  0.50400001928E-02 0.  1.
</event>
<event>
 5   0  0.2555801E-05  0.2593711E+04  0.7818609E-02  0.8370341E-01
        2   -1    0    0  501    0  0.00000000000E+00  0.00000000000E+00  0.11340939822E+04  0.11340939822E+04  0.25500000920E-02 0. -1.
       -2   -1    0    0    0  501  0.00000000000E+00  0.00000000000E+00 -0.14829759944E+04  0.14829759944E+04  0.25500000920E-02 0.  1.
    10030    2    1    2    0    0  0.00000000000E+00  0.00000000000E+00 -0.34888201214E+03  0.26170699766E+04  0.25937109716E+04 0.  0.
        1    1    3    3  502    0  0.16876110896E+03 -0.81244979829E+03 -0.11800506250E+04  0.14425929655E+04  0.50400001928E-02 0.  1.
       -1    1    3    3    0  502 -0.16876110896E+03  0.81244979829E+03  0.83116861282E+03  0.11744770111E+04  0.50400001928E-02 0. -1.
</event>
<event>
 5   0  0.1034714E-05  0.2560577E+04  0.7818609E-02  0.8381717E-01
       -1   -1    0    0    0  501  0.00000000000E+00  0.00000000000E+00  0.97921707832E+03  0.97921707833E+03  0.50400001928E-02 0. -1.
        1   -1    0    0  501    0  0.00000000000E+00  0.00000000000E+00 -0.16739282310E+04  0.16739282310E+04  0.50400001928E-02 0.  1.
    10030    2    1    2    0    0  0.00000000000E+00  0.00000000000E+00 -0.69471115271E+03  0.26531453094E+04  0.25605773659E+04 0.  0.
        5    1    3    3  502    0  0.47726892723E+03  0.10672315326E+04  0.19338060229E+03  0.11849839326E+04  0.46999998093E+01 0. -1.
       -5    1    3    3    0  502 -0.47726892723E+03 -0.10672315326E+04 -0.88809175501E+03  0.14681613768E+04  0.46999998093E+01 0.  1.
</event>
<event>
 5   0  0.1025153E-05  0.2575713E+04  0.7818609E-02  0.8376498E-01
       -1   -1    0    0    0  501  0.00000000000E+00  0.00000000000E+00  0.10816106018E+04  0.10816106018E+04  0.50400001928E-02 0. -1.
        1   -1    0    0  501    0  0.00000000000E+00  0.00000000000E+00 -0.15334305312E+04  0.15334305312E+04  0.50400001928E-02 0.  1.
    10030    2    1    2    0    0  0.00000000000E+00  0.00000000000E+00 -0.45181992942E+03  0.26150411330E+04  0.25757132757E+04 0.  0.
        1    1    3    3  502    0 -0.72008815039E+03 -0.66455554434E+03 -0.10743817091E+04  0.14541172830E+04  0.50400001928E-02 0.  1.
       -1    1    3    3    0  502  0.72008815039E+03  0.66455554434E+03  0.62256177971E+03  0.11609238500E+04  0.50400001928E-02 0. -1.
</event>
<event>
 5   0  0.2484618E-05  0.2601302E+04  0.7818609E-02  0.8367759E-01
       -2   -1    0    0    0  501  0.00000000000E+00  0.00000000000E+00  0.86127321571E+03  0.86127321572E+03  0.25500000920E-02 0.  1.
        2   -1    0    0  501    0  0.00000000000E+00  0.00000000000E+00 -0.19641772363E+04  0.19641772363E+04  0.25500000920E-02 0. -1.
    10030    2    1    2    0    0  0.00000000000E+00  0.00000000000E+00 -0.11029040206E+04  0.28254504520E+04  0.26013021697E+04 0.  0.
        3    1    3    3  502    0  0.38701226174E+03 -0.56085502727E+03 -0.17547750586E+04  0.18824378791E+04  0.10100000352E+00 0. -1.
       -3    1    3    3    0  502 -0.38701226174E+03  0.56085502727E+03  0.65187103797E+03  0.94301257292E+03  0.10100000352E+00 0.  1.
</event>
<event>
 5   0  0.1025153E-05  0.2761429E+04  0.7818609E-02  0.8315344E-01
       -1   -1    0    0    0  501  0.00000000000E+00  0.00000000000E+00  0.13080021262E+04  0.13080021262E+04  0.50400001928E-02 0.  1.
        1   -1    0    0  501    0  0.00000000000E+00  0.00000000000E+00 -0.14574692882E+04  0.14574692882E+04  0.50400001928E-02 0. -1.
    10030    2    1    2    0    0  0.00000000000E+00  0.00000000000E+00 -0.14946716201E+03  0.27654714144E+04  0.27614292877E+04 0.  0.
        1    1    3    3  502    0 -0.16741407566E+03  0.13556287730E+04  0.12709574797E+03  0.13718273113E+04  0.50400001928E-02 0. -1.
       -1    1    3    3    0  502  0.16741407566E+03 -0.13556287730E+04 -0.27656290998E+03  0.13936441031E+04  0.50400001928E-02 0.  1.
</event>
<event>
 5   0  0.1025153E-05  0.2633506E+04  0.7818609E-02  0.8356908E-01
        1   -1    0    0  501    0  0.00000000000E+00  0.00000000000E+00  0.60534089214E+03  0.60534089216E+03  0.50400001928E-02 0. -1.
       -1   -1    0    0    0  501  0.00000000000E+00  0.00000000000E+00 -0.28642344082E+04  0.28642344082E+04  0.50400001928E-02 0.  1.
    10030    2    1    2    0    0  0.00000000000E+00  0.00000000000E+00 -0.22588935160E+04  0.34695753004E+04  0.26335058094E+04 0.  0.
        1    1    3    3  502    0 -0.68038991217E+03 -0.11179518020E+04 -0.93811094676E+03  0.16102170079E+04  0.50400001928E-02 0.  1.
       -1    1    3    3    0  502  0.68038991217E+03  0.11179518020E+04 -0.13207825693E+04  0.18593582924E+04  0.50400001928E-02 0. -1.
</event>
<event>
 5   0  0.9855352E-06  0.2661736E+04  0.7818609E-02  0.8347528E-01
       -1   -1    0    0    0  501  0.00000000000E+00  0.00000000000E+00  0.10581325964E+04  0.10581325964E+04  0.50400001928E-02 0. -1.
        1   -1    0    0  501    0  0.00000000000E+00  0.00000000000E+00 -0.16739017578E+04  0.16739017578E+04  0.50400001928E-02 0.  1.
    10030    2    1    2    0    0  0.00000000000E+00  0.00000000000E+00 -0.61576916137E+03  0.27320343542E+04  0.26617362853E+04 0.  0.
        2    1    3    3  502    0  0.88339336290E+03 -0.49884840133E+03  0.57624555186E+03  0.11667444010E+04  0.25500000920E-02 0. -1.
       -2    1    3    3    0  502 -0.88339336290E+03  0.49884840133E+03 -0.11920147132E+04  0.15652899532E+04  0.25500000920E-02 0.  1.
</event>
<event>
 5   0  0.2555801E-05  0.2581857E+04  0.7818609E-02  0.8374390E-01
        2   -1    0    0  501    0  0.00000000000E+00  0.00000000000E+00  0.13581483009E+04  0.13581483009E+04  0.25500000920E-02 0. -1.
       -2   -1    0    0    0  501  0.00000000000E+00  0.00000000000E+00 -0.12270351922E+04  0.12270351922E+04  0.25500000920E-02 0.  1.
    10030    2    1    2    0    0  0.00000000000E+00  0.00000000000E+00  0.13111310868E+03  0.25851834931E+04  0.25818565115E+04 0.  0.
        1    1    3    3  502    0 -0.36637696003E+03  0.27944340321E+03 -0.11418891733E+04  0.12313535546E+04  0.50400001928E-02 0.  1.
       -1    1    3    3    0  502  0.36637696003E+03 -0.27944340321E+03  0.12730022820E+04  0.13538299385E+04  0.50400001928E-02 0. -1.
</event>
<event>
 5   0  0.8605000E-06  0.2578438E+04  0.7818609E-02  0.8375562E-01
       -3   -1    0    0    0  501  0.00000000000E+00  0.00000000000E+00  0.10735089518E+04  0.10735089566E+04  0.10100000352E+00 0. -1.
        3   -1    0    0  501    0  0.00000000000E+00  0.00000000000E+00 -0.15482738799E+04  0.15482738832E+04  0.10100000352E+00 0.  1.
    10030    2    1    2    0    0  0.00000000000E+00  0.00000000000E+00 -0.47476492812E+03  0.26217828398E+04  0.25784381944E+04 0.  0.
        4    1    3    3  502    0 -0.44959573435E+03  0.86000465927E+03  0.62561344161E+03  0.11546160096E+04  0.12699999809E+01 0. -1.
       -4    1    3    3    0  502  0.44959573435E+03 -0.86000465927E+03 -0.11003783697E+04  0.14671668302E+04  0.12699999809E+01 0.  1.
</event>
<event>
 5   0  0.2484618E-05  0.2820840E+04  0.7818609E-02  0.8296827E-01
        2   -1    0    0  501    0  0.00000000000E+00  0.00000000000E+00  0.17029330332E+04  0.17029330332E+04  0.25500000920E-02 0.  1.
       -2   -1    0    0    0  501  0.00000000000E+00  0.00000000000E+00 -0.11681520687E+04  0.11681520687E+04  0.25500000920E-02 0. -1.
    10030    2    1    2    0    0  0.00000000000E+00  0.00000000000E+00  0.53478096455E+03  0.28710851019E+04  0.28208401199E+04 0.  0.
        3    1    3    3  502    0 -0.15740080570E+03 -0.69788470696E+02  0.16921962452E+04  0.17009331518E+04  0.10100000352E+00 0.  1.
       -3    1    3    3    0  502  0.15740080570E+03  0.69788470696E+02 -0.11574152807E+04  0.11701519501E+04  0.10100000352E+00 0. -1.
</event>
<event>
 5   0  0.2662024E-05  0.2564774E+04  0.7818609E-02  0.8380266E-01
       -2   -1    0    0    0  501  0.00000000000E+00  0.00000000000E+00  0.47473248597E+03  0.47473248598E+03  0.25500000920E-02 0. -1.
        2   -1    0    0  501    0  0.00000000000E+00  0.00000000000E+00 -0.34640911803E+04  0.34640911803E+04  0.25500000920E-02 0.  1.
    10030    2    1    2    0    0  0.00000000000E+00  0.00000000000E+00 -0.29893586944E+04  0.39388236663E+04  0.25647741559E+04 0.  0.
        2    1    3    3  502    0 -0.10053528406E+04  0.78334582188E+03 -0.17126872575E+04  0.21348682987E+04  0.25500000920E-02 0.  1.
       -2    1    3    3    0  502  0.10053528406E+04 -0.78334582188E+03 -0.12766714369E+04  0.18039553676E+04  0.25500000920E-02 0. -1.
</event>
<event>
 5   0  0.2555801E-05  0.2793304E+04  0.7818609E-02  0.8305350E-01
       -2   -1    0    0    0  501  0.00000000000E+00  0.00000000000E+00  0.10156486379E+04  0.10156486379E+04  0.25500000920E-02 0. -1.
        2   -1    0    0  501    0  0.00000000000E+00  0.00000000000E+00 -0.19205820123E+04  0.19205820123E+04  0.25500000920E-02 0.  1.
    10030    2    1    2    0    0  0.00000000000E+00  0.00000000000E+00 -0.90493337434E+03  0.29362306502E+04  0.27933037821E+04 0.  0.
        1    1    3    3  502    0  0.56934193359E+03 -0.85541180164E+03 -0.14467829223E+04  0.17745592163E+04  0.50400001928E-02 0.  1.
       -1    1    3    3    0  502 -0.56934193359E+03  0.85541180164E+03  0.54184954799E+03  0.11616714339E+04  0.50400001928E-02 0. -1.
</event>
<event>
 5   0  0.2484618E-05  0.2590930E+04  0.7818609E-02  0.8371289E-01
        2   -1    0    0  501    0  0.00000000000E+00  0.00000000000E+00  0.66292412967E+03  0.66292412967E+03  0.25500000920E-02 0. -1.
       -2   -1    0    0    0  501  0.00000000000E+00  0.00000000000E+00 -0.25315554055E+04  0.25315554055E+04  0.25500000920E-02 0.  1.
    10030    2    1    2    0    0  0.00000000000E+00  0.00000000000E+00 -0.18686312758E+04  0.31944795351E+04  0.25909296894E+04 0.  0.
        3    1    3    3  502    0 -0.10830579497E+02  0.76515347175E+03  0.35448403891E+03  0.84334813739E+03  0.10100000352E+00 0. -1.
       -3    1    3    3    0  502  0.10830579497E+02 -0.76515347175E+03 -0.22231153147E+04  0.23511313978E+04  0.10100000352E+00 0.  1.
</event>
<event>
 5   0  0.1025153E-05  0.2598398E+04  0.7818609E-02  0.8368746E-01
        1   -1    0    0  501    0  0.00000000000E+00  0.00000000000E+00  0.14931265078E+04  0.14931265079E+04  0.50400001928E-02 0. -1.
       -1   -1    0    0    0  501  0.00000000000E+00  0.00000000000E+00 -0.11304586149E+04  0.11304586149E+04  0.50400001928E-02 0.  1.
    10030    2    1    2    0    0  0.00000000000E+00  0.00000000000E+00  0.36266789297E+03  0.26235851227E+04  0.25983977555E+04 0.  0.
        1    1    3    3  502    0 -0.66040346488E+03 -0.94951884928E+03  0.77884637353E+03  0.13943889182E+04  0.50400001928E-02 0. -1.
       -1    1    3    3    0  502  0.66040346488E+03  0.94951884928E+03 -0.41617848056E+03  0.12291962045E+04  0.50400001928E-02 0.  1.
</event>
<event>
 5   0  0.8605000E-06  0.2577300E+04  0.7818609E-02  0.8375953E-01
       -3   -1    0    0    0  501  0.00000000000E+00  0.00000000000E+00  0.16421620442E+04  0.16421620473E+04  0.10100000352E+00 0. -1.
        3   -1    0    0  501    0  0.00000000000E+00  0.00000000000E+00 -0.10112393812E+04  0.10112393863E+04  0.10100000352E+00 0.  1.
    10030    2    1    2    0    0  0.00000000000E+00  0.00000000000E+00  0.63092266300E+03  0.26534014336E+04  0.25773000914E+04 0.  0.
        2    1    3    3  502    0  0.11046314827E+04  0.18189899668E+03  0.97252334738E+03  0.14829361479E+04  0.25500000920E-02 0. -1.
       -2    1    3    3    0  502 -0.11046314827E+04 -0.18189899668E+03 -0.34160068439E+03  0.11704652857E+04  0.25500000920E-02 0.  1.
</event>
<event>
 5   0  0.8605000E-06  0.2626514E+04  0.7818609E-02  0.8359250E-01
       -3   -1    0    0    0  501  0.00000000000E+00  0.00000000000E+00  0.13060687210E+04  0.13060687249E+04  0.10100000352E+00 0. -1.
        3   -1    0    0  501    0  0.00000000000E+00  0.00000000000E+00 -0.13204847494E+04  0.13204847533E+04  0.10100000352E+00 0.  1.
    10030    2    1    2    0    0  0.00000000000E+00  0.00000000000E+00 -0.14416028417E+02  0.26265534781E+04  0.26265139161E+04 0.  0.
        5    1    3    3  502    0  0.67954994589E+03 -0.75515029722E+03  0.82501942576E+03  0.13087089987E+04  0.46999998093E+01 0. -1.
       -5    1    3    3    0  502 -0.67954994589E+03  0.75515029722E+03 -0.83943545417E+03  0.13178444795E+04  0.46999998093E+01 0.  1.
</event>
<event>
 5   0  0.2517854E-05  0.2615949E+04  0.7818609E-02  0.8362804E-01
       -2   -1    0    0    0  501  0.00000000000E+00  0.00000000000E+00  0.95836854576E+03  0.95836854577E+03  0.25500000920E-02 0.  1.
        2   -1    0    0  501    0  0.00000000000E+00  0.00000000000E+00 -0.17851144263E+04  0.17851144263E+04  0.25500000920E-02 0. -1.
    10030    2    1    2    0    0  0.00000000000E+00  0.00000000000E+00 -0.82674588053E+03  0.27434829721E+04  0.26159491713E+04 0.  0.
        4    1    3    3  502    0  0.64056283160E+03  0.72003804962E+03  0.51405889710E+03  0.10922608190E+04  0.12699999809E+01 0.  1.
       -4    1    3    3    0  502 -0.64056283160E+03 -0.72003804962E+03 -0.13408047776E+04  0.16512221531E+04  0.12699999809E+01 0. -1.
</event>
<event>
 5   0  0.2662024E-05  0.2590250E+04  0.7818609E-02  0.8371521E-01
        2   -1    0    0  501    0  0.00000000000E+00  0.00000000000E+00  0.19362838310E+04  0.19362838310E+04  0.25500000920E-02 0. -1.
       -2   -1    0    0    0  501  0.00000000000E+00  0.00000000000E+00 -0.86627233547E+03  0.86627233547E+03  0.25500000920E-02 0.  1.
    10030    2    1    2    0    0  0.00000000000E+00  0.00000000000E+00  0.10700114955E+04  0.28025561665E+04  0.25902502708E+04 0.  0.
        2    1    3    3  502    0  0.12134216196E+04 -0.59220284374E+02  0.49386061359E+02  0.12158692578E+04  0.25500000920E-02 0.  1.
       -2    1    3    3    0  502 -0.12134216196E+04  0.59220284374E+02  0.10206254342E+04  0.15866869086E+04  0.25500000920E-02 0. -1.
</event>
<event>
 5   0  0.9855352E-06  0.2595276E+04  0.7818609E-02  0.8369808E-01
       -1   -1    0    0    0  501  0.00000000000E+00  0.00000000000E+00  0.24937621507E+04  0.24937621507E+04  0.50400001928E-02 0. -1.
        1   -1    0    0  501    0  0.00000000000E+00  0.00000000000E+00 -0.67523045536E+03  0.67523045538E+03  0.50400001928E-02 0.  1.
    10030    2    1    2    0    0  0.00000000000E+00  0.00000000000E+00  0.18185316953E+04  0.31689926061E+04  0.25952758255E+04 0.  0.
        2    1    3    3  502    0  0.19633368347E+03  0.32683596821E+03 -0.60529183344E+03  0.71536485028E+03  0.25500000920E-02 0.  1.
       -2    1    3    3    0  502 -0.19633368347E+03 -0.32683596821E+03  0.24238235288E+04  0.24536277558E+04  0.25500000920E-02 0. -1.
</event>
<event>
 5   0  0.9855352E-06  0.2649334E+04  0.7818609E-02  0.8351634E-01
        1   -1    0    0  501    0  0.00000000000E+00  0.00000000000E+00  0.16891528282E+04  0.16891528282E+04  0.50400001928E-02 0. -1.
       -1   -1    0    0    0  501  0.00000000000E+00  0.00000000000E+00 -0.10388298194E+04  0.10388298195E+04  0.50400001928E-02 0.  1.
    10030    2    1    2    0    0  0.00000000000E+00  0.00000000000E+00  0.65032300879E+03  0.27279826477E+04  0.26493337484E+04 0.  0.
        2    1    3    3  502    0 -0.81637606172E+03 -0.93130446115E+03  0.80916275540E+03  0.14793722446E+04  0.25500000920E-02 0. -1.
       -2    1    3    3    0  502  0.81637606172E+03  0.93130446115E+03 -0.15883974661E+03  0.12486104031E+04  0.25500000920E-02 0.  1.
</event>
<event>
 5   0  0.2555801E-05  0.2596481E+04  0.7818609E-02  0.8369398E-01
        2   -1    0    0  501    0  0.00000000000E+00  0.00000000000E+00  0.75753116876E+03  0.75753116877E+03  0.25500000920E-02 0.  1.
       -2   -1    0    0    0  501  0.00000000000E+00  0.00000000000E+00 -0.22248962742E+04  0.22248962742E+04  0.25500000920E-02 0. -1.
    10030    2    1    2    0    0  0.00000000000E+00  0.00000000000E+00 -0.14673651054E+04  0.29824274429E+04  0.25964809069E+04 0.  0.
        1    1    3    3  502    0  0.23425843446E+03  0.27332175904E+03 -0.21664249872E+04  0.21961281892E+04  0.50400001928E-02 0. -1.
       -1    1    3    3    0  502 -0.23425843446E+03 -0.27332175904E+03  0.69905988180E+03  0.78629925375E+03  0.50400001928E-02 0.  1.
</event>
<event>
 5   0  0.1025153E-05  0.2591900E+04  0.7818609E-02  0.8370958E-01
       -1   -1    0    0    0  501  0.00000000000E+00  0.00000000000E+00  0.90360611783E+03  0.90360611784E+03  0.50400001928E-02 0. -1.
        1   -1    0    0  501    0  0.00000000000E+00  0.00000000000E+00 -0.18586490653E+04  0.18586490653E+04  0.50400001928E-02 0.  1.
    10030    2    1    2    0    0  0.00000000000E+00  0.00000000000E+00 -0.95504294750E+03  0.27622551832E+04  0.25919002036E+04 0.  0.
        1    1    3    3  502    0 -0.57421873370E+03  0.11301954086E+04 -0.76431433502E+03  0.14802855192E+04  0.50400001928E-02 0.  1.
       -1    1    3    3    0  502  0.57421873370E+03 -0.11301954086E+04 -0.19072861248E+03  0.12819696640E+04  0.50400001928E-02 0. -1.
</event>
<event>
 5   0  0.1034714E-05  0.2612258E+04  0.7818609E-02  0.8364049E-01
       -1   -1    0    0    0  501  0.00000000000E+00  0.00000000000E+00  0.11295560268E+04  0.11295560269E+04  0.50400001928E-02 0. -1.
        1   -1    0    0  501    0  0.00000000000E+00  0.00000000000E+00 -0.15103035271E+04  0.15103035271E+04  0.50400001928E-02 0.  1.
    10030    2    1    2    0    0  0.00000000000E+00  0.00000000000E+00 -0.38074750023E+03  0.26398595539E+04  0.26122576070E+04 0.  0.
        5    1    3    3  502    0 -0.46418624077E+03  0.96369086449E+03  0.56706671444E+03  0.12106839790E+04  0.46999998093E+01 0. -1.
       -5    1    3    3    0  502  0.46418624077E+03 -0.96369086449E+03 -0.94781421467E+03  0.14291755749E+04  0.46999998093E+01 0.  1.
</event>
<event>
 5   0  0.1025153E-05  0.2621924E+04  0.7818609E-02  0.8360792E-01
        1   -1    0    0  501    0  0.00000000000E+00  0.00000000000E+00  0.59410868697E+03  0.59410868699E+03  0.50400001928E-02 0. -1.
       -1   -1    0    0    0  501  0.00000000000E+00  0.00000000000E+00 -0.28927731368E+04  0.28927731368E+04  0.50400001928E-02 0.  1.
    10030    2    1    2    0    0  0.00000000000E+00  0.00000000000E+00 -0.22986644498E+04  0.34868818238E+04  0.26219242171E+04 0.  0.
        1    1    3    3  502    0 -0.28827895242E+03  0.48310782532E+03 -0.27240773142E+04  0.27815634343E+04  0.50400001928E-02 0.  1.
       -1    1    3    3    0  502  0.28827895242E+03 -0.48310782532E+03  0.42541286440E+03  0.70531838946E+03  0.50400001928E-02 0. -1.
</event>
<event>
 5   0  0.1000421E-05  0.2614432E+04  0.7818609E-02  0.8363315E-01
        1   -1    0    0  501    0  0.00000000000E+00  0.00000000000E+00  0.79547603183E+03  0.79547603185E+03  0.50400001928E-02 0.  1.
       -1   -1    0    0    0  501  0.00000000000E+00  0.00000000000E+00 -0.21481651057E+04  0.21481651057E+04  0.50400001928E-02 0. -1.
    10030    2    1    2    0    0  0.00000000000E+00  0.00000000000E+00 -0.13526890739E+04  0.29436411376E+04  0.26144321403E+04 0.  0.
        3    1    3    3  502    0 -0.10146492277E+04  0.80976208825E+03 -0.84926086639E+03  0.15512806723E+04  0.10100000352E+00 0.  1.
       -3    1    3    3    0  502  0.10146492277E+04 -0.80976208825E+03 -0.50342820750E+03  0.13923604653E+04  0.10100000352E+00 0. -1.
</event>
<event>
 5   0  0.2484618E-05  0.2655707E+04  0.7818609E-02  0.8349521E-01
       -2   -1    0    0    0  501  0.00000000000E+00  0.00000000000E+00  0.88692122930E+03  0.88692122931E+03  0.25500000920E-02 0. -1.
        2   -1    0    0  501    0  0.00000000000E+00  0.00000000000E+00 -0.19879952564E+04  0.19879952564E+04  0.25500000920E-02 0.  1.
    10030    2    1    2    0    0  0.00000000000E+00  0.00000000000E+00 -0.11010740271E+04  0.28749164857E+04  0.26557072103E+04 0.  0.
        3    1    3    3  502    0  0.10150065246E+04 -0.84190453892E+03 -0.71877992436E+03  0.15018941666E+04  0.10100000352E+00 0. -1.
       -3    1    3    3    0  502 -0.10150065246E+04  0.84190453892E+03 -0.38229410277E+03  0.13730223192E+04  0.10100000352E+00 0.  1.
</event>
<event>
 5   0  0.2555801E-05  0.2608854E+04  0.7818609E-02  0.8365200E-01
       -2   -1    0    0    0  501  0.00000000000E+00  0.00000000000E+00  0.10584567518E+04  0.10584567518E+04  0.25500000920E-02 0. -1.
        2   -1    0    0  501    0  0.00000000000E+00  0.00000000000E+00 -0.16075570072E+04  0.16075570072E+04  0.25500000920E-02 0.  1.
    10030    2    1    2    0    0  0.00000000000E+00  0.00000000000E+00 -0.54910025537E+03  0.26660137590E+04  0.26088538235E+04 0.  0.
        1    1    3    3  502    0 -0.70649560448E+03 -0.10502172312E+04  0.47695693508E+02  0.12666361557E+04  0.50400001928E-02 0. -1.
       -1    1    3    3    0  502  0.70649560448E+03  0.10502172312E+04 -0.59679594887E+03  0.13993776032E+04  0.50400001928E-02 0.  1.
</event>
<event>
 5   0  0.8605000E-06  0.2512565E+04  0.7818609E-02  0.8398523E-01
        3   -1    0    0  501    0  0.00000000000E+00  0.00000000000E+00  0.14898321561E+04  0.14898321595E+04  0.10100000352E+00 0.  1.
       -3   -1    0    0    0  501  0.00000000000E+00  0.00000000000E+00 -0.10593447320E+04  0.10593447368E+04  0.10100000352E+00 0. -1.
    10030    2    1    2    0    0  0.00000000000E+00  0.00000000000E+00  0.43048742408E+03  0.25491768963E+04  0.25125651089E+04 0.  0.
        1    1    3    3  502    0  0.51299932939E+03  0.90257986532E+03  0.93296044719E+03  0.13957915035E+04  0.50400001928E-02 0.  1.
       -1    1    3    3    0  502 -0.51299932939E+03 -0.90257986532E+03 -0.50247302312E+03  0.11533853928E+04  0.50400001928E-02 0. -1.
</event>
<event>
 5   0  0.2517854E-05  0.2596043E+04  0.7818609E-02  0.8369547E-01
       -2   -1    0    0    0  501  0.00000000000E+00  0.00000000000E+00  0.84970167508E+03  0.84970167509E+03  0.25500000920E-02 0. -1.
        2   -1    0    0  501    0  0.00000000000E+00  0.00000000000E+00 -0.19828837352E+04  0.19828837352E+04  0.25500000920E-02 0.  1.
    10030    2    1    2    0    0  0.00000000000E+00  0.00000000000E+00 -0.11331820601E+04  0.28325854103E+04  0.25960428589E+04 0.  0.
        4    1    3    3  502    0 -0.12296608808E+03 -0.88497217426E+03  0.46077598176E+03  0.10052922591E+04  0.12699999809E+01 0. -1.
       -4    1    3    3    0  502  0.12296608808E+03  0.88497217426E+03 -0.15939580419E+04  0.18272931511E+04  0.12699999809E+01 0.  1.
</event>
<event>
 5   0  0.9855352E-06  0.2495521E+04  0.7818609E-02  0.8404583E-01
        1   -1    0    0  501    0  0.00000000000E+00  0.00000000000E+00  0.11444184360E+04  0.11444184360E+04  0.50400001928E-02 0.  1.
       -1   -1    0    0    0  501  0.00000000000E+00  0.00000000000E+00 -0.13604346553E+04  0.13604346553E+04  0.50400001928E-02 0. -1.
    10030    2    1    2    0    0  0.00000000000E+00  0.00000000000E+00 -0.21601621927E+03  0.25048530913E+04  0.24955211885E+04 0.  0.
        2    1    3    3  502    0 -0.50561151704E+03 -0.10784346454E+04  0.26519162993E+03  0.12202421445E+04  0.25500000920E-02 0.  1.
       -2    1    3    3    0  502  0.50561151704E+03  0.10784346454E+04 -0.48120784920E+03  0.12846109468E+04  0.25500000920E-02 0. -1.
</event>
<event>
 5   0  0.2528460E-05  0.2636163E+04  0.7818609E-02  0.8356020E-01
       -2   -1    0    0    0  501  0.00000000000E+00  0.00000000000E+00  0.10989983619E+04  0.10989983619E+04  0.25500000920E-02 0. -1.
        2   -1    0    0  501    0  0.00000000000E+00  0.00000000000E+00 -0.15808379023E+04  0.15808379024E+04  0.25500000920E-02 0.  1.
    10030    2    1    2    0    0  0.00000000000E+00  0.00000000000E+00 -0.48183954046E+03  0.26798362642E+04  0.26361625633E+04 0.  0.
        5    1    3    3  502    0  0.76146468860E+02 -0.12239108385E+04 -0.73220696448E+03  0.14282524826E+04  0.46999998093E+01 0.  1.
       -5    1    3    3    0  502 -0.76146468860E+02  0.12239108385E+04  0.25036742402E+03  0.12515837816E+04  0.46999998093E+01 0. -1.
</event>
<event>
 5   0  0.2528460E-05  0.2605713E+04  0.7818609E-02  0.8366263E-01
        2   -1    0    0  501    0  0.00000000000E+00  0.00000000000E+00  0.13525427871E+04  0.13525427871E+04  0.25500000920E-02 0. -1.
       -2   -1    0    0    0  501  0.00000000000E+00  0.00000000000E+00 -0.12549956152E+04  0.12549956152E+04  0.25500000920E-02 0.  1.
    10030    2    1    2    0    0  0.00000000000E+00  0.00000000000E+00  0.97547171955E+02  0.26075384023E+04  0.26057131594E+04 0.  0.
        5    1    3    3  502    0 -0.78832683081E+03 -0.91023736303E+03 -0.44899008916E+03  0.12851480224E+04  0.46999998093E+01 0.  1.
       -5    1    3    3    0  502  0.78832683081E+03  0.91023736303E+03  0.54653726112E+03  0.13223903800E+04  0.46999998093E+01 0. -1.
</event>
<event>
 5   0  0.2484618E-05  0.2608467E+04  0.7818609E-02  0.8365331E-01
       -2   -1    0    0    0  501  0.00000000000E+00  0.00000000000E+00  0.74900437218E+03  0.74900437219E+03  0.25500000920E-02 0.  1.
        2   -1    0    0  501    0  0.00000000000E+00  0.00000000000E+00 -0.22710481825E+04  0.22710481825E+04  0.25500000920E-02 0. -1.
    10030    2    1    2    0    0  0.00000000000E+00  0.00000000000E+00 -0.15220438103E+04  0.30200525547E+04  0.26084669966E+04 0.  0.
        3    1    3    3  502    0  0.12415511491E+04 -0.38257062217E+03 -0.89411958360E+03  0.15771047450E+04  0.10100000352E+00 0.  1.
       -3    1    3    3    0  502 -0.12415511491E+04  0.38257062217E+03 -0.62792422670E+03  0.14429478097E+04  0.10100000352E+00 0. -1.
</event>
<event>
 5   0  0.2528460E-05  0.2574838E+04  0.7818609E-02  0.8376799E-01
       -2   -1    0    0    0  501  0.00000000000E+00  0.00000000000E+00  0.18381320220E+04  0.18381320220E+04  0.25500000920E-02 0. -1.
        2   -1    0    0  501    0  0.00000000000E+00  0.00000000000E+00 -0.90170237333E+03  0.90170237334E+03  0.25500000920E-02 0.  1.
    10030    2    1    2    0    0  0.00000000000E+00  0.00000000000E+00  0.93642964863E+03  0.27398343953E+04  0.25748382526E+04 0.  0.
        5    1    3    3  502    0  0.62804401642E+03 -0.29231477400E+03  0.16228956552E+04  0.17645678257E+04  0.46999998093E+01 0. -1.
       -5    1    3    3    0  502 -0.62804401642E+03  0.29231477400E+03 -0.68646600658E+03  0.97526656964E+03  0.46999998093E+01 0.  1.
</event>
<event>
 5   0  0.2662024E-05  0.2606291E+04  0.7818609E-02  0.8366068E-01
        2   -1    0    0  501    0  0.00000000000E+00  0.00000000000E+00  0.12828830679E+04  0.12828830679E+04  0.25500000920E-02 0. -1.
       -2   -1    0    0    0  501  0.00000000000E+00  0.00000000000E+00 -0.13237276647E+04  0.13237276647E+04  0.25500000920E-02 0.  1.
    10030    2    1    2    0    0  0.00000000000E+00  0.00000000000E+00 -0.40844596784E+02  0.26066107327E+04  0.26062907034E+04 0.  0.
        2    1    3    3  502    0 -0.10036808598E+04  0.18581803067E+03  0.78979087134E+03  0.12906096347E+04  0.25500000920E-02 0. -1.
       -2    1    3    3    0  502  0.10036808598E+04 -0.18581803067E+03 -0.83063546812E+03  0.13160010979E+04  0.25500000920E-02 0.  1.
</event>
<event>
 5   0  0.2528460E-05  0.2592652E+04  0.7818609E-02  0.8370701E-01
       -2   -1    0    0    0  501  0.00000000000E+00  0.00000000000E+00  0.14667807909E+04  0.14667807909E+04  0.25500000920E-02 0.  1.
        2   -1    0    0  501    0  0.00000000000E+00  0.00000000000E+00 -0.11456796856E+04  0.11456796856E+04  0.25500000920E-02 0. -1.
    10030    2    1    2    0    0  0.00000000000E+00  0.00000000000E+00  0.32110110528E+03  0.26124604765E+04  0.25926518898E+04 0.  0.
        5    1    3    3  502    0 -0.26715600528E+03  0.15909615412E+03 -0.11075377964E+04  0.11503677576E+04  0.46999998093E+01 0. -1.
       -5    1    3    3    0  502  0.26715600528E+03 -0.15909615412E+03  0.14286389016E+04  0.14620927189E+04  0.46999998093E+01 0.  1.
</event>
<event>
 5   0  0.2662024E-05  0.2594709E+04  0.7818609E-02  0.8370001E-01
        2   -1    0    0  501    0  0.00000000000E+00  0.00000000000E+00  0.18392473774E+04  0.18392473774E+04  0.25500000920E-02 0. -1.
       -2   -1    0    0    0  501  0.00000000000E+00  0.00000000000E+00 -0.91511827845E+03  0.91511827845E+03  0.25500000920E-02 0.  1.
    10030    2    1    2    0    0  0.00000000000E+00  0.00000000000E+00  0.92412909898E+03  0.27543656559E+04  0.25947091503E+04 0.  0.
        2    1    3    3  502    0 -0.36057433053E+03  0.39958955380E+02 -0.86017872361E+03  0.93355128542E+03  0.25500000920E-02 0.  1.
       -2    1    3    3    0  502  0.36057433053E+03 -0.39958955380E+02  0.17843078226E+04  0.18208143705E+04  0.25500000920E-02 0. -1.
</event>
<event>
 5   0  0.2517854E-05  0.2598621E+04  0.7818609E-02  0.8368670E-01
        2   -1    0    0  501    0  0.00000000000E+00  0.00000000000E+00  0.12590389602E+04  0.12590389602E+04  0.25500000920E-02 0. -1.
       -2   -1    0    0    0  501  0.00000000000E+00  0.00000000000E+00 -0.13408699332E+04  0.13408699332E+04  0.25500000920E-02 0.  1.
    10030    2    1    2    0    0  0.00000000000E+00  0.00000000000E+00 -0.81830972984E+02  0.25999088933E+04  0.25986207775E+04 0.  0.
        4    1    3    3  502    0 -0.43813230579E+03  0.22542835160E+03  0.11619400094E+04  0.12620951063E+04  0.12699999809E+01 0. -1.
       -4    1    3    3    0  502  0.43813230579E+03 -0.22542835160E+03 -0.12437709824E+04  0.13378137870E+04  0.12699999809E+01 0.  1.
</event>
<event>
 5   0  0.2555801E-05  0.2620264E+04  0.7818609E-02  0.8361351E-01
        2   -1    0    0  501    0  0.00000000000E+00  0.00000000000E+00  0.21134800471E+04  0.21134800471E+04  0.25500000920E-02 0.  1.
       -2   -1    0    0    0  501  0.00000000000E+00  0.00000000000E+00 -0.81214171781E+03  0.81214171782E+03  0.25500000920E-02 0. -1.
    10030    2    1    2    0    0  0.00000000000E+00  0.00000000000E+00  0.13013383293E+04  0.29256217649E+04  0.26202635868E+04 0.  0.
        1    1    3    3  502    0 -0.72184528790E+03 -0.10157019812E+04  0.11024656764E+04  0.16637733325E+04  0.50400001928E-02 0.  1.
       -1    1    3    3    0  502  0.72184528790E+03  0.10157019812E+04  0.19887265292E+03  0.12618484324E+04  0.50400001928E-02 0. -1.
</event>
<event>
 5   0  0.1025153E-05  0.2654573E+04  0.7818609E-02  0.8349897E-01
        1   -1    0    0  501    0  0.00000000000E+00  0.00000000000E+00  0.15211893239E+04  0.15211893239E+04  0.50400001928E-02 0. -1.
       -1   -1    0    0    0  501  0.00000000000E+00  0.00000000000E+00 -0.11580996737E+04  0.11580996737E+04  0.50400001928E-02 0.  1.
    10030    2    1    2    0    0  0.00000000000E+00  0.00000000000E+00  0.36308965020E+03  0.26792889976E+04  0.26545725529E+04 0.  0.
        1    1    3    3  502    0 -0.11190903089E+04  0.68391438944E+03 -0.24282468710E+02  0.13117513674E+04  0.50400001928E-02 0. -1.
       -1    1    3    3    0  502  0.11190903089E+04 -0.68391438944E+03  0.38737211891E+03  0.13675376302E+04  0.50400001928E-02 0.  1.
</event>
<event>
 5   0  0.1034714E-05  0.2576014E+04  0.7818609E-02  0.8376395E-01
       -1   -1    0    0    0  501  0.00000000000E+00  0.00000000000E+00  0.12724182731E+04  0.12724182731E+04  0.50400001928E-02 0.  1.
        1   -1    0    0  501    0  0.00000000000E+00  0.00000000000E+00 -0.13037868931E+04  0.13037868931E+04  0.50400001928E-02 0. -1.
    10030    2    1    2    0    0  0.00000000000E+00  0.00000000000E+00 -0.31368619988E+02  0.25762051662E+04  0.25760141824E+04 0.  0.
        5    1    3    3  502    0  0.25153203271E+03 -0.77383489208E+03  0.98281415790E+03  0.12759445766E+04  0.46999998093E+01 0.  1.
       -5    1    3    3    0  502 -0.25153203271E+03  0.77383489208E+03 -0.10141827779E+04  0.13002605895E+04  0.46999998093E+01 0. -1.
</event>
<event>
 5   0  0.9855352E-06  0.2570694E+04  0.7818609E-02  0.8378224E-01
        1   -1    0    0  501    0  0.00000000000E+00  0.00000000000E+00  0.12347401569E+04  0.12347401569E+04  0.50400001928E-02 0.  1.
       -1   -1    0    0    0  501  0.00000000000E+00  0.00000000000E+00 -0.13380278195E+04  0.13380278195E+04  0.50400001928E-02 0. -1.
    10030    2    1    2    0    0  0.00000000000E+00  0.00000000000E+00 -0.10328766253E+03  0.25727679764E+04  0.25706938206E+04 0.  0.
        2    1    3    3  502    0 -0.50591719938E+03  0.11770041122E+04  0.52487160950E+02  0.12822034920E+04  0.25500000920E-02 0. -1.
       -2    1    3    3    0  502  0.50591719938E+03 -0.11770041122E+04 -0.15577482348E+03  0.12905644844E+04  0.25500000920E-02 0.  1.
</event>
<event>
 5   0  0.1034714E-05  0.2612829E+04  0.7818609E-02  0.8363856E-01
        1   -1    0    0  501    0  0.00000000000E+00  0.00000000000E+00  0.12668219834E+04  0.12668219834E+04  0.50400001928E-02 0. -1.
       -1   -1    0    0    0  501  0.00000000000E+00  0.00000000000E+00 -0.13472445767E+04  0.13472445767E+04  0.50400001928E-02 0.  1.
    10030    2    1    2    0    0  0.00000000000E+00  0.00000000000E+00 -0.80422593276E+02  0.26140665601E+04  0.26128291539E+04 0.  0.
        5    1    3    3  502    0 -0.57926584068E+03  0.10291230792E+04 -0.59909354778E+03  0.13242274712E+04  0.46999998093E+01 0.  1.
       -5    1    3    3    0  502  0.57926584068E+03 -0.10291230792E+04  0.51867095450E+03  0.12898390890E+04  0.46999998093E+01 0. -1.
</event>
<event>
 5   0  0.2555801E-05  0.2608961E+04  0.7818609E-02  0.8365164E-01
        2   -1    0    0  501    0  0.00000000000E+00  0.00000000000E+00  0.13610531746E+04  0.13610531746E+04  0.25500000920E-02 0.  1.
       -2   -1    0    0    0  501  0.00000000000E+00  0.00000000000E+00 -0.12502589296E+04  0.12502589296E+04  0.25500000920E-02 0. -1.
    10030    2    1    2    0    0  0.00000000000E+00  0.00000000000E+00  0.11079424495E+03  0.26113121042E+04  0.26089606247E+04 0.  0.
        1    1    3    3  502    0 -0.15650233654E+03 -0.78081797201E+03  0.10895268817E+04  0.13495327016E+04  0.50400001928E-02 0.  1.
       -1    1    3    3    0  502  0.15650233654E+03  0.78081797201E+03 -0.97873263672E+03  0.12617794027E+04  0.50400001928E-02 0. -1.
</event>
<event>
 5   0  0.2517854E-05  0.2817779E+04  0.7818609E-02  0.8297770E-01
       -2   -1    0    0    0  501  0.00000000000E+00  0.00000000000E+00  0.19579406157E+04  0.19579406157E+04  0.25500000920E-02 0.  1.
        2   -1    0    0  501    0  0.00000000000E+00  0.00000000000E+00 -0.10138045542E+04  0.10138045542E+04  0.25500000920E-02 0. -1.
    10030    2    1    2    0    0  0.00000000000E+00  0.00000000000E+00  0.94413606150E+03  0.29717451699E+04  0.28177786379E+04 0.  0.
        4    1    3    3  502    0 -0.59708381712E+02 -0.31849841098E+03  0.19181041232E+04  0.19452843929E+04  0.12699999809E+01 0.  1.
       -4    1    3    3    0  502  0.59708381712E+02  0.31849841098E+03 -0.97396806174E+03  0.10264607771E+04  0.12699999809E+01 0. -1.
</event>
<event>
 5   0  0.1005492E-05  0.2608219E+04  0.7818609E-02  0.8365415E-01
       -1   -1    0    0    0  501  0.00000000000E+00  0.00000000000E+00  0.93136560728E+03  0.93136560729E+03  0.50400001928E-02 0.  1.
        1   -1    0    0  501    0  0.00000000000E+00  0.00000000000E+00 -0.18260297368E+04  0.18260297368E+04  0.50400001928E-02 0. -1.
    10030    2    1    2    0    0  0.00000000000E+00  0.00000000000E+00 -0.89466412952E+03  0.27573953441E+04  0.26082187751E+04 0.  0.
        4    1    3    3  502    0  0.11721560164E+02 -0.10109929976E+04  0.42346245550E+03  0.10961597969E+04  0.12699999809E+01 0.  1.
       -4    1    3    3    0  502 -0.11721560164E+02  0.10109929976E+04 -0.13181265850E+04  0.16612355472E+04  0.12699999809E+01 0. -1.
</event>
<event>
 5   0  0.9855352E-06  0.2585527E+04  0.7818609E-02  0.8373134E-01
        1   -1    0    0  501    0  0.00000000000E+00  0.00000000000E+00  0.17658267997E+04  0.17658267997E+04  0.50400001928E-02 0. -1.
       -1   -1    0    0    0  501  0.00000000000E+00  0.00000000000E+00 -0.94643304468E+03  0.94643304469E+03  0.50400001928E-02 0.  1.
    10030    2    1    2    0    0  0.00000000000E+00  0.00000000000E+00  0.81939375506E+03  0.27122598444E+04  0.25855265108E+04 0.  0.
        2    1    3    3  502    0 -0.98646229995E+03  0.14964123317E+03 -0.45262812287E+03  0.10956151631E+04  0.25500000920E-02 0.  1.
       -2    1    3    3    0  502  0.98646229995E+03 -0.14964123317E+03  0.12720218779E+04  0.16166446814E+04  0.25500000920E-02 0. -1.
</event>
<event>
 5   0  0.9855352E-06  0.2615356E+04  0.7818609E-02  0.8363004E-01
        1   -1    0    0  501    0  0.00000000000E+00  0.00000000000E+00  0.14643735381E+04  0.14643735381E+04  0.50400001928E-02 0.  1.
       -1   -1    0    0    0  501  0.00000000000E+00  0.00000000000E+00 -0.11677494755E+04  0.11677494755E+04  0.50400001928E-02 0. -1.
    10030    2    1    2    0    0  0.00000000000E+00  0.00000000000E+00  0.29662406260E+03  0.26321230137E+04  0.26153557549E+04 0.  0.
        2    1    3    3  502    0  0.10456292772E+04 -0.61097868359E+03 -0.34819238088E+03  0.12601085156E+04  0.25500000920E-02 0. -1.
       -2    1    3    3    0  502 -0.10456292772E+04  0.61097868359E+03  0.64481644349E+03  0.13720144980E+04  0.25500000920E-02 0.  1.
</event>
<event>
 5   0  0.2662024E-05  0.2579962E+04  0.7818609E-02  0.8375040E-01
       -2   -1    0    0    0  501  0.00000000000E+00  0.00000000000E+00  0.96899186857E+03  0.96899186857E+03  0.25500000920E-02 0.  1.
        2   -1    0    0  501    0  0.00000000000E+00  0.00000000000E+00 -0.17173015961E+04  0.17173015961E+04  0.25500000920E-02 0. -1.
    10030    2    1    2    0    0  0.00000000000E+00  0.00000000000E+00 -0.74830972756E+03  0.26862934647E+04  0.25799622342E+04 0.  0.
        2    1    3    3  502    0 -0.90022366856E+03 -0.35016065723E+03 -0.12643998399E+04  0.15911386157E+04  0.25500000920E-02 0. -1.
       -2    1    3    3    0  502  0.90022366856E+03  0.35016065723E+03  0.51609011229E+03  0.10951548490E+04  0.25500000920E-02 0.  1.
</event>
<event>
 5   0  0.1025153E-05  0.2626448E+04  0.7818609E-02  0.8359272E-01
        1   -1    0    0  501    0  0.00000000000E+00  0.00000000000E+00  0.13843821485E+04  0.13843821485E+04  0.50400001928E-02 0.  1.
       -1   -1    0    0    0  501  0.00000000000E+00  0.00000000000E+00 -0.12457236580E+04  0.12457236580E+04  0.50400001928E-02 0. -1.
    10030    2    1    2    0    0  0.00000000000E+00  0.00000000000E+00  0.13865849050E+03  0.26301058065E+04  0.26264482436E+04 0.  0.
        1    1    3    3  502    0 -0.74779671663E+03  0.67650571418E+03 -0.77308996145E+03  0.12706407829E+04  0.50400001928E-02 0. -1.
       -1    1    3    3    0  502  0.74779671663E+03 -0.67650571418E+03  0.91174845194E+03  0.13594650236E+04  0.50400001928E-02 0.  1.
</event>
<event>
 5   0  0.1005492E-05  0.2564828E+04  0.7818609E-02  0.8380247E-01
       -1   -1    0    0    0  501  0.00000000000E+00  0.00000000000E+00  0.72805651161E+03  0.72805651163E+03  0.50400001928E-02 0.  1.
        1   -1    0    0  501    0  0.00000000000E+00  0.00000000000E+00 -0.22588710106E+04  0.22588710106E+04  0.50400001928E-02 0. -1.
    10030    2    1    2    0    0  0.00000000000E+00  0.00000000000E+00 -0.15308144990E+04  0.29869275222E+04  0.25648280630E+04 0.  0.
        4    1    3    3  502    0 -0.11491140701E+04  0.25712051000E+03 -0.17386642212E+03  0.11902962860E+04  0.12699999809E+01 0.  1.
       -4    1    3    3    0  502  0.11491140701E+04 -0.25712051000E+03 -0.13569480768E+04  0.17966312362E+04  0.12699999809E+01 0. -1.
</event>
<event>
 5   0  0.1000421E-05  0.2667661E+04  0.7818609E-02  0.8345575E-01
       -1   -1    0    0    0  501  0.00000000000E+00  0.00000000000E+00  0.10714441215E+04  0.10714441215E+04  0.50400001928E-02 0. -1.
        1   -1    0    0  501    0  0.00000000000E+00  0.00000000000E+00 -0.16604733478E+04  0.16604733478E+04  0.50400001928E-02 0.  1.
    10030    2    1    2    0    0  0.00000000000E+00  0.00000000000E+00 -0.58902922626E+03  0.27319174693E+04  0.26676614533E+04 0.  0.
        3    1    3    3  502    0  0.29869618510E+01 -0.62351355677E+03 -0.15020371192E+04  0.16263128835E+04  0.10100000352E+00 0.  1.
       -3    1    3    3    0  502 -0.29869618510E+01  0.62351355677E+03  0.91300789290E+03  0.11056045858E+04  0.10100000352E+00 0. -1.
</event>
<event>
 5   0  0.1005492E-05  0.2616300E+04  0.7818609E-02  0.8362686E-01
        1   -1    0    0  501    0  0.00000000000E+00  0.00000000000E+00  0.23820608457E+04  0.23820608457E+04  0.50400001928E-02 0. -1.
       -1   -1    0    0    0  501  0.00000000000E+00  0.00000000000E+00 -0.71839299345E+03  0.71839299347E+03  0.50400001928E-02 0.  1.
    10030    2    1    2    0    0  0.00000000000E+00  0.00000000000E+00  0.16636678522E+04  0.31004538391E+04  0.26162995406E+04 0.  0.
        4    1    3    3  502    0 -0.10747380661E+03 -0.29518189395E+03 -0.67303009718E+03  0.74273420161E+03  0.12699999809E+01 0.  1.
       -4    1    3    3    0  502  0.10747380661E+03  0.29518189395E+03  0.23366979494E+04  0.23577196375E+04  0.12699999809E+01 0. -1.
</event>
<event>
 5   0  0.2517854E-05  0.2568991E+04  0.7818609E-02  0.8378811E-01
        2   -1    0    0  501    0  0.00000000000E+00  0.00000000000E+00  0.18670876128E+04  0.18670876128E+04  0.25500000920E-02 0.  1.
       -2   -1    0    0    0  501  0.00000000000E+00  0.00000000000E+00 -0.88369094546E+03  0.88369094546E+03  0.25500000920E-02 0. -1.
    10030    2    1    2    0    0  0.00000000000E+00  0.00000000000E+00  0.98339666731E+03  0.27507785582E+04  0.25689907885E+04 0.  0.
        4    1    3    3  502    0 -0.22911372796E+03  0.65633434370E+03 -0.66485333341E+03  0.96192486136E+03  0.12699999809E+01 0. -1.
       -4    1    3    3    0  502  0.22911372796E+03 -0.65633434370E+03  0.16482500007E+04  0.17888536969E+04  0.12699999809E+01 0.  1.
</event>
<event>
 5   0  0.2662024E-05  0.2580174E+04  0.7818609E-02  0.8374967E-01
       -2   -1    0    0    0  501  0.00000000000E+00  0.00000000000E+00  0.64426144898E+03  0.64426144899E+03  0.25500000920E-02 0. -1.
        2   -1    0    0  501    0  0.00000000000E+00  0.00000000000E+00 -0.25833065250E+04  0.25833065250E+04  0.25500000920E-02 0.  1.
    10030    2    1    2    0    0  0.00000000000E+00  0.00000000000E+00 -0.19390450760E+04  0.32275679740E+04  0.25801742615E+04 0.  0.
        2    1    3    3  502    0  0.52475197131E+03  0.63829824745E+03  0.26978579342E+03  0.86923740050E+03  0.25500000920E-02 0. -1.
       -2    1    3    3    0  502 -0.52475197131E+03 -0.63829824745E+03 -0.22088308695E+04  0.23583305735E+04  0.25500000920E-02 0.  1.
</event>
<event>
 5   0  0.2528460E-05  0.2262499E+04  0.7818609E-02  0.8492856E-01
       -2   -1    0    0    0  501  0.00000000000E+00  0.00000000000E+00  0.62176325437E+03  0.62176325438E+03  0.25500000920E-02 0.  1.
        2   -1    0    0  501    0  0.00000000000E+00  0.00000000000E+00 -0.20582196375E+04  0.20582196375E+04  0.25500000920E-02 0. -1.
    10030    2    1    2    0    0  0.00000000000E+00  0.00000000000E+00 -0.14364563831E+04  0.26799828919E+04  0.22624989194E+04 0.  0.
        5    1    3    3  502    0 -0.24683100575E+03  0.74279293824E+03  0.24919923099E+03  0.82145556254E+03  0.46999998093E+01 0.  1.
       -5    1    3    3    0  502  0.24683100575E+03 -0.74279293824E+03 -0.16856556141E+04  0.18585273293E+04  0.46999998093E+01 0. -1.
</event>
<event>
 5   0  0.2484618E-05  0.2607276E+04  0.7818609E-02  0.8365734E-01
        2   -1    0    0  501    0  0.00000000000E+00  0.00000000000E+00  0.14048940820E+04  0.14048940820E+04  0.25500000920E-02 0. -1.
       -2   -1    0    0    0  501  0.00000000000E+00  0.00000000000E+00 -0.12096796649E+04  0.12096796649E+04  0.25500000920E-02 0.  1.
    10030    2    1    2    0    0  0.00000000000E+00  0.00000000000E+00  0.19521441714E+03  0.26145737469E+04  0.26072758215E+04 0.  0.
        3    1    3    3  502    0  0.92076312737E+02 -0.96207770349E+03  0.97492758254E+03  0.13727910825E+04  0.10100000352E+00 0. -1.
       -3    1    3    3    0  502 -0.92076312737E+02  0.96207770349E+03 -0.77971316541E+03  0.12417826643E+04  0.10100000352E+00 0.  1.
</event>
<event>
 5   0  0.2555801E-05  0.2590409E+04  0.7818609E-02  0.8371466E-01
       -2   -1    0    0    0  501  0.00000000000E+00  0.00000000000E+00  0.76679143541E+03  0.76679143542E+03  0.25500000920E-02 0.  1.
        2   -1    0    0  501    0  0.00000000000E+00  0.00000000000E+00 -0.21877582702E+04  0.21877582702E+04  0.25500000920E-02 0. -1.
    10030    2    1    2    0    0  0.00000000000E+00  0.00000000000E+00 -0.14209668348E+04  0.29545497056E+04  0.25904086970E+04 0.  0.
        1    1    3    3  502    0  0.29034411237E+03  0.70529044966E+03  0.48348439488E+03  0.90304566999E+03  0.50400001928E-02 0.  1.
       -1    1    3    3    0  502 -0.29034411237E+03 -0.70529044966E+03 -0.19044512296E+04  0.20515040356E+04  0.50400001928E-02 0. -1.
</event>
<event>
 5   0  0.1000421E-05  0.2570953E+04  0.7818609E-02  0.8378135E-01
       -1   -1    0    0    0  501  0.00000000000E+00  0.00000000000E+00  0.12529307643E+04  0.12529307643E+04  0.50400001928E-02 0. -1.
        1   -1    0    0  501    0  0.00000000000E+00  0.00000000000E+00 -0.13188679957E+04  0.13188679957E+04  0.50400001928E-02 0.  1.
    10030    2    1    2    0    0  0.00000000000E+00  0.00000000000E+00 -0.65937231443E+02  0.25717987600E+04  0.25709533530E+04 0.  0.
        3    1    3    3  502    0 -0.26388296333E+03 -0.92700288265E+03 -0.88382559329E+03  0.13077141325E+04  0.10100000352E+00 0.  1.
       -3    1    3    3    0  502  0.26388296333E+03  0.92700288265E+03  0.81788836185E+03  0.12640846275E+04  0.10100000352E+00 0. -1.
</event>
<event>
 5   0  0.1000421E-05  0.2503531E+04  0.7818609E-02  0.8401729E-01
        1   -1    0    0  501    0  0.00000000000E+00  0.00000000000E+00  0.24154199268E+04  0.24154199268E+04  0.50400001928E-02 0.  1.
       -1   -1    0    0    0  501  0.00000000000E+00  0.00000000000E+00 -0.64871402337E+03  0.64871402339E+03  0.50400001928E-02 0. -1.
    10030    2    1    2    0    0  0.00000000000E+00  0.00000000000E+00  0.17667059035E+04  0.30641339502E+04  0.25035309296E+04 0.  0.
        3    1    3    3  502    0 -0.21705249097E+03  0.86168507622E+03  0.19624243591E+04  0.21542335829E+04  0.10100000352E+00 0.  1.
       -3    1    3    3    0  502  0.21705249097E+03 -0.86168507622E+03 -0.19571845561E+03  0.90990036734E+03  0.10100000352E+00 0. -1.
</event>
<event>
 5   0  0.2528460E-05  0.2551422E+04  0.7818609E-02  0.8384892E-01
        2   -1    0    0  501    0  0.00000000000E+00  0.00000000000E+00  0.99438033686E+03  0.99438033686E+03  0.25500000920E-02 0. -1.
       -2   -1    0    0    0  501  0.00000000000E+00  0.00000000000E+00 -0.16366360648E+04  0.16366360648E+04  0.25500000920E-02 0.  1.
    10030    2    1    2    0    0  0.00000000000E+00  0.00000000000E+00 -0.64225572789E+03  0.26310164016E+04  0.25514221300E+04 0.  0.
        5    1    3    3  502    0 -0.82109958983E+03  0.93303185251E+03 -0.61761000960E+03  0.13878822674E+04  0.46999998093E+01 0.  1.
       -5    1    3    3    0  502  0.82109958983E+03 -0.93303185251E+03 -0.24645718297E+02  0.12431341342E+04  0.46999998093E+01 0. -1.
</event>
<event>
 5   0  0.1005492E-05  0.2612533E+04  0.7818609E-02  0.8363957E-01
        1   -1    0    0  501    0  0.00000000000E+00  0.00000000000E+00  0.15693694651E+04  0.15693694651E+04  0.50400001928E-02 0.  1.
       -1   -1    0    0    0  501  0.00000000000E+00  0.00000000000E+00 -0.10872721968E+04  0.10872721968E+04  0.50400001928E-02 0. -1.
    10030    2    1    2    0    0  0.00000000000E+00  0.00000000000E+00  0.48209726824E+03  0.26566416619E+04  0.26125327067E+04 0.  0.
        4    1    3    3  502    0  0.87528373108E+03  0.82032381942E+03 -0.28466877308E+03  0.12329195845E+04  0.12699999809E+01 0. -1.
       -4    1    3    3    0  502 -0.87528373108E+03 -0.82032381942E+03  0.76676604132E+03  0.14237220774E+04  0.12699999809E+01 0.  1.
</event>
<event>
 5   0  0.2555801E-05  0.2557287E+04  0.7818609E-02  0.8382856E-01
       -2   -1    0    0    0  501  0.00000000000E+00  0.00000000000E+00  0.15121190515E+04  0.15121190515E+04  0.25500000920E-02 0.  1.
        2   -1    0    0  501    0  0.00000000000E+00  0.00000000000E+00 -0.10812170097E+04  0.10812170097E+04  0.25500000920E-02 0. -1.
    10030    2    1    2    0    0  0.00000000000E+00  0.00000000000E+00  0.43090204181E+03  0.25933360613E+04  0.25572867178E+04 0.  0.
        1    1    3    3  502    0 -0.97812086539E+03  0.19014531735E+03  0.10280286721E+04  0.14316838407E+04  0.50400001928E-02 0.  1.
       -1    1    3    3    0  502  0.97812086539E+03 -0.19014531735E+03 -0.59712663026E+03  0.11616522206E+04  0.50400001928E-02 0. -1.
</event>
<event>
 5   0  0.2484618E-05  0.2612934E+04  0.7818609E-02  0.8363821E-01
        2   -1    0    0  501    0  0.00000000000E+00  0.00000000000E+00  0.79923447709E+03  0.79923447710E+03  0.25500000920E-02 0.  1.
       -2   -1    0    0    0  501  0.00000000000E+00  0.00000000000E+00 -0.21356140857E+04  0.21356140857E+04  0.25500000920E-02 0. -1.
    10030    2    1    2    0    0  0.00000000000E+00  0.00000000000E+00 -0.13363796086E+04  0.29348485628E+04  0.26129342946E+04 0.  0.
        3    1    3    3  502    0  0.32514870116E+02  0.12752554830E+04 -0.98492956442E+03  0.16116513335E+04  0.10100000352E+00 0. -1.
       -3    1    3    3    0  502 -0.32514870116E+02 -0.12752554830E+04 -0.35145004414E+03  0.13231972292E+04  0.10100000352E+00 0.  1.
</event>
<event>
 5   0  0.1025153E-05  0.2565109E+04  0.7818609E-02  0.8380150E-01
        1   -1    0    0  501    0  0.00000000000E+00  0.00000000000E+00  0.11417427702E+04  0.11417427702E+04  0.50400001928E-02 0.  1.
       -1   -1    0    0    0  501  0.00000000000E+00  0.00000000000E+00 -0.14407327265E+04  0.14407327265E+04  0.50400001928E-02 0. -1.
    10030    2    1    2    0    0  0.00000000000E+00  0.00000000000E+00 -0.29898995633E+03  0.25824754967E+04  0.25651091005E+04 0.  0.
        1    1    3    3  502    0  0.66005365895E+03 -0.18942632512E+03  0.94107142972E+03  0.11649757943E+04  0.50400001928E-02 0.  1.
       -1    1    3    3    0  502 -0.66005365895E+03  0.18942632512E+03 -0.12400613860E+04  0.14174997025E+04  0.50400001928E-02 0. -1.
</event>
<event>
 5   0  0.2484618E-05  0.2533167E+04  0.7818609E-02  0.8391264E-01
       -2   -1    0    0    0  501  0.00000000000E+00  0.00000000000E+00  0.13015830058E+04  0.13015830058E+04  0.25500000920E-02 0. -1.
        2   -1    0    0  501    0  0.00000000000E+00  0.00000000000E+00 -0.12325253510E+04  0.12325253510E+04  0.25500000920E-02 0.  1.
    10030    2    1    2    0    0  0.00000000000E+00  0.00000000000E+00  0.69057654768E+02  0.25341083568E+04  0.25331672279E+04 0.  0.
        3    1    3    3  502    0 -0.68709170487E+03 -0.93058864169E+03 -0.48155411515E+03  0.12529902661E+04  0.10100000352E+00 0.  1.
       -3    1    3    3    0  502  0.68709170487E+03  0.93058864169E+03  0.55061176992E+03  0.12811180907E+04  0.10100000352E+00 0. -1.
</event>
<event>
 5   0  0.2555801E-05  0.2660863E+04  0.7818609E-02  0.8347816E-01
       -2   -1    0    0    0  501  0.00000000000E+00  0.00000000000E+00  0.89686950991E+03  0.89686950991E+03  0.25500000920E-02 0. -1.
        2   -1    0    0  501    0  0.00000000000E+00  0.00000000000E+00 -0.19735849546E+04  0.19735849546E+04  0.25500000920E-02 0.  1.
    10030    2    1    2    0    0  0.00000000000E+00  0.00000000000E+00 -0.10767154447E+04  0.28704544645E+04  0.26608631464E+04 0.  0.
        1    1    3    3  502    0  0.78662610810E+03 -0.31007219247E+03 -0.16464594234E+04  0.18508792590E+04  0.50400001928E-02 0.  1.
       -1    1    3    3    0  502 -0.78662610810E+03  0.31007219247E+03  0.56974397868E+03  0.10195752055E+04  0.50400001928E-02 0. -1.
</event>
<event>
 5   0  0.9855352E-06  0.2615097E+04  0.7818609E-02  0.8363091E-01
       -1   -1    0    0    0  501  0.00000000000E+00  0.00000000000E+00  0.21184069850E+04  0.21184069850E+04  0.50400001928E-02 0. -1.
        1   -1    0    0  501    0  0.00000000000E+00  0.00000000000E+00 -0.80706073998E+03  0.80706073999E+03  0.50400001928E-02 0.  1.
    10030    2    1    2    0    0  0.00000000000E+00  0.00000000000E+00  0.13113462450E+04  0.29254677250E+04  0.26150970222E+04 0.  0.
        2    1    3    3  502    0  0.11110546327E+03  0.78537783569E+03 -0.50717763008E+03  0.94148389111E+03  0.25500000920E-02 0.  1.
       -2    1    3    3    0  502 -0.11110546327E+03 -0.78537783569E+03  0.18185238751E+04  0.19839838338E+04  0.25500000920E-02 0. -1.
</event>
<event>
 5   0  0.2517854E-05  0.2085627E+04  0.7818609E-02  0.8567601E-01
        2   -1    0    0  501    0  0.00000000000E+00  0.00000000000E+00  0.85528840449E+03  0.85528840449E+03  0.25500000920E-02 0. -1.
       -2   -1    0    0    0  501  0.00000000000E+00  0.00000000000E+00 -0.12714538588E+04  0.12714538588E+04  0.25500000920E-02 0.  1.
    10030    2    1    2    0    0  0.00000000000E+00  0.00000000000E+00 -0.41616545428E+03  0.21267422633E+04  0.20856267569E+04 0.  0.
        4    1    3    3  502    0 -0.47999146487E+03  0.87995926891E+03  0.85229928655E+02  0.10059750866E+04  0.12699999809E+01 0. -1.
       -4    1    3    3    0  502  0.47999146487E+03 -0.87995926891E+03 -0.50139538294E+03  0.11207671766E+04  0.12699999809E+01 0.  1.
</event>
<event>
 5   0  0.2662024E-05  0.2602010E+04  0.7818609E-02  0.8367519E-01
       -2   -1    0    0    0  501  0.00000000000E+00  0.00000000000E+00  0.11073846275E+04  0.11073846276E+04  0.25500000920E-02 0. -1.
        2   -1    0    0  501    0  0.00000000000E+00  0.00000000000E+00 -0.15284792386E+04  0.15284792386E+04  0.25500000920E-02 0.  1.
    10030    2    1    2    0    0  0.00000000000E+00  0.00000000000E+00 -0.42109461109E+03  0.26358638662E+04  0.26020103093E+04 0.  0.
        2    1    3    3  502    0  0.51446812030E+03 -0.11925292138E+04 -0.28776927806E+03  0.13302685932E+04  0.25500000920E-02 0.  1.
       -2    1    3    3    0  502 -0.51446812030E+03  0.11925292138E+04 -0.13332533303E+03  0.13055952730E+04  0.25500000920E-02 0. -1.
</event>
<event>
 5   0  0.1000421E-05  0.2615774E+04  0.7818609E-02  0.8362863E-01
       -1   -1    0    0    0  501  0.00000000000E+00  0.00000000000E+00  0.21226803798E+04  0.21226803799E+04  0.50400001928E-02 0.  1.
        1   -1    0    0  501    0  0.00000000000E+00  0.00000000000E+00 -0.80585303566E+03  0.80585303567E+03  0.50400001928E-02 0. -1.
    10030    2    1    2    0    0  0.00000000000E+00  0.00000000000E+00  0.13168273442E+04  0.29285334155E+04  0.26157740177E+04 0.  0.
        3    1    3    3  502    0 -0.71373685030E+02 -0.60711723607E+03  0.19528975399E+04  0.20463368131E+04  0.10100000352E+00 0.  1.
       -3    1    3    3    0  502  0.71373685030E+02  0.60711723607E+03 -0.63607019569E+03  0.88219660241E+03  0.10100000352E+00 0. -1.
</event>
<event>
 5   0  0.1005492E-05  0.2609212E+04  0.7818609E-02  0.8365079E-01
       -1   -1    0    0    0  501  0.00000000000E+00  0.00000000000E+00  0.16938416431E+04  0.16938416431E+04  0.50400001928E-02 0. -1.
        1   -1    0    0  501    0  0.00000000000E+00  0.00000000000E+00 -0.10048143377E+04  0.10048143377E+04  0.50400001928E-02 0.  1.
    10030    2    1    2    0    0  0.00000000000E+00  0.00000000000E+00  0.68902730541E+03  0.26986559809E+04  0.26092116579E+04 0.  0.
        4    1    3    3  502    0  0.10016649712E+04 -0.13049500372E+03 -0.50939919760E+03  0.11313049173E+04  0.12699999809E+01 0.  1.
       -4    1    3    3    0  502 -0.10016649712E+04  0.13049500372E+03  0.11984265030E+04  0.15673510636E+04  0.12699999809E+01 0. -1.
</event>
<event>
 5   0  0.1034714E-05  0.2578682E+04  0.7818609E-02  0.8375479E-01
       -1   -1    0    0    0  501  0.00000000000E+00  0.00000000000E+00  0.16483700601E+04  0.16483700601E+04  0.50400001928E-02 0. -1.
        1   -1    0    0  501    0  0.00000000000E+00  0.00000000000E+00 -0.10085116291E+04  0.10085116291E+04  0.50400001928E-02 0.  1.
    10030    2    1    2    0    0  0.00000000000E+00  0.00000000000E+00  0.63985843101E+03  0.26568816893E+04  0.25786821245E+04 0.  0.
        5    1    3    3  502    0  0.11998232249E+04  0.39687397991E+03  0.56654244875E+02  0.12650361735E+04  0.46999998093E+01 0. -1.
       -5    1    3    3    0  502 -0.11998232249E+04 -0.39687397991E+03  0.58320418614E+03  0.13918455157E+04  0.46999998093E+01 0.  1.
</event>
<event>
 5   0  0.1005492E-05  0.2649061E+04  0.7818609E-02  0.8351725E-01
       -1   -1    0    0    0  501  0.00000000000E+00  0.00000000000E+00  0.10418786028E+04  0.10418786028E+04  0.50400001928E-02 0. -1.
        1   -1    0    0  501    0  0.00000000000E+00  0.00000000000E+00 -0.16838626194E+04  0.16838626194E+04  0.50400001928E-02 0.  1.
    10030    2    1    2    0    0  0.00000000000E+00  0.00000000000E+00 -0.64198401664E+03  0.27257412222E+04  0.26490605378E+04 0.  0.
        4    1    3    3  502    0 -0.28993187241E+03  0.96949468587E+03 -0.12003640238E+04  0.15699859359E+04  0.12699999809E+01 0.  1.
       -4    1    3    3    0  502  0.28993187241E+03 -0.96949468587E+03  0.55838000713E+03  0.11557552863E+04  0.12699999809E+01 0. -1.
</event>
<event>
 5   0  0.1025153E-05  0.3049107E+04  0.7818609E-02  0.8229845E-01
        1   -1    0    0  501    0  0.00000000000E+00  0.00000000000E+00  0.13748147434E+04  0.13748147434E+04  0.50400001928E-02 0. -1.
       -1   -1    0    0    0  501  0.00000000000E+00  0.00000000000E+00 -0.16906013607E+04  0.16906013607E+04  0.50400001928E-02 0.  1.
    10030    2    1    2    0    0  0.00000000000E+00  0.00000000000E+00 -0.31578661730E+03  0.30654161040E+04  0.30491071977E+04 0.  0.
        1    1    3    3  502    0  0.12883638693E+04 -0.75598965538E+03 -0.46425568087E+03  0.15642682494E+04  0.50400001928E-02 0. -1.
       -1    1    3    3    0  502 -0.12883638693E+04  0.75598965538E+03  0.14846906357E+03  0.15011478547E+04  0.50400001928E-02 0.  1.
</event>
<event>
 5   0  0.2528460E-05  0.2597332E+04  0.7818609E-02  0.8369108E-01
       -2   -1    0    0    0  501  0.00000000000E+00  0.00000000000E+00  0.96646703399E+03  0.96646703400E+03  0.25500000920E-02 0. -1.
        2   -1    0    0  501    0  0.00000000000E+00  0.00000000000E+00 -0.17450499140E+04  0.17450499140E+04  0.25500000920E-02 0.  1.
    10030    2    1    2    0    0  0.00000000000E+00  0.00000000000E+00 -0.77858288003E+03  0.27115169480E+04  0.25973318730E+04 0.  0.
        5    1    3    3  502    0 -0.86351192235E+03  0.96585150737E+03 -0.48260294039E+03  0.13825518661E+04  0.46999998093E+01 0.  1.
       -5    1    3    3    0  502  0.86351192235E+03 -0.96585150737E+03 -0.29597993964E+03  0.13289650819E+04  0.46999998093E+01 0. -1.
</event>
<event>
 5   0  0.1005492E-05  0.1866705E+04  0.7818609E-02  0.8671609E-01
       -1   -1    0    0    0  501  0.00000000000E+00  0.00000000000E+00  0.66789596026E+03  0.66789596028E+03  0.50400001928E-02 0. -1.
        1   -1    0    0  501    0  0.00000000000E+00  0.00000000000E+00 -0.13043156451E+04  0.13043156451E+04  0.50400001928E-02 0.  1.
    10030    2    1    2    0    0  0.00000000000E+00  0.00000000000E+00 -0.63641968482E+03  0.19722116054E+04  0.18667052797E+04 0.  0.
        4    1    3    3  502    0 -0.36370212818E+03  0.58341806098E+01 -0.12263453982E+04  0.12791551604E+04  0.12699999809E+01 0.  1.
       -4    1    3    3    0  502  0.36370212818E+03 -0.58341806098E+01  0.58992571340E+03  0.69305644498E+03  0.12699999809E+01 0. -1.
</event>
<event>
 5   0  0.8605000E-06  0.2496906E+04  0.7818609E-02  0.8404089E-01
        4   -1    0    0  501    0  0.00000000000E+00  0.00000000000E+00  0.11984892250E+04  0.11984898979E+04  0.12699999809E+01 0.  1.
       -4   -1    0    0    0  501  0.00000000000E+00  0.00000000000E+00 -0.13004986766E+04  0.13004992967E+04  0.12699999809E+01 0. -1.
    10030    2    1    2    0    0  0.00000000000E+00  0.00000000000E+00 -0.10200945163E+03  0.24989891946E+04  0.24969062991E+04 0.  0.
        3    1    3    3  502    0  0.83096122278E+03 -0.69654142392E+03 -0.67036564782E+03  0.12747770868E+04  0.10100000352E+00 0. -1.
       -3    1    3    3    0  502 -0.83096122278E+03  0.69654142392E+03  0.56835619620E+03  0.12242121078E+04  0.10100000352E+00 0.  1.
</event>
<event>
 5   0  0.2484618E-05  0.2422604E+04  0.7818609E-02  0.8431089E-01
       -2   -1    0    0    0  501  0.00000000000E+00  0.00000000000E+00  0.93652558413E+03  0.93652558413E+03  0.25500000920E-02 0. -1.
        2   -1    0    0  501    0  0.00000000000E+00  0.00000000000E+00 -0.15666979990E+04  0.15666979990E+04  0.25500000920E-02 0.  1.
    10030    2    1    2    0    0  0.00000000000E+00  0.00000000000E+00 -0.63017241485E+03  0.25032235831E+04  0.24226041845E+04 0.  0.
        3    1    3    3  502    0 -0.84007033152E+03 -0.79198351909E+03 -0.69374656125E+03  0.13469373994E+04  0.10100000352E+00 0. -1.
       -3    1    3    3    0  502  0.84007033152E+03  0.79198351909E+03  0.63574146402E+02  0.11562861837E+04  0.10100000352E+00 0.  1.
</event>
<event>
 5   0  0.2484618E-05  0.2575829E+04  0.7818609E-02  0.8376458E-01
       -2   -1    0    0    0  501  0.00000000000E+00  0.00000000000E+00  0.87498458851E+03  0.87498458851E+03  0.25500000920E-02 0.  1.
        2   -1    0    0  501    0  0.00000000000E+00  0.00000000000E+00 -0.18957176904E+04  0.18957176904E+04  0.25500000920E-02 0. -1.
    10030    2    1    2    0    0  0.00000000000E+00  0.00000000000E+00 -0.10207331018E+04  0.27707022789E+04  0.25758290030E+04 0.  0.
        3    1    3    3  502    0 -0.10336443734E+04 -0.73087775451E+03 -0.25554588609E+03  0.12914746195E+04  0.10100000352E+00 0.  1.
       -3    1    3    3    0  502  0.10336443734E+04  0.73087775451E+03 -0.76518721575E+03  0.14792276593E+04  0.10100000352E+00 0. -1.
</event>
<event>
 5   0  0.1034714E-05  0.2581726E+04  0.7818609E-02  0.8374435E-01
       -1   -1    0    0    0  501  0.00000000000E+00  0.00000000000E+00  0.15867877064E+04  0.15867877064E+04  0.50400001928E-02 0.  1.
        1   -1    0    0  501    0  0.00000000000E+00  0.00000000000E+00 -0.10501259514E+04  0.10501259514E+04  0.50400001928E-02 0. -1.
    10030    2    1    2    0    0  0.00000000000E+00  0.00000000000E+00  0.53666175494E+03  0.26369136578E+04  0.25817257405E+04 0.  0.
        5    1    3    3  502    0 -0.54543505784E+03  0.11265586073E+04  0.59078695379E+03  0.13840827334E+04  0.46999998093E+01 0.  1.
       -5    1    3    3    0  502  0.54543505784E+03 -0.11265586073E+04 -0.54125198851E+02  0.12528309244E+04  0.46999998093E+01 0. -1.
</event>
<event>
 5   0  0.2528460E-05  0.2589936E+04  0.7818609E-02  0.8371628E-01
       -2   -1    0    0    0  501  0.00000000000E+00  0.00000000000E+00  0.25134295820E+04  0.25134295820E+04  0.25500000920E-02 0. -1.
        2   -1    0    0  501    0  0.00000000000E+00  0.00000000000E+00 -0.66719271558E+03  0.66719271559E+03  0.25500000920E-02 0.  1.
    10030    2    1    2    0    0  0.00000000000E+00  0.00000000000E+00  0.18462368664E+04  0.31806222976E+04  0.25899358357E+04 0.  0.
        5    1    3    3  502    0 -0.92972651496E+03 -0.23567621659E+03  0.19915993583E+04  0.22105259025E+04  0.46999998093E+01 0. -1.
       -5    1    3    3    0  502  0.92972651496E+03  0.23567621659E+03 -0.14536249189E+03  0.97009639507E+03  0.46999998093E+01 0.  1.
</event>
<event>
 5   0  0.2484618E-05  0.2570048E+04  0.7818609E-02  0.8378447E-01
       -2   -1    0    0    0  501  0.00000000000E+00  0.00000000000E+00  0.10510436490E+04  0.10510436490E+04  0.25500000920E-02 0.  1.
        2   -1    0    0  501    0  0.00000000000E+00  0.00000000000E+00 -0.15710927326E+04  0.15710927326E+04  0.25500000920E-02 0. -1.
    10030    2    1    2    0    0  0.00000000000E+00  0.00000000000E+00 -0.52004908356E+03  0.26221363816E+04  0.25700482786E+04 0.  0.
        3    1    3    3  502    0 -0.77395623137E+01 -0.23007093032E+03 -0.15498840113E+04  0.15668864006E+04  0.10100000352E+00 0. -1.
       -3    1    3    3    0  502  0.77395623137E+01  0.23007093032E+03  0.10298349277E+04  0.10552499810E+04  0.10100000352E+00 0.  1.
</event>
<event>
 5   0  0.1000421E-05  0.2747310E+04  0.7818609E-02  0.8319816E-01
        1   -1    0    0  501    0  0.00000000000E+00  0.00000000000E+00  0.11534237359E+04  0.11534237359E+04  0.50400001928E-02 0.  1.
       -1   -1    0    0    0  501  0.00000000000E+00  0.00000000000E+00 -0.16359366106E+04  0.16359366106E+04  0.50400001928E-02 0. -1.
    10030    2    1    2    0    0  0.00000000000E+00  0.00000000000E+00 -0.48251287475E+03  0.27893603465E+04  0.27473100423E+04 0.  0.
        3    1    3    3  502    0 -0.30150017854E+03 -0.38168437765E+02 -0.16013757898E+04  0.16299581643E+04  0.10100000352E+00 0. -1.
       -3    1    3    3    0  502  0.30150017854E+03  0.38168437765E+02  0.11188629150E+04  0.11594021822E+04  0.10100000352E+00 0.  1.
</event>
<event>
 5   0  0.1000421E-05  0.2502168E+04  0.7818609E-02  0.8402214E-01
        1   -1    0    0  501    0  0.00000000000E+00  0.00000000000E+00  0.14420048429E+04  0.14420048429E+04  0.50400001928E-02 0. -1.
       -1   -1    0    0    0  501  0.00000000000E+00  0.00000000000E+00 -0.10854410646E+04  0.10854410646E+04  0.50400001928E-02 0.  1.
    10030    2    1    2    0    0  0.00000000000E+00  0.00000000000E+00  0.35656377835E+03  0.25274459075E+04  0.25021680774E+04 0.  0.
        3    1    3    3  502    0  0.56244848225E+02  0.57822980243E+03 -0.94092706959E+03  0.11058286250E+04  0.10100000352E+00 0.  1.
       -3    1    3    3    0  502 -0.56244848225E+02 -0.57822980243E+03  0.12974908479E+04  0.14216172825E+04  0.10100000352E+00 0. -1.
</event>
<event>
 5   0  0.1005492E-05  0.2647332E+04  0.7818609E-02  0.8352299E-01
       -1   -1    0    0    0  501  0.00000000000E+00  0.00000000000E+00  0.89598155582E+03  0.89598155583E+03  0.50400001928E-02 0.  1.
        1   -1    0    0  501    0  0.00000000000E+00  0.00000000000E+00 -0.19555003646E+04  0.19555003646E+04  0.50400001928E-02 0. -1.
    10030    2    1    2    0    0  0.00000000000E+00  0.00000000000E+00 -0.10595188088E+04  0.28514819204E+04  0.26473324378E+04 0.  0.
        4    1    3    3  502    0 -0.97394173369E+03  0.83166000956E+03 -0.16949734959E+03  0.12918791881E+04  0.12699999809E+01 0.  1.
       -4    1    3    3    0  502  0.97394173369E+03 -0.83166000956E+03 -0.89002145919E+03  0.15596027324E+04  0.12699999809E+01 0. -1.
</event>
<event>
 5   0  0.2555801E-05  0.2658097E+04  0.7818609E-02  0.8348730E-01
        2   -1    0    0  501    0  0.00000000000E+00  0.00000000000E+00  0.98375935794E+03  0.98375935794E+03  0.25500000920E-02 0. -1.
       -2   -1    0    0    0  501  0.00000000000E+00  0.00000000000E+00 -0.17955309970E+04  0.17955309970E+04  0.25500000920E-02 0.  1.
    10030    2    1    2    0    0  0.00000000000E+00  0.00000000000E+00 -0.81177163903E+03  0.27792903549E+04  0.26580973803E+04 0.  0.
        1    1    3    3  502    0 -0.18402113107E+03  0.23009044128E+03  0.94918328985E+03  0.99385829252E+03  0.50400001928E-02 0. -1.
       -1    1    3    3    0  502  0.18402113107E+03 -0.23009044128E+03 -0.17609549289E+04  0.17854320624E+04  0.50400001928E-02 0.  1.
</event>
<event>
 5   0  0.8605000E-06  0.2581713E+04  0.7818609E-02  0.8374440E-01
       -4   -1    0    0    0  501  0.00000000000E+00  0.00000000000E+00  0.87179903229E+03  0.87179995733E+03  0.12699999809E+01 0.  1.
        4   -1    0    0  501    0  0.00000000000E+00  0.00000000000E+00 -0.19113447722E+04  0.19113451941E+04  0.12699999809E+01 0. -1.
    10030    2    1    2    0    0  0.00000000000E+00  0.00000000000E+00 -0.10395457399E+04  0.27831451514E+04  0.25817129176E+04 0.  0.
        4    1    3    3  502    0  0.10443130529E+04 -0.72018586457E+03 -0.26228256552E+03  0.12953961514E+04  0.12699999809E+01 0.  1.
       -4    1    3    3    0  502 -0.10443130529E+04  0.72018586457E+03 -0.77726317439E+03  0.14877490000E+04  0.12699999809E+01 0. -1.
</event>
<event>
 5   0  0.2662024E-05  0.2558799E+04  0.7818609E-02  0.8382332E-01
       -2   -1    0    0    0  501  0.00000000000E+00  0.00000000000E+00  0.10093271200E+04  0.10093271200E+04  0.25500000920E-02 0. -1.
        2   -1    0    0  501    0  0.00000000000E+00  0.00000000000E+00 -0.16217371729E+04  0.16217371729E+04  0.25500000920E-02 0.  1.
    10030    2    1    2    0    0  0.00000000000E+00  0.00000000000E+00 -0.61241005284E+03  0.26310642929E+04  0.25587991794E+04 0.  0.
        2    1    3    3  502    0 -0.57975205098E+03  0.10602255049E+04 -0.73840032716E+03  0.14161305042E+04  0.25500000920E-02 0.  1.
       -2    1    3    3    0  502  0.57975205098E+03 -0.10602255049E+04  0.12599027432E+03  0.12149337887E+04  0.25500000920E-02 0. -1.
</event>
<event>
 5   0  0.2484618E-05  0.2618986E+04  0.7818609E-02  0.8361781E-01
       -2   -1    0    0    0  501  0.00000000000E+00  0.00000000000E+00  0.72659753877E+03  0.72659753878E+03  0.25500000920E-02 0. -1.
        2   -1    0    0  501    0  0.00000000000E+00  0.00000000000E+00 -0.23600022480E+04  0.23600022480E+04  0.25500000920E-02 0.  1.
    10030    2    1    2    0    0  0.00000000000E+00  0.00000000000E+00 -0.16334047092E+04  0.30865997867E+04  0.26189859296E+04 0.  0.
        3    1    3    3  502    0  0.17945373482E+02 -0.63800069386E+03  0.53087036228E+03  0.83017484516E+03  0.10100000352E+00 0. -1.
       -3    1    3    3    0  502 -0.17945373482E+02  0.63800069386E+03 -0.21642750715E+04  0.22564249416E+04  0.10100000352E+00 0.  1.
</event>
<event>
 5   0  0.9855352E-06  0.2612728E+04  0.7818609E-02  0.8363891E-01
       -1   -1    0    0    0  501  0.00000000000E+00  0.00000000000E+00  0.10313152509E+04  0.10313152509E+04  0.50400001928E-02 0.  1.
        1   -1    0    0  501    0  0.00000000000E+00  0.00000000000E+00 -0.16547668568E+04  0.16547668568E+04  0.50400001928E-02 0. -1.
    10030    2    1    2    0    0  0.00000000000E+00  0.00000000000E+00 -0.62345160588E+03  0.26860821076E+04  0.26127275373E+04 0.  0.
        2    1    3    3  502    0  0.97369482173E+03 -0.86867042687E+03 -0.24738780341E+03  0.13281079179E+04  0.25500000920E-02 0.  1.
       -2    1    3    3    0  502 -0.97369482173E+03  0.86867042687E+03 -0.37606380248E+03  0.13579741897E+04  0.25500000920E-02 0. -1.
</event>
<event>
 5   0  0.1025153E-05  0.2476654E+04  0.7818609E-02  0.8411350E-01
       -1   -1    0    0    0  501  0.00000000000E+00  0.00000000000E+00  0.27324813533E+04  0.27324813533E+04  0.50400001928E-02 0.  1.
        1   -1    0    0  501    0  0.00000000000E+00  0.00000000000E+00 -0.56119458151E+03  0.56119458154E+03  0.50400001928E-02 0. -1.
    10030    2    1    2    0    0  0.00000000000E+00  0.00000000000E+00  0.21712867718E+04  0.32936759349E+04  0.24766539763E+04 0.  0.
        1    1    3    3  502    0 -0.95786419950E+03 -0.63854827172E+03  0.16924665676E+04  0.20468734213E+04  0.50400001928E-02 0. -1.
       -1    1    3    3    0  502  0.95786419950E+03  0.63854827172E+03  0.47882020417E+03  0.12468025136E+04  0.50400001928E-02 0.  1.
</event>
<event>
 5   0  0.2484618E-05  0.2561856E+04  0.7818609E-02  0.8381275E-01
       -2   -1    0    0    0  501  0.00000000000E+00  0.00000000000E+00  0.71600862665E+03  0.71600862666E+03  0.25500000920E-02 0.  1.
        2   -1    0    0  501    0  0.00000000000E+00  0.00000000000E+00 -0.22915592633E+04  0.22915592633E+04  0.25500000920E-02 0. -1.
    10030    2    1    2    0    0  0.00000000000E+00  0.00000000000E+00 -0.15755506367E+04  0.30075678900E+04  0.25618557345E+04 0.  0.
        3    1    3    3  502    0 -0.61230738867E+03  0.11248902529E+04 -0.81343616304E+03  0.15172266873E+04  0.10100000352E+00 0.  1.
       -3    1    3    3    0  502  0.61230738867E+03 -0.11248902529E+04 -0.76211447365E+03  0.14903412027E+04  0.10100000352E+00 0. -1.
</event>
<event>
 5   0  0.2528460E-05  0.2573660E+04  0.7818609E-02  0.8377204E-01
       -2   -1    0    0    0  501  0.00000000000E+00  0.00000000000E+00  0.13648692692E+04  0.13648692692E+04  0.25500000920E-02 0.  1.
        2   -1    0    0  501    0  0.00000000000E+00  0.00000000000E+00 -0.12132524653E+04  0.12132524653E+04  0.25500000920E-02 0. -1.
    10030    2    1    2    0    0  0.00000000000E+00  0.00000000000E+00  0.15161680393E+03  0.25781217345E+04  0.25736596555E+04 0.  0.
        5    1    3    3  502    0  0.98610857210E+03 -0.21889721689E+03  0.87442508113E+03  0.13360267288E+04  0.46999998093E+01 0.  1.
       -5    1    3    3    0  502 -0.98610857210E+03  0.21889721689E+03 -0.72280827720E+03  0.12420950057E+04  0.46999998093E+01 0. -1.
</event>
<event>
 5   0  0.1000421E-05  0.2604037E+04  0.7818609E-02  0.8366831E-01
        1   -1    0    0  501    0  0.00000000000E+00  0.00000000000E+00  0.10242675434E+04  0.10242675434E+04  0.50400001928E-02 0. -1.
       -1   -1    0    0    0  501  0.00000000000E+00  0.00000000000E+00 -0.16550867788E+04  0.16550867788E+04  0.50400001928E-02 0.  1.
    10030    2    1    2    0    0  0.00000000000E+00  0.00000000000E+00 -0.63081923540E+03  0.26793543222E+04  0.26040366119E+04 0.  0.
        3    1    3    3  502    0  0.76983395849E+02  0.27454487253E+02 -0.16524446495E+04  0.16544647237E+04  0.10100000352E+00 0.  1.
       -3    1    3    3    0  502 -0.76983395849E+02 -0.27454487253E+02  0.10216254141E+04  0.10248895985E+04  0.10100000352E+00 0. -1.
</event>
<event>
 5   0  0.1005492E-05  0.2598055E+04  0.7818609E-02  0.8368862E-01
       -1   -1    0    0    0  501  0.00000000000E+00  0.00000000000E+00  0.14531601128E+04  0.14531601128E+04  0.50400001928E-02 0. -1.
        1   -1    0    0  501    0  0.00000000000E+00  0.00000000000E+00 -0.11612432462E+04  0.11612432463E+04  0.50400001928E-02 0.  1.
    10030    2    1    2    0    0  0.00000000000E+00  0.00000000000E+00  0.29191686652E+03  0.26144033590E+04  0.25980549391E+04 0.  0.
        4    1    3    3  502    0 -0.31825482606E+03 -0.15309899412E+03 -0.11120060089E+04  0.11667409366E+04  0.12699999809E+01 0.  1.
       -4    1    3    3    0  502  0.31825482606E+03  0.15309899412E+03  0.14039228754E+04  0.14476624225E+04  0.12699999809E+01 0. -1.
</event>
<event>
 5   0  0.9855352E-06  0.2633252E+04  0.7818609E-02  0.8356993E-01
       -1   -1    0    0    0  501  0.00000000000E+00  0.00000000000E+00  0.85123535577E+03  0.85123535579E+03  0.50400001928E-02 0. -1.
        1   -1    0    0  501    0  0.00000000000E+00  0.00000000000E+00 -0.20364569128E+04  0.20364569128E+04  0.50400001928E-02 0.  1.
    10030    2    1    2    0    0  0.00000000000E+00  0.00000000000E+00 -0.11852215570E+04  0.28876922686E+04  0.26332520766E+04 0.  0.
        2    1    3    3  502    0 -0.76145297806E+03 -0.67771988032E+03  0.32120777074E+03  0.10687793533E+04  0.25500000920E-02 0. -1.
       -2    1    3    3    0  502  0.76145297806E+03  0.67771988032E+03 -0.15064293278E+04  0.18189129153E+04  0.25500000920E-02 0.  1.
</event>
<event>
 5   0  0.2517854E-05  0.2674210E+04  0.7818609E-02  0.8343422E-01
       -2   -1    0    0    0  501  0.00000000000E+00  0.00000000000E+00  0.10770131956E+04  0.10770131956E+04  0.25500000920E-02 0.  1.
        2   -1    0    0  501    0  0.00000000000E+00  0.00000000000E+00 -0.16600076598E+04  0.16600076598E+04  0.25500000920E-02 0. -1.
    10030    2    1    2    0    0  0.00000000000E+00  0.00000000000E+00 -0.58299446417E+03  0.27370208555E+04  0.26742102793E+04 0.  0.
        4    1    3    3  502    0 -0.55972655561E+03 -0.84377207382E+03 -0.11852798921E+04  0.15588890805E+04  0.12699999809E+01 0. -1.
       -4    1    3    3    0  502  0.55972655561E+03  0.84377207382E+03  0.60228542796E+03  0.11781317750E+04  0.12699999809E+01 0.  1.
</event>
<event>
 5   0  0.1034714E-05  0.2576985E+04  0.7818609E-02  0.8376061E-01
        1   -1    0    0  501    0  0.00000000000E+00  0.00000000000E+00  0.18605237937E+04  0.18605237937E+04  0.50400001928E-02 0.  1.
       -1   -1    0    0    0  501  0.00000000000E+00  0.00000000000E+00 -0.89233630568E+03  0.89233630569E+03  0.50400001928E-02 0. -1.
    10030    2    1    2    0    0  0.00000000000E+00  0.00000000000E+00  0.96818748804E+03  0.27528600994E+04  0.25769850048E+04 0.  0.
        5    1    3    3  502    0  0.62263315903E+03 -0.10550573353E+04  0.91055478323E+03  0.15264174183E+04  0.46999998093E+01 0.  1.
       -5    1    3    3    0  502 -0.62263315903E+03  0.10550573353E+04  0.57632704804E+02  0.12264426812E+04  0.46999998093E+01 0. -1.
</event>
<event>
 5   0  0.2528460E-05  0.2596152E+04  0.7818609E-02  0.8369510E-01
       -2   -1    0    0    0  501  0.00000000000E+00  0.00000000000E+00  0.65902010457E+03  0.65902010457E+03  0.25500000920E-02 0. -1.
        2   -1    0    0  501    0  0.00000000000E+00  0.00000000000E+00 -0.25568279504E+04  0.25568279504E+04  0.25500000920E-02 0.  1.
    10030    2    1    2    0    0  0.00000000000E+00  0.00000000000E+00 -0.18978078458E+04  0.32158480549E+04  0.25961517854E+04 0.  0.
        5    1    3    3  502    0  0.75631193098E+03 -0.88612283067E+02 -0.22510807874E+04  0.23763936280E+04  0.46999998093E+01 0.  1.
       -5    1    3    3    0  502 -0.75631193098E+03  0.88612283067E+02  0.35327294162E+03  0.83945442695E+03  0.46999998093E+01 0. -1.
</event>
<event>
 5   0  0.9855352E-06  0.2607882E+04  0.7818609E-02  0.8365529E-01
       -1   -1    0    0    0  501  0.00000000000E+00  0.00000000000E+00  0.17665063251E+04  0.17665063251E+04  0.50400001928E-02 0. -1.
        1   -1    0    0  501    0  0.00000000000E+00  0.00000000000E+00 -0.96250005436E+03  0.96250005438E+03  0.50400001928E-02 0.  1.
    10030    2    1    2    0    0  0.00000000000E+00  0.00000000000E+00  0.80400627072E+03  0.27290063795E+04  0.26078822320E+04 0.  0.
        2    1    3    3  502    0  0.10044234255E+04 -0.79523102542E+03  0.14781460496E+03  0.12896154306E+04  0.25500000920E-02 0.  1.
       -2    1    3    3    0  502 -0.10044234255E+04  0.79523102542E+03  0.65619166576E+03  0.14393909489E+04  0.25500000920E-02 0. -1.
</event>
<event>
 5   0  0.2555801E-05  0.2584784E+04  0.7818609E-02  0.8373388E-01
       -2   -1    0    0    0  501  0.00000000000E+00  0.00000000000E+00  0.10714436593E+04  0.10714436593E+04  0.25500000920E-02 0.  1.
        2   -1    0    0  501    0  0.00000000000E+00  0.00000000000E+00 -0.15589034030E+04  0.15589034030E+04  0.25500000920E-02 0. -1.
    10030    2    1    2    0    0  0.00000000000E+00  0.00000000000E+00 -0.48745974373E+03  0.26303470622E+04  0.25847840657E+04 0.  0.
        1    1    3    3  502    0  0.63796878789E+03  0.37618578231E+03  0.83407025436E+03  0.11154340439E+04  0.50400001928E-02 0.  1.
       -1    1    3    3    0  502 -0.63796878789E+03 -0.37618578231E+03 -0.13215299981E+04  0.15149130183E+04  0.50400001928E-02 0. -1.
</event>
<event>
 5   0  0.1034714E-05  0.2642377E+04  0.7818609E-02  0.8353947E-01
       -1   -1    0    0    0  501  0.00000000000E+00  0.00000000000E+00  0.12964299622E+04  0.12964299623E+04  0.50400001928E-02 0. -1.
        1   -1    0    0  501    0  0.00000000000E+00  0.00000000000E+00 -0.13464200042E+04  0.13464200042E+04  0.50400001928E-02 0.  1.
    10030    2    1    2    0    0  0.00000000000E+00  0.00000000000E+00 -0.49990041973E+02  0.26428499665E+04  0.26423771383E+04 0.  0.
        5    1    3    3  502    0 -0.29132655711E+03  0.10114233878E+04 -0.82367952875E+03  0.13365322623E+04  0.46999998093E+01 0. -1.
       -5    1    3    3    0  502  0.29132655711E+03 -0.10114233878E+04  0.77368948678E+03  0.13063177041E+04  0.46999998093E+01 0.  1.
</event>
<event>
 5   0  0.9855352E-06  0.2574378E+04  0.7818609E-02  0.8376957E-01
       -1   -1    0    0    0  501  0.00000000000E+00  0.00000000000E+00  0.11621454588E+04  0.11621454588E+04  0.50400001928E-02 0. -1.
        1   -1    0    0  501    0  0.00000000000E+00  0.00000000000E+00 -0.14256865377E+04  0.14256865377E+04  0.50400001928E-02 0.  1.
    10030    2    1    2    0    0  0.00000000000E+00  0.00000000000E+00 -0.26354107893E+03  0.25878319965E+04  0.25743777000E+04 0.  0.
        2    1    3    3  502    0  0.18656655980E+03 -0.90955256747E+03 -0.10279240492E+04  0.13851789795E+04  0.25500000920E-02 0.  1.
       -2    1    3    3    0  502 -0.18656655980E+03  0.90955256747E+03  0.76438297027E+03  0.12026530171E+04  0.25500000920E-02 0. -1.
</event>
<event>
 5   0  0.2662024E-05  0.2588118E+04  0.7818609E-02  0.8372249E-01
       -2   -1    0    0    0  501  0.00000000000E+00  0.00000000000E+00  0.74746786905E+03  0.74746786905E+03  0.25500000920E-02 0.  1.
        2   -1    0    0  501    0  0.00000000000E+00  0.00000000000E+00 -0.22403480972E+04  0.22403480972E+04  0.25500000920E-02 0. -1.
    10030    2    1    2    0    0  0.00000000000E+00  0.00000000000E+00 -0.14928802282E+04  0.29878159663E+04  0.25881176311E+04 0.  0.
        2    1    3    3  502    0  0.81226866248E+03  0.86657459108E+03 -0.13394385935E+04  0.17902032420E+04  0.25500000920E-02 0. -1.
       -2    1    3    3    0  502 -0.81226866248E+03 -0.86657459108E+03 -0.15344163461E+03  0.11976127242E+04  0.25500000920E-02 0.  1.
</event>
<event>
 5   0  0.2662024E-05  0.2611431E+04  0.7818609E-02  0.8364329E-01
       -2   -1    0    0    0  501  0.00000000000E+00  0.00000000000E+00  0.11343191304E+04  0.11343191304E+04  0.25500000920E-02 0. -1.
        2   -1    0    0  501    0  0.00000000000E+00  0.00000000000E+00 -0.15030094881E+04  0.15030094881E+04  0.25500000920E-02 0.  1.
    10030    2    1    2    0    0  0.00000000000E+00  0.00000000000E+00 -0.36869035768E+03  0.26373286185E+04  0.26114305777E+04 0.  0.
        2    1    3    3  502    0  0.10769912923E+04  0.68848070098E+03 -0.45340140117E+03  0.13562775343E+04  0.25500000920E-02 0.  1.
       -2    1    3    3    0  502 -0.10769912923E+04 -0.68848070098E+03  0.84711043492E+02  0.12810510842E+04  0.25500000920E-02 0. -1.
</event>
<event>
 5   0  0.2517854E-05  0.2574024E+04  0.7818609E-02  0.8377079E-01
        2   -1    0    0  501    0  0.00000000000E+00  0.00000000000E+00  0.15694195543E+04  0.15694195543E+04  0.25500000920E-02 0.  1.
       -2   -1    0    0    0  501  0.00000000000E+00  0.00000000000E+00 -0.10554219610E+04  0.10554219610E+04  0.25500000920E-02 0. -1.
    10030    2    1    2    0    0  0.00000000000E+00  0.00000000000E+00  0.51399759337E+03  0.26248415153E+04  0.25740239810E+04 0.  0.
        4    1    3    3  502    0  0.60678161557E+03  0.11320142131E+04  0.17316788562E+03  0.12960049526E+04  0.12699999809E+01 0. -1.
       -4    1    3    3    0  502 -0.60678161557E+03 -0.11320142131E+04  0.34082970775E+03  0.13288365627E+04  0.12699999809E+01 0.  1.
</event>
<event>
 5   0  0.2662024E-05  0.2584297E+04  0.7818609E-02  0.8373555E-01
        2   -1    0    0  501    0  0.00000000000E+00  0.00000000000E+00  0.21701815936E+04  0.21701815936E+04  0.25500000920E-02 0. -1.
       -2   -1    0    0    0  501  0.00000000000E+00  0.00000000000E+00 -0.76935866528E+03  0.76935866528E+03  0.25500000920E-02 0.  1.
    10030    2    1    2    0    0  0.00000000000E+00  0.00000000000E+00  0.14008229284E+04  0.29395402589E+04  0.25842972076E+04 0.  0.
        2    1    3    3  502    0 -0.10830506756E+04 -0.55871870531E+03  0.11889678861E+04  0.17025892023E+04  0.25500000920E-02 0. -1.
       -2    1    3    3    0  502  0.10830506756E+04  0.55871870531E+03  0.21185504227E+03  0.12369510566E+04  0.25500000920E-02 0.  1.
</event>
<event>
 5   0  0.2662024E-05  0.2586764E+04  0.7818609E-02  0.8372711E-01
        2   -1    0    0  501    0  0.00000000000E+00  0.00000000000E+00  0.19666385414E+04  0.19666385414E+04  0.25500000920E-02 0.  1.
       -2   -1    0    0    0  501  0.00000000000E+00  0.00000000000E+00 -0.85060716242E+03  0.85060716242E+03  0.25500000920E-02 0. -1.
    10030    2    1    2    0    0  0.00000000000E+00  0.00000000000E+00  0.11160313790E+04  0.28172457039E+04  0.25867638696E+04 0.  0.
        2    1    3    3  502    0 -0.11503766520E+04  0.52235092945E+03  0.25654942951E+03  0.12891991874E+04  0.25500000920E-02 0. -1.
       -2    1    3    3    0  502  0.11503766520E+04 -0.52235092945E+03  0.85948194951E+03  0.15280465165E+04  0.25500000920E-02 0.  1.
</event>
<event>
 5   0  0.2484618E-05  0.2494729E+04  0.7818609E-02  0.8404866E-01
        2   -1    0    0  501    0  0.00000000000E+00  0.00000000000E+00  0.12867956916E+04  0.12867956916E+04  0.25500000920E-02 0.  1.
       -2   -1    0    0    0  501  0.00000000000E+00  0.00000000000E+00 -0.12091411136E+04  0.12091411136E+04  0.25500000920E-02 0. -1.
    10030    2    1    2    0    0  0.00000000000E+00  0.00000000000E+00  0.77654578035E+02  0.24959368052E+04  0.24947285027E+04 0.  0.
        3    1    3    3  502    0 -0.94401141001E+03 -0.59411718926E+03  0.59747465795E+03  0.12653492616E+04  0.10100000352E+00 0.  1.
       -3    1    3    3    0  502  0.94401141001E+03  0.59411718926E+03 -0.51982007991E+03  0.12305875436E+04  0.10100000352E+00 0. -1.
</event>
<event>
 5   0  0.1005492E-05  0.2608588E+04  0.7818609E-02  0.8365290E-01
       -1   -1    0    0    0  501  0.00000000000E+00  0.00000000000E+00  0.11017714833E+04  0.11017714833E+04  0.50400001928E-02 0.  1.
        1   -1    0    0  501    0  0.00000000000E+00  0.00000000000E+00 -0.15440431152E+04  0.15440431152E+04  0.50400001928E-02 0. -1.
    10030    2    1    2    0    0  0.00000000000E+00  0.00000000000E+00 -0.44227163187E+03  0.26458145985E+04  0.26085878734E+04 0.  0.
        4    1    3    3  502    0  0.86551183095E+03  0.70141338197E+03 -0.90911475721E+03  0.14379091475E+04  0.12699999809E+01 0. -1.
       -4    1    3    3    0  502 -0.86551183095E+03 -0.70141338197E+03  0.46684312533E+03  0.12079054510E+04  0.12699999809E+01 0.  1.
</event>
<event>
 5   0  0.1025153E-05  0.2603846E+04  0.7818609E-02  0.8366896E-01
       -1   -1    0    0    0  501  0.00000000000E+00  0.00000000000E+00  0.14338613085E+04  0.14338613085E+04  0.50400001928E-02 0.  1.
        1   -1    0    0  501    0  0.00000000000E+00  0.00000000000E+00 -0.11821251094E+04  0.11821251094E+04  0.50400001928E-02 0. -1.
    10030    2    1    2    0    0  0.00000000000E+00  0.00000000000E+00  0.25173619918E+03  0.26159864179E+04  0.26038459679E+04 0.  0.
        1    1    3    3  502    0 -0.10230730376E+04 -0.23826952869E-01  0.93480860980E+03  0.13858375005E+04  0.50400001928E-02 0.  1.
       -1    1    3    3    0  502  0.10230730376E+04  0.23826952869E-01 -0.68307241062E+03  0.12301489174E+04  0.50400001928E-02 0. -1.
</event>
<event>
 5   0  0.1000421E-05  0.2642419E+04  0.7818609E-02  0.8353934E-01
        1   -1    0    0  501    0  0.00000000000E+00  0.00000000000E+00  0.14974621583E+04  0.14974621583E+04  0.50400001928E-02 0. -1.
       -1   -1    0    0    0  501  0.00000000000E+00  0.00000000000E+00 -0.11657015003E+04  0.11657015003E+04  0.50400001928E-02 0.  1.
    10030    2    1    2    0    0  0.00000000000E+00  0.00000000000E+00  0.33176065801E+03  0.26631636586E+04  0.26424185018E+04 0.  0.
        3    1    3    3  502    0  0.89765320818E+03 -0.64224697441E+01 -0.81114844340E+03  0.12098695540E+04  0.10100000352E+00 0.  1.
       -3    1    3    3    0  502 -0.89765320818E+03  0.64224697441E+01  0.11429091014E+04  0.14532941046E+04  0.10100000352E+00 0. -1.
</event>
<event>
 5   0  0.9855352E-06  0.2573537E+04  0.7818609E-02  0.8377246E-01
        1   -1    0    0  501    0  0.00000000000E+00  0.00000000000E+00  0.22308215042E+04  0.22308215042E+04  0.50400001928E-02 0. -1.
       -1   -1    0    0    0  501  0.00000000000E+00  0.00000000000E+00 -0.74222592954E+03  0.74222592955E+03  0.50400001928E-02 0.  1.
    10030    2    1    2    0    0  0.00000000000E+00  0.00000000000E+00  0.14885955746E+04  0.29730474337E+04  0.25735373046E+04 0.  0.
        2    1    3    3  502    0  0.22849977474E+03  0.10506537011E+04  0.15609195038E+04  0.18954036626E+04  0.25500000920E-02 0. -1.
       -2    1    3    3    0  502 -0.22849977474E+03 -0.10506537011E+04 -0.72323929217E+02  0.10776437711E+04  0.25500000920E-02 0.  1.
</event>
<event>
 5   0  0.1025153E-05  0.2545868E+04  0.7818609E-02  0.8386825E-01
       -1   -1    0    0    0  501  0.00000000000E+00  0.00000000000E+00  0.88720764672E+03  0.88720764673E+03  0.50400001928E-02 0.  1.
        1   -1    0    0  501    0  0.00000000000E+00  0.00000000000E+00 -0.18263603032E+04  0.18263603033E+04  0.50400001928E-02 0. -1.
    10030    2    1    2    0    0  0.00000000000E+00  0.00000000000E+00 -0.93915265653E+03  0.27135679500E+04  0.25458678887E+04 0.  0.
        1    1    3    3  502    0 -0.67877529402E+03 -0.21590147532E+02  0.67798605753E+03  0.95961822016E+03  0.50400001928E-02 0.  1.
       -1    1    3    3    0  502  0.67877529402E+03  0.21590147532E+02 -0.16171387141E+04  0.17539497298E+04  0.50400001928E-02 0. -1.
</event>
<event>
 5   0  0.2517854E-05  0.2622002E+04  0.7818609E-02  0.8360766E-01
        2   -1    0    0  501    0  0.00000000000E+00  0.00000000000E+00  0.16370612645E+04  0.16370612645E+04  0.25500000920E-02 0.  1.
       -2   -1    0    0    0  501  0.00000000000E+00  0.00000000000E+00 -0.10498833773E+04  0.10498833773E+04  0.25500000920E-02 0. -1.
    10030    2    1    2    0    0  0.00000000000E+00  0.00000000000E+00  0.58717788727E+03  0.26869446418E+04  0.26220018377E+04 0.  0.
        4    1    3    3  502    0 -0.40766744109E+03 -0.15944227906E+02 -0.98317331295E+03  0.10644615245E+04  0.12699999809E+01 0. -1.
       -4    1    3    3    0  502  0.40766744109E+03  0.15944227906E+02  0.15703512002E+04  0.16224831173E+04  0.12699999809E+01 0.  1.
</event>
<event>
 5   0  0.2517854E-05  0.2604264E+04  0.7818609E-02  0.8366754E-01
        2   -1    0    0  501    0  0.00000000000E+00  0.00000000000E+00  0.12333060443E+04  0.12333060443E+04  0.25500000920E-02 0. -1.
       -2   -1    0    0    0  501  0.00000000000E+00  0.00000000000E+00 -0.13747990911E+04  0.13747990912E+04  0.25500000920E-02 0.  1.
    10030    2    1    2    0    0  0.00000000000E+00  0.00000000000E+00 -0.14149304681E+03  0.26081051355E+04  0.26042642177E+04 0.  0.
        4    1    3    3  502    0 -0.83806475719E+03  0.11470703807E+03  0.92068130186E+03  0.12502663374E+04  0.12699999809E+01 0. -1.
       -4    1    3    3    0  502  0.83806475719E+03 -0.11470703807E+03 -0.10621743487E+04  0.13578387981E+04  0.12699999809E+01 0.  1.
</event>
<event>
 5   0  0.2662024E-05  0.2565428E+04  0.7818609E-02  0.8380040E-01
       -2   -1    0    0    0  501  0.00000000000E+00  0.00000000000E+00  0.98614671175E+03  0.98614671176E+03  0.25500000920E-02 0.  1.
        2   -1    0    0  501    0  0.00000000000E+00  0.00000000000E+00 -0.16684683445E+04  0.16684683445E+04  0.25500000920E-02 0. -1.
    10030    2    1    2    0    0  0.00000000000E+00  0.00000000000E+00 -0.68232163275E+03  0.26546150563E+04  0.25654275056E+04 0.  0.
        2    1    3    3  502    0  0.12825442269E+04  0.30790948190E+01 -0.36250300174E+03  0.13327931577E+04  0.25500000920E-02 0. -1.
       -2    1    3    3    0  502 -0.12825442269E+04 -0.30790948190E+01 -0.31981863101E+03  0.13218218986E+04  0.25500000920E-02 0.  1.
</event>
<event>
 5   0  0.8605000E-06  0.2836616E+04  0.7818609E-02  0.8291990E-01
       -3   -1    0    0    0  501  0.00000000000E+00  0.00000000000E+00  0.10689219003E+04  0.10689219051E+04  0.10100000352E+00 0.  1.
        3   -1    0    0  501    0  0.00000000000E+00  0.00000000000E+00 -0.18818936305E+04  0.18818936332E+04  0.10100000352E+00 0. -1.
    10030    2    1    2    0    0  0.00000000000E+00  0.00000000000E+00 -0.81297173017E+03  0.29508155383E+04  0.28366158195E+04 0.  0.
        2    1    3    3  502    0 -0.32100357071E+03  0.70521283415E+02 -0.18417346803E+04  0.18708295424E+04  0.25500000920E-02 0. -1.
       -2    1    3    3    0  502  0.32100357071E+03 -0.70521283415E+02  0.10287629502E+04  0.10799859960E+04  0.25500000920E-02 0.  1.
</event>
<event>
 5   0  0.1005492E-05  0.2385111E+04  0.7818609E-02  0.8445099E-01
       -1   -1    0    0    0  501  0.00000000000E+00  0.00000000000E+00  0.11789077200E+04  0.11789077200E+04  0.50400001928E-02 0.  1.
        1   -1    0    0  501    0  0.00000000000E+00  0.00000000000E+00 -0.12063613175E+04  0.12063613175E+04  0.50400001928E-02 0. -1.
    10030    2    1    2    0    0  0.00000000000E+00  0.00000000000E+00 -0.27453597491E+02  0.23852690375E+04  0.23851110417E+04 0.  0.
        4    1    3    3  502    0 -0.53403155085E+03 -0.65472955792E+03 -0.85540394106E+03  0.12023219230E+04  0.12699999809E+01 0. -1.
       -4    1    3    3    0  502  0.53403155085E+03  0.65472955792E+03  0.82795034357E+03  0.11829471145E+04  0.12699999809E+01 0.  1.
</event>
<event>
 5   0  0.1000421E-05  0.2594926E+04  0.7818609E-02  0.8369927E-01
        1   -1    0    0  501    0  0.00000000000E+00  0.00000000000E+00  0.17720821057E+04  0.17720821057E+04  0.50400001928E-02 0.  1.
       -1   -1    0    0    0  501  0.00000000000E+00  0.00000000000E+00 -0.94996156396E+03  0.94996156398E+03  0.50400001928E-02 0. -1.
    10030    2    1    2    0    0  0.00000000000E+00  0.00000000000E+00  0.82212054177E+03  0.27220436697E+04  0.25949257320E+04 0.  0.
        3    1    3    3  502    0  0.88412392600E+03  0.91678835819E+03  0.67063714803E+03  0.14394200932E+04  0.10100000352E+00 0. -1.
       -3    1    3    3    0  502 -0.88412392600E+03 -0.91678835819E+03  0.15148339374E+03  0.12826235765E+04  0.10100000352E+00 0.  1.
</event>
<event>
 5   0  0.1005492E-05  0.2638546E+04  0.7818609E-02  0.8355225E-01
        1   -1    0    0  501    0  0.00000000000E+00  0.00000000000E+00  0.18877700567E+04  0.18877700567E+04  0.50400001928E-02 0. -1.
       -1   -1    0    0    0  501  0.00000000000E+00  0.00000000000E+00 -0.92197738702E+03  0.92197738704E+03  0.50400001928E-02 0.  1.
    10030    2    1    2    0    0  0.00000000000E+00  0.00000000000E+00  0.96579266965E+03  0.28097474437E+04  0.26385460422E+04 0.  0.
        4    1    3    3  502    0  0.33336572216E+03  0.10201430641E+04  0.12999170519E+04  0.16857077239E+04  0.12699999809E+01 0. -1.
       -4    1    3    3    0  502 -0.33336572216E+03 -0.10201430641E+04 -0.33412438221E+03  0.11240397198E+04  0.12699999809E+01 0.  1.
</event>
<event>
 5   0  0.1005492E-05  0.2666701E+04  0.7818609E-02  0.8345891E-01
       -1   -1    0    0    0  501  0.00000000000E+00  0.00000000000E+00  0.94974469569E+03  0.94974469570E+03  0.50400001928E-02 0.  1.
        1   -1    0    0  501    0  0.00000000000E+00  0.00000000000E+00 -0.18718956427E+04  0.18718956427E+04  0.50400001928E-02 0. -1.
    10030    2    1    2    0    0  0.00000000000E+00  0.00000000000E+00 -0.92215094700E+03  0.28216403384E+04  0.26667005513E+04 0.  0.
        4    1    3    3  502    0 -0.12724946665E+04 -0.37688639800E+03 -0.59713645318E+03  0.14552867724E+04  0.12699999809E+01 0. -1.
       -4    1    3    3    0  502  0.12724946665E+04  0.37688639800E+03 -0.32501449382E+03  0.13663535660E+04  0.12699999809E+01 0.  1.
</event>
<event>
 5   0  0.2555801E-05  0.2582442E+04  0.7818609E-02  0.8374190E-01
       -2   -1    0    0    0  501  0.00000000000E+00  0.00000000000E+00  0.73399298515E+03  0.73399298515E+03  0.25500000920E-02 0.  1.
        2   -1    0    0  501    0  0.00000000000E+00  0.00000000000E+00 -0.22714813782E+04  0.22714813782E+04  0.25500000920E-02 0. -1.
    10030    2    1    2    0    0  0.00000000000E+00  0.00000000000E+00 -0.15374883931E+04  0.30054743634E+04  0.25824417883E+04 0.  0.
        1    1    3    3  502    0  0.12318911274E+04  0.10008756701E+03 -0.33378683267E+03  0.12802292453E+04  0.50400001928E-02 0. -1.
       -1    1    3    3    0  502 -0.12318911274E+04 -0.10008756701E+03 -0.12037015604E+04  0.17252451181E+04  0.50400001928E-02 0.  1.
</event>
<event>
 5   0  0.2662024E-05  0.2573226E+04  0.7818609E-02  0.8377353E-01
        2   -1    0    0  501    0  0.00000000000E+00  0.00000000000E+00  0.17897611847E+04  0.17897611847E+04  0.25500000920E-02 0. -1.
       -2   -1    0    0    0  501  0.00000000000E+00  0.00000000000E+00 -0.92491273614E+03  0.92491273614E+03  0.25500000920E-02 0.  1.
    10030    2    1    2    0    0  0.00000000000E+00  0.00000000000E+00  0.86484844855E+03  0.27146739208E+04  0.25732259243E+04 0.  0.
        2    1    3    3  502    0  0.11146166528E+04  0.10096611653E+03  0.11019835332E+04  0.15706470472E+04  0.25500000920E-02 0. -1.
       -2    1    3    3    0  502 -0.11146166528E+04 -0.10096611653E+03 -0.23713508465E+03  0.11440268737E+04  0.25500000920E-02 0.  1.
</event>
<event>
 5   0  0.2484618E-05  0.2574702E+04  0.7818609E-02  0.8376845E-01
       -2   -1    0    0    0  501  0.00000000000E+00  0.00000000000E+00  0.70518626735E+03  0.70518626736E+03  0.25500000920E-02 0.  1.
        2   -1    0    0  501    0  0.00000000000E+00  0.00000000000E+00 -0.23501201303E+04  0.23501201303E+04  0.25500000920E-02 0. -1.
    10030    2    1    2    0    0  0.00000000000E+00  0.00000000000E+00 -0.16449338629E+04  0.30553063976E+04  0.25747018798E+04 0.  0.
        3    1    3    3  502    0 -0.40719076483E+03  0.11642154526E+04 -0.38473341728E+03  0.12919836499E+04  0.10100000352E+00 0.  1.
       -3    1    3    3    0  502  0.40719076483E+03 -0.11642154526E+04 -0.12602004457E+04  0.17633227477E+04  0.10100000352E+00 0. -1.
</event>
<event>
 5   0  0.2528460E-05  0.2750727E+04  0.7818609E-02  0.8318731E-01
       -2   -1    0    0    0  501  0.00000000000E+00  0.00000000000E+00  0.15599967017E+04  0.15599967018E+04  0.25500000920E-02 0.  1.
        2   -1    0    0  501    0  0.00000000000E+00  0.00000000000E+00 -0.12125827506E+04  0.12125827506E+04  0.25500000920E-02 0. -1.
    10030    2    1    2    0    0  0.00000000000E+00  0.00000000000E+00  0.34741395119E+03  0.27725794523E+04  0.27507272431E+04 0.  0.
        5    1    3    3  502    0  0.13080314573E+04 -0.42482166475E+03  0.18735192382E+03  0.13879994861E+04  0.46999998093E+01 0. -1.
       -5    1    3    3    0  502 -0.13080314573E+04  0.42482166475E+03  0.16006202737E+03  0.13845799662E+04  0.46999998093E+01 0.  1.
</event>
<event>
 5   0  0.1034714E-05  0.2386345E+04  0.7818609E-02  0.8444634E-01
        1   -1    0    0  501    0  0.00000000000E+00  0.00000000000E+00  0.10971219717E+04  0.10971219718E+04  0.50400001928E-02 0. -1.
       -1   -1    0    0    0  501  0.00000000000E+00  0.00000000000E+00 -0.12976320703E+04  0.12976320704E+04  0.50400001928E-02 0.  1.
    10030    2    1    2    0    0  0.00000000000E+00  0.00000000000E+00 -0.20051009860E+03  0.23947540421E+04  0.23863450343E+04 0.  0.
        5    1    3    3  502    0 -0.69716578613E+03  0.19851848953E+03  0.85081281062E+03  0.11177451645E+04  0.46999998093E+01 0. -1.
       -5    1    3    3    0  502  0.69716578613E+03 -0.19851848953E+03 -0.10513229092E+04  0.12770088776E+04  0.46999998093E+01 0.  1.
</event>
<event>
 5   0  0.9855352E-06  0.2599424E+04  0.7818609E-02  0.8368397E-01
        1   -1    0    0  501    0  0.00000000000E+00  0.00000000000E+00  0.95678671784E+03  0.95678671785E+03  0.50400001928E-02 0. -1.
       -1   -1    0    0    0  501  0.00000000000E+00  0.00000000000E+00 -0.17655461914E+04  0.17655461914E+04  0.50400001928E-02 0.  1.
    10030    2    1    2    0    0  0.00000000000E+00  0.00000000000E+00 -0.80875947357E+03  0.27223329093E+04  0.25994238944E+04 0.  0.
        2    1    3    3  502    0  0.61449739849E+03 -0.11398776844E+04 -0.52063740403E+03  0.13957046588E+04  0.25500000920E-02 0.  1.
       -2    1    3    3    0  502 -0.61449739849E+03  0.11398776844E+04 -0.28812206954E+03  0.13266282505E+04  0.25500000920E-02 0. -1.
</event>
<event>
 5   0  0.1034714E-05  0.2578879E+04  0.7818609E-02  0.8375411E-01
       -1   -1    0    0    0  501  0.00000000000E+00  0.00000000000E+00  0.17198954232E+04  0.17198954232E+04  0.50400001928E-02 0. -1.
        1   -1    0    0  501    0  0.00000000000E+00  0.00000000000E+00 -0.96671840097E+03  0.96671840098E+03  0.50400001928E-02 0.  1.
    10030    2    1    2    0    0  0.00000000000E+00  0.00000000000E+00  0.75317702221E+03  0.26866138242E+04  0.25788792553E+04 0.  0.
        5    1    3    3  502    0  0.15368059489E+03  0.66440554329E+03  0.15166453546E+04  0.16629154136E+04  0.46999998093E+01 0. -1.
       -5    1    3    3    0  502 -0.15368059489E+03 -0.66440554329E+03 -0.76346833239E+03  0.10236984106E+04  0.46999998093E+01 0.  1.
</event>
<event>
 5   0  0.2662024E-05  0.2599331E+04  0.7818609E-02  0.8368428E-01
        2   -1    0    0  501    0  0.00000000000E+00  0.00000000000E+00  0.29063935237E+04  0.29063935237E+04  0.25500000920E-02 0.  1.
       -2   -1    0    0    0  501  0.00000000000E+00  0.00000000000E+00 -0.58117757575E+03  0.58117757575E+03  0.25500000920E-02 0. -1.
    10030    2    1    2    0    0  0.00000000000E+00  0.00000000000E+00  0.23252159479E+04  0.34875710994E+04  0.25993312542E+04 0.  0.
        2    1    3    3  502    0 -0.50877268483E+03 -0.11956144795E+04  0.11249653193E+04  0.17186886274E+04  0.25500000920E-02 0. -1.
       -2    1    3    3    0  502  0.50877268483E+03  0.11956144795E+04  0.12002506286E+04  0.17688824720E+04  0.25500000920E-02 0.  1.
</event>
<event>
 5   0  0.2555801E-05  0.2595276E+04  0.7818609E-02  0.8369808E-01
       -2   -1    0    0    0  501  0.00000000000E+00  0.00000000000E+00  0.90631927070E+03  0.90631927071E+03  0.25500000920E-02 0.  1.
        2   -1    0    0  501    0  0.00000000000E+00  0.00000000000E+00 -0.18579152286E+04  0.18579152286E+04  0.25500000920E-02 0. -1.
    10030    2    1    2    0    0  0.00000000000E+00  0.00000000000E+00 -0.95159595785E+03  0.27642344993E+04  0.25952759969E+04 0.  0.
        1    1    3    3  502    0 -0.32239254364E+03 -0.58632591156E+03  0.70840678796E+03  0.97445123224E+03  0.50400001928E-02 0.  1.
       -1    1    3    3    0  502  0.32239254364E+03  0.58632591156E+03 -0.16600027458E+04  0.17897832670E+04  0.50400001928E-02 0. -1.
</event>
<event>
 5   0  0.2555801E-05  0.2810518E+04  0.7818609E-02  0.8300011E-01
        2   -1    0    0  501    0  0.00000000000E+00  0.00000000000E+00  0.86713498830E+03  0.86713498830E+03  0.25500000920E-02 0. -1.
       -2   -1    0    0    0  501  0.00000000000E+00  0.00000000000E+00 -0.22773296534E+04  0.22773296534E+04  0.25500000920E-02 0.  1.
    10030    2    1    2    0    0  0.00000000000E+00  0.00000000000E+00 -0.14101946651E+04  0.31444646417E+04  0.28105175483E+04 0.  0.
        1    1    3    3  502    0  0.14044378742E+04 -0.34503694622E+02 -0.74247288446E+03  0.15889940943E+04  0.50400001928E-02 0. -1.
       -1    1    3    3    0  502 -0.14044378742E+04  0.34503694622E+02 -0.66772178059E+03  0.15554705474E+04  0.50400001928E-02 0.  1.
</event>
<event>
 5   0  0.2484618E-05  0.2538434E+04  0.7818609E-02  0.8389420E-01
       -2   -1    0    0    0  501  0.00000000000E+00  0.00000000000E+00  0.14469570830E+04  0.14469570830E+04  0.25500000920E-02 0.  1.
        2   -1    0    0  501    0  0.00000000000E+00  0.00000000000E+00 -0.11133102142E+04  0.11133102142E+04  0.25500000920E-02 0. -1.
    10030    2    1    2    0    0  0.00000000000E+00  0.00000000000E+00  0.33364686880E+03  0.25602672972E+04  0.25384342418E+04 0.  0.
        3    1    3    3  502    0  0.25260797295E+03  0.62034323214E+02 -0.10861387468E+04  0.11168511238E+04  0.10100000352E+00 0. -1.
       -3    1    3    3    0  502 -0.25260797295E+03 -0.62034323214E+02  0.14197856156E+04  0.14434161734E+04  0.10100000352E+00 0.  1.
</event>
<event>
 5   0  0.1005492E-05  0.2834755E+04  0.7818609E-02  0.8292559E-01
        1   -1    0    0  501    0  0.00000000000E+00  0.00000000000E+00  0.15543182849E+04  0.15543182849E+04  0.50400001928E-02 0. -1.
       -1   -1    0    0    0  501  0.00000000000E+00  0.00000000000E+00 -0.12925013668E+04  0.12925013668E+04  0.50400001928E-02 0.  1.
    10030    2    1    2    0    0  0.00000000000E+00  0.00000000000E+00  0.26181691808E+03  0.28468196518E+04  0.28347546686E+04 0.  0.
        4    1    3    3  502    0  0.76589446755E+03 -0.10658575373E+04  0.66826549388E+03  0.14728295925E+04  0.12699999809E+01 0. -1.
       -4    1    3    3    0  502 -0.76589446755E+03  0.10658575373E+04 -0.40644857580E+03  0.13739900593E+04  0.12699999809E+01 0.  1.
</event>
<event>
 5   0  0.2484618E-05  0.2604916E+04  0.7818609E-02  0.8366533E-01
        2   -1    0    0  501    0  0.00000000000E+00  0.00000000000E+00  0.12351668328E+04  0.12351668328E+04  0.25500000920E-02 0.  1.
       -2   -1    0    0    0  501  0.00000000000E+00  0.00000000000E+00 -0.13734154514E+04  0.13734154514E+04  0.25500000920E-02 0. -1.
    10030    2    1    2    0    0  0.00000000000E+00  0.00000000000E+00 -0.13824861866E+03  0.26085822842E+04  0.26049162852E+04 0.  0.
        3    1    3    3  502    0  0.68656305632E+03  0.74091724066E+03  0.75426762225E+03  0.12606533401E+04  0.10100000352E+00 0.  1.
       -3    1    3    3    0  502 -0.68656305632E+03 -0.74091724066E+03 -0.89251624091E+03  0.13479289441E+04  0.10100000352E+00 0. -1.
</event>
<event>
 5   0  0.9855352E-06  0.2606455E+04  0.7818609E-02  0.8366012E-01
        1   -1    0    0  501    0  0.00000000000E+00  0.00000000000E+00  0.12722635776E+04  0.12722635776E+04  0.50400001928E-02 0.  1.
       -1   -1    0    0    0  501  0.00000000000E+00  0.00000000000E+00 -0.13349454157E+04  0.13349454157E+04  0.50400001928E-02 0. -1.
    10030    2    1    2    0    0  0.00000000000E+00  0.00000000000E+00 -0.62681838115E+02  0.26072089933E+04  0.26064553942E+04 0.  0.
        2    1    3    3  502    0 -0.20314019120E+03 -0.29295597587E+03 -0.12852237054E+04  0.13337500193E+04  0.25500000920E-02 0. -1.
       -2    1    3    3    0  502  0.20314019120E+03  0.29295597587E+03  0.12225418673E+04  0.12734589740E+04  0.25500000920E-02 0.  1.
</event>
<event>
 5   0  0.2528460E-05  0.2613667E+04  0.7818609E-02  0.8363574E-01
       -2   -1    0    0    0  501  0.00000000000E+00  0.00000000000E+00  0.93579799773E+03  0.93579799773E+03  0.25500000920E-02 0.  1.
        2   -1    0    0  501    0  0.00000000000E+00  0.00000000000E+00 -0.18249808376E+04  0.18249808376E+04  0.25500000920E-02 0. -1.
    10030    2    1    2    0    0  0.00000000000E+00  0.00000000000E+00 -0.88918283988E+03  0.27607788353E+04  0.26136667069E+04 0.  0.
        5    1    3    3  502    0 -0.83559793414E+03  0.10036577951E+04 -0.49456664745E+03  0.13964852795E+04  0.46999998093E+01 0.  1.
       -5    1    3    3    0  502  0.83559793414E+03 -0.10036577951E+04 -0.39461619242E+03  0.13642935558E+04  0.46999998093E+01 0. -1.
</event>
<event>
 5   0  0.2484618E-05  0.2594670E+04  0.7818609E-02  0.8370014E-01
       -2   -1    0    0    0  501  0.00000000000E+00  0.00000000000E+00  0.70948642204E+03  0.70948642204E+03  0.25500000920E-02 0. -1.
        2   -1    0    0  501    0  0.00000000000E+00  0.00000000000E+00 -0.23722482154E+04  0.23722482154E+04  0.25500000920E-02 0.  1.
    10030    2    1    2    0    0  0.00000000000E+00  0.00000000000E+00 -0.16627617934E+04  0.30817346375E+04  0.25946698430E+04 0.  0.
        3    1    3    3  502    0  0.64010762127E+03  0.79878002768E+03 -0.17780524920E+04  0.20516476242E+04  0.10100000352E+00 0.  1.
       -3    1    3    3    0  502 -0.64010762127E+03 -0.79878002768E+03  0.11529069865E+03  0.10300870132E+04  0.10100000352E+00 0. -1.
</event>
<event>
 5   0  0.9855352E-06  0.2659250E+04  0.7818609E-02  0.8348349E-01
        1   -1    0    0  501    0  0.00000000000E+00  0.00000000000E+00  0.19065585431E+04  0.19065585431E+04  0.50400001928E-02 0.  1.
       -1   -1    0    0    0  501  0.00000000000E+00  0.00000000000E+00 -0.92727423984E+03  0.92727423986E+03  0.50400001928E-02 0. -1.
    10030    2    1    2    0    0  0.00000000000E+00  0.00000000000E+00  0.97928430324E+03  0.28338327829E+04  0.26592499873E+04 0.  0.
        2    1    3    3  502    0  0.28287394239E+02 -0.13280007806E+04  0.42645008314E+03  0.13950791818E+04  0.25500000920E-02 0. -1.
       -2    1    3    3    0  502 -0.28287394239E+02  0.13280007806E+04  0.55283422010E+03  0.14387536012E+04  0.25500000920E-02 0.  1.
</event>
<event>
 5   0  0.9855352E-06  0.2579948E+04  0.7818609E-02  0.8375044E-01
        1   -1    0    0  501    0  0.00000000000E+00  0.00000000000E+00  0.13126271621E+04  0.13126271621E+04  0.50400001928E-02 0.  1.
       -1   -1    0    0    0  501  0.00000000000E+00  0.00000000000E+00 -0.12677119357E+04  0.12677119357E+04  0.50400001928E-02 0. -1.
    10030    2    1    2    0    0  0.00000000000E+00  0.00000000000E+00  0.44915226336E+02  0.25803390978E+04  0.25799481550E+04 0.  0.
        2    1    3    3  502    0 -0.51642851267E+03 -0.93007082504E+03 -0.70724390499E+03  0.12774678428E+04  0.25500000920E-02 0. -1.
       -2    1    3    3    0  502  0.51642851267E+03  0.93007082504E+03  0.75215913132E+03  0.13028712550E+04  0.25500000920E-02 0.  1.
</event>
<event>
 5   0  0.1034714E-05  0.2593093E+04  0.7818609E-02  0.8370551E-01
       -1   -1    0    0    0  501  0.00000000000E+00  0.00000000000E+00  0.13004036681E+04  0.13004036682E+04  0.50400001928E-02 0. -1.
        1   -1    0    0  501    0  0.00000000000E+00  0.00000000000E+00 -0.12927003808E+04  0.12927003809E+04  0.50400001928E-02 0.  1.
    10030    2    1    2    0    0  0.00000000000E+00  0.00000000000E+00  0.77032872990E+01  0.25931040490E+04  0.25930926070E+04 0.  0.
        5    1    3    3  502    0 -0.76883020029E+03  0.39963738081E+03  0.96832482788E+03  0.12994171675E+04  0.46999998093E+01 0. -1.
       -5    1    3    3    0  502  0.76883020029E+03 -0.39963738081E+03 -0.96062154058E+03  0.12936868815E+04  0.46999998093E+01 0.  1.
</event>
<event>
 5   0  0.2662024E-05  0.2551156E+04  0.7818609E-02  0.8384984E-01
       -2   -1    0    0    0  501  0.00000000000E+00  0.00000000000E+00  0.83889502045E+03  0.83889502045E+03  0.25500000920E-02 0. -1.
        2   -1    0    0  501    0  0.00000000000E+00  0.00000000000E+00 -0.19395745011E+04  0.19395745011E+04  0.25500000920E-02 0.  1.
    10030    2    1    2    0    0  0.00000000000E+00  0.00000000000E+00 -0.11006794807E+04  0.27784695216E+04  0.25511561228E+04 0.  0.
        2    1    3    3  502    0  0.18257259349E+03 -0.11642136082E+04 -0.10820773963E+04  0.15998804859E+04  0.25500000920E-02 0.  1.
       -2    1    3    3    0  502 -0.18257259349E+03  0.11642136082E+04 -0.18602084392E+02  0.11785890357E+04  0.25500000920E-02 0. -1.
</event>
<event>
 5   0  0.2662024E-05  0.2638547E+04  0.7818609E-02  0.8355224E-01
       -2   -1    0    0    0  501  0.00000000000E+00  0.00000000000E+00  0.91627823591E+03  0.91627823592E+03  0.25500000920E-02 0.  1.
        2   -1    0    0  501    0  0.00000000000E+00  0.00000000000E+00 -0.18995131436E+04  0.18995131436E+04  0.25500000920E-02 0. -1.
    10030    2    1    2    0    0  0.00000000000E+00  0.00000000000E+00 -0.98323490771E+03  0.28157913795E+04  0.26385469883E+04 0.  0.
        2    1    3    3  502    0 -0.47969656222E+03 -0.70378778246E+03  0.58356149944E+03  0.10324582598E+04  0.25500000920E-02 0.  1.
       -2    1    3    3    0  502  0.47969656222E+03  0.70378778246E+03 -0.15667964072E+04  0.17833331198E+04  0.25500000920E-02 0. -1.
</event>
<event>
 5   0  0.1000421E-05  0.2535805E+04  0.7818609E-02  0.8390340E-01
        1   -1    0    0  501    0  0.00000000000E+00  0.00000000000E+00  0.17077525386E+04  0.17077525386E+04  0.50400001928E-02 0. -1.
       -1   -1    0    0    0  501  0.00000000000E+00  0.00000000000E+00 -0.94134045226E+03  0.94134045227E+03  0.50400001928E-02 0.  1.
    10030    2    1    2    0    0  0.00000000000E+00  0.00000000000E+00  0.76641208632E+03  0.26490929909E+04  0.25358048403E+04 0.  0.
        3    1    3    3  502    0 -0.13072262023E+03  0.32716632088E+03 -0.88917702758E+03  0.95643191160E+03  0.10100000352E+00 0.  1.
       -3    1    3    3    0  502  0.13072262023E+03 -0.32716632088E+03  0.16555891139E+04  0.16926610792E+04  0.10100000352E+00 0. -1.
</event>
<event>
 5   0  0.2517854E-05  0.2606361E+04  0.7818609E-02  0.8366044E-01
       -2   -1    0    0    0  501  0.00000000000E+00  0.00000000000E+00  0.13645481546E+04  0.13645481547E+04  0.25500000920E-02 0. -1.
        2   -1    0    0  501    0  0.00000000000E+00  0.00000000000E+00 -0.12445724287E+04  0.12445724288E+04  0.25500000920E-02 0.  1.
    10030    2    1    2    0    0  0.00000000000E+00  0.00000000000E+00  0.11997572590E+03  0.26091205834E+04  0.26063606895E+04 0.  0.
        4    1    3    3  502    0 -0.17381874615E+02  0.72674540271E+03  0.11427136609E+04  0.13543474937E+04  0.12699999809E+01 0. -1.
       -4    1    3    3    0  502  0.17381874615E+02 -0.72674540271E+03 -0.10227379350E+04  0.12547730897E+04  0.12699999809E+01 0.  1.
</event>
<event>
 5   0  0.1025153E-05  0.2649277E+04  0.7818609E-02  0.8351653E-01
        1   -1    0    0  501    0  0.00000000000E+00  0.00000000000E+00  0.14234508155E+04  0.14234508155E+04  0.50400001928E-02 0.  1.
       -1   -1    0    0    0  501  0.00000000000E+00  0.00000000000E+00 -0.12326858945E+04  0.12326858945E+04  0.50400001928E-02 0. -1.
    10030    2    1    2    0    0  0.00000000000E+00  0.00000000000E+00  0.19076492093E+03  0.26561367100E+04  0.26492774425E+04 0.  0.
        1    1    3    3  502    0 -0.38401695482E+03  0.10098581840E+03 -0.11716143456E+04  0.12370720804E+04  0.50400001928E-02 0. -1.
       -1    1    3    3    0  502  0.38401695482E+03 -0.10098581840E+03  0.13623792666E+04  0.14190646296E+04  0.50400001928E-02 0.  1.
</event>
<event>
 5   0  0.2662024E-05  0.2546350E+04  0.7818609E-02  0.8386657E-01
        2   -1    0    0  501    0  0.00000000000E+00  0.00000000000E+00  0.18854688899E+04  0.18854688899E+04  0.25500000920E-02 0. -1.
       -2   -1    0    0    0  501  0.00000000000E+00  0.00000000000E+00 -0.85971937952E+03  0.85971937952E+03  0.25500000920E-02 0.  1.
    10030    2    1    2    0    0  0.00000000000E+00  0.00000000000E+00  0.10257495104E+04  0.27451882694E+04  0.25463496572E+04 0.  0.
        2    1    3    3  502    0  0.12150667700E+04  0.82005255795E+02  0.91316630683E+03  0.15221645185E+04  0.25500000920E-02 0.  1.
       -2    1    3    3    0  502 -0.12150667700E+04 -0.82005255795E+02  0.11258320356E+03  0.12230237509E+04  0.25500000920E-02 0. -1.
</event>
<event>
 5   0  0.1000421E-05  0.2651107E+04  0.7818609E-02  0.8351046E-01
       -1   -1    0    0    0  501  0.00000000000E+00  0.00000000000E+00  0.10576036722E+04  0.10576036723E+04  0.50400001928E-02 0. -1.
        1   -1    0    0  501    0  0.00000000000E+00  0.00000000000E+00 -0.16613902367E+04  0.16613902367E+04  0.50400001928E-02 0.  1.
    10030    2    1    2    0    0  0.00000000000E+00  0.00000000000E+00 -0.60378656449E+03  0.27189939090E+04  0.26511072520E+04 0.  0.
        3    1    3    3  502    0 -0.61844024973E+03 -0.14111941440E+03  0.89183093595E+03  0.10944155793E+04  0.10100000352E+00 0. -1.
       -3    1    3    3    0  502  0.61844024973E+03  0.14111941440E+03 -0.14956175004E+04  0.16245783297E+04  0.10100000352E+00 0.  1.
</event>
<event>
 5   0  0.2555801E-05  0.2588752E+04  0.7818609E-02  0.8372032E-01
       -2   -1    0    0    0  501  0.00000000000E+00  0.00000000000E+00  0.11444057517E+04  0.11444057517E+04  0.25500000920E-02 0. -1.
        2   -1    0    0  501    0  0.00000000000E+00  0.00000000000E+00 -0.14639989262E+04  0.14639989262E+04  0.25500000920E-02 0.  1.
    10030    2    1    2    0    0  0.00000000000E+00  0.00000000000E+00 -0.31959317445E+03  0.26084046779E+04  0.25887516618E+04 0.  0.
        1    1    3    3  502    0 -0.54606475953E+03  0.22917991057E+03  0.99989665032E+03  0.11621116402E+04  0.50400001928E-02 0. -1.
       -1    1    3    3    0  502  0.54606475953E+03 -0.22917991057E+03 -0.13194898248E+04  0.14462930376E+04  0.50400001928E-02 0.  1.
</event>
<event>
 5   0  0.2528460E-05  0.2147519E+04  0.7818609E-02  0.8540595E-01
       -2   -1    0    0    0  501  0.00000000000E+00  0.00000000000E+00  0.54237875690E+03  0.54237875691E+03  0.25500000920E-02 0.  1.
        2   -1    0    0  501    0  0.00000000000E+00  0.00000000000E+00 -0.21257461797E+04  0.21257461797E+04  0.25500000920E-02 0. -1.
    10030    2    1    2    0    0  0.00000000000E+00  0.00000000000E+00 -0.15833674228E+04  0.26681249366E+04  0.21475190993E+04 0.  0.
        5    1    3    3  502    0  0.83650496348E+02  0.50052444036E+02 -0.21202243237E+04  0.21224692991E+04  0.46999998093E+01 0. -1.
       -5    1    3    3    0  502 -0.83650496348E+02 -0.50052444036E+02  0.53685690092E+03  0.54565563752E+03  0.46999998093E+01 0.  1.
</event>
<event>
 5   0  0.1025153E-05  0.2491724E+04  0.7818609E-02  0.8405940E-01
        1   -1    0    0  501    0  0.00000000000E+00  0.00000000000E+00  0.15630230693E+04  0.15630230693E+04  0.50400001928E-02 0. -1.
       -1   -1    0    0    0  501  0.00000000000E+00  0.00000000000E+00 -0.99305740869E+03  0.99305740870E+03  0.50400001928E-02 0.  1.
    10030    2    1    2    0    0  0.00000000000E+00  0.00000000000E+00  0.56996566059E+03  0.25560804780E+04  0.24917236114E+04 0.  0.
        1    1    3    3  502    0 -0.69754730392E+03  0.67423466204E+03 -0.51687570288E+03  0.10992384241E+04  0.50400001928E-02 0.  1.
       -1    1    3    3    0  502  0.69754730392E+03 -0.67423466204E+03  0.10868413635E+04  0.14568420539E+04  0.50400001928E-02 0. -1.
</event>
<event>
 5   0  0.1005492E-05  0.2626321E+04  0.7818609E-02  0.8359315E-01
        1   -1    0    0  501    0  0.00000000000E+00  0.00000000000E+00  0.11884065464E+04  0.11884065464E+04  0.50400001928E-02 0. -1.
       -1   -1    0    0    0  501  0.00000000000E+00  0.00000000000E+00 -0.14510102408E+04  0.14510102408E+04  0.50400001928E-02 0.  1.
    10030    2    1    2    0    0  0.00000000000E+00  0.00000000000E+00 -0.26260369440E+03  0.26394167872E+04  0.26263206728E+04 0.  0.
        4    1    3    3  502    0 -0.12281618423E+04 -0.23166977227E+03  0.27361675181E+03  0.12794217968E+04  0.12699999809E+01 0. -1.
       -4    1    3    3    0  502  0.12281618423E+04  0.23166977227E+03 -0.53622044621E+03  0.13599949905E+04  0.12699999809E+01 0.  1.
</event>
<event>
 5   0  0.1005492E-05  0.2602529E+04  0.7818609E-02  0.8367343E-01
        1   -1    0    0  501    0  0.00000000000E+00  0.00000000000E+00  0.16833940282E+04  0.16833940282E+04  0.50400001928E-02 0.  1.
       -1   -1    0    0    0  501  0.00000000000E+00  0.00000000000E+00 -0.10058781040E+04  0.10058781041E+04  0.50400001928E-02 0. -1.
    10030    2    1    2    0    0  0.00000000000E+00  0.00000000000E+00  0.67751592414E+03  0.26892721322E+04  0.26025289189E+04 0.  0.
        4    1    3    3  502    0 -0.48688234271E+03 -0.33089969356E+03  0.15379281816E+04  0.16467464066E+04  0.12699999809E+01 0.  1.
       -4    1    3    3    0  502  0.48688234271E+03  0.33089969356E+03 -0.86041225751E+03  0.10425257256E+04  0.12699999809E+01 0. -1.
</event>
<event>
 5   0  0.2662024E-05  0.2599296E+04  0.7818609E-02  0.8368440E-01
        2   -1    0    0  501    0  0.00000000000E+00  0.00000000000E+00  0.13527230482E+04  0.13527230482E+04  0.25500000920E-02 0.  1.
       -2   -1    0    0    0  501  0.00000000000E+00  0.00000000000E+00 -0.12486551840E+04  0.12486551840E+04  0.25500000920E-02 0. -1.
    10030    2    1    2    0    0  0.00000000000E+00  0.00000000000E+00  0.10406786416E+03  0.26013782322E+04  0.25992957867E+04 0.  0.
        2    1    3    3  502    0  0.79295147427E+03 -0.97386805311E+03  0.38680696256E+03  0.13140816762E+04  0.25500000920E-02 0.  1.
       -2    1    3    3    0  502 -0.79295147427E+03  0.97386805311E+03 -0.28273909840E+03  0.12872965560E+04  0.25500000920E-02 0. -1.
</event>
<event>
 5   0  0.2662024E-05  0.2603252E+04  0.7818609E-02  0.8367097E-01
       -2   -1    0    0    0  501  0.00000000000E+00  0.00000000000E+00  0.13081442641E+04  0.13081442641E+04  0.25500000920E-02 0. -1.
        2   -1    0    0  501    0  0.00000000000E+00  0.00000000000E+00 -0.12951405930E+04  0.12951405930E+04  0.25500000920E-02 0.  1.
    10030    2    1    2    0    0  0.00000000000E+00  0.00000000000E+00  0.13003671066E+02  0.26032848571E+04  0.26032523796E+04 0.  0.
        2    1    3    3  502    0  0.52816215758E+01  0.12082966940E+04  0.49047268778E+03  0.13040599119E+04  0.25500000920E-02 0. -1.
       -2    1    3    3    0  502 -0.52816215758E+01 -0.12082966940E+04 -0.47746901671E+03  0.12992249452E+04  0.25500000920E-02 0.  1.
</event>
<event>
 5   0  0.2517854E-05  0.2569082E+04  0.7818609E-02  0.8378780E-01
       -2   -1    0    0    0  501  0.00000000000E+00  0.00000000000E+00  0.15819146249E+04  0.15819146249E+04  0.25500000920E-02 0. -1.
        2   -1    0    0  501    0  0.00000000000E+00  0.00000000000E+00 -0.10430685779E+04  0.10430685779E+04  0.25500000920E-02 0.  1.
    10030    2    1    2    0    0  0.00000000000E+00  0.00000000000E+00  0.53884604703E+03  0.26249832029E+04  0.25690818891E+04 0.  0.
        4    1    3    3  502    0 -0.92499743438E+03 -0.94290682018E+02 -0.63616517417E+03  0.11265960803E+04  0.12699999809E+01 0. -1.
       -4    1    3    3    0  502  0.92499743438E+03  0.94290682018E+02  0.11750112212E+04  0.14983871226E+04  0.12699999809E+01 0.  1.
</event>
<event>
 5   0  0.2528460E-05  0.2645435E+04  0.7818609E-02  0.8352930E-01
       -2   -1    0    0    0  501  0.00000000000E+00  0.00000000000E+00  0.12583871790E+04  0.12583871790E+04  0.25500000920E-02 0.  1.
        2   -1    0    0  501    0  0.00000000000E+00  0.00000000000E+00 -0.13903359588E+04  0.13903359588E+04  0.25500000920E-02 0. -1.
    10030    2    1    2    0    0  0.00000000000E+00  0.00000000000E+00 -0.13194877986E+03  0.26487231378E+04  0.26454345163E+04 0.  0.
        5    1    3    3  502    0  0.12888628085E+04 -0.59556424658E+02  0.22566858519E+03  0.13098330838E+04  0.46999998093E+01 0. -1.
       -5    1    3    3    0  502 -0.12888628085E+04  0.59556424658E+02 -0.35761736506E+03  0.13388900540E+04  0.46999998093E+01 0.  1.
</event>
<event>
 5   0  0.2662024E-05  0.2593652E+04  0.7818609E-02  0.8370361E-01
       -2   -1    0    0    0  501  0.00000000000E+00  0.00000000000E+00  0.13467857662E+04  0.13467857662E+04  0.25500000920E-02 0.  1.
        2   -1    0    0  501    0  0.00000000000E+00  0.00000000000E+00 -0.12487195245E+04  0.12487195245E+04  0.25500000920E-02 0. -1.
    10030    2    1    2    0    0  0.00000000000E+00  0.00000000000E+00  0.98066241777E+02  0.25955052907E+04  0.25936520056E+04 0.  0.
        2    1    3    3  502    0  0.81224820538E+03  0.84450637541E+03  0.60514552483E+03  0.13187642972E+04  0.25500000920E-02 0.  1.
       -2    1    3    3    0  502 -0.81224820538E+03 -0.84450637541E+03 -0.50707928305E+03  0.12767409935E+04  0.25500000920E-02 0. -1.
</event>
<event>
 5   0  0.2555801E-05  0.2616959E+04  0.7818609E-02  0.8362463E-01
        2   -1    0    0  501    0  0.00000000000E+00  0.00000000000E+00  0.86482380740E+03  0.86482380740E+03  0.25500000920E-02 0. -1.
       -2   -1    0    0    0  501  0.00000000000E+00  0.00000000000E+00 -0.19797306663E+04  0.19797306663E+04  0.25500000920E-02 0.  1.
    10030    2    1    2    0    0  0.00000000000E+00  0.00000000000E+00 -0.11149068589E+04  0.28445544737E+04  0.26169587024E+04 0.  0.
        1    1    3    3  502    0 -0.34124334397E+03 -0.11123590221E+04  0.93212582071E+02  0.11672524146E+04  0.50400001928E-02 0. -1.
       -1    1    3    3    0  502  0.34124334397E+03  0.11123590221E+04 -0.12081194410E+04  0.16773020591E+04  0.50400001928E-02 0.  1.
</event>
<event>
 5   0  0.2517854E-05  0.2588087E+04  0.7818609E-02  0.8372259E-01
        2   -1    0    0  501    0  0.00000000000E+00  0.00000000000E+00  0.21167583748E+04  0.21167583748E+04  0.25500000920E-02 0.  1.
       -2   -1    0    0    0  501  0.00000000000E+00  0.00000000000E+00 -0.79109111988E+03  0.79109111988E+03  0.25500000920E-02 0. -1.
    10030    2    1    2    0    0  0.00000000000E+00  0.00000000000E+00  0.13256672550E+04  0.29078494947E+04  0.25880871340E+04 0.  0.
        4    1    3    3  502    0 -0.11913036287E+04  0.41795395228E+03  0.98192485628E+03  0.15993960980E+04  0.12699999809E+01 0.  1.
       -4    1    3    3    0  502  0.11913036287E+04 -0.41795395228E+03  0.34374239869E+03  0.13084533968E+04  0.12699999809E+01 0. -1.
</event>
<event>
 5   0  0.2517854E-05  0.2669255E+04  0.7818609E-02  0.8345050E-01
       -2   -1    0    0    0  501  0.00000000000E+00  0.00000000000E+00  0.14470606648E+04  0.14470606648E+04  0.25500000920E-02 0.  1.
        2   -1    0    0  501    0  0.00000000000E+00  0.00000000000E+00 -0.12309298039E+04  0.12309298039E+04  0.25500000920E-02 0. -1.
    10030    2    1    2    0    0  0.00000000000E+00  0.00000000000E+00  0.21613086091E+03  0.26779904688E+04  0.26692546528E+04 0.  0.
        4    1    3    3  502    0  0.57295827994E+03 -0.24131403654E+03 -0.10767800830E+04  0.12433706667E+04  0.12699999809E+01 0. -1.
       -4    1    3    3    0  502 -0.57295827994E+03  0.24131403654E+03  0.12929109439E+04  0.14346198021E+04  0.12699999809E+01 0.  1.
</event>
<event>
 5   0  0.2528460E-05  0.2613353E+04  0.7818609E-02  0.8363679E-01
        2   -1    0    0  501    0  0.00000000000E+00  0.00000000000E+00  0.15968841980E+04  0.15968841980E+04  0.25500000920E-02 0.  1.
       -2   -1    0    0    0  501  0.00000000000E+00  0.00000000000E+00 -0.10692097263E+04  0.10692097263E+04  0.25500000920E-02 0. -1.
    10030    2    1    2    0    0  0.00000000000E+00  0.00000000000E+00  0.52767447175E+03  0.26660939243E+04  0.26133534903E+04 0.  0.
        5    1    3    3  502    0  0.11571224006E+04 -0.52740252837E+03  0.57039504515E+03  0.13937210174E+04  0.46999998093E+01 0.  1.
       -5    1    3    3    0  502 -0.11571224006E+04  0.52740252837E+03 -0.42720573400E+02  0.12723729069E+04  0.46999998093E+01 0. -1.
</event>
<event>
 5   0  0.1005492E-05  0.2594177E+04  0.7818609E-02  0.8370182E-01
       -1   -1    0    0    0  501  0.00000000000E+00  0.00000000000E+00  0.17016506375E+04  0.17016506375E+04  0.50400001928E-02 0. -1.
        1   -1    0    0  501    0  0.00000000000E+00  0.00000000000E+00 -0.98871005309E+03  0.98871005310E+03  0.50400001928E-02 0.  1.
    10030    2    1    2    0    0  0.00000000000E+00  0.00000000000E+00  0.71294058439E+03  0.26903606906E+04  0.25941773973E+04 0.  0.
        4    1    3    3  502    0 -0.61651934381E+03 -0.70119132419E+03  0.12902263930E+04  0.15926239771E+04  0.12699999809E+01 0. -1.
       -4    1    3    3    0  502  0.61651934381E+03  0.70119132419E+03 -0.57728580860E+03  0.10977367135E+04  0.12699999809E+01 0.  1.
</event>
<event>
 5   0  0.2528460E-05  0.2635769E+04  0.7818609E-02  0.8356152E-01
        2   -1    0    0  501    0  0.00000000000E+00  0.00000000000E+00  0.22869048251E+04  0.22869048251E+04  0.25500000920E-02 0.  1.
       -2   -1    0    0    0  501  0.00000000000E+00  0.00000000000E+00 -0.75946310748E+03  0.75946310748E+03  0.25500000920E-02 0. -1.
    10030    2    1    2    0    0  0.00000000000E+00  0.00000000000E+00  0.15274417176E+04  0.30463679326E+04  0.26357692198E+04 0.  0.
        5    1    3    3  502    0  0.82257755915E+03 -0.75033980559E+03 -0.51209471072E+02  0.11145798153E+04  0.46999998093E+01 0. -1.
       -5    1    3    3    0  502 -0.82257755915E+03  0.75033980559E+03  0.15786511887E+04  0.19317881173E+04  0.46999998093E+01 0.  1.
</event>
<event>
 5   0  0.2484618E-05  0.2645851E+04  0.7818609E-02  0.8352791E-01
        2   -1    0    0  501    0  0.00000000000E+00  0.00000000000E+00  0.21030634313E+04  0.21030634313E+04  0.25500000920E-02 0.  1.
       -2   -1    0    0    0  501  0.00000000000E+00  0.00000000000E+00 -0.83218246515E+03  0.83218246515E+03  0.25500000920E-02 0. -1.
    10030    2    1    2    0    0  0.00000000000E+00  0.00000000000E+00  0.12708809662E+04  0.29352458965E+04  0.26458514778E+04 0.  0.
        3    1    3    3  502    0 -0.73057388605E+02 -0.13198337041E+04  0.57638128665E+03  0.14420519360E+04  0.10100000352E+00 0. -1.
       -3    1    3    3    0  502  0.73057388605E+02  0.13198337041E+04  0.69449967950E+03  0.14931939604E+04  0.10100000352E+00 0.  1.
</event>
<event>
 5   0  0.8605000E-06  0.2465973E+04  0.7818609E-02  0.8415209E-01
       -4   -1    0    0    0  501  0.00000000000E+00  0.00000000000E+00  0.13424092275E+04  0.13424098283E+04  0.12699999809E+01 0.  1.
        4   -1    0    0  501    0  0.00000000000E+00  0.00000000000E+00 -0.11324815810E+04  0.11324822931E+04  0.12699999809E+01 0. -1.
    10030    2    1    2    0    0  0.00000000000E+00  0.00000000000E+00  0.20992764655E+03  0.24748921213E+04  0.24659727078E+04 0.  0.
        3    1    3    3  502    0 -0.17218039974E+03  0.36272790795E+03 -0.10650305192E+04  0.11382036910E+04  0.10100000352E+00 0. -1.
       -3    1    3    3    0  502  0.17218039974E+03 -0.36272790795E+03  0.12749581657E+04  0.13366884303E+04  0.10100000352E+00 0.  1.
</event>
<event>
 5   0  0.1025153E-05  0.2583992E+04  0.7818609E-02  0.8373659E-01
       -1   -1    0    0    0  501  0.00000000000E+00  0.00000000000E+00  0.96953798221E+03  0.96953798222E+03  0.50400001928E-02 0. -1.
        1   -1    0    0  501    0  0.00000000000E+00  0.00000000000E+00 -0.17217003897E+04  0.17217003897E+04  0.50400001928E-02 0.  1.
    10030    2    1    2    0    0  0.00000000000E+00  0.00000000000E+00 -0.75216240746E+03  0.26912383719E+04  0.25839921995E+04 0.  0.
        1    1    3    3  502    0 -0.95216525875E+03  0.26146121782E+03  0.49173187610E+03  0.11030779149E+04  0.50400001928E-02 0. -1.
       -1    1    3    3    0  502  0.95216525875E+03 -0.26146121782E+03 -0.12438942836E+04  0.15881604570E+04  0.50400001928E-02 0.  1.
</event>
<event>
 5   0  0.1034714E-05  0.2589536E+04  0.7818609E-02  0.8371764E-01
        1   -1    0    0  501    0  0.00000000000E+00  0.00000000000E+00  0.11898692574E+04  0.11898692574E+04  0.50400001928E-02 0.  1.
       -1   -1    0    0    0  501  0.00000000000E+00  0.00000000000E+00 -0.14089150378E+04  0.14089150378E+04  0.50400001928E-02 0. -1.
    10030    2    1    2    0    0  0.00000000000E+00  0.00000000000E+00 -0.21904578037E+03  0.25987842952E+04  0.25895363985E+04 0.  0.
        5    1    3    3  502    0  0.84060143935E+03  0.79106072977E+03 -0.69814522965E+03  0.13490058227E+04  0.46999998093E+01 0. -1.
       -5    1    3    3    0  502 -0.84060143935E+03 -0.79106072977E+03  0.47909944928E+03  0.12497784725E+04  0.46999998093E+01 0.  1.
</event>
<event>
 5   0  0.1034714E-05  0.2506831E+04  0.7818609E-02  0.8400556E-01
        1   -1    0    0  501    0  0.00000000000E+00  0.00000000000E+00  0.84089416971E+03  0.84089416972E+03  0.50400001928E-02 0. -1.
       -1   -1    0    0    0  501  0.00000000000E+00  0.00000000000E+00 -0.18683095676E+04  0.18683095676E+04  0.50400001928E-02 0.  1.
    10030    2    1    2    0    0  0.00000000000E+00  0.00000000000E+00 -0.10274153979E+04  0.27092037373E+04  0.25068311651E+04 0.  0.
        5    1    3    3  502    0  0.33190974765E+01  0.10261455604E+04 -0.12915640534E+04  0.16495895010E+04  0.46999998093E+01 0.  1.
       -5    1    3    3    0  502 -0.33190974765E+01 -0.10261455604E+04  0.26414865557E+03  0.10596142363E+04  0.46999998093E+01 0. -1.
</event>
<event>
 5   0  0.2555801E-05  0.2580747E+04  0.7818609E-02  0.8374771E-01
       -2   -1    0    0    0  501  0.00000000000E+00  0.00000000000E+00  0.10533797653E+04  0.10533797653E+04  0.25500000920E-02 0. -1.
        2   -1    0    0  501    0  0.00000000000E+00  0.00000000000E+00 -0.15806869795E+04  0.15806869795E+04  0.25500000920E-02 0.  1.
    10030    2    1    2    0    0  0.00000000000E+00  0.00000000000E+00 -0.52730721420E+03  0.26340667448E+04  0.25807469303E+04 0.  0.
        1    1    3    3  502    0 -0.41122150965E+03  0.96428547626E+03 -0.10316042888E+04  0.14707674930E+04  0.50400001928E-02 0.  1.
       -1    1    3    3    0  502  0.41122150965E+03 -0.96428547626E+03  0.50429707465E+03  0.11632992518E+04  0.50400001928E-02 0. -1.
</event>
<event>
 5   0  0.2555801E-05  0.2606313E+04  0.7818609E-02  0.8366060E-01
       -2   -1    0    0    0  501  0.00000000000E+00  0.00000000000E+00  0.19962736038E+04  0.19962736038E+04  0.25500000920E-02 0.  1.
        2   -1    0    0  501    0  0.00000000000E+00  0.00000000000E+00 -0.85069315998E+03  0.85069315999E+03  0.25500000920E-02 0. -1.
    10030    2    1    2    0    0  0.00000000000E+00  0.00000000000E+00  0.11455804439E+04  0.28469667638E+04  0.26063125678E+04 0.  0.
        1    1    3    3  502    0  0.58178965643E+03  0.82382282895E+03  0.14742500285E+04  0.17862184649E+04  0.50400001928E-02 0.  1.
       -1    1    3    3    0  502 -0.58178965643E+03 -0.82382282895E+03 -0.32866958462E+03  0.10607482989E+04  0.50400001928E-02 0. -1.
</event>
<event>
 5   0  0.1005492E-05  0.2482963E+04  0.7818609E-02  0.8409080E-01
       -1   -1    0    0    0  501  0.00000000000E+00  0.00000000000E+00  0.79527394398E+03  0.79527394400E+03  0.50400001928E-02 0. -1.
        1   -1    0    0  501    0  0.00000000000E+00  0.00000000000E+00 -0.19380443094E+04  0.19380443094E+04  0.50400001928E-02 0.  1.
    10030    2    1    2    0    0  0.00000000000E+00  0.00000000000E+00 -0.11427703654E+04  0.27333182534E+04  0.24829628604E+04 0.  0.
        4    1    3    3  502    0 -0.10851233885E+04  0.35391604378E+03 -0.11090196551E+04  0.15914381994E+04  0.12699999809E+01 0.  1.
       -4    1    3    3    0  502  0.10851233885E+04 -0.35391604378E+03 -0.33750710249E+02  0.11418800539E+04  0.12699999809E+01 0. -1.
</event>
<event>
 5   0  0.2662024E-05  0.2596408E+04  0.7818609E-02  0.8369422E-01
       -2   -1    0    0    0  501  0.00000000000E+00  0.00000000000E+00  0.13552734093E+04  0.13552734093E+04  0.25500000920E-02 0. -1.
        2   -1    0    0  501    0  0.00000000000E+00  0.00000000000E+00 -0.12435378485E+04  0.12435378485E+04  0.25500000920E-02 0.  1.
    10030    2    1    2    0    0  0.00000000000E+00  0.00000000000E+00  0.11173556084E+03  0.25988112578E+04  0.25964081185E+04 0.  0.
        2    1    3    3  502    0 -0.67259995029E+03 -0.99933090284E+03  0.54034142988E+03  0.13202355121E+04  0.25500000920E-02 0.  1.
       -2    1    3    3    0  502  0.67259995029E+03  0.99933090284E+03 -0.42860586904E+03  0.12785757457E+04  0.25500000920E-02 0. -1.
</event>
<event>
 5   0  0.8605000E-06  0.2655823E+04  0.7818609E-02  0.8349483E-01
       -3   -1    0    0    0  501  0.00000000000E+00  0.00000000000E+00  0.16574681445E+04  0.16574681476E+04  0.10100000352E+00 0.  1.
        3   -1    0    0  501    0  0.00000000000E+00  0.00000000000E+00 -0.10638809815E+04  0.10638809863E+04  0.10100000352E+00 0. -1.
    10030    2    1    2    0    0  0.00000000000E+00  0.00000000000E+00  0.59358716299E+03  0.27213491340E+04  0.26558229212E+04 0.  0.
        1    1    3    3  502    0  0.44897956230E+03 -0.30307260918E+02 -0.98336982381E+03  0.10814422721E+04  0.50400001928E-02 0. -1.
       -1    1    3    3    0  502 -0.44897956230E+03  0.30307260918E+02  0.15769569868E+04  0.16399068619E+04  0.50400001928E-02 0.  1.
</event>
<event>
 5   0  0.2528460E-05  0.2598614E+04  0.7818609E-02  0.8368672E-01
       -2   -1    0    0    0  501  0.00000000000E+00  0.00000000000E+00  0.86481012022E+03  0.86481012023E+03  0.25500000920E-02 0.  1.
        2   -1    0    0  501    0  0.00000000000E+00  0.00000000000E+00 -0.19521032112E+04  0.19521032112E+04  0.25500000920E-02 0. -1.
    10030    2    1    2    0    0  0.00000000000E+00  0.00000000000E+00 -0.10872930910E+04  0.28169133314E+04  0.25986139481E+04 0.  0.
        5    1    3    3  502    0 -0.10394320013E+04 -0.75754655040E+03 -0.34411620565E+03  0.13314404659E+04  0.46999998093E+01 0.  1.
       -5    1    3    3    0  502  0.10394320013E+04  0.75754655040E+03 -0.74317688532E+03  0.14854728655E+04  0.46999998093E+01 0. -1.
</event>
<event>
 5   0  0.2528460E-05  0.2599056E+04  0.7818609E-02  0.8368522E-01
       -2   -1    0    0    0  501  0.00000000000E+00  0.00000000000E+00  0.92323292773E+03  0.92323292774E+03  0.25500000920E-02 0.  1.
        2   -1    0    0  501    0  0.00000000000E+00  0.00000000000E+00 -0.18291952148E+04  0.18291952148E+04  0.25500000920E-02 0. -1.
    10030    2    1    2    0    0  0.00000000000E+00  0.00000000000E+00 -0.90596228702E+03  0.27524281425E+04  0.25990561776E+04 0.  0.
        5    1    3    3  502    0  0.12291927450E+04 -0.41805809737E+03 -0.51159894921E+03  0.13955081340E+04  0.46999998093E+01 0.  1.
       -5    1    3    3    0  502 -0.12291927450E+04  0.41805809737E+03 -0.39436333781E+03  0.13569200085E+04  0.46999998093E+01 0. -1.
</event>
<event>
 5   0  0.1025153E-05  0.2578229E+04  0.7818609E-02  0.8375634E-01
       -1   -1    0    0    0  501  0.00000000000E+00  0.00000000000E+00  0.15820471671E+04  0.15820471671E+04  0.50400001928E-02 0. -1.
        1   -1    0    0  501    0  0.00000000000E+00  0.00000000000E+00 -0.10504214564E+04  0.10504214564E+04  0.50400001928E-02 0.  1.
    10030    2    1    2    0    0  0.00000000000E+00  0.00000000000E+00  0.53162571066E+03  0.26324686235E+04  0.25782290739E+04 0.  0.
        1    1    3    3  502    0 -0.16959764178E+03 -0.36143953436E+03 -0.98570361556E+03  0.10634911917E+04  0.50400001928E-02 0.  1.
       -1    1    3    3    0  502  0.16959764178E+03  0.36143953436E+03  0.15173293262E+04  0.15689774317E+04  0.50400001928E-02 0. -1.
</event>
<event>
 5   0  0.1005492E-05  0.1918730E+04  0.7818609E-02  0.8645589E-01
        1   -1    0    0  501    0  0.00000000000E+00  0.00000000000E+00  0.11047450899E+04  0.11047450899E+04  0.50400001928E-02 0. -1.
       -1   -1    0    0    0  501  0.00000000000E+00  0.00000000000E+00 -0.83311639687E+03  0.83311639689E+03  0.50400001928E-02 0.  1.
    10030    2    1    2    0    0  0.00000000000E+00  0.00000000000E+00  0.27162869299E+03  0.19378614868E+04  0.19187300474E+04 0.  0.
        4    1    3    3  502    0 -0.37670271275E+03 -0.53630382951E+03  0.84340899139E+03  0.10681137912E+04  0.12699999809E+01 0. -1.
       -4    1    3    3    0  502  0.37670271275E+03  0.53630382951E+03 -0.57178029840E+03  0.86974769553E+03  0.12699999809E+01 0.  1.
</event>
<event>
 5   0  0.2484618E-05  0.2412224E+04  0.7818609E-02  0.8434941E-01
       -2   -1    0    0    0  501  0.00000000000E+00  0.00000000000E+00  0.76248750764E+03  0.76248750764E+03  0.25500000920E-02 0.  1.
        2   -1    0    0  501    0  0.00000000000E+00  0.00000000000E+00 -0.19078425497E+04  0.19078425497E+04  0.25500000920E-02 0. -1.
    10030    2    1    2    0    0  0.00000000000E+00  0.00000000000E+00 -0.11453550420E+04  0.26703300573E+04  0.24122239620E+04 0.  0.
        3    1    3    3  502    0 -0.36707475023E+03  0.58451002927E+03  0.52225062480E+03  0.86552964818E+03  0.10100000352E+00 0.  1.
       -3    1    3    3    0  502  0.36707475023E+03 -0.58451002927E+03 -0.16676056668E+04  0.18048004091E+04  0.10100000352E+00 0. -1.
</event>
<event>
 5   0  0.2555801E-05  0.2613986E+04  0.7818609E-02  0.8363466E-01
       -2   -1    0    0    0  501  0.00000000000E+00  0.00000000000E+00  0.15310394187E+04  0.15310394187E+04  0.25500000920E-02 0. -1.
        2   -1    0    0  501    0  0.00000000000E+00  0.00000000000E+00 -0.11157327198E+04  0.11157327198E+04  0.25500000920E-02 0.  1.
    10030    2    1    2    0    0  0.00000000000E+00  0.00000000000E+00  0.41530669893E+03  0.26467721385E+04  0.26139860556E+04 0.  0.
        1    1    3    3  502    0 -0.96820107487E+03  0.80511916469E+03  0.56218871011E+03  0.13790164381E+04  0.50400001928E-02 0.  1.
       -1    1    3    3    0  502  0.96820107487E+03 -0.80511916469E+03 -0.14688201118E+03  0.12677557004E+04  0.50400001928E-02 0. -1.
</event>
<event>
 5   0  0.2528460E-05  0.2605301E+04  0.7818609E-02  0.8366403E-01
        2   -1    0    0  501    0  0.00000000000E+00  0.00000000000E+00  0.27033797651E+04  0.27033797651E+04  0.25500000920E-02 0.  1.
       -2   -1    0    0    0  501  0.00000000000E+00  0.00000000000E+00 -0.62769512321E+03  0.62769512321E+03  0.25500000920E-02 0. -1.
    10030    2    1    2    0    0  0.00000000000E+00  0.00000000000E+00  0.20756846419E+04  0.33310748883E+04  0.26053009767E+04 0.  0.
        5    1    3    3  502    0 -0.31139462937E+03  0.11328251802E+04  0.31840427034E+03  0.12172357510E+04  0.46999998093E+01 0. -1.
       -5    1    3    3    0  502  0.31139462937E+03 -0.11328251802E+04  0.17572803716E+04  0.21138391373E+04  0.46999998093E+01 0.  1.
</event>
<event>
 5   0  0.9855352E-06  0.2669913E+04  0.7818609E-02  0.8344834E-01
       -1   -1    0    0    0  501  0.00000000000E+00  0.00000000000E+00  0.12739307952E+04  0.12739307952E+04  0.50400001928E-02 0. -1.
        1   -1    0    0  501    0  0.00000000000E+00  0.00000000000E+00 -0.13989051917E+04  0.13989051917E+04  0.50400001928E-02 0.  1.
    10030    2    1    2    0    0  0.00000000000E+00  0.00000000000E+00 -0.12497439645E+03  0.26728359869E+04  0.26699126602E+04 0.  0.
        2    1    3    3  502    0  0.11865984104E+04 -0.24140696895E+03 -0.62507697001E+03  0.13627231306E+04  0.25500000920E-02 0.  1.
       -2    1    3    3    0  502 -0.11865984104E+04  0.24140696895E+03  0.50010257356E+03  0.13101128563E+04  0.25500000920E-02 0. -1.
</event>
<event>
 5   0  0.2484618E-05  0.2596381E+04  0.7818609E-02  0.8369432E-01
       -2   -1    0    0    0  501  0.00000000000E+00  0.00000000000E+00  0.75294315354E+03  0.75294315355E+03  0.25500000920E-02 0.  1.
        2   -1    0    0  501    0  0.00000000000E+00  0.00000000000E+00 -0.22382812423E+04  0.22382812423E+04  0.25500000920E-02 0. -1.
    10030    2    1    2    0    0  0.00000000000E+00  0.00000000000E+00 -0.14853380888E+04  0.29912243959E+04  0.25963809714E+04 0.  0.
        3    1    3    3  502    0 -0.84083070947E+03 -0.72364248162E+03  0.34143472651E+02  0.11098740965E+04  0.10100000352E+00 0. -1.
       -3    1    3    3    0  502  0.84083070947E+03  0.72364248162E+03 -0.15194815614E+04  0.18813502994E+04  0.10100000352E+00 0.  1.
</event>
<event>
 5   0  0.2517854E-05  0.2630073E+04  0.7818609E-02  0.8358057E-01
       -2   -1    0    0    0  501  0.00000000000E+00  0.00000000000E+00  0.14658884332E+04  0.14658884332E+04  0.25500000920E-02 0.  1.
        2   -1    0    0  501    0  0.00000000000E+00  0.00000000000E+00 -0.11797084400E+04  0.11797084400E+04  0.25500000920E-02 0. -1.
    10030    2    1    2    0    0  0.00000000000E+00  0.00000000000E+00  0.28617999322E+03  0.26455968733E+04  0.26300729700E+04 0.  0.
        4    1    3    3  502    0 -0.60044574510E+02 -0.66024357385E+03 -0.99930365287E+03  0.11992232200E+04  0.12699999809E+01 0. -1.
       -4    1    3    3    0  502  0.60044574510E+02  0.66024357385E+03  0.12854836461E+04  0.14463736533E+04  0.12699999809E+01 0.  1.
</event>
<event>
 5   0  0.8605000E-06  0.2628702E+04  0.7818609E-02  0.8358517E-01
        3   -1    0    0  501    0  0.00000000000E+00  0.00000000000E+00  0.14373893789E+04  0.14373893825E+04  0.10100000352E+00 0. -1.
       -3   -1    0    0    0  501  0.00000000000E+00  0.00000000000E+00 -0.12018447598E+04  0.12018447640E+04  0.10100000352E+00 0.  1.
    10030    2    1    2    0    0  0.00000000000E+00  0.00000000000E+00  0.23554461918E+03  0.26392341465E+04  0.26287022677E+04 0.  0.
        2    1    3    3  502    0  0.12162157950E+04  0.14459578266E+03 -0.36103469532E+03  0.12768848231E+04  0.25500000920E-02 0. -1.
       -2    1    3    3    0  502 -0.12162157950E+04 -0.14459578266E+03  0.59657931450E+03  0.13623493233E+04  0.25500000920E-02 0.  1.
</event>
<event>
 5   0  0.2484618E-05  0.2334448E+04  0.7818609E-02  0.8464461E-01
       -2   -1    0    0    0  501  0.00000000000E+00  0.00000000000E+00  0.91850903448E+03  0.91850903448E+03  0.25500000920E-02 0. -1.
        2   -1    0    0  501    0  0.00000000000E+00  0.00000000000E+00 -0.14832867367E+04  0.14832867367E+04  0.25500000920E-02 0.  1.
    10030    2    1    2    0    0  0.00000000000E+00  0.00000000000E+00 -0.56477770221E+03  0.24017957712E+04  0.23344483446E+04 0.  0.
        3    1    3    3  502    0  0.53817456789E+03 -0.88948914226E+03  0.26357011615E+03  0.10725166740E+04  0.10100000352E+00 0. -1.
       -3    1    3    3    0  502 -0.53817456789E+03  0.88948914226E+03 -0.82834781836E+03  0.13292790971E+04  0.10100000352E+00 0.  1.
</event>
<event>
 5   0  0.2517854E-05  0.2530096E+04  0.7818609E-02  0.8392342E-01
       -2   -1    0    0    0  501  0.00000000000E+00  0.00000000000E+00  0.91753541202E+03  0.91753541203E+03  0.25500000920E-02 0. -1.
        2   -1    0    0  501    0  0.00000000000E+00  0.00000000000E+00 -0.17441792752E+04  0.17441792752E+04  0.25500000920E-02 0.  1.
    10030    2    1    2    0    0  0.00000000000E+00  0.00000000000E+00 -0.82664386320E+03  0.26617146873E+04  0.25300958479E+04 0.  0.
        4    1    3    3  502    0  0.55242098863E+03  0.91477078363E+03  0.29892841317E+03  0.11096550565E+04  0.12699999809E+01 0. -1.
       -4    1    3    3    0  502 -0.55242098863E+03 -0.91477078363E+03 -0.11255722764E+04  0.15520596308E+04  0.12699999809E+01 0.  1.
</event>
<event>
 5   0  0.2555801E-05  0.2705259E+04  0.7818609E-02  0.8333301E-01
       -2   -1    0    0    0  501  0.00000000000E+00  0.00000000000E+00  0.16417558856E+04  0.16417558856E+04  0.25500000920E-02 0.  1.
        2   -1    0    0  501    0  0.00000000000E+00  0.00000000000E+00 -0.11144207293E+04  0.11144207293E+04  0.25500000920E-02 0. -1.
    10030    2    1    2    0    0  0.00000000000E+00  0.00000000000E+00  0.52733515629E+03  0.27561766148E+04  0.27052591678E+04 0.  0.
        1    1    3    3  502    0 -0.48315308140E+03  0.65219958703E+03  0.13660710180E+04  0.15890095115E+04  0.50400001928E-02 0.  1.
       -1    1    3    3    0  502  0.48315308140E+03 -0.65219958703E+03 -0.83873586170E+03  0.11671671033E+04  0.50400001928E-02 0. -1.
</event>
<event>
 5   0  0.1005492E-05  0.2559765E+04  0.7818609E-02  0.8381998E-01
        1   -1    0    0  501    0  0.00000000000E+00  0.00000000000E+00  0.19966741593E+04  0.19966741593E+04  0.50400001928E-02 0.  1.
       -1   -1    0    0    0  501  0.00000000000E+00  0.00000000000E+00 -0.82041371582E+03  0.82041371584E+03  0.50400001928E-02 0. -1.
    10030    2    1    2    0    0  0.00000000000E+00  0.00000000000E+00  0.11762604435E+04  0.28170878752E+04  0.25597647285E+04 0.  0.
        4    1    3    3  502    0  0.15176581786E+03 -0.12945325570E+02  0.19866632652E+04  0.19924941624E+04  0.12699999809E+01 0.  1.
       -4    1    3    3    0  502 -0.15176581786E+03  0.12945325570E+02 -0.81040282168E+03  0.82459371281E+03  0.12699999809E+01 0. -1.
</event>
<event>
 5   0  0.2484618E-05  0.2614771E+04  0.7818609E-02  0.8363201E-01
        2   -1    0    0  501    0  0.00000000000E+00  0.00000000000E+00  0.11042746966E+04  0.11042746966E+04  0.25500000920E-02 0.  1.
       -2   -1    0    0    0  501  0.00000000000E+00  0.00000000000E+00 -0.15478542453E+04  0.15478542453E+04  0.25500000920E-02 0. -1.
    10030    2    1    2    0    0  0.00000000000E+00  0.00000000000E+00 -0.44357954874E+03  0.26521289419E+04  0.26147705652E+04 0.  0.
        3    1    3    3  502    0 -0.10916045250E+04  0.61161563335E+03  0.16254640284E+03  0.12617826537E+04  0.10100000352E+00 0.  1.
       -3    1    3    3    0  502  0.10916045250E+04 -0.61161563335E+03 -0.60612595158E+03  0.13903462882E+04  0.10100000352E+00 0. -1.
</event>
<event>
 5   0  0.2528460E-05  0.2754257E+04  0.7818609E-02  0.8317612E-01
        2   -1    0    0  501    0  0.00000000000E+00  0.00000000000E+00  0.15015169170E+04  0.15015169170E+04  0.25500000920E-02 0. -1.
       -2   -1    0    0    0  501  0.00000000000E+00  0.00000000000E+00 -0.12630446318E+04  0.12630446318E+04  0.25500000920E-02 0.  1.
    10030    2    1    2    0    0  0.00000000000E+00  0.00000000000E+00  0.23847228523E+03  0.27645615489E+04  0.27542569827E+04 0.  0.
        5    1    3    3  502    0 -0.21839726576E+03 -0.12183926113E+04  0.72505275657E+03  0.14345387798E+04  0.46999998093E+01 0. -1.
       -5    1    3    3    0  502  0.21839726576E+03  0.12183926113E+04 -0.48658047134E+03  0.13300227690E+04  0.46999998093E+01 0.  1.
</event>
<event>
 5   0  0.1000421E-05  0.2600583E+04  0.7818609E-02  0.8368003E-01
       -1   -1    0    0    0  501  0.00000000000E+00  0.00000000000E+00  0.16229373764E+04  0.16229373764E+04  0.50400001928E-02 0. -1.
        1   -1    0    0  501    0  0.00000000000E+00  0.00000000000E+00 -0.10417884795E+04  0.10417884795E+04  0.50400001928E-02 0.  1.
    10030    2    1    2    0    0  0.00000000000E+00  0.00000000000E+00  0.58114889693E+03  0.26647258559E+04  0.26005825976E+04 0.  0.
        3    1    3    3  502    0  0.11042081314E+04  0.68625717693E+03  0.31422937174E+03  0.13375218198E+04  0.10100000352E+00 0.  1.
       -3    1    3    3    0  502 -0.11042081314E+04 -0.68625717693E+03  0.26691952519E+03  0.13272040361E+04  0.10100000352E+00 0. -1.
</event>
<event>
 5   0  0.1005492E-05  0.2582068E+04  0.7818609E-02  0.8374318E-01
        1   -1    0    0  501    0  0.00000000000E+00  0.00000000000E+00  0.10854620055E+04  0.10854620055E+04  0.50400001928E-02 0. -1.
       -1   -1    0    0    0  501  0.00000000000E+00  0.00000000000E+00 -0.15355388191E+04  0.15355388191E+04  0.50400001928E-02 0.  1.
    10030    2    1    2    0    0  0.00000000000E+00  0.00000000000E+00 -0.45007681365E+03  0.26210008247E+04  0.25820681991E+04 0.  0.
        4    1    3    3  502    0 -0.58548756633E+03 -0.53000590320E+03  0.81166669600E+03  0.11324779848E+04  0.12699999809E+01 0. -1.
       -4    1    3    3    0  502  0.58548756633E+03  0.53000590320E+03 -0.12617435096E+04  0.14885228399E+04  0.12699999809E+01 0.  1.
</event>
<event>
 5   0  0.2517854E-05  0.2539739E+04  0.7818609E-02  0.8388964E-01
        2   -1    0    0  501    0  0.00000000000E+00  0.00000000000E+00  0.21612444788E+04  0.21612444788E+04  0.25500000920E-02 0. -1.
       -2   -1    0    0    0  501  0.00000000000E+00  0.00000000000E+00 -0.74612944114E+03  0.74612944114E+03  0.25500000920E-02 0.  1.
    10030    2    1    2    0    0  0.00000000000E+00  0.00000000000E+00  0.14151150377E+04  0.29073739200E+04  0.25397386756E+04 0.  0.
        4    1    3    3  502    0 -0.32939544229E+02  0.10458575717E+04 -0.11607902660E+03  0.10527958145E+04  0.12699999809E+01 0. -1.
       -4    1    3    3    0  502  0.32939544229E+02 -0.10458575717E+04  0.15311940643E+04  0.18545781054E+04  0.12699999809E+01 0.  1.
</event>
<event>
 5   0  0.1000421E-05  0.2608500E+04  0.7818609E-02  0.8365320E-01
       -1   -1    0    0    0  501  0.00000000000E+00  0.00000000000E+00  0.10054486862E+04  0.10054486862E+04  0.50400001928E-02 0. -1.
        1   -1    0    0  501    0  0.00000000000E+00  0.00000000000E+00 -0.16918503344E+04  0.16918503344E+04  0.50400001928E-02 0.  1.
    10030    2    1    2    0    0  0.00000000000E+00  0.00000000000E+00 -0.68640164816E+03  0.26972990206E+04  0.26085004857E+04 0.  0.
        3    1    3    3  502    0  0.33755592970E+03  0.99056521114E+03 -0.11480982303E+04  0.15534777114E+04  0.10100000352E+00 0.  1.
       -3    1    3    3    0  502 -0.33755592970E+03 -0.99056521114E+03  0.46169658213E+03  0.11438213092E+04  0.10100000352E+00 0. -1.
</event>
<event>
 5   0  0.2528460E-05  0.2601166E+04  0.7818609E-02  0.8367805E-01
       -2   -1    0    0    0  501  0.00000000000E+00  0.00000000000E+00  0.12185138011E+04  0.12185138011E+04  0.25500000920E-02 0.  1.
        2   -1    0    0  501    0  0.00000000000E+00  0.00000000000E+00 -0.13881795136E+04  0.13881795136E+04  0.25500000920E-02 0. -1.
    10030    2    1    2    0    0  0.00000000000E+00  0.00000000000E+00 -0.16966571245E+03  0.26066933147E+04  0.26011658123E+04 0.  0.
        5    1    3    3  502    0 -0.11206194762E+04  0.20696721828E+03 -0.71295851764E+03  0.13442304035E+04  0.46999998093E+01 0. -1.
       -5    1    3    3    0  502  0.11206194762E+04 -0.20696721828E+03  0.54329280519E+03  0.12624629112E+04  0.46999998093E+01 0.  1.
</event>
<event>
 5   0  0.2662024E-05  0.2569870E+04  0.7818609E-02  0.8378508E-01
       -2   -1    0    0    0  501  0.00000000000E+00  0.00000000000E+00  0.98057863771E+03  0.98057863772E+03  0.25500000920E-02 0. -1.
        2   -1    0    0  501    0  0.00000000000E+00  0.00000000000E+00 -0.16837582804E+04  0.16837582804E+04  0.25500000920E-02 0.  1.
    10030    2    1    2    0    0  0.00000000000E+00  0.00000000000E+00 -0.70317964266E+03  0.26643369181E+04  0.25698695693E+04 0.  0.
        2    1    3    3  502    0  0.49744566904E+03  0.18802744614E+03 -0.15643109103E+04  0.16522333788E+04  0.25500000920E-02 0.  1.
       -2    1    3    3    0  502 -0.49744566904E+03 -0.18802744614E+03  0.86113126760E+03  0.10121035393E+04  0.25500000920E-02 0. -1.
</event>
<event>
 5   0  0.2528460E-05  0.2588645E+04  0.7818609E-02  0.8372068E-01
       -2   -1    0    0    0  501  0.00000000000E+00  0.00000000000E+00  0.67288300004E+03  0.67288300005E+03  0.25500000920E-02 0.  1.
        2   -1    0    0  501    0  0.00000000000E+00  0.00000000000E+00 -0.24896912734E+04  0.24896912734E+04  0.25500000920E-02 0. -1.
    10030    2    1    2    0    0  0.00000000000E+00  0.00000000000E+00 -0.18168082734E+04  0.31625742735E+04  0.25886451539E+04 0.  0.
        5    1    3    3  502    0  0.54854418434E+03  0.56572823713E+03  0.34603689033E+03  0.86064672191E+03  0.46999998093E+01 0.  1.
       -5    1    3    3    0  502 -0.54854418434E+03 -0.56572823713E+03 -0.21628451637E+04  0.23019275516E+04  0.46999998093E+01 0. -1.
</event>
<event>
 5   0  0.1034714E-05  0.2587240E+04  0.7818609E-02  0.8372548E-01
       -1   -1    0    0    0  501  0.00000000000E+00  0.00000000000E+00  0.57618774544E+03  0.57618774547E+03  0.50400001928E-02 0.  1.
        1   -1    0    0  501    0  0.00000000000E+00  0.00000000000E+00 -0.29043533212E+04  0.29043533212E+04  0.50400001928E-02 0. -1.
    10030    2    1    2    0    0  0.00000000000E+00  0.00000000000E+00 -0.23281655758E+04  0.34805410667E+04  0.25872400679E+04 0.  0.
        5    1    3    3  502    0  0.51232095287E+03 -0.90852753709E+03 -0.21934888177E+04  0.24288495893E+04  0.46999998093E+01 0. -1.
       -5    1    3    3    0  502 -0.51232095287E+03  0.90852753709E+03 -0.13467675812E+03  0.10516914774E+04  0.46999998093E+01 0.  1.
</event>
<event>
 5   0  0.1005492E-05  0.2627607E+04  0.7818609E-02  0.8358884E-01
        1   -1    0    0  501    0  0.00000000000E+00  0.00000000000E+00  0.20264775962E+04  0.20264775962E+04  0.50400001928E-02 0. -1.
       -1   -1    0    0    0  501  0.00000000000E+00  0.00000000000E+00 -0.85176369872E+03  0.85176369874E+03  0.50400001928E-02 0.  1.
    10030    2    1    2    0    0  0.00000000000E+00  0.00000000000E+00  0.11747138975E+04  0.28782412949E+04  0.26276073167E+04 0.  0.
        4    1    3    3  502    0  0.31219572327E+03  0.46371419179E+03 -0.71499136244E+03  0.90758541337E+03  0.12699999809E+01 0.  1.
       -4    1    3    3    0  502 -0.31219572327E+03 -0.46371419179E+03  0.18897052599E+04  0.19706558816E+04  0.12699999809E+01 0. -1.
</event>
<event>
 5   0  0.2484618E-05  0.2676991E+04  0.7818609E-02  0.8342509E-01
       -2   -1    0    0    0  501  0.00000000000E+00  0.00000000000E+00  0.88697559843E+03  0.88697559843E+03  0.25500000920E-02 0. -1.
        2   -1    0    0  501    0  0.00000000000E+00  0.00000000000E+00 -0.20198648308E+04  0.20198648308E+04  0.25500000920E-02 0.  1.
    10030    2    1    2    0    0  0.00000000000E+00  0.00000000000E+00 -0.11328892323E+04  0.29068404292E+04  0.26769914584E+04 0.  0.
        3    1    3    3  502    0  0.60317080016E+03 -0.50588741316E+03 -0.17419028472E+04  0.19115341034E+04  0.10100000352E+00 0.  1.
       -3    1    3    3    0  502 -0.60317080016E+03  0.50588741316E+03  0.60901361488E+03  0.99530632585E+03  0.10100000352E+00 0. -1.
</event>
<event>
 5   0  0.9855352E-06  0.2698498E+04  0.7818609E-02  0.8335492E-01
       -1   -1    0    0    0  501  0.00000000000E+00  0.00000000000E+00  0.85710244538E+03  0.85710244539E+03  0.50400001928E-02 0.  1.
        1   -1    0    0  501    0  0.00000000000E+00  0.00000000000E+00 -0.21239857939E+04  0.21239857939E+04  0.50400001928E-02 0. -1.
    10030    2    1    2    0    0  0.00000000000E+00  0.00000000000E+00 -0.12668833485E+04  0.29810882393E+04  0.26984984106E+04 0.  0.
        2    1    3    3  502    0  0.56002512806E+03 -0.11380025016E+04 -0.12503515476E+03  0.12744848480E+04  0.25500000920E-02 0.  1.
       -2    1    3    3    0  502 -0.56002512806E+03  0.11380025016E+04 -0.11418481938E+04  0.17066033914E+04  0.25500000920E-02 0. -1.
</event>
<event>
 5   0  0.2517854E-05  0.2339838E+04  0.7818609E-02  0.8462377E-01
        2   -1    0    0  501    0  0.00000000000E+00  0.00000000000E+00  0.23051666735E+04  0.23051666735E+04  0.25500000920E-02 0. -1.
       -2   -1    0    0    0  501  0.00000000000E+00  0.00000000000E+00 -0.59375752517E+03  0.59375752517E+03  0.25500000920E-02 0.  1.
    10030    2    1    2    0    0  0.00000000000E+00  0.00000000000E+00  0.17114091483E+04  0.28989241986E+04  0.23398376518E+04 0.  0.
        4    1    3    3  502    0  0.10345515821E+04  0.49501924950E+03  0.11419174775E+04  0.16184307745E+04  0.12699999809E+01 0. -1.
       -4    1    3    3    0  502 -0.10345515821E+04 -0.49501924950E+03  0.56949167077E+03  0.12804934242E+04  0.12699999809E+01 0.  1.
</event>
<event>
 5   0  0.1005492E-05  0.2627992E+04  0.7818609E-02  0.8358755E-01
        1   -1    0    0  501    0  0.00000000000E+00  0.00000000000E+00  0.21779602408E+04  0.21779602408E+04  0.50400001928E-02 0.  1.
       -1   -1    0    0    0  501  0.00000000000E+00  0.00000000000E+00 -0.79275337500E+03  0.79275337501E+03  0.50400001928E-02 0. -1.
    10030    2    1    2    0    0  0.00000000000E+00  0.00000000000E+00  0.13852068658E+04  0.29707136158E+04  0.26279918809E+04 0.  0.
        4    1    3    3  502    0 -0.41297479113E+03 -0.63442904831E+03  0.19066971637E+04  0.20514736368E+04  0.12699999809E+01 0.  1.
       -4    1    3    3    0  502  0.41297479113E+03  0.63442904831E+03 -0.52149029786E+03  0.91923997907E+03  0.12699999809E+01 0. -1.
</event>
<event>
 5   0  0.1025153E-05  0.2590908E+04  0.7818609E-02  0.8371296E-01
       -1   -1    0    0    0  501  0.00000000000E+00  0.00000000000E+00  0.15922226828E+04  0.15922226828E+04  0.50400001928E-02 0.  1.
        1   -1    0    0  501    0  0.00000000000E+00  0.00000000000E+00 -0.10539987424E+04  0.10539987424E+04  0.50400001928E-02 0. -1.
    10030    2    1    2    0    0  0.00000000000E+00  0.00000000000E+00  0.53822394047E+03  0.26462214252E+04  0.25909077215E+04 0.  0.
        1    1    3    3  502    0 -0.65100626777E+03 -0.67840419706E+03 -0.64106961870E+03  0.11379857957E+04  0.50400001928E-02 0. -1.
       -1    1    3    3    0  502  0.65100626777E+03  0.67840419706E+03  0.11792935592E+04  0.15082356295E+04  0.50400001928E-02 0.  1.
</event>
<event>
 5   0  0.1034714E-05  0.2584885E+04  0.7818609E-02  0.8373354E-01
       -1   -1    0    0    0  501  0.00000000000E+00  0.00000000000E+00  0.78835491015E+03  0.78835491017E+03  0.50400001928E-02 0.  1.
        1   -1    0    0  501    0  0.00000000000E+00  0.00000000000E+00 -0.21188515180E+04  0.21188515181E+04  0.50400001928E-02 0. -1.
    10030    2    1    2    0    0  0.00000000000E+00  0.00000000000E+00 -0.13304966079E+04  0.29072064282E+04  0.25848845221E+04 0.  0.
        5    1    3    3  502    0 -0.27627356479E+02 -0.96929276133E+03 -0.16262493713E+04  0.18934098436E+04  0.46999998093E+01 0. -1.
       -5    1    3    3    0  502  0.27627356479E+02  0.96929276133E+03  0.29575276343E+03  0.10137965847E+04  0.46999998093E+01 0.  1.
</event>
<event>
 5   0  0.1000421E-05  0.2718065E+04  0.7818609E-02  0.8329167E-01
       -1   -1    0    0    0  501  0.00000000000E+00  0.00000000000E+00  0.12887464516E+04  0.12887464516E+04  0.50400001928E-02 0.  1.
        1   -1    0    0  501    0  0.00000000000E+00  0.00000000000E+00 -0.14331519765E+04  0.14331519765E+04  0.50400001928E-02 0. -1.
    10030    2    1    2    0    0  0.00000000000E+00  0.00000000000E+00 -0.14440552484E+03  0.27218984281E+04  0.27180651386E+04 0.  0.
        3    1    3    3  502    0 -0.26243794804E+02 -0.12916273724E+04 -0.49467391133E+03  0.13833626764E+04  0.10100000352E+00 0. -1.
       -3    1    3    3    0  502  0.26243794804E+02  0.12916273724E+04  0.35026838649E+03  0.13385357517E+04  0.10100000352E+00 0.  1.
</event>
<event>
 5   0  0.2662024E-05  0.2608431E+04  0.7818609E-02  0.8365343E-01
        2   -1    0    0  501    0  0.00000000000E+00  0.00000000000E+00  0.17536386584E+04  0.17536386584E+04  0.25500000920E-02 0. -1.
       -2   -1    0    0    0  501  0.00000000000E+00  0.00000000000E+00 -0.96997030914E+03  0.96997030915E+03  0.25500000920E-02 0.  1.
    10030    2    1    2    0    0  0.00000000000E+00  0.00000000000E+00  0.78366834926E+03  0.27236089676E+04  0.26084305102E+04 0.  0.
        2    1    3    3  502    0  0.12111631927E+04 -0.66254779988E+02  0.89223612778E+03  0.15057859353E+04  0.25500000920E-02 0. -1.
       -2    1    3    3    0  502 -0.12111631927E+04  0.66254779988E+02 -0.10856777853E+03  0.12178230322E+04  0.25500000920E-02 0.  1.
</event>
<event>
 5   0  0.1005492E-05  0.2620662E+04  0.7818609E-02  0.8361216E-01
       -1   -1    0    0    0  501  0.00000000000E+00  0.00000000000E+00  0.29905266817E+04  0.29905266817E+04  0.50400001928E-02 0. -1.
        1   -1    0    0  501    0  0.00000000000E+00  0.00000000000E+00 -0.57413552618E+03  0.57413552620E+03  0.50400001928E-02 0.  1.
    10030    2    1    2    0    0  0.00000000000E+00  0.00000000000E+00  0.24163911555E+04  0.35646622079E+04  0.26206622140E+04 0.  0.
        4    1    3    3  502    0 -0.94974704005E+03 -0.79178542807E+03  0.61838558980E+03  0.13825143597E+04  0.12699999809E+01 0.  1.
       -4    1    3    3    0  502  0.94974704005E+03  0.79178542807E+03  0.17980055657E+04  0.21821478482E+04  0.12699999809E+01 0. -1.
</event>
<event>
 5   0  0.2528460E-05  0.2083429E+04  0.7818609E-02  0.8568578E-01
        2   -1    0    0  501    0  0.00000000000E+00  0.00000000000E+00  0.11521440759E+04  0.11521440759E+04  0.25500000920E-02 0. -1.
       -2   -1    0    0    0  501  0.00000000000E+00  0.00000000000E+00 -0.94186907703E+03  0.94186907704E+03  0.25500000920E-02 0.  1.
    10030    2    1    2    0    0  0.00000000000E+00  0.00000000000E+00  0.21027499890E+03  0.20940131530E+04  0.20834287868E+04 0.  0.
        5    1    3    3  502    0  0.94227882485E+03  0.11933977346E+03 -0.32483887030E+03  0.10038295408E+04  0.46999998093E+01 0.  1.
       -5    1    3    3    0  502 -0.94227882485E+03 -0.11933977346E+03  0.53511386920E+03  0.10901836122E+04  0.46999998093E+01 0. -1.
</event>
<event>
 5   0  0.2517854E-05  0.2692649E+04  0.7818609E-02  0.8337394E-01
       -2   -1    0    0    0  501  0.00000000000E+00  0.00000000000E+00  0.13527063314E+04  0.13527063314E+04  0.25500000920E-02 0. -1.
        2   -1    0    0  501    0  0.00000000000E+00  0.00000000000E+00 -0.13399724212E+04  0.13399724212E+04  0.25500000920E-02 0.  1.
    10030    2    1    2    0    0  0.00000000000E+00  0.00000000000E+00  0.12733910234E+02  0.26926787526E+04  0.26926486426E+04 0.  0.
        4    1    3    3  502    0 -0.96301545465E+03  0.31193507184E+03 -0.88127200929E+03  0.13421416550E+04  0.12699999809E+01 0.  1.
       -4    1    3    3    0  502  0.96301545465E+03 -0.31193507184E+03  0.89400591952E+03  0.13505370976E+04  0.12699999809E+01 0. -1.
</event>
<event>
 5   0  0.1025153E-05  0.2634439E+04  0.7818609E-02  0.8356596E-01
        1   -1    0    0  501    0  0.00000000000E+00  0.00000000000E+00  0.12720929877E+04  0.12720929877E+04  0.50400001928E-02 0.  1.
       -1   -1    0    0    0  501  0.00000000000E+00  0.00000000000E+00 -0.13639463952E+04  0.13639463952E+04  0.50400001928E-02 0. -1.
    10030    2    1    2    0    0  0.00000000000E+00  0.00000000000E+00 -0.91853407520E+02  0.26360393829E+04  0.26344385701E+04 0.  0.
        1    1    3    3  502    0 -0.93735549219E+03 -0.92474384371E+03 -0.10125783659E+02  0.13167722000E+04  0.50400001928E-02 0.  1.
       -1    1    3    3    0  502  0.93735549219E+03  0.92474384371E+03 -0.81727623861E+02  0.13192671828E+04  0.50400001928E-02 0. -1.
</event>
<event>
 5   0  0.2528460E-05  0.2559734E+04  0.7818609E-02  0.8382009E-01
        2   -1    0    0  501    0  0.00000000000E+00  0.00000000000E+00  0.18461027078E+04  0.18461027078E+04  0.25500000920E-02 0.  1.
       -2   -1    0    0    0  501  0.00000000000E+00  0.00000000000E+00 -0.88730699608E+03  0.88730699609E+03  0.25500000920E-02 0. -1.
    10030    2    1    2    0    0  0.00000000000E+00  0.00000000000E+00  0.95879571175E+03  0.27334097039E+04  0.25597342426E+04 0.  0.
        5    1    3    3  502    0  0.54493148285E+03 -0.86152385376E+03 -0.34697108996E+03  0.10768401455E+04  0.46999998093E+01 0. -1.
       -5    1    3    3    0  502 -0.54493148285E+03  0.86152385376E+03  0.13057668017E+04  0.16565695585E+04  0.46999998093E+01 0.  1.
</event>
<event>
 5   0  0.2555801E-05  0.2569629E+04  0.7818609E-02  0.8378591E-01
       -2   -1    0    0    0  501  0.00000000000E+00  0.00000000000E+00  0.10214558139E+04  0.10214558139E+04  0.25500000920E-02 0. -1.
        2   -1    0    0  501    0  0.00000000000E+00  0.00000000000E+00 -0.16160741947E+04  0.16160741947E+04  0.25500000920E-02 0.  1.
    10030    2    1    2    0    0  0.00000000000E+00  0.00000000000E+00 -0.59461838078E+03  0.26375300086E+04  0.25696290642E+04 0.  0.
        1    1    3    3  502    0 -0.81327616994E+01  0.15158405218E+03  0.10122187162E+04  0.10235382729E+04  0.50400001928E-02 0. -1.
       -1    1    3    3    0  502  0.81327616994E+01 -0.15158405218E+03 -0.16068370970E+04  0.16139917357E+04  0.50400001928E-02 0.  1.
</event>
<event>
 5   0  0.2484618E-05  0.2585801E+04  0.7818609E-02  0.8373040E-01
       -2   -1    0    0    0  501  0.00000000000E+00  0.00000000000E+00  0.82337403141E+03  0.82337403142E+03  0.25500000920E-02 0. -1.
        2   -1    0    0  501    0  0.00000000000E+00  0.00000000000E+00 -0.20301726571E+04  0.20301726571E+04  0.25500000920E-02 0.  1.
    10030    2    1    2    0    0  0.00000000000E+00  0.00000000000E+00 -0.12067986257E+04  0.28535466885E+04  0.25858008006E+04 0.  0.
        3    1    3    3  502    0  0.17053272847E+03 -0.58993935202E+03  0.65216179717E+03  0.89578170914E+03  0.10100000352E+00 0. -1.
       -3    1    3    3    0  502 -0.17053272847E+03  0.58993935202E+03 -0.18589604228E+04  0.19577649794E+04  0.10100000352E+00 0.  1.
</event>
<event>
 5   0  0.1025153E-05  0.2607651E+04  0.7818609E-02  0.8365607E-01
       -1   -1    0    0    0  501  0.00000000000E+00  0.00000000000E+00  0.71451470644E+03  0.71451470646E+03  0.50400001928E-02 0.  1.
        1   -1    0    0  501    0  0.00000000000E+00  0.00000000000E+00 -0.23791820327E+04  0.23791820327E+04  0.50400001928E-02 0. -1.
    10030    2    1    2    0    0  0.00000000000E+00  0.00000000000E+00 -0.16646673263E+04  0.30936967392E+04  0.26076507065E+04 0.  0.
        1    1    3    3  502    0  0.12425453132E+03  0.82287393935E+03  0.35844011237E+03  0.90611258836E+03  0.50400001928E-02 0.  1.
       -1    1    3    3    0  502 -0.12425453132E+03 -0.82287393935E+03 -0.20231074386E+04  0.21875841508E+04  0.50400001928E-02 0. -1.
</event>
<event>
 5   0  0.9855352E-06  0.2577316E+04  0.7818609E-02  0.8375948E-01
       -1   -1    0    0    0  501  0.00000000000E+00  0.00000000000E+00  0.11221697812E+04  0.11221697812E+04  0.50400001928E-02 0.  1.
        1   -1    0    0  501    0  0.00000000000E+00  0.00000000000E+00 -0.14798464976E+04  0.14798464976E+04  0.50400001928E-02 0. -1.
    10030    2    1    2    0    0  0.00000000000E+00  0.00000000000E+00 -0.35767671638E+03  0.26020162788E+04  0.25773156736E+04 0.  0.
        2    1    3    3  502    0  0.12242375774E+03 -0.59423244242E+03 -0.13266331879E+04  0.14587855865E+04  0.25500000920E-02 0. -1.
       -2    1    3    3    0  502 -0.12242375774E+03  0.59423244242E+03  0.96895647151E+03  0.11432306923E+04  0.25500000920E-02 0.  1.
</event>
<event>
 5   0  0.2555801E-05  0.2607617E+04  0.7818609E-02  0.8365619E-01
       -2   -1    0    0    0  501  0.00000000000E+00  0.00000000000E+00  0.11662204582E+04  0.11662204582E+04  0.25500000920E-02 0.  1.
        2   -1    0    0  501    0  0.00000000000E+00  0.00000000000E+00 -0.14576284493E+04  0.14576284493E+04  0.25500000920E-02 0. -1.
    10030    2    1    2    0    0  0.00000000000E+00  0.00000000000E+00 -0.29140799110E+03  0.26238489076E+04  0.26076166268E+04 0.  0.
        1    1    3    3  502    0  0.73570848359E+03 -0.89099230734E+03 -0.75343542123E+03  0.13794198775E+04  0.50400001928E-02 0. -1.
       -1    1    3    3    0  502 -0.73570848359E+03  0.89099230734E+03  0.46202743013E+03  0.12444290300E+04  0.50400001928E-02 0.  1.
</event>
<event>
 5   0  0.2484618E-05  0.2579439E+04  0.7818609E-02  0.8375219E-01
       -2   -1    0    0    0  501  0.00000000000E+00  0.00000000000E+00  0.12234848512E+04  0.12234848512E+04  0.25500000920E-02 0. -1.
        2   -1    0    0  501    0  0.00000000000E+00  0.00000000000E+00 -0.13595403213E+04  0.13595403213E+04  0.25500000920E-02 0.  1.
    10030    2    1    2    0    0  0.00000000000E+00  0.00000000000E+00 -0.13605547002E+03  0.25830251725E+04  0.25794394645E+04 0.  0.
        3    1    3    3  502    0  0.59227180258E+02 -0.16211506911E+03 -0.13479233236E+04  0.13589284201E+04  0.10100000352E+00 0.  1.
       -3    1    3    3    0  502 -0.59227180258E+02  0.16211506911E+03  0.12118678536E+04  0.12240967524E+04  0.10100000352E+00 0. -1.
</event>
<event>
 5   0  0.1034714E-05  0.2519667E+04  0.7818609E-02  0.8396012E-01
       -1   -1    0    0    0  501  0.00000000000E+00  0.00000000000E+00  0.70090294837E+03  0.70090294838E+03  0.50400001928E-02 0. -1.
        1   -1    0    0  501    0  0.00000000000E+00  0.00000000000E+00 -0.22644800294E+04  0.22644800295E+04  0.50400001928E-02 0.  1.
    10030    2    1    2    0    0  0.00000000000E+00  0.00000000000E+00 -0.15635770811E+04  0.29653829778E+04  0.25196672234E+04 0.  0.
        5    1    3    3  502    0 -0.11268972041E+04 -0.97450157002E+02 -0.12888792916E+03  0.11384322685E+04  0.46999998093E+01 0. -1.
       -5    1    3    3    0  502  0.11268972041E+04  0.97450157002E+02 -0.14346891519E+04  0.18269507093E+04  0.46999998093E+01 0.  1.
</event>
<event>
 5   0  0.2484618E-05  0.2426449E+04  0.7818609E-02  0.8429667E-01
        2   -1    0    0  501    0  0.00000000000E+00  0.00000000000E+00  0.15923262324E+04  0.15923262324E+04  0.25500000920E-02 0. -1.
       -2   -1    0    0    0  501  0.00000000000E+00  0.00000000000E+00 -0.92437924088E+03  0.92437924088E+03  0.25500000920E-02 0.  1.
    10030    2    1    2    0    0  0.00000000000E+00  0.00000000000E+00  0.66794699148E+03  0.25167054732E+04  0.24264486921E+04 0.  0.
        3    1    3    3  502    0  0.50733769018E+03 -0.10409260771E+04 -0.41421172529E+02  0.11587209990E+04  0.10100000352E+00 0.  1.
       -3    1    3    3    0  502 -0.50733769018E+03  0.10409260771E+04  0.70936816401E+03  0.13579844742E+04  0.10100000352E+00 0. -1.
</event>
<event>
 5   0  0.1005492E-05  0.2621490E+04  0.7818609E-02  0.8360938E-01
       -1   -1    0    0    0  501  0.00000000000E+00  0.00000000000E+00  0.10434630855E+04  0.10434630856E+04  0.50400001928E-02 0. -1.
        1   -1    0    0  501    0  0.00000000000E+00  0.00000000000E+00 -0.16464911969E+04  0.16464911969E+04  0.50400001928E-02 0.  1.
    10030    2    1    2    0    0  0.00000000000E+00  0.00000000000E+00 -0.60302811137E+03  0.26899542825E+04  0.26214902515E+04 0.  0.
        4    1    3    3  502    0 -0.12218561873E+03 -0.10436779830E+03  0.10333168253E+04  0.10457376522E+04  0.12699999809E+01 0. -1.
       -4    1    3    3    0  502  0.12218561873E+03  0.10436779830E+03 -0.16363449367E+04  0.16442166303E+04  0.12699999809E+01 0.  1.
</event>
<event>
 5   0  0.1005492E-05  0.2588142E+04  0.7818609E-02  0.8372240E-01
        1   -1    0    0  501    0  0.00000000000E+00  0.00000000000E+00  0.11887976408E+04  0.11887976409E+04  0.50400001928E-02 0.  1.
       -1   -1    0    0    0  501  0.00000000000E+00  0.00000000000E+00 -0.14086672275E+04  0.14086672275E+04  0.50400001928E-02 0. -1.
    10030    2    1    2    0    0  0.00000000000E+00  0.00000000000E+00 -0.21986958668E+03  0.25974648684E+04  0.25881424048E+04 0.  0.
        4    1    3    3  502    0 -0.10830646573E+04 -0.62316507141E+03  0.22781106001E+03  0.12701430038E+04  0.12699999809E+01 0. -1.
       -4    1    3    3    0  502  0.10830646573E+04  0.62316507141E+03 -0.44768064669E+03  0.13273218646E+04  0.12699999809E+01 0.  1.
</event>
<event>
 5   0  0.2484618E-05  0.2431788E+04  0.7818609E-02  0.8427698E-01
       -2   -1    0    0    0  501  0.00000000000E+00  0.00000000000E+00  0.58268230989E+03  0.58268230990E+03  0.25500000920E-02 0.  1.
        2   -1    0    0  501    0  0.00000000000E+00  0.00000000000E+00 -0.25372289201E+04  0.25372289201E+04  0.25500000920E-02 0. -1.
    10030    2    1    2    0    0  0.00000000000E+00  0.00000000000E+00 -0.19545466102E+04  0.31199112300E+04  0.24317881552E+04 0.  0.
        3    1    3    3  502    0  0.57673472598E+03  0.91366240346E+03 -0.26179869673E+03  0.11117286087E+04  0.10100000352E+00 0.  1.
       -3    1    3    3    0  502 -0.57673472598E+03 -0.91366240346E+03 -0.16927479135E+04  0.20081826213E+04  0.10100000352E+00 0. -1.
</event>
<event>
 5   0  0.1000421E-05  0.2588308E+04  0.7818609E-02  0.8372184E-01
       -1   -1    0    0    0  501  0.00000000000E+00  0.00000000000E+00  0.86154024095E+03  0.86154024096E+03  0.50400001928E-02 0. -1.
        1   -1    0    0  501    0  0.00000000000E+00  0.00000000000E+00 -0.19440006397E+04  0.19440006397E+04  0.50400001928E-02 0.  1.
    10030    2    1    2    0    0  0.00000000000E+00  0.00000000000E+00 -0.10824603988E+04  0.28055408807E+04  0.25883081575E+04 0.  0.
        3    1    3    3  502    0 -0.12660698721E+04  0.20897267078E+03 -0.72335686146E+03  0.14730402769E+04  0.10100000352E+00 0.  1.
       -3    1    3    3    0  502  0.12660698721E+04 -0.20897267078E+03 -0.35910353732E+03  0.13325006038E+04  0.10100000352E+00 0. -1.
</event>
<event>
 5   0  0.1025153E-05  0.2554338E+04  0.7818609E-02  0.8383879E-01
       -1   -1    0    0    0  501  0.00000000000E+00  0.00000000000E+00  0.98825975067E+03  0.98825975069E+03  0.50400001928E-02 0. -1.
        1   -1    0    0  501    0  0.00000000000E+00  0.00000000000E+00 -0.16505384574E+04  0.16505384574E+04  0.50400001928E-02 0.  1.
    10030    2    1    2    0    0  0.00000000000E+00  0.00000000000E+00 -0.66227870669E+03  0.26387982081E+04  0.25543380547E+04 0.  0.
        1    1    3    3  502    0 -0.90979119821E+03  0.85263454710E+03 -0.45491584683E+02  0.12477079705E+04  0.50400001928E-02 0. -1.
       -1    1    3    3    0  502  0.90979119821E+03 -0.85263454710E+03 -0.61678712201E+03  0.13910902376E+04  0.50400001928E-02 0.  1.
</event>
<event>
 5   0  0.1005492E-05  0.2593282E+04  0.7818609E-02  0.8370487E-01
       -1   -1    0    0    0  501  0.00000000000E+00  0.00000000000E+00  0.81866634227E+03  0.81866634229E+03  0.50400001928E-02 0.  1.
        1   -1    0    0  501    0  0.00000000000E+00  0.00000000000E+00 -0.20536796083E+04  0.20536796083E+04  0.50400001928E-02 0. -1.
    10030    2    1    2    0    0  0.00000000000E+00  0.00000000000E+00 -0.12350132660E+04  0.28723459506E+04  0.25932823781E+04 0.  0.
        4    1    3    3  502    0 -0.81744889517E+03  0.98664699386E+03 -0.39714572055E+03  0.13414251090E+04  0.12699999809E+01 0.  1.
       -4    1    3    3    0  502  0.81744889517E+03 -0.98664699386E+03 -0.83786754548E+03  0.15309208416E+04  0.12699999809E+01 0. -1.
</event>
<event>
 5   0  0.2662024E-05  0.2587526E+04  0.7818609E-02  0.8372451E-01
       -2   -1    0    0    0  501  0.00000000000E+00  0.00000000000E+00  0.92440513512E+03  0.92440513512E+03  0.25500000920E-02 0. -1.
        2   -1    0    0  501    0  0.00000000000E+00  0.00000000000E+00 -0.18107026479E+04  0.18107026479E+04  0.25500000920E-02 0.  1.
    10030    2    1    2    0    0  0.00000000000E+00  0.00000000000E+00 -0.88629751281E+03  0.27351077831E+04  0.25875260972E+04 0.  0.
        2    1    3    3  502    0 -0.84286008858E+03 -0.88791446939E+03 -0.93672045285E+00  0.12242573714E+04  0.25500000920E-02 0.  1.
       -2    1    3    3    0  502  0.84286008858E+03  0.88791446939E+03 -0.88536079236E+03  0.15108504117E+04  0.25500000920E-02 0. -1.
</event>
<event>
 5   0  0.2662024E-05  0.2619401E+04  0.7818609E-02  0.8361641E-01
        2   -1    0    0  501    0  0.00000000000E+00  0.00000000000E+00  0.17761420900E+04  0.17761420900E+04  0.25500000920E-02 0. -1.
       -2   -1    0    0    0  501  0.00000000000E+00  0.00000000000E+00 -0.96575317073E+03  0.96575317073E+03  0.25500000920E-02 0.  1.
    10030    2    1    2    0    0  0.00000000000E+00  0.00000000000E+00  0.81038891929E+03  0.27418952608E+04  0.26194005842E+04 0.  0.
        2    1    3    3  502    0 -0.88149781768E+01 -0.12879733508E+04  0.15668589342E+03  0.12974989501E+04  0.25500000920E-02 0. -1.
       -2    1    3    3    0  502  0.88149781768E+01  0.12879733508E+04  0.65370302587E+03  0.14443963107E+04  0.25500000920E-02 0.  1.
</event>
<event>
 5   0  0.2662024E-05  0.2631687E+04  0.7818609E-02  0.8357517E-01
        2   -1    0    0  501    0  0.00000000000E+00  0.00000000000E+00  0.13207490834E+04  0.13207490834E+04  0.25500000920E-02 0.  1.
       -2   -1    0    0    0  501  0.00000000000E+00  0.00000000000E+00 -0.13109562511E+04  0.13109562511E+04  0.25500000920E-02 0. -1.
    10030    2    1    2    0    0  0.00000000000E+00  0.00000000000E+00  0.97928323028E+01  0.26317053345E+04  0.26316871144E+04 0.  0.
        2    1    3    3  502    0 -0.77953147632E+03 -0.31453294328E+03 -0.10074563696E+04  0.13120856038E+04  0.25500000920E-02 0. -1.
       -2    1    3    3    0  502  0.77953147632E+03  0.31453294328E+03  0.10172492019E+04  0.13196197307E+04  0.25500000920E-02 0.  1.
</event>
<event>
 5   0  0.9855352E-06  0.2571441E+04  0.7818609E-02  0.8377967E-01
       -1   -1    0    0    0  501  0.00000000000E+00  0.00000000000E+00  0.11166265460E+04  0.11166265460E+04  0.50400001928E-02 0. -1.
        1   -1    0    0  501    0  0.00000000000E+00  0.00000000000E+00 -0.14804209335E+04  0.14804209335E+04  0.50400001928E-02 0.  1.
    10030    2    1    2    0    0  0.00000000000E+00  0.00000000000E+00 -0.36379438754E+03  0.25970474795E+04  0.25714410852E+04 0.  0.
        2    1    3    3  502    0 -0.29156185670E+03  0.12507784815E+04 -0.24268112368E+03  0.13070383521E+04  0.25500000920E-02 0.  1.
       -2    1    3    3    0  502  0.29156185670E+03 -0.12507784815E+04 -0.12111326386E+03  0.12900091274E+04  0.25500000920E-02 0. -1.
</event>
<event>
 5   0  0.1005492E-05  0.2536325E+04  0.7818609E-02  0.8390158E-01
        1   -1    0    0  501    0  0.00000000000E+00  0.00000000000E+00  0.13447830482E+04  0.13447830482E+04  0.50400001928E-02 0.  1.
       -1   -1    0    0    0  501  0.00000000000E+00  0.00000000000E+00 -0.11959076221E+04  0.11959076222E+04  0.50400001928E-02 0. -1.
    10030    2    1    2    0    0  0.00000000000E+00  0.00000000000E+00  0.14887542602E+03  0.25406906703E+04  0.25363251349E+04 0.  0.
        4    1    3    3  502    0 -0.12075987885E+03  0.97500763759E+03  0.87769810553E+03  0.13174135338E+04  0.12699999809E+01 0.  1.
       -4    1    3    3    0  502  0.12075987885E+03 -0.97500763759E+03 -0.72882267950E+03  0.12232771365E+04  0.12699999809E+01 0. -1.
</event>
<event>
 5   0  0.1000421E-05  0.2578297E+04  0.7818609E-02  0.8375611E-01
       -1   -1    0    0    0  501  0.00000000000E+00  0.00000000000E+00  0.10331553377E+04  0.10331553377E+04  0.50400001928E-02 0. -1.
        1   -1    0    0  501    0  0.00000000000E+00  0.00000000000E+00 -0.16085715687E+04  0.16085715687E+04  0.50400001928E-02 0.  1.
    10030    2    1    2    0    0  0.00000000000E+00  0.00000000000E+00 -0.57541623100E+03  0.26417269063E+04  0.25782973468E+04 0.  0.
        3    1    3    3  502    0 -0.17800964917E+03 -0.12415681254E+04  0.17488009482E+02  0.12543861790E+04  0.10100000352E+00 0. -1.
       -3    1    3    3    0  502  0.17800964917E+03  0.12415681254E+04 -0.59290424048E+03  0.13873407274E+04  0.10100000352E+00 0.  1.
</event>
<event>
 5   0  0.2528460E-05  0.2607801E+04  0.7818609E-02  0.8365556E-01
        2   -1    0    0  501    0  0.00000000000E+00  0.00000000000E+00  0.20745265363E+04  0.20745265363E+04  0.25500000920E-02 0.  1.
       -2   -1    0    0    0  501  0.00000000000E+00  0.00000000000E+00 -0.81953943515E+03  0.81953943516E+03  0.25500000920E-02 0. -1.
    10030    2    1    2    0    0  0.00000000000E+00  0.00000000000E+00  0.12549871011E+04  0.28940659715E+04  0.26078008404E+04 0.  0.
        5    1    3    3  502    0  0.72100246934E+03 -0.84096109671E+03 -0.13581229205E+03  0.11160318972E+04  0.46999998093E+01 0. -1.
       -5    1    3    3    0  502 -0.72100246934E+03  0.84096109671E+03  0.13907993932E+04  0.17780340742E+04  0.46999998093E+01 0.  1.
</event>
<event>
 5   0  0.1005492E-05  0.1883157E+04  0.7818609E-02  0.8663286E-01
        1   -1    0    0  501    0  0.00000000000E+00  0.00000000000E+00  0.79945429264E+03  0.79945429266E+03  0.50400001928E-02 0.  1.
       -1   -1    0    0    0  501  0.00000000000E+00  0.00000000000E+00 -0.11089689927E+04  0.11089689927E+04  0.50400001928E-02 0. -1.
    10030    2    1    2    0    0  0.00000000000E+00  0.00000000000E+00 -0.30951470009E+03  0.19084232854E+04  0.18831569469E+04 0.  0.
        4    1    3    3  502    0 -0.51622956582E+03 -0.10585980919E+03 -0.94552732921E+03  0.10824614575E+04  0.12699999809E+01 0. -1.
       -4    1    3    3    0  502  0.51622956582E+03  0.10585980919E+03  0.63601262912E+03  0.82596182788E+03  0.12699999809E+01 0.  1.
</event>
<event>
 5   0  0.2528460E-05  0.2490406E+04  0.7818609E-02  0.8406411E-01
        2   -1    0    0  501    0  0.00000000000E+00  0.00000000000E+00  0.12988366169E+04  0.12988366169E+04  0.25500000920E-02 0.  1.
       -2   -1    0    0    0  501  0.00000000000E+00  0.00000000000E+00 -0.11937840270E+04  0.11937840270E+04  0.25500000920E-02 0. -1.
    10030    2    1    2    0    0  0.00000000000E+00  0.00000000000E+00  0.10505258990E+03  0.24926206439E+04  0.24904059163E+04 0.  0.
        5    1    3    3  502    0 -0.63745510755E+03 -0.91632377317E+03  0.60484132312E+03  0.12695878810E+04  0.46999998093E+01 0. -1.
       -5    1    3    3    0  502  0.63745510755E+03  0.91632377317E+03 -0.49978873322E+03  0.12230327630E+04  0.46999998093E+01 0.  1.
</event>
<event>
 5   0  0.1005492E-05  0.2574041E+04  0.7818609E-02  0.8377073E-01
       -1   -1    0    0    0  501  0.00000000000E+00  0.00000000000E+00  0.18129722900E+04  0.18129722900E+04  0.50400001928E-02 0. -1.
        1   -1    0    0  501    0  0.00000000000E+00  0.00000000000E+00 -0.91365011316E+03  0.91365011317E+03  0.50400001928E-02 0.  1.
    10030    2    1    2    0    0  0.00000000000E+00  0.00000000000E+00  0.89932217689E+03  0.27266224032E+04  0.25740414433E+04 0.  0.
        4    1    3    3  502    0  0.18882438085E+03  0.12688453600E+04  0.33959039835E+03  0.13270065734E+04  0.12699999809E+01 0. -1.
       -4    1    3    3    0  502 -0.18882438085E+03 -0.12688453600E+04  0.55973177853E+03  0.13996158298E+04  0.12699999809E+01 0.  1.
</event>
<event>
 5   0  0.1034714E-05  0.2123034E+04  0.7818609E-02  0.8551164E-01
       -1   -1    0    0    0  501  0.00000000000E+00  0.00000000000E+00  0.14075305364E+04  0.14075305364E+04  0.50400001928E-02 0.  1.
        1   -1    0    0  501    0  0.00000000000E+00  0.00000000000E+00 -0.80056430963E+03  0.80056430965E+03  0.50400001928E-02 0. -1.
    10030    2    1    2    0    0  0.00000000000E+00  0.00000000000E+00  0.60696622677E+03  0.22080948461E+04  0.21230343494E+04 0.  0.
        5    1    3    3  502    0  0.36061873050E+02 -0.60947364027E+03  0.12066278030E+04  0.13523059276E+04  0.46999998093E+01 0.  1.
       -5    1    3    3    0  502 -0.36061873050E+02  0.60947364027E+03 -0.59966157626E+03  0.85578891843E+03  0.46999998093E+01 0. -1.
</event>
<event>
 5   0  0.1000421E-05  0.2601154E+04  0.7818609E-02  0.8367809E-01
        1   -1    0    0  501    0  0.00000000000E+00  0.00000000000E+00  0.20887842410E+04  0.20887842410E+04  0.50400001928E-02 0.  1.
       -1   -1    0    0    0  501  0.00000000000E+00  0.00000000000E+00 -0.80980121382E+03  0.80980121384E+03  0.50400001928E-02 0. -1.
    10030    2    1    2    0    0  0.00000000000E+00  0.00000000000E+00  0.12789830272E+04  0.28985854549E+04  0.26011536009E+04 0.  0.
        3    1    3    3  502    0 -0.11324647662E+04 -0.63932233374E+03  0.62049818774E+03  0.14409120391E+04  0.10100000352E+00 0. -1.
       -3    1    3    3    0  502  0.11324647662E+04  0.63932233374E+03  0.65848483947E+03  0.14576734158E+04  0.10100000352E+00 0.  1.
</event>
<event>
 5   0  0.1025153E-05  0.2591448E+04  0.7818609E-02  0.8371112E-01
       -1   -1    0    0    0  501  0.00000000000E+00  0.00000000000E+00  0.10152948019E+04  0.10152948019E+04  0.50400001928E-02 0. -1.
        1   -1    0    0  501    0  0.00000000000E+00  0.00000000000E+00 -0.16536088426E+04  0.16536088426E+04  0.50400001928E-02 0.  1.
    10030    2    1    2    0    0  0.00000000000E+00  0.00000000000E+00 -0.63831404068E+03  0.26689036445E+04  0.25914478287E+04 0.  0.
        1    1    3    3  502    0 -0.60370146095E+02 -0.22012238654E+03  0.99442676587E+03  0.10202857503E+04  0.50400001928E-02 0. -1.
       -1    1    3    3    0  502  0.60370146095E+02  0.22012238654E+03 -0.16327408065E+04  0.16486178942E+04  0.50400001928E-02 0.  1.
</event>
<event>
 5   0  0.2517854E-05  0.2591670E+04  0.7818609E-02  0.8371036E-01
        2   -1    0    0  501    0  0.00000000000E+00  0.00000000000E+00  0.90192973905E+03  0.90192973905E+03  0.25500000920E-02 0. -1.
       -2   -1    0    0    0  501  0.00000000000E+00  0.00000000000E+00 -0.18617730860E+04  0.18617730860E+04  0.25500000920E-02 0.  1.
    10030    2    1    2    0    0  0.00000000000E+00  0.00000000000E+00 -0.95984334693E+03  0.27637028250E+04  0.25916701284E+04 0.  0.
        4    1    3    3  502    0  0.30732384369E+03  0.22387848638E+03  0.84110526991E+03  0.92305428309E+03  0.12699999809E+01 0. -1.
       -4    1    3    3    0  502 -0.30732384369E+03 -0.22387848638E+03 -0.18009486168E+04  0.18406485419E+04  0.12699999809E+01 0.  1.
</event>
<event>
 5   0  0.2662024E-05  0.2580063E+04  0.7818609E-02  0.8375005E-01
       -2   -1    0    0    0  501  0.00000000000E+00  0.00000000000E+00  0.91939145300E+03  0.91939145301E+03  0.25500000920E-02 0. -1.
        2   -1    0    0  501    0  0.00000000000E+00  0.00000000000E+00 -0.18100905817E+04  0.18100905817E+04  0.25500000920E-02 0.  1.
    10030    2    1    2    0    0  0.00000000000E+00  0.00000000000E+00 -0.89069912873E+03  0.27294820347E+04  0.25800634178E+04 0.  0.
        2    1    3    3  502    0  0.85382926901E+03 -0.72924064842E+03  0.22654204236E+03  0.11454857663E+04  0.25500000920E-02 0.  1.
       -2    1    3    3    0  502 -0.85382926901E+03  0.72924064842E+03 -0.11172411711E+04  0.15839962684E+04  0.25500000920E-02 0. -1.
</event>
<event>
 5   0  0.1000421E-05  0.2528840E+04  0.7818609E-02  0.8392783E-01
       -1   -1    0    0    0  501  0.00000000000E+00  0.00000000000E+00  0.76134188874E+03  0.76134188875E+03  0.50400001928E-02 0.  1.
        1   -1    0    0  501    0  0.00000000000E+00  0.00000000000E+00 -0.20999208094E+04  0.20999208094E+04  0.50400001928E-02 0. -1.
    10030    2    1    2    0    0  0.00000000000E+00  0.00000000000E+00 -0.13385789206E+04  0.28612626981E+04  0.25288397935E+04 0.  0.
        3    1    3    3  502    0 -0.84830026356E+03  0.87557927708E+03 -0.28977980889E+03  0.12530860926E+04  0.10100000352E+00 0.  1.
       -3    1    3    3    0  502  0.84830026356E+03 -0.87557927708E+03 -0.10487991117E+04  0.16081766055E+04  0.10100000352E+00 0. -1.
</event>
<event>
 5   0  0.2484618E-05  0.2613300E+04  0.7818609E-02  0.8363698E-01
       -2   -1    0    0    0  501  0.00000000000E+00  0.00000000000E+00  0.18140433585E+04  0.18140433585E+04  0.25500000920E-02 0.  1.
        2   -1    0    0  501    0  0.00000000000E+00  0.00000000000E+00 -0.94117590737E+03  0.94117590737E+03  0.25500000920E-02 0. -1.
    10030    2    1    2    0    0  0.00000000000E+00  0.00000000000E+00  0.87286745117E+03  0.27552192659E+04  0.26132997562E+04 0.  0.
        3    1    3    3  502    0  0.11438560287E+04  0.86668772354E+02 -0.22317458180E+03  0.11686423725E+04  0.10100000352E+00 0. -1.
       -3    1    3    3    0  502 -0.11438560287E+04 -0.86668772354E+02  0.10960420330E+04  0.15865768934E+04  0.10100000352E+00 0.  1.
</event>
<event>
 5   0  0.1025153E-05  0.2587743E+04  0.7818609E-02  0.8372377E-01
        1   -1    0    0  501    0  0.00000000000E+00  0.00000000000E+00  0.18906753478E+04  0.18906753478E+04  0.50400001928E-02 0. -1.
       -1   -1    0    0    0  501  0.00000000000E+00  0.00000000000E+00 -0.88545262098E+03  0.88545262099E+03  0.50400001928E-02 0.  1.
    10030    2    1    2    0    0  0.00000000000E+00  0.00000000000E+00  0.10052227268E+04  0.27761279688E+04  0.25877429873E+04 0.  0.
        1    1    3    3  502    0 -0.10780617560E+04  0.45365232199E+03 -0.90914949143E+02  0.11731509310E+04  0.50400001928E-02 0.  1.
       -1    1    3    3    0  502  0.10780617560E+04 -0.45365232199E+03  0.10961376759E+04  0.16029770377E+04  0.50400001928E-02 0. -1.
</event>
<event>
 5   0  0.1005492E-05  0.2657754E+04  0.7818609E-02  0.8348844E-01
       -1   -1    0    0    0  501  0.00000000000E+00  0.00000000000E+00  0.10811580018E+04  0.10811580018E+04  0.50400001928E-02 0.  1.
        1   -1    0    0  501    0  0.00000000000E+00  0.00000000000E+00 -0.16333537623E+04  0.16333537623E+04  0.50400001928E-02 0. -1.
    10030    2    1    2    0    0  0.00000000000E+00  0.00000000000E+00 -0.55219576050E+03  0.27145117641E+04  0.26577535551E+04 0.  0.
        4    1    3    3  502    0  0.27853317483E+03 -0.12989879666E+04 -0.24442909834E+03  0.13508137044E+04  0.12699999809E+01 0.  1.
       -4    1    3    3    0  502 -0.27853317483E+03  0.12989879666E+04 -0.30776666216E+03  0.13636980597E+04  0.12699999809E+01 0. -1.
</event>
<event>
 5   0  0.1034714E-05  0.2584164E+04  0.7818609E-02  0.8373600E-01
       -1   -1    0    0    0  501  0.00000000000E+00  0.00000000000E+00  0.13623142905E+04  0.13623142905E+04  0.50400001928E-02 0.  1.
        1   -1    0    0  501    0  0.00000000000E+00  0.00000000000E+00 -0.12254700681E+04  0.12254700681E+04  0.50400001928E-02 0. -1.
    10030    2    1    2    0    0  0.00000000000E+00  0.00000000000E+00  0.13684422239E+03  0.25877843586E+04  0.25841636066E+04 0.  0.
        5    1    3    3  502    0  0.80897052583E+03 -0.52407797218E+03  0.93007076724E+03  0.13394568879E+04  0.46999998093E+01 0.  1.
       -5    1    3    3    0  502 -0.80897052583E+03  0.52407797218E+03 -0.79322654485E+03  0.12483274707E+04  0.46999998093E+01 0. -1.
</event>
<event>
 5   0  0.2484618E-05  0.2619674E+04  0.7818609E-02  0.8361549E-01
       -2   -1    0    0    0  501  0.00000000000E+00  0.00000000000E+00  0.13369058071E+04  0.13369058071E+04  0.25500000920E-02 0. -1.
        2   -1    0    0  501    0  0.00000000000E+00  0.00000000000E+00 -0.12833164365E+04  0.12833164365E+04  0.25500000920E-02 0.  1.
    10030    2    1    2    0    0  0.00000000000E+00  0.00000000000E+00  0.53589370630E+02  0.26202222436E+04  0.26196741754E+04 0.  0.
        3    1    3    3  502    0 -0.39474658100E+03 -0.12456067070E+04 -0.64395954713E+02  0.13082460705E+04  0.10100000352E+00 0.  1.
       -3    1    3    3    0  502  0.39474658100E+03  0.12456067070E+04  0.11798532534E+03  0.13119761732E+04  0.10100000352E+00 0. -1.
</event>
<event>
 5   0  0.1025153E-05  0.2036315E+04  0.7818609E-02  0.8589828E-01
       -1   -1    0    0    0  501  0.00000000000E+00  0.00000000000E+00  0.12020539175E+04  0.12020539176E+04  0.50400001928E-02 0. -1.
        1   -1    0    0  501    0  0.00000000000E+00  0.00000000000E+00 -0.86239477772E+03  0.86239477773E+03  0.50400001928E-02 0.  1.
    10030    2    1    2    0    0  0.00000000000E+00  0.00000000000E+00  0.33965913983E+03  0.20644486953E+04  0.20363153204E+04 0.  0.
        1    1    3    3  502    0  0.66718741192E+03 -0.28142291447E+01  0.94954427960E+03  0.11605090700E+04  0.50400001928E-02 0. -1.
       -1    1    3    3    0  502 -0.66718741192E+03  0.28142291447E+01 -0.60988513977E+03  0.90393962533E+03  0.50400001928E-02 0.  1.
</event>
<event>
 5   0  0.2555801E-05  0.2636675E+04  0.7818609E-02  0.8355849E-01
        2   -1    0    0  501    0  0.00000000000E+00  0.00000000000E+00  0.56506211412E+03  0.56506211413E+03  0.25500000920E-02 0.  1.
       -2   -1    0    0    0  501  0.00000000000E+00  0.00000000000E+00 -0.30757930610E+04  0.30757930610E+04  0.25500000920E-02 0. -1.
    10030    2    1    2    0    0  0.00000000000E+00  0.00000000000E+00 -0.25107309469E+04  0.36408551751E+04  0.26366752774E+04 0.  0.
        1    1    3    3  502    0  0.21387112734E+03 -0.69321091033E+03  0.26465706772E+03  0.77222120460E+03  0.50400001928E-02 0.  1.
       -1    1    3    3    0  502 -0.21387112734E+03  0.69321091033E+03 -0.27753880146E+04  0.28686339705E+04  0.50400001928E-02 0. -1.
</event>
<event>
 5   0  0.1005492E-05  0.2630685E+04  0.7818609E-02  0.8357852E-01
        1   -1    0    0  501    0  0.00000000000E+00  0.00000000000E+00  0.18823448247E+04  0.18823448247E+04  0.50400001928E-02 0.  1.
       -1   -1    0    0    0  501  0.00000000000E+00  0.00000000000E+00 -0.91913329742E+03  0.91913329743E+03  0.50400001928E-02 0. -1.
    10030    2    1    2    0    0  0.00000000000E+00  0.00000000000E+00  0.96321152728E+03  0.28014781221E+04  0.26306849341E+04 0.  0.
        4    1    3    3  502    0  0.91008698647E+03  0.54835554195E+03  0.13072972281E+04  0.16846304576E+04  0.12699999809E+01 0.  1.
       -4    1    3    3    0  502 -0.91008698647E+03 -0.54835554195E+03 -0.34408570079E+03  0.11168476645E+04  0.12699999809E+01 0. -1.
</event>
<event>
 5   0  0.1034714E-05  0.2628616E+04  0.7818609E-02  0.8358545E-01
        1   -1    0    0  501    0  0.00000000000E+00  0.00000000000E+00  0.11948239158E+04  0.11948239158E+04  0.50400001928E-02 0. -1.
       -1   -1    0    0    0  501  0.00000000000E+00  0.00000000000E+00 -0.14457409629E+04  0.14457409629E+04  0.50400001928E-02 0.  1.
    10030    2    1    2    0    0  0.00000000000E+00  0.00000000000E+00 -0.25091704706E+03  0.26405648787E+04  0.26286162736E+04 0.  0.
        5    1    3    3  502    0  0.75148166123E+03  0.16963264820E+03 -0.11951386772E+04  0.14219277303E+04  0.46999998093E+01 0.  1.
       -5    1    3    3    0  502 -0.75148166123E+03 -0.16963264820E+03  0.94422163016E+03  0.12186371484E+04  0.46999998093E+01 0. -1.
</event>
<event>
 5   0  0.9855352E-06  0.2642339E+04  0.7818609E-02  0.8353960E-01
       -1   -1    0    0    0  501  0.00000000000E+00  0.00000000000E+00  0.10413564458E+04  0.10413564458E+04  0.50400001928E-02 0.  1.
        1   -1    0    0  501    0  0.00000000000E+00  0.00000000000E+00 -0.16761684914E+04  0.16761684914E+04  0.50400001928E-02 0. -1.
    10030    2    1    2    0    0  0.00000000000E+00  0.00000000000E+00 -0.63481204566E+03  0.27175249372E+04  0.26423390114E+04 0.  0.
        2    1    3    3  502    0 -0.18215335234E+03 -0.70899717210E+03  0.81372168313E+03  0.10945317773E+04  0.25500000920E-02 0.  1.
       -2    1    3    3    0  502  0.18215335234E+03  0.70899717210E+03 -0.14485337288E+04  0.16229931600E+04  0.25500000920E-02 0. -1.
</event>
<event>
 5   0  0.1005492E-05  0.2596117E+04  0.7818609E-02  0.8369522E-01
       -1   -1    0    0    0  501  0.00000000000E+00  0.00000000000E+00  0.10154554632E+04  0.10154554632E+04  0.50400001928E-02 0. -1.
        1   -1    0    0  501    0  0.00000000000E+00  0.00000000000E+00 -0.16593098829E+04  0.16593098829E+04  0.50400001928E-02 0.  1.
    10030    2    1    2    0    0  0.00000000000E+00  0.00000000000E+00 -0.64385441971E+03  0.26747653461E+04  0.25961165503E+04 0.  0.
        4    1    3    3  502    0  0.61936141938E+03  0.73746040487E+03 -0.12186372535E+04  0.15532336544E+04  0.12699999809E+01 0.  1.
       -4    1    3    3    0  502 -0.61936141938E+03 -0.73746040487E+03  0.57478283378E+03  0.11215316917E+04  0.12699999809E+01 0. -1.
</event>
<event>
 5   0  0.1034714E-05  0.2587006E+04  0.7818609E-02  0.8372628E-01
        1   -1    0    0  501    0  0.00000000000E+00  0.00000000000E+00  0.91818538934E+03  0.91818538936E+03  0.50400001928E-02 0.  1.
       -1   -1    0    0    0  501  0.00000000000E+00  0.00000000000E+00 -0.18222357027E+04  0.18222357027E+04  0.50400001928E-02 0. -1.
    10030    2    1    2    0    0  0.00000000000E+00  0.00000000000E+00 -0.90405031338E+03  0.27404210921E+04  0.25870061447E+04 0.  0.
        5    1    3    3  502    0 -0.24355893916E+03 -0.59300943154E+02  0.89219982815E+03  0.92675788750E+03  0.46999998093E+01 0.  1.
       -5    1    3    3    0  502  0.24355893916E+03  0.59300943154E+02 -0.17962501415E+04  0.18136632046E+04  0.46999998093E+01 0. -1.
</event>
<event>
 5   0  0.2662024E-05  0.2017873E+04  0.7818609E-02  0.8598310E-01
        2   -1    0    0  501    0  0.00000000000E+00  0.00000000000E+00  0.16148030635E+04  0.16148030635E+04  0.25500000920E-02 0. -1.
       -2   -1    0    0    0  501  0.00000000000E+00  0.00000000000E+00 -0.63038795776E+03  0.63038795776E+03  0.25500000920E-02 0.  1.
    10030    2    1    2    0    0  0.00000000000E+00  0.00000000000E+00  0.98441510572E+03  0.22451910212E+04  0.20178725484E+04 0.  0.
        2    1    3    3  502    0  0.66565636572E+02 -0.94030526182E+03  0.92043127919E+02  0.94714143969E+03  0.25500000920E-02 0.  1.
       -2    1    3    3    0  502 -0.66565636572E+02  0.94030526182E+03  0.89237197780E+03  0.12980495815E+04  0.25500000920E-02 0. -1.
</event>
<event>
 5   0  0.1025153E-05  0.2332647E+04  0.7818609E-02  0.8465159E-01
       -1   -1    0    0    0  501  0.00000000000E+00  0.00000000000E+00  0.15981765832E+04  0.15981765832E+04  0.50400001928E-02 0. -1.
        1   -1    0    0  501    0  0.00000000000E+00  0.00000000000E+00 -0.85116433411E+03  0.85116433413E+03  0.50400001928E-02 0.  1.
    10030    2    1    2    0    0  0.00000000000E+00  0.00000000000E+00  0.74701224909E+03  0.24493409173E+04  0.23326473435E+04 0.  0.
        1    1    3    3  502    0  0.45258805433E+03  0.41818043621E+03  0.14132972697E+04  0.15417911651E+04  0.50400001928E-02 0. -1.
       -1    1    3    3    0  502 -0.45258805433E+03 -0.41818043621E+03 -0.66628502059E+03  0.90754975227E+03  0.50400001928E-02 0.  1.
</event>
<event>
 5   0  0.1025153E-05  0.2597661E+04  0.7818609E-02  0.8368996E-01
        1   -1    0    0  501    0  0.00000000000E+00  0.00000000000E+00  0.14821753231E+04  0.14821753231E+04  0.50400001928E-02 0.  1.
       -1   -1    0    0    0  501  0.00000000000E+00  0.00000000000E+00 -0.11381656480E+04  0.11381656480E+04  0.50400001928E-02 0. -1.
    10030    2    1    2    0    0  0.00000000000E+00  0.00000000000E+00  0.34400967517E+03  0.26203409711E+04  0.25976612843E+04 0.  0.
        1    1    3    3  502    0  0.58964456610E+03 -0.81100188328E+03  0.10047768937E+04  0.14195003963E+04  0.50400001928E-02 0.  1.
       -1    1    3    3    0  502 -0.58964456610E+03  0.81100188328E+03 -0.66076721850E+03  0.12008405748E+04  0.50400001928E-02 0. -1.
</event>
<event>
 5   0  0.1025153E-05  0.2482390E+04  0.7818609E-02  0.8409286E-01
        1   -1    0    0  501    0  0.00000000000E+00  0.00000000000E+00  0.94390784193E+03  0.94390784194E+03  0.50400001928E-02 0.  1.
       -1   -1    0    0    0  501  0.00000000000E+00  0.00000000000E+00 -0.16321136512E+04  0.16321136512E+04  0.50400001928E-02 0. -1.
    10030    2    1    2    0    0  0.00000000000E+00  0.00000000000E+00 -0.68820580929E+03  0.25760214932E+04  0.24823898762E+04 0.  0.
        1    1    3    3  502    0  0.11704645742E+03 -0.76180781112E+03 -0.13536881148E+04  0.15577299273E+04  0.50400001928E-02 0. -1.
       -1    1    3    3    0  502 -0.11704645742E+03  0.76180781112E+03  0.66548230546E+03  0.10182915659E+04  0.50400001928E-02 0.  1.
</event>
<event>
 5   0  0.2517854E-05  0.2157613E+04  0.7818609E-02  0.8536280E-01
        2   -1    0    0  501    0  0.00000000000E+00  0.00000000000E+00  0.16694384191E+04  0.16694384191E+04  0.25500000920E-02 0.  1.
       -2   -1    0    0    0  501  0.00000000000E+00  0.00000000000E+00 -0.69713480567E+03  0.69713480568E+03  0.25500000920E-02 0. -1.
    10030    2    1    2    0    0  0.00000000000E+00  0.00000000000E+00  0.97230361342E+03  0.23665732248E+04  0.21576131515E+04 0.  0.
        4    1    3    3  502    0  0.60668101948E+03  0.82174491942E+03  0.86689458735E+03  0.13397143018E+04  0.12699999809E+01 0.  1.
       -4    1    3    3    0  502 -0.60668101948E+03 -0.82174491942E+03  0.10540902606E+03  0.10268589230E+04  0.12699999809E+01 0. -1.
</event>
<event>
 5   0  0.1000421E-05  0.2598049E+04  0.7818609E-02  0.8368864E-01
        1   -1    0    0  501    0  0.00000000000E+00  0.00000000000E+00  0.12801628737E+04  0.12801628737E+04  0.50400001928E-02 0.  1.
       -1   -1    0    0    0  501  0.00000000000E+00  0.00000000000E+00 -0.13181644293E+04  0.13181644293E+04  0.50400001928E-02 0. -1.
    10030    2    1    2    0    0  0.00000000000E+00  0.00000000000E+00 -0.38001555540E+02  0.25983273030E+04  0.25980493943E+04 0.  0.
        3    1    3    3  502    0  0.52803504710E+03  0.68829580943E+03 -0.98600286656E+03  0.13133064362E+04  0.10100000352E+00 0. -1.
       -3    1    3    3    0  502 -0.52803504710E+03 -0.68829580943E+03  0.94800131102E+03  0.12850208668E+04  0.10100000352E+00 0.  1.
</event>
<event>
 5   0  0.2517854E-05  0.2577386E+04  0.7818609E-02  0.8375923E-01
       -2   -1    0    0    0  501  0.00000000000E+00  0.00000000000E+00  0.19289044023E+04  0.19289044023E+04  0.25500000920E-02 0. -1.
        2   -1    0    0  501    0  0.00000000000E+00  0.00000000000E+00 -0.86097067285E+03  0.86097067286E+03  0.25500000920E-02 0.  1.
    10030    2    1    2    0    0  0.00000000000E+00  0.00000000000E+00  0.10679337295E+04  0.27898750752E+04  0.25773863670E+04 0.  0.
        4    1    3    3  502    0 -0.11879103767E+04  0.19201738635E+03  0.10332148274E+04  0.15860442088E+04  0.12699999809E+01 0.  1.
       -4    1    3    3    0  502  0.11879103767E+04 -0.19201738635E+03  0.34718902094E+02  0.12038308664E+04  0.12699999809E+01 0. -1.
</event>
<event>
 5   0  0.2484618E-05  0.2614817E+04  0.7818609E-02  0.8363186E-01
        2   -1    0    0  501    0  0.00000000000E+00  0.00000000000E+00  0.20826888556E+04  0.20826888556E+04  0.25500000920E-02 0.  1.
       -2   -1    0    0    0  501  0.00000000000E+00  0.00000000000E+00 -0.82072598430E+03  0.82072598430E+03  0.25500000920E-02 0. -1.
    10030    2    1    2    0    0  0.00000000000E+00  0.00000000000E+00  0.12619628713E+04  0.29034148399E+04  0.26148169045E+04 0.  0.
        3    1    3    3  502    0 -0.83708378917E+03  0.35329840721E+03  0.16748403716E+04  0.19054184095E+04  0.10100000352E+00 0.  1.
       -3    1    3    3    0  502  0.83708378917E+03 -0.35329840721E+03 -0.41287750032E+03  0.99799643041E+03  0.10100000352E+00 0. -1.
</event>
<event>
 5   0  0.2555801E-05  0.2947805E+04  0.7818609E-02  0.8258794E-01
        2   -1    0    0  501    0  0.00000000000E+00  0.00000000000E+00  0.23813263437E+04  0.23813263437E+04  0.25500000920E-02 0. -1.
       -2   -1    0    0    0  501  0.00000000000E+00  0.00000000000E+00 -0.91226000272E+03  0.91226000273E+03  0.25500000920E-02 0.  1.
    10030    2    1    2    0    0  0.00000000000E+00  0.00000000000E+00  0.14690663410E+04  0.32935863464E+04  0.29478051339E+04 0.  0.
        1    1    3    3  502    0  0.84516959163E+03 -0.10973118461E+04  0.17144897951E+03  0.13956359406E+04  0.50400001928E-02 0.  1.
       -1    1    3    3    0  502 -0.84516959163E+03  0.10973118461E+04  0.12976173615E+04  0.18979504058E+04  0.50400001928E-02 0. -1.
</event>
<event>
 5   0  0.2517854E-05  0.2638823E+04  0.7818609E-02  0.8355132E-01
       -2   -1    0    0    0  501  0.00000000000E+00  0.00000000000E+00  0.67982947376E+03  0.67982947377E+03  0.25500000920E-02 0. -1.
        2   -1    0    0  501    0  0.00000000000E+00  0.00000000000E+00 -0.25607109326E+04  0.25607109326E+04  0.25500000920E-02 0.  1.
    10030    2    1    2    0    0  0.00000000000E+00  0.00000000000E+00 -0.18808814588E+04  0.32405404063E+04  0.26388230450E+04 0.  0.
        4    1    3    3  502    0 -0.91862792302E+02  0.45329531006E+02 -0.25558194368E+04  0.25578718000E+04  0.12699999809E+01 0.  1.
       -4    1    3    3    0  502  0.91862792302E+02 -0.45329531006E+02  0.67493797799E+03  0.68266860630E+03  0.12699999809E+01 0. -1.
</event>
<event>
 5   0  0.1000421E-05  0.1992979E+04  0.7818609E-02  0.8609910E-01
        1   -1    0    0  501    0  0.00000000000E+00  0.00000000000E+00  0.15932702484E+04  0.15932702484E+04  0.50400001928E-02 0. -1.
       -1   -1    0    0    0  501  0.00000000000E+00  0.00000000000E+00 -0.62324110182E+03  0.62324110184E+03  0.50400001928E-02 0.  1.
    10030    2    1    2    0    0  0.00000000000E+00  0.00000000000E+00  0.97002914660E+03  0.22165113503E+04  0.19929791822E+04 0.  0.
        3    1    3    3  502    0  0.68964380247E+02 -0.12628124942E+03 -0.61162714145E+03  0.62832380988E+03  0.10100000352E+00 0.  1.
       -3    1    3    3    0  502 -0.68964380247E+02  0.12628124942E+03  0.15816562880E+04  0.15881875404E+04  0.10100000352E+00 0. -1.
</event>
<event>
 5   0  0.2484618E-05  0.2578765E+04  0.7818609E-02  0.8375450E-01
        2   -1    0    0  501    0  0.00000000000E+00  0.00000000000E+00  0.23599801518E+04  0.23599801519E+04  0.25500000920E-02 0.  1.
       -2   -1    0    0    0  501  0.00000000000E+00  0.00000000000E+00 -0.70445829049E+03  0.70445829049E+03  0.25500000920E-02 0. -1.
    10030    2    1    2    0    0  0.00000000000E+00  0.00000000000E+00  0.16555218614E+04  0.30644384423E+04  0.25787652730E+04 0.  0.
        3    1    3    3  502    0 -0.12746377828E+04  0.19413487839E+03  0.81486627092E+03  0.15252530538E+04  0.10100000352E+00 0.  1.
       -3    1    3    3    0  502  0.12746377828E+04 -0.19413487839E+03  0.84065559044E+03  0.15391853886E+04  0.10100000352E+00 0. -1.
</event>
<event>
 5   0  0.1000421E-05  0.2604690E+04  0.7818609E-02  0.8366610E-01
       -1   -1    0    0    0  501  0.00000000000E+00  0.00000000000E+00  0.96233612710E+03  0.96233612712E+03  0.50400001928E-02 0. -1.
        1   -1    0    0  501    0  0.00000000000E+00  0.00000000000E+00 -0.17624842290E+04  0.17624842290E+04  0.50400001928E-02 0.  1.
    10030    2    1    2    0    0  0.00000000000E+00  0.00000000000E+00 -0.80014810192E+03  0.27248203561E+04  0.26046898065E+04 0.  0.
        3    1    3    3  502    0 -0.61060389268E+03 -0.39261411903E+03  0.73105270471E+03  0.10302528949E+04  0.10100000352E+00 0. -1.
       -3    1    3    3    0  502  0.61060389268E+03  0.39261411903E+03 -0.15312008066E+04  0.16945674612E+04  0.10100000352E+00 0.  1.
</event>
<event>
 5   0  0.2517854E-05  0.2599258E+04  0.7818609E-02  0.8368453E-01
       -2   -1    0    0    0  501  0.00000000000E+00  0.00000000000E+00  0.10276857948E+04  0.10276857948E+04  0.25500000920E-02 0.  1.
        2   -1    0    0  501    0  0.00000000000E+00  0.00000000000E+00 -0.16435333189E+04  0.16435333189E+04  0.25500000920E-02 0. -1.
    10030    2    1    2    0    0  0.00000000000E+00  0.00000000000E+00 -0.61584752412E+03  0.26712191138E+04  0.25992582367E+04 0.  0.
        4    1    3    3  502    0  0.89208284155E+03 -0.34031052805E+03 -0.12140432605E+04  0.15445147144E+04  0.12699999809E+01 0. -1.
       -4    1    3    3    0  502 -0.89208284155E+03  0.34031052805E+03  0.59819573638E+03  0.11267043994E+04  0.12699999809E+01 0.  1.
</event>
<event>
 5   0  0.2662024E-05  0.2708712E+04  0.7818609E-02  0.8332184E-01
        2   -1    0    0  501    0  0.00000000000E+00  0.00000000000E+00  0.15019923901E+04  0.15019923901E+04  0.25500000920E-02 0. -1.
       -2   -1    0    0    0  501  0.00000000000E+00  0.00000000000E+00 -0.12212309437E+04  0.12212309437E+04  0.25500000920E-02 0.  1.
    10030    2    1    2    0    0  0.00000000000E+00  0.00000000000E+00  0.28076144638E+03  0.27232233338E+04  0.27087115638E+04 0.  0.
        2    1    3    3  502    0 -0.92742548201E+03 -0.97423449235E+03  0.29943295190E+03  0.13780097835E+04  0.25500000920E-02 0.  1.
       -2    1    3    3    0  502  0.92742548201E+03  0.97423449235E+03 -0.18671505524E+02  0.13452135503E+04  0.25500000920E-02 0. -1.
</event>
<event>
 5   0  0.2555801E-05  0.2608791E+04  0.7818609E-02  0.8365221E-01
       -2   -1    0    0    0  501  0.00000000000E+00  0.00000000000E+00  0.10673704420E+04  0.10673704420E+04  0.25500000920E-02 0.  1.
        2   -1    0    0  501    0  0.00000000000E+00  0.00000000000E+00 -0.15940552928E+04  0.15940552928E+04  0.25500000920E-02 0. -1.
    10030    2    1    2    0    0  0.00000000000E+00  0.00000000000E+00 -0.52668485078E+03  0.26614257348E+04  0.26087909096E+04 0.  0.
        1    1    3    3  502    0 -0.48079025996E+03 -0.11284871140E+04 -0.71592018873E+03  0.14202760848E+04  0.50400001928E-02 0. -1.
       -1    1    3    3    0  502  0.48079025996E+03  0.11284871140E+04  0.18923533795E+03  0.12411496500E+04  0.50400001928E-02 0.  1.
</event>
<event>
 5   0  0.2484618E-05  0.2518524E+04  0.7818609E-02  0.8396416E-01
        2   -1    0    0  501    0  0.00000000000E+00  0.00000000000E+00  0.19952919653E+04  0.19952919653E+04  0.25500000920E-02 0.  1.
       -2   -1    0    0    0  501  0.00000000000E+00  0.00000000000E+00 -0.79474128783E+03  0.79474128783E+03  0.25500000920E-02 0. -1.
    10030    2    1    2    0    0  0.00000000000E+00  0.00000000000E+00  0.12005506775E+04  0.27900332532E+04  0.25185240965E+04 0.  0.
        3    1    3    3  502    0  0.65911672363E+03  0.58517023249E+03 -0.39606063576E+03  0.96629348220E+03  0.10100000352E+00 0. -1.
       -3    1    3    3    0  502 -0.65911672363E+03 -0.58517023249E+03  0.15966113133E+04  0.18237397710E+04  0.10100000352E+00 0.  1.
</event>
<event>
 5   0  0.2662024E-05  0.2609341E+04  0.7818609E-02  0.8365035E-01
        2   -1    0    0  501    0  0.00000000000E+00  0.00000000000E+00  0.32015333382E+04  0.32015333382E+04  0.25500000920E-02 0.  1.
       -2   -1    0    0    0  501  0.00000000000E+00  0.00000000000E+00 -0.53167167038E+03  0.53167167038E+03  0.25500000920E-02 0. -1.
    10030    2    1    2    0    0  0.00000000000E+00  0.00000000000E+00  0.26698616678E+04  0.37332050086E+04  0.26093405893E+04 0.  0.
        2    1    3    3  502    0  0.42452195353E+03  0.64132141366E+03  0.28427184625E+04  0.29449211028E+04  0.25500000920E-02 0.  1.
       -2    1    3    3    0  502 -0.42452195353E+03 -0.64132141366E+03 -0.17285679468E+03  0.78828390578E+03  0.25500000920E-02 0. -1.
</event>
<event>
 5   0  0.9855352E-06  0.2595001E+04  0.7818609E-02  0.8369901E-01
       -1   -1    0    0    0  501  0.00000000000E+00  0.00000000000E+00  0.16102609323E+04  0.16102609323E+04  0.50400001928E-02 0. -1.
        1   -1    0    0  501    0  0.00000000000E+00  0.00000000000E+00 -0.10454872518E+04  0.10454872518E+04  0.50400001928E-02 0.  1.
    10030    2    1    2    0    0  0.00000000000E+00  0.00000000000E+00  0.56477368049E+03  0.26557481842E+04  0.25950007914E+04 0.  0.
        2    1    3    3  502    0  0.69037725308E+02  0.10475856781E+04 -0.49789508348E+03  0.11619386708E+04  0.25500000920E-02 0.  1.
       -2    1    3    3    0  502 -0.69037725308E+02 -0.10475856781E+04  0.10626687640E+04  0.14938095134E+04  0.25500000920E-02 0. -1.
</event>
<event>
 5   0  0.9855352E-06  0.2606047E+04  0.7818609E-02  0.8366150E-01
       -1   -1    0    0    0  501  0.00000000000E+00  0.00000000000E+00  0.21071693206E+04  0.21071693207E+04  0.50400001928E-02 0. -1.
        1   -1    0    0  501    0  0.00000000000E+00  0.00000000000E+00 -0.80575893066E+03  0.80575893068E+03  0.50400001928E-02 0.  1.
    10030    2    1    2    0    0  0.00000000000E+00  0.00000000000E+00  0.13014103900E+04  0.29129282513E+04  0.26060471972E+04 0.  0.
        2    1    3    3  502    0  0.97407750056E+03  0.35018786043E+03 -0.23395714462E+03  0.10612230963E+04  0.25500000920E-02 0.  1.
       -2    1    3    3    0  502 -0.97407750056E+03 -0.35018786043E+03  0.15353675346E+04  0.18517051550E+04  0.25500000920E-02 0. -1.
</event>
<event>
 5   0  0.1005492E-05  0.2591925E+04  0.7818609E-02  0.8370949E-01
        1   -1    0    0  501    0  0.00000000000E+00  0.00000000000E+00  0.19524675284E+04  0.19524675284E+04  0.50400001928E-02 0. -1.
       -1   -1    0    0    0  501  0.00000000000E+00  0.00000000000E+00 -0.86020322450E+03  0.86020322451E+03  0.50400001928E-02 0.  1.
    10030    2    1    2    0    0  0.00000000000E+00  0.00000000000E+00  0.10922643039E+04  0.28126707530E+04  0.25919250481E+04 0.  0.
        4    1    3    3  502    0  0.10287542325E+04 -0.77296533327E+03  0.71321460884E+03  0.14712196873E+04  0.12699999809E+01 0.  1.
       -4    1    3    3    0  502 -0.10287542325E+04  0.77296533327E+03  0.37904969511E+03  0.13414510656E+04  0.12699999809E+01 0. -1.
</event>
<event>
 5   0  0.1034714E-05  0.2601045E+04  0.7818609E-02  0.8367846E-01
       -1   -1    0    0    0  501  0.00000000000E+00  0.00000000000E+00  0.11332712644E+04  0.11332712645E+04  0.50400001928E-02 0. -1.
        1   -1    0    0  501    0  0.00000000000E+00  0.00000000000E+00 -0.14924569964E+04  0.14924569965E+04  0.50400001928E-02 0.  1.
    10030    2    1    2    0    0  0.00000000000E+00  0.00000000000E+00 -0.35918573200E+03  0.26257282609E+04  0.26010448881E+04 0.  0.
        5    1    3    3  502    0 -0.28603015482E+02  0.83702967226E+03  0.82478592848E+03  0.11754704261E+04  0.46999998093E+01 0. -1.
       -5    1    3    3    0  502  0.28603015482E+02 -0.83702967226E+03 -0.11839716605E+04  0.14502578348E+04  0.46999998093E+01 0.  1.
</event>
<event>
 5   0  0.1034714E-05  0.2543185E+04  0.7818609E-02  0.8387760E-01
        1   -1    0    0  501    0  0.00000000000E+00  0.00000000000E+00  0.11908673843E+04  0.11908673843E+04  0.50400001928E-02 0. -1.
       -1   -1    0    0    0  501  0.00000000000E+00  0.00000000000E+00 -0.13577900826E+04  0.13577900826E+04  0.50400001928E-02 0.  1.
    10030    2    1    2    0    0  0.00000000000E+00  0.00000000000E+00 -0.16692269827E+03  0.25486574669E+04  0.25431853445E+04 0.  0.
        5    1    3    3  502    0 -0.11946966629E+03  0.12498482072E+04  0.11829817297E+03  0.12611146220E+04  0.46999998093E+01 0. -1.
       -5    1    3    3    0  502  0.11946966629E+03 -0.12498482072E+04 -0.28522087124E+03  0.12875428449E+04  0.46999998093E+01 0.  1.
</event>
<event>
 5   0  0.2484618E-05  0.2675606E+04  0.7818609E-02  0.8342964E-01
       -2   -1    0    0    0  501  0.00000000000E+00  0.00000000000E+00  0.10092949065E+04  0.10092949065E+04  0.25500000920E-02 0.  1.
        2   -1    0    0  501    0  0.00000000000E+00  0.00000000000E+00 -0.17732343662E+04  0.17732343662E+04  0.25500000920E-02 0. -1.
    10030    2    1    2    0    0  0.00000000000E+00  0.00000000000E+00 -0.76393945975E+03  0.27825292727E+04  0.26756056614E+04 0.  0.
        3    1    3    3  502    0 -0.22387091333E+03  0.10210706649E+04  0.48626678822E+03  0.11528915335E+04  0.10100000352E+00 0.  1.
       -3    1    3    3    0  502  0.22387091333E+03 -0.10210706649E+04 -0.12502062480E+04  0.16296377392E+04  0.10100000352E+00 0. -1.
</event>
<event>
 5   0  0.2484618E-05  0.2557327E+04  0.7818609E-02  0.8382842E-01
        2   -1    0    0  501    0  0.00000000000E+00  0.00000000000E+00  0.20260055877E+04  0.20260055877E+04  0.25500000920E-02 0.  1.
       -2   -1    0    0    0  501  0.00000000000E+00  0.00000000000E+00 -0.80699688961E+03  0.80699688961E+03  0.25500000920E-02 0. -1.
    10030    2    1    2    0    0  0.00000000000E+00  0.00000000000E+00  0.12190086981E+04  0.28330024773E+04  0.25573268916E+04 0.  0.
        3    1    3    3  502    0 -0.77264001209E+03 -0.10059280889E+04  0.43047821133E+03  0.13394683307E+04  0.10100000352E+00 0. -1.
       -3    1    3    3    0  502  0.77264001209E+03  0.10059280889E+04  0.78853048676E+03  0.14935341466E+04  0.10100000352E+00 0.  1.
</event>
<event>
 5   0  0.1034714E-05  0.2571708E+04  0.7818609E-02  0.8377875E-01
        1   -1    0    0  501    0  0.00000000000E+00  0.00000000000E+00  0.77010126767E+03  0.77010126769E+03  0.50400001928E-02 0.  1.
       -1   -1    0    0    0  501  0.00000000000E+00  0.00000000000E+00 -0.21470168068E+04  0.21470168068E+04  0.50400001928E-02 0. -1.
    10030    2    1    2    0    0  0.00000000000E+00  0.00000000000E+00 -0.13769155391E+04  0.29171180745E+04  0.25717078875E+04 0.  0.
        5    1    3    3  502    0  0.59853181880E+03  0.29881175286E+03  0.55715347979E+03  0.87061523753E+03  0.46999998093E+01 0.  1.
       -5    1    3    3    0  502 -0.59853181880E+03 -0.29881175286E+03 -0.19340690189E+04  0.20465028369E+04  0.46999998093E+01 0. -1.
</event>
<event>
 5   0  0.2555801E-05  0.2600868E+04  0.7818609E-02  0.8367906E-01
       -2   -1    0    0    0  501  0.00000000000E+00  0.00000000000E+00  0.71106173705E+03  0.71106173706E+03  0.25500000920E-02 0.  1.
        2   -1    0    0  501    0  0.00000000000E+00  0.00000000000E+00 -0.23783155637E+04  0.23783155637E+04  0.25500000920E-02 0. -1.
    10030    2    1    2    0    0  0.00000000000E+00  0.00000000000E+00 -0.16672538267E+04  0.30893773008E+04  0.26008684673E+04 0.  0.
        1    1    3    3  502    0  0.88582115987E+03 -0.88507457733E+03 -0.12503709060E+04  0.17695941730E+04  0.50400001928E-02 0. -1.
       -1    1    3    3    0  502 -0.88582115987E+03  0.88507457733E+03 -0.41688292071E+03  0.13197831278E+04  0.50400001928E-02 0.  1.
</event>
<event>
 5   0  0.9855352E-06  0.2601533E+04  0.7818609E-02  0.8367681E-01
       -1   -1    0    0    0  501  0.00000000000E+00  0.00000000000E+00  0.23634479821E+04  0.23634479821E+04  0.50400001928E-02 0.  1.
        1   -1    0    0  501    0  0.00000000000E+00  0.00000000000E+00 -0.71590048743E+03  0.71590048744E+03  0.50400001928E-02 0. -1.
    10030    2    1    2    0    0  0.00000000000E+00  0.00000000000E+00  0.16475474947E+04  0.30793484696E+04  0.26015330576E+04 0.  0.
        2    1    3    3  502    0  0.97329202699E+03  0.38337878424E+03 -0.91344587891E+02  0.10500573774E+04  0.25500000920E-02 0. -1.
       -2    1    3    3    0  502 -0.97329202699E+03 -0.38337878424E+03  0.17388920826E+04  0.20292910922E+04  0.25500000920E-02 0.  1.
</event>
<event>
 5   0  0.2484618E-05  0.2605981E+04  0.7818609E-02  0.8366172E-01
       -2   -1    0    0    0  501  0.00000000000E+00  0.00000000000E+00  0.10869881821E+04  0.10869881821E+04  0.25500000920E-02 0. -1.
        2   -1    0    0  501    0  0.00000000000E+00  0.00000000000E+00 -0.15619159905E+04  0.15619159905E+04  0.25500000920E-02 0.  1.
    10030    2    1    2    0    0  0.00000000000E+00  0.00000000000E+00 -0.47492780840E+03  0.26489041726E+04  0.26059809847E+04 0.  0.
        3    1    3    3  502    0 -0.73641381466E+02 -0.12199099051E+04 -0.69677046665E+03  0.14068021620E+04  0.10100000352E+00 0. -1.
       -3    1    3    3    0  502  0.73641381466E+02  0.12199099051E+04  0.22184265825E+03  0.12421020106E+04  0.10100000352E+00 0.  1.
</event>
<event>
 5   0  0.2517854E-05  0.2595490E+04  0.7818609E-02  0.8369735E-01
        2   -1    0    0  501    0  0.00000000000E+00  0.00000000000E+00  0.13873306408E+04  0.13873306408E+04  0.25500000920E-02 0.  1.
       -2   -1    0    0    0  501  0.00000000000E+00  0.00000000000E+00 -0.12139440678E+04  0.12139440678E+04  0.25500000920E-02 0. -1.
    10030    2    1    2    0    0  0.00000000000E+00  0.00000000000E+00  0.17338657296E+03  0.26012747086E+04  0.25954897815E+04 0.  0.
        4    1    3    3  502    0 -0.74066420348E+03 -0.13856566103E+03 -0.97223928216E+03  0.12300547709E+04  0.12699999809E+01 0. -1.
       -4    1    3    3    0  502  0.74066420348E+03  0.13856566103E+03  0.11456258551E+04  0.13712199377E+04  0.12699999809E+01 0.  1.
</event>
<event>
 5   0  0.2528460E-05  0.2601181E+04  0.7818609E-02  0.8367800E-01
        2   -1    0    0  501    0  0.00000000000E+00  0.00000000000E+00  0.21267800207E+04  0.21267800207E+04  0.25500000920E-02 0.  1.
       -2   -1    0    0    0  501  0.00000000000E+00  0.00000000000E+00 -0.79535057562E+03  0.79535057563E+03  0.25500000920E-02 0. -1.
    10030    2    1    2    0    0  0.00000000000E+00  0.00000000000E+00  0.13314294451E+04  0.29221305964E+04  0.26011810500E+04 0.  0.
        5    1    3    3  502    0  0.76631495274E+03 -0.31740577273E+03 -0.45965160298E+03  0.94830729064E+03  0.46999998093E+01 0. -1.
       -5    1    3    3    0  502 -0.76631495274E+03  0.31740577273E+03  0.17910810481E+04  0.19738233057E+04  0.46999998093E+01 0.  1.
</event>
<event>
 5   0  0.1025153E-05  0.2565157E+04  0.7818609E-02  0.8380134E-01
        1   -1    0    0  501    0  0.00000000000E+00  0.00000000000E+00  0.13708387870E+04  0.13708387870E+04  0.50400001928E-02 0.  1.
       -1   -1    0    0    0  501  0.00000000000E+00  0.00000000000E+00 -0.12000010109E+04  0.12000010109E+04  0.50400001928E-02 0. -1.
    10030    2    1    2    0    0  0.00000000000E+00  0.00000000000E+00  0.17083777611E+03  0.25708397980E+04  0.25651572508E+04 0.  0.
        1    1    3    3  502    0  0.54933837806E+03  0.34666481981E+03  0.11937886919E+04  0.13590734314E+04  0.50400001928E-02 0.  1.
       -1    1    3    3    0  502 -0.54933837806E+03 -0.34666481981E+03 -0.10229509158E+04  0.12117663666E+04  0.50400001928E-02 0. -1.
</event>
<event>
 5   0  0.1000421E-05  0.2592100E+04  0.7818609E-02  0.8370890E-01
        1   -1    0    0  501    0  0.00000000000E+00  0.00000000000E+00  0.11009394189E+04  0.11009394189E+04  0.50400001928E-02 0. -1.
       -1   -1    0    0    0  501  0.00000000000E+00  0.00000000000E+00 -0.15257381538E+04  0.15257381538E+04  0.50400001928E-02 0.  1.
    10030    2    1    2    0    0  0.00000000000E+00  0.00000000000E+00 -0.42479873491E+03  0.26266775728E+04  0.25920997485E+04 0.  0.
        3    1    3    3  502    0  0.75621453412E+03 -0.38846552092E+03 -0.12037021997E+04  0.14736569744E+04  0.10100000352E+00 0.  1.
       -3    1    3    3    0  502 -0.75621453412E+03  0.38846552092E+03  0.77890346477E+03  0.11530205983E+04  0.10100000352E+00 0. -1.
</event>
<event>
 5   0  0.1005492E-05  0.2395605E+04  0.7818609E-02  0.8441151E-01
       -1   -1    0    0    0  501  0.00000000000E+00  0.00000000000E+00  0.92180601366E+03  0.92180601368E+03  0.50400001928E-02 0.  1.
        1   -1    0    0  501    0  0.00000000000E+00  0.00000000000E+00 -0.15564352548E+04  0.15564352548E+04  0.50400001928E-02 0. -1.
    10030    2    1    2    0    0  0.00000000000E+00  0.00000000000E+00 -0.63462924110E+03  0.24782412684E+04  0.23956054581E+04 0.  0.
        4    1    3    3  502    0  0.15080595373E+03  0.91015340445E+03 -0.11076091029E+04  0.14414996334E+04  0.12699999809E+01 0.  1.
       -4    1    3    3    0  502 -0.15080595373E+03 -0.91015340445E+03  0.47297986180E+03  0.10367416351E+04  0.12699999809E+01 0. -1.
</event>
<event>
 5   0  0.1034714E-05  0.2625056E+04  0.7818609E-02  0.8359740E-01
       -1   -1    0    0    0  501  0.00000000000E+00  0.00000000000E+00  0.91644224869E+03  0.91644224870E+03  0.50400001928E-02 0.  1.
        1   -1    0    0  501    0  0.00000000000E+00  0.00000000000E+00 -0.18798021901E+04  0.18798021901E+04  0.50400001928E-02 0. -1.
    10030    2    1    2    0    0  0.00000000000E+00  0.00000000000E+00 -0.96335994141E+03  0.27962444388E+04  0.26250563013E+04 0.  0.
        5    1    3    3  502    0 -0.12847111659E+04  0.15726921165E+03 -0.24954250493E+03  0.13181464017E+04  0.46999998093E+01 0.  1.
       -5    1    3    3    0  502  0.12847111659E+04 -0.15726921165E+03 -0.71381743648E+03  0.14780980371E+04  0.46999998093E+01 0. -1.
</event>
<event>
 5   0  0.2484618E-05  0.2668195E+04  0.7818609E-02  0.8345399E-01
        2   -1    0    0  501    0  0.00000000000E+00  0.00000000000E+00  0.28599369609E+04  0.28599369609E+04  0.25500000920E-02 0.  1.
       -2   -1    0    0    0  501  0.00000000000E+00  0.00000000000E+00 -0.62232685364E+03  0.62232685364E+03  0.25500000920E-02 0. -1.
    10030    2    1    2    0    0  0.00000000000E+00  0.00000000000E+00  0.22376101072E+04  0.34822638145E+04  0.26681945735E+04 0.  0.
        3    1    3    3  502    0 -0.21793115176E+03  0.82467729224E+03 -0.21994436085E+03  0.88088714108E+03  0.10100000352E+00 0. -1.
       -3    1    3    3    0  502  0.21793115176E+03 -0.82467729224E+03  0.24575544681E+04  0.26013766734E+04  0.10100000352E+00 0.  1.
</event>
<event>
 5   0  0.9855352E-06  0.2604612E+04  0.7818609E-02  0.8366636E-01
       -1   -1    0    0    0  501  0.00000000000E+00  0.00000000000E+00  0.11328626798E+04  0.11328626798E+04  0.50400001928E-02 0. -1.
        1   -1    0    0  501    0  0.00000000000E+00  0.00000000000E+00 -0.14970934999E+04  0.14970934999E+04  0.50400001928E-02 0.  1.
    10030    2    1    2    0    0  0.00000000000E+00  0.00000000000E+00 -0.36423082008E+03  0.26299561797E+04  0.26046123352E+04 0.  0.
        2    1    3    3  502    0 -0.61035295478E+03  0.62945004713E+03  0.79019950169E+03  0.11803191703E+04  0.25500000920E-02 0. -1.
       -2    1    3    3    0  502  0.61035295478E+03 -0.62945004713E+03 -0.11544303218E+04  0.14496370094E+04  0.25500000920E-02 0.  1.
</event>
<event>
 5   0  0.1005492E-05  0.2544824E+04  0.7818609E-02  0.8387188E-01
       -1   -1    0    0    0  501  0.00000000000E+00  0.00000000000E+00  0.77308198780E+03  0.77308198782E+03  0.50400001928E-02 0.  1.
        1   -1    0    0  501    0  0.00000000000E+00  0.00000000000E+00 -0.20942570790E+04  0.20942570790E+04  0.50400001928E-02 0. -1.
    10030    2    1    2    0    0  0.00000000000E+00  0.00000000000E+00 -0.13211750912E+04  0.28673390668E+04  0.25448241005E+04 0.  0.
        4    1    3    3  502    0 -0.63789807909E+03 -0.10735965626E+04 -0.38573085600E+03  0.13070246534E+04  0.12699999809E+01 0.  1.
       -4    1    3    3    0  502  0.63789807909E+03  0.10735965626E+04 -0.93544423515E+03  0.15603144133E+04  0.12699999809E+01 0. -1.
</event>
<event>
 5   0  0.1000421E-05  0.2619633E+04  0.7818609E-02  0.8361563E-01
        1   -1    0    0  501    0  0.00000000000E+00  0.00000000000E+00  0.15711922188E+04  0.15711922188E+04  0.50400001928E-02 0. -1.
       -1   -1    0    0    0  501  0.00000000000E+00  0.00000000000E+00 -0.10919220012E+04  0.10919220012E+04  0.50400001928E-02 0.  1.
    10030    2    1    2    0    0  0.00000000000E+00  0.00000000000E+00  0.47927021757E+03  0.26631142200E+04  0.26196330673E+04 0.  0.
        3    1    3    3  502    0 -0.13421414579E+02  0.11965335000E+04 -0.30188527474E+03  0.12341018112E+04  0.10100000352E+00 0.  1.
       -3    1    3    3    0  502  0.13421414579E+02 -0.11965335000E+04  0.78115549231E+03  0.14290124088E+04  0.10100000352E+00 0. -1.
</event>
<event>
 5   0  0.1005492E-05  0.2615197E+04  0.7818609E-02  0.8363057E-01
        1   -1    0    0  501    0  0.00000000000E+00  0.00000000000E+00  0.14801312989E+04  0.14801312989E+04  0.50400001928E-02 0. -1.
       -1   -1    0    0    0  501  0.00000000000E+00  0.00000000000E+00 -0.11551769710E+04  0.11551769710E+04  0.50400001928E-02 0.  1.
    10030    2    1    2    0    0  0.00000000000E+00  0.00000000000E+00  0.32495432789E+03  0.26353082699E+04  0.26151968113E+04 0.  0.
        4    1    3    3  502    0 -0.31788760262E+03  0.26624736895E+03 -0.10871691481E+04  0.11635628728E+04  0.12699999809E+01 0.  1.
       -4    1    3    3    0  502  0.31788760262E+03 -0.26624736895E+03  0.14121234760E+04  0.14717453971E+04  0.12699999809E+01 0. -1.
</event>
<event>
 5   0  0.2662024E-05  0.2879896E+04  0.7818609E-02  0.8278884E-01
        2   -1    0    0  501    0  0.00000000000E+00  0.00000000000E+00  0.18516404448E+04  0.18516404448E+04  0.25500000920E-02 0.  1.
       -2   -1    0    0    0  501  0.00000000000E+00  0.00000000000E+00 -0.11197912822E+04  0.11197912822E+04  0.25500000920E-02 0. -1.
    10030    2    1    2    0    0  0.00000000000E+00  0.00000000000E+00  0.73184916256E+03  0.29714317271E+04  0.28798964064E+04 0.  0.
        2    1    3    3  502    0  0.34445368976E+03 -0.11935091024E+04  0.11173146848E+04  0.16707795865E+04  0.25500000920E-02 0.  1.
       -2    1    3    3    0  502 -0.34445368976E+03  0.11935091024E+04 -0.38546552224E+03  0.13006521405E+04  0.25500000920E-02 0. -1.
</event>
<event>
 5   0  0.2528460E-05  0.2550535E+04  0.7818609E-02  0.8385200E-01
       -2   -1    0    0    0  501  0.00000000000E+00  0.00000000000E+00  0.12595116025E+04  0.12595116025E+04  0.25500000920E-02 0.  1.
        2   -1    0    0  501    0  0.00000000000E+00  0.00000000000E+00 -0.12912204208E+04  0.12912204208E+04  0.25500000920E-02 0. -1.
    10030    2    1    2    0    0  0.00000000000E+00  0.00000000000E+00 -0.31708818323E+02  0.25507320233E+04  0.25505349253E+04 0.  0.
        5    1    3    3  502    0  0.35288543217E+03  0.77396665545E+02 -0.12389643082E+04  0.12905708114E+04  0.46999998093E+01 0. -1.
       -5    1    3    3    0  502 -0.35288543217E+03 -0.77396665545E+02  0.12072554899E+04  0.12601612119E+04  0.46999998093E+01 0.  1.
</event>
<event>
 5   0  0.2484618E-05  0.2570508E+04  0.7818609E-02  0.8378288E-01
        2   -1    0    0  501    0  0.00000000000E+00  0.00000000000E+00  0.22103113211E+04  0.22103113211E+04  0.25500000920E-02 0.  1.
       -2   -1    0    0    0  501  0.00000000000E+00  0.00000000000E+00 -0.74735104147E+03  0.74735104147E+03  0.25500000920E-02 0. -1.
    10030    2    1    2    0    0  0.00000000000E+00  0.00000000000E+00  0.14629602796E+04  0.29576623626E+04  0.25705084850E+04 0.  0.
        3    1    3    3  502    0 -0.70508848191E+03  0.10673295193E+04  0.58806183852E+03  0.14078916174E+04  0.10100000352E+00 0. -1.
       -3    1    3    3    0  502  0.70508848191E+03 -0.10673295193E+04  0.87489844112E+03  0.15497707452E+04  0.10100000352E+00 0.  1.
</event>
<event>
 5   0  0.2528460E-05  0.2588320E+04  0.7818609E-02  0.8372179E-01
       -2   -1    0    0    0  501  0.00000000000E+00  0.00000000000E+00  0.94492969232E+03  0.94492969233E+03  0.25500000920E-02 0.  1.
        2   -1    0    0  501    0  0.00000000000E+00  0.00000000000E+00 -0.17724604149E+04  0.17724604149E+04  0.25500000920E-02 0. -1.
    10030    2    1    2    0    0  0.00000000000E+00  0.00000000000E+00 -0.82753072258E+03  0.27173901072E+04  0.25883202851E+04 0.  0.
        5    1    3    3  502    0 -0.42674546655E+03  0.21043916707E+03 -0.16772880266E+04  0.17434774304E+04  0.46999998093E+01 0. -1.
       -5    1    3    3    0  502  0.42674546655E+03 -0.21043916707E+03  0.84975730403E+03  0.97391267679E+03  0.46999998093E+01 0.  1.
</event>
<event>
 5   0  0.1005492E-05  0.2530163E+04  0.7818609E-02  0.8392318E-01
        1   -1    0    0  501    0  0.00000000000E+00  0.00000000000E+00  0.79375936808E+03  0.79375936810E+03  0.50400001928E-02 0. -1.
       -1   -1    0    0    0  501  0.00000000000E+00  0.00000000000E+00 -0.20162675651E+04  0.20162675651E+04  0.50400001928E-02 0.  1.
    10030    2    1    2    0    0  0.00000000000E+00  0.00000000000E+00 -0.12225081970E+04  0.28100269332E+04  0.25301630528E+04 0.  0.
        4    1    3    3  502    0 -0.70303376951E+03 -0.61326625786E+03  0.33770284101E+03  0.99216773069E+03  0.12699999809E+01 0. -1.
       -4    1    3    3    0  502  0.70303376951E+03  0.61326625786E+03 -0.15602110380E+04  0.18178592025E+04  0.12699999809E+01 0.  1.
</event>
<event>
 5   0  0.1000421E-05  0.2571430E+04  0.7818609E-02  0.8377971E-01
       -1   -1    0    0    0  501  0.00000000000E+00  0.00000000000E+00  0.86611127096E+03  0.86611127097E+03  0.50400001928E-02 0.  1.
        1   -1    0    0  501    0  0.00000000000E+00  0.00000000000E+00 -0.19086041223E+04  0.19086041223E+04  0.50400001928E-02 0. -1.
    10030    2    1    2    0    0  0.00000000000E+00  0.00000000000E+00 -0.10424928514E+04  0.27747153933E+04  0.25714303741E+04 0.  0.
        3    1    3    3  502    0 -0.12291423365E+04  0.12510090131E+02 -0.92803185165E+03  0.15401917133E+04  0.10100000352E+00 0.  1.
       -3    1    3    3    0  502  0.12291423365E+04 -0.12510090131E+02 -0.11446099971E+03  0.12345236800E+04  0.10100000352E+00 0. -1.
</event>
<event>
 5   0  0.1000421E-05  0.2672650E+04  0.7818609E-02  0.8343934E-01
        1   -1    0    0  501    0  0.00000000000E+00  0.00000000000E+00  0.12472322096E+04  0.12472322097E+04  0.50400001928E-02 0. -1.
       -1   -1    0    0    0  501  0.00000000000E+00  0.00000000000E+00 -0.14317824042E+04  0.14317824042E+04  0.50400001928E-02 0.  1.
    10030    2    1    2    0    0  0.00000000000E+00  0.00000000000E+00 -0.18455019452E+03  0.26790146138E+04  0.26726504685E+04 0.  0.
        3    1    3    3  502    0 -0.11766964654E+04 -0.54787170717E+03  0.22626635751E+03  0.13175638329E+04  0.10100000352E+00 0. -1.
       -3    1    3    3    0  502  0.11766964654E+04  0.54787170717E+03 -0.41081655202E+03  0.13614507809E+04  0.10100000352E+00 0.  1.
</event>
<event>
 5   0  0.1034714E-05  0.2576844E+04  0.7818609E-02  0.8376109E-01
        1   -1    0    0  501    0  0.00000000000E+00  0.00000000000E+00  0.16094009566E+04  0.16094009566E+04  0.50400001928E-02 0.  1.
       -1   -1    0    0    0  501  0.00000000000E+00  0.00000000000E+00 -0.10314594100E+04  0.10314594100E+04  0.50400001928E-02 0. -1.
    10030    2    1    2    0    0  0.00000000000E+00  0.00000000000E+00  0.57794154662E+03  0.26408603666E+04  0.25768443966E+04 0.  0.
        5    1    3    3  502    0  0.65822131887E+03  0.28248400919E+03  0.13865372688E+04  0.15606281453E+04  0.46999998093E+01 0.  1.
       -5    1    3    3    0  502 -0.65822131887E+03 -0.28248400919E+03 -0.80859572215E+03  0.10802322213E+04  0.46999998093E+01 0. -1.
</event>
<event>
 5   0  0.2662024E-05  0.2667635E+04  0.7818609E-02  0.8345583E-01
        2   -1    0    0  501    0  0.00000000000E+00  0.00000000000E+00  0.17480082859E+04  0.17480082859E+04  0.25500000920E-02 0.  1.
       -2   -1    0    0    0  501  0.00000000000E+00  0.00000000000E+00 -0.10177696141E+04  0.10177696141E+04  0.25500000920E-02 0. -1.
    10030    2    1    2    0    0  0.00000000000E+00  0.00000000000E+00  0.73023867179E+03  0.27657779000E+04  0.26676354463E+04 0.  0.
        2    1    3    3  502    0  0.63940867226E+03 -0.82412793992E+03  0.12269902599E+04  0.16104457176E+04  0.25500000920E-02 0.  1.
       -2    1    3    3    0  502 -0.63940867226E+03  0.82412793992E+03 -0.49675158808E+03  0.11553321824E+04  0.25500000920E-02 0. -1.
</event>
<event>
 5   0  0.2484618E-05  0.2604626E+04  0.7818609E-02  0.8366631E-01
       -2   -1    0    0    0  501  0.00000000000E+00  0.00000000000E+00  0.93637160192E+03  0.93637160193E+03  0.25500000920E-02 0. -1.
        2   -1    0    0  501    0  0.00000000000E+00  0.00000000000E+00 -0.18112675018E+04  0.18112675018E+04  0.25500000920E-02 0.  1.
    10030    2    1    2    0    0  0.00000000000E+00  0.00000000000E+00 -0.87489589983E+03  0.27476391037E+04  0.26046262320E+04 0.  0.
        3    1    3    3  502    0  0.23125964927E+03  0.41524098683E+03 -0.17165043274E+04  0.17810932651E+04  0.10100000352E+00 0.  1.
       -3    1    3    3    0  502 -0.23125964927E+03 -0.41524098683E+03  0.84160842761E+03  0.96654583862E+03  0.10100000352E+00 0. -1.
</event>
<event>
 5   0  0.2484618E-05  0.3058403E+04  0.7818609E-02  0.8227247E-01
        2   -1    0    0  501    0  0.00000000000E+00  0.00000000000E+00  0.30521918009E+04  0.30521918009E+04  0.25500000920E-02 0. -1.
       -2   -1    0    0    0  501  0.00000000000E+00  0.00000000000E+00 -0.76615662935E+03  0.76615662936E+03  0.25500000920E-02 0.  1.
    10030    2    1    2    0    0  0.00000000000E+00  0.00000000000E+00  0.22860351715E+04  0.38183484302E+04  0.30584028396E+04 0.  0.
        3    1    3    3  502    0 -0.10406231650E+04  0.89811010646E+03  0.19795524259E+04  0.24100054257E+04  0.10100000352E+00 0. -1.
       -3    1    3    3    0  502  0.10406231650E+04 -0.89811010646E+03  0.30648274562E+03  0.14083430045E+04  0.10100000352E+00 0.  1.
</event>
<event>
 5   0  0.9855352E-06  0.2588265E+04  0.7818609E-02  0.8372198E-01
        1   -1    0    0  501    0  0.00000000000E+00  0.00000000000E+00  0.15330847300E+04  0.15330847300E+04  0.50400001928E-02 0.  1.
       -1   -1    0    0    0  501  0.00000000000E+00  0.00000000000E+00 -0.10924238640E+04  0.10924238640E+04  0.50400001928E-02 0. -1.
    10030    2    1    2    0    0  0.00000000000E+00  0.00000000000E+00  0.44066086604E+03  0.26255085940E+04  0.25882645495E+04 0.  0.
        2    1    3    3  502    0 -0.87079066400E+03  0.92933493845E+03 -0.12843591877E+02  0.12736187680E+04  0.25500000920E-02 0. -1.
       -2    1    3    3    0  502  0.87079066400E+03 -0.92933493845E+03  0.45350445791E+03  0.13518898260E+04  0.25500000920E-02 0.  1.
</event>
<event>
 5   0  0.2517854E-05  0.2599131E+04  0.7818609E-02  0.8368496E-01
       -2   -1    0    0    0  501  0.00000000000E+00  0.00000000000E+00  0.13638229334E+04  0.13638229334E+04  0.25500000920E-02 0.  1.
        2   -1    0    0  501    0  0.00000000000E+00  0.00000000000E+00 -0.12383358554E+04  0.12383358554E+04  0.25500000920E-02 0. -1.
    10030    2    1    2    0    0  0.00000000000E+00  0.00000000000E+00  0.12548707806E+03  0.26021587888E+04  0.25991312694E+04 0.  0.
        4    1    3    3  502    0  0.64045842145E+03  0.81094143744E+03  0.85173270319E+03  0.13391277815E+04  0.12699999809E+01 0.  1.
       -4    1    3    3    0  502 -0.64045842145E+03 -0.81094143744E+03 -0.72624562514E+03  0.12630310073E+04  0.12699999809E+01 0. -1.
</event>
<event>
 5   0  0.2484618E-05  0.2575404E+04  0.7818609E-02  0.8376604E-01
        2   -1    0    0  501    0  0.00000000000E+00  0.00000000000E+00  0.10573240857E+04  0.10573240857E+04  0.25500000920E-02 0.  1.
       -2   -1    0    0    0  501  0.00000000000E+00  0.00000000000E+00 -0.15682769851E+04  0.15682769851E+04  0.25500000920E-02 0. -1.
    10030    2    1    2    0    0  0.00000000000E+00  0.00000000000E+00 -0.51095289935E+03  0.26256010708E+04  0.25754044571E+04 0.  0.
        3    1    3    3  502    0  0.11210351426E+04 -0.17148917526E+03  0.36637004174E+03  0.11917866193E+04  0.10100000352E+00 0.  1.
       -3    1    3    3    0  502 -0.11210351426E+04  0.17148917526E+03 -0.87732294109E+03  0.14338144515E+04  0.10100000352E+00 0. -1.
</event>
<event>
 5   0  0.2484618E-05  0.2536105E+04  0.7818609E-02  0.8390235E-01
       -2   -1    0    0    0  501  0.00000000000E+00  0.00000000000E+00  0.14330907289E+04  0.14330907289E+04  0.25500000920E-02 0.  1.
        2   -1    0    0  501    0  0.00000000000E+00  0.00000000000E+00 -0.11220209182E+04  0.11220209182E+04  0.25500000920E-02 0. -1.
    10030    2    1    2    0    0  0.00000000000E+00  0.00000000000E+00  0.31106981075E+03  0.25551116471E+04  0.25361054990E+04 0.  0.
        3    1    3    3  502    0  0.90753885172E+03  0.29493367153E+03  0.99686505268E+03  0.13799828193E+04  0.10100000352E+00 0.  1.
       -3    1    3    3    0  502 -0.90753885172E+03 -0.29493367153E+03 -0.68579524193E+03  0.11751288278E+04  0.10100000352E+00 0. -1.
</event>
<event>
 5   0  0.2484618E-05  0.2437059E+04  0.7818609E-02  0.8425758E-01
        2   -1    0    0  501    0  0.00000000000E+00  0.00000000000E+00  0.14786439602E+04  0.14786439602E+04  0.25500000920E-02 0.  1.
       -2   -1    0    0    0  501  0.00000000000E+00  0.00000000000E+00 -0.10041729048E+04  0.10041729048E+04  0.25500000920E-02 0. -1.
    10030    2    1    2    0    0  0.00000000000E+00  0.00000000000E+00  0.47447105535E+03  0.24828168650E+04  0.24370590479E+04 0.  0.
        3    1    3    3  502    0 -0.16165670522E+03  0.57494139527E+03 -0.84483855441E+03  0.10346220042E+04  0.10100000352E+00 0. -1.
       -3    1    3    3    0  502  0.16165670522E+03 -0.57494139527E+03  0.13193096098E+04  0.14481948608E+04  0.10100000352E+00 0.  1.
</event>
<event>
 5   0  0.2528460E-05  0.2579386E+04  0.7818609E-02  0.8375237E-01
        2   -1    0    0  501    0  0.00000000000E+00  0.00000000000E+00  0.21001316490E+04  0.21001316490E+04  0.25500000920E-02 0. -1.
       -2   -1    0    0    0  501  0.00000000000E+00  0.00000000000E+00 -0.79200207305E+03  0.79200207306E+03  0.25500000920E-02 0.  1.
    10030    2    1    2    0    0  0.00000000000E+00  0.00000000000E+00  0.13081295760E+04  0.28921337221E+04  0.25793864540E+04 0.  0.
        5    1    3    3  502    0 -0.92004262871E+03  0.65461470004E+03  0.13527455146E+04  0.17620843797E+04  0.46999998093E+01 0. -1.
       -5    1    3    3    0  502  0.92004262871E+03 -0.65461470004E+03 -0.44615938599E+02  0.11300493423E+04  0.46999998093E+01 0.  1.
</event>
<event>
 5   0  0.1000421E-05  0.2618024E+04  0.7818609E-02  0.8362105E-01
       -1   -1    0    0    0  501  0.00000000000E+00  0.00000000000E+00  0.16546481881E+04  0.16546481881E+04  0.50400001928E-02 0. -1.
        1   -1    0    0  501    0  0.00000000000E+00  0.00000000000E+00 -0.10355750059E+04  0.10355750059E+04  0.50400001928E-02 0.  1.
    10030    2    1    2    0    0  0.00000000000E+00  0.00000000000E+00  0.61907318214E+03  0.26902231940E+04  0.26180239168E+04 0.  0.
        3    1    3    3  502    0  0.14193998138E+02  0.12954456282E+04  0.50213945986E+03  0.13894332991E+04  0.10100000352E+00 0.  1.
       -3    1    3    3    0  502 -0.14193998138E+02 -0.12954456282E+04  0.11693372228E+03  0.13007898950E+04  0.10100000352E+00 0. -1.
</event>
<event>
 5   0  0.9855352E-06  0.2565711E+04  0.7818609E-02  0.8379942E-01
        1   -1    0    0  501    0  0.00000000000E+00  0.00000000000E+00  0.10803607157E+04  0.10803607157E+04  0.50400001928E-02 0. -1.
       -1   -1    0    0    0  501  0.00000000000E+00  0.00000000000E+00 -0.15233046869E+04  0.15233046869E+04  0.50400001928E-02 0.  1.
    10030    2    1    2    0    0  0.00000000000E+00  0.00000000000E+00 -0.44294397122E+03  0.26036654026E+04  0.25657112400E+04 0.  0.
        2    1    3    3  502    0 -0.10690134853E+04  0.42954947471E+03 -0.79410292386E+03  0.13992505268E+04  0.25500000920E-02 0.  1.
       -2    1    3    3    0  502  0.10690134853E+04 -0.42954947471E+03  0.35115895264E+03  0.12044148758E+04  0.25500000920E-02 0. -1.
</event>
<event>
 5   0  0.1005492E-05  0.2537699E+04  0.7818609E-02  0.8389677E-01
        1   -1    0    0  501    0  0.00000000000E+00  0.00000000000E+00  0.15009594475E+04  0.15009594475E+04  0.50400001928E-02 0. -1.
       -1   -1    0    0    0  501  0.00000000000E+00  0.00000000000E+00 -0.10726333929E+04  0.10726333929E+04  0.50400001928E-02 0.  1.
    10030    2    1    2    0    0  0.00000000000E+00  0.00000000000E+00  0.42832605462E+03  0.25735928404E+04  0.25376991348E+04 0.  0.
        4    1    3    3  502    0 -0.38588777323E+03  0.11684636473E+03 -0.10059393334E+04  0.10837333629E+04  0.12699999809E+01 0.  1.
       -4    1    3    3    0  502  0.38588777323E+03 -0.11684636473E+03  0.14342653880E+04  0.14898594775E+04  0.12699999809E+01 0. -1.
</event>
<event>
 5   0  0.2484618E-05  0.2586993E+04  0.7818609E-02  0.8372633E-01
       -2   -1    0    0    0  501  0.00000000000E+00  0.00000000000E+00  0.11758421914E+04  0.11758421914E+04  0.25500000920E-02 0. -1.
        2   -1    0    0  501    0  0.00000000000E+00  0.00000000000E+00 -0.14229234188E+04  0.14229234188E+04  0.25500000920E-02 0.  1.
    10030    2    1    2    0    0  0.00000000000E+00  0.00000000000E+00 -0.24708122735E+03  0.25987656102E+04  0.25869931511E+04 0.  0.
        3    1    3    3  502    0 -0.93728696037E+03 -0.89005657883E+03 -0.17301737048E+03  0.13040868760E+04  0.10100000352E+00 0.  1.
       -3    1    3    3    0  502  0.93728696037E+03  0.89005657883E+03 -0.74063856872E+02  0.12946787342E+04  0.10100000352E+00 0. -1.
</event>
<event>
 5   0  0.2484618E-05  0.2608939E+04  0.7818609E-02  0.8365171E-01
       -2   -1    0    0    0  501  0.00000000000E+00  0.00000000000E+00  0.65493710694E+03  0.65493710694E+03  0.25500000920E-02 0. -1.
        2   -1    0    0  501    0  0.00000000000E+00  0.00000000000E+00 -0.25981748314E+04  0.25981748314E+04  0.25500000920E-02 0.  1.
    10030    2    1    2    0    0  0.00000000000E+00  0.00000000000E+00 -0.19432377245E+04  0.32531119383E+04  0.26089393304E+04 0.  0.
        3    1    3    3  502    0  0.13550604066E+03  0.46426431193E+02  0.64510137792E+03  0.66081245339E+03  0.10100000352E+00 0. -1.
       -3    1    3    3    0  502 -0.13550604066E+03 -0.46426431193E+02 -0.25883391024E+04  0.25922994849E+04  0.10100000352E+00 0.  1.
</event>
<event>
 5   0  0.2555801E-05  0.2667721E+04  0.7818609E-02  0.8345555E-01
       -2   -1    0    0    0  501  0.00000000000E+00  0.00000000000E+00  0.91988858716E+03  0.91988858716E+03  0.25500000920E-02 0.  1.
        2   -1    0    0  501    0  0.00000000000E+00  0.00000000000E+00 -0.19341302359E+04  0.19341302359E+04  0.25500000920E-02 0. -1.
    10030    2    1    2    0    0  0.00000000000E+00  0.00000000000E+00 -0.10142416488E+04  0.28540188231E+04  0.26677213723E+04 0.  0.
        1    1    3    3  502    0 -0.79609411868E+03 -0.51855960899E+03 -0.15087244701E+04  0.17829524505E+04  0.50400001928E-02 0. -1.
       -1    1    3    3    0  502  0.79609411868E+03  0.51855960899E+03  0.49448282137E+03  0.10710663726E+04  0.50400001928E-02 0.  1.
</event>
<event>
 5   0  0.1025153E-05  0.2597997E+04  0.7818609E-02  0.8368882E-01
       -1   -1    0    0    0  501  0.00000000000E+00  0.00000000000E+00  0.20541785387E+04  0.20541785387E+04  0.50400001928E-02 0. -1.
        1   -1    0    0  501    0  0.00000000000E+00  0.00000000000E+00 -0.82144589067E+03  0.82144589069E+03  0.50400001928E-02 0.  1.
    10030    2    1    2    0    0  0.00000000000E+00  0.00000000000E+00  0.12327326480E+04  0.28756244293E+04  0.25979965507E+04 0.  0.
        1    1    3    3  502    0  0.94850722768E+03  0.85418968147E+03  0.88314205896E+03  0.15521745615E+04  0.50400001928E-02 0.  1.
       -1    1    3    3    0  502 -0.94850722768E+03 -0.85418968147E+03  0.34959058901E+03  0.13234498679E+04  0.50400001928E-02 0. -1.
</event>
<event>
 5   0  0.2662024E-05  0.2576819E+04  0.7818609E-02  0.8376118E-01
        2   -1    0    0  501    0  0.00000000000E+00  0.00000000000E+00  0.12808470508E+04  0.12808470508E+04  0.25500000920E-02 0. -1.
       -2   -1    0    0    0  501  0.00000000000E+00  0.00000000000E+00 -0.12960168507E+04  0.12960168507E+04  0.25500000920E-02 0.  1.
    10030    2    1    2    0    0  0.00000000000E+00  0.00000000000E+00 -0.15169799941E+02  0.25768639016E+04  0.25768192494E+04 0.  0.
        2    1    3    3  502    0  0.78704722368E+03 -0.93149144317E+03  0.40821037606E+03  0.12859841959E+04  0.25500000920E-02 0. -1.
       -2    1    3    3    0  502 -0.78704722368E+03  0.93149144317E+03 -0.42338017600E+03  0.12908797056E+04  0.25500000920E-02 0.  1.
</event>
<event>
 5   0  0.2484618E-05  0.2595054E+04  0.7818609E-02  0.8369883E-01
       -2   -1    0    0    0  501  0.00000000000E+00  0.00000000000E+00  0.18026093254E+04  0.18026093254E+04  0.25500000920E-02 0.  1.
        2   -1    0    0  501    0  0.00000000000E+00  0.00000000000E+00 -0.93396655999E+03  0.93396656000E+03  0.25500000920E-02 0. -1.
    10030    2    1    2    0    0  0.00000000000E+00  0.00000000000E+00  0.86864276543E+03  0.27365758854E+04  0.25950543969E+04 0.  0.
        3    1    3    3  502    0 -0.10857716550E+04  0.66747748554E+03  0.17784913004E+03  0.12868786282E+04  0.10100000352E+00 0. -1.
       -3    1    3    3    0  502  0.10857716550E+04 -0.66747748554E+03  0.69079363539E+03  0.14496972572E+04  0.10100000352E+00 0.  1.
</event>
<event>
 5   0  0.1025153E-05  0.2591449E+04  0.7818609E-02  0.8371112E-01
       -1   -1    0    0    0  501  0.00000000000E+00  0.00000000000E+00  0.84285800209E+03  0.84285800210E+03  0.50400001928E-02 0.  1.
        1   -1    0    0  501    0  0.00000000000E+00  0.00000000000E+00 -0.19919157184E+04  0.19919157184E+04  0.50400001928E-02 0. -1.
    10030    2    1    2    0    0  0.00000000000E+00  0.00000000000E+00 -0.11490577163E+04  0.28347737205E+04  0.25914490948E+04 0.  0.
        1    1    3    3  502    0 -0.78131141829E+03 -0.10336512163E+04 -0.56966953020E+03  0.14154171622E+04  0.50400001928E-02 0.  1.
       -1    1    3    3    0  502  0.78131141829E+03  0.10336512163E+04 -0.57938818611E+03  0.14193565583E+04  0.50400001928E-02 0. -1.
</event>
<event>
 5   0  0.2517854E-05  0.2594261E+04  0.7818609E-02  0.8370153E-01
        2   -1    0    0  501    0  0.00000000000E+00  0.00000000000E+00  0.18542402297E+04  0.18542402297E+04  0.25500000920E-02 0.  1.
       -2   -1    0    0    0  501  0.00000000000E+00  0.00000000000E+00 -0.90740553578E+03  0.90740553578E+03  0.25500000920E-02 0. -1.
    10030    2    1    2    0    0  0.00000000000E+00  0.00000000000E+00  0.94683469393E+03  0.27616457655E+04  0.25942612429E+04 0.  0.
        4    1    3    3  502    0 -0.10253103076E+04  0.22680048190E+03  0.12840251922E+04  0.16587410867E+04  0.12699999809E+01 0.  1.
       -4    1    3    3    0  502  0.10253103076E+04 -0.22680048190E+03 -0.33719049827E+03  0.11029046788E+04  0.12699999809E+01 0. -1.
</event>
<event>
 5   0  0.1034714E-05  0.2177891E+04  0.7818609E-02  0.8527687E-01
       -1   -1    0    0    0  501  0.00000000000E+00  0.00000000000E+00  0.30512585770E+04  0.30512585770E+04  0.50400001928E-02 0.  1.
        1   -1    0    0  501    0  0.00000000000E+00  0.00000000000E+00 -0.38862711884E+03  0.38862711888E+03  0.50400001928E-02 0. -1.
    10030    2    1    2    0    0  0.00000000000E+00  0.00000000000E+00  0.26626314582E+04  0.34398856959E+04  0.21778905663E+04 0.  0.
        5    1    3    3  502    0 -0.64626453323E+03 -0.67077376916E+03  0.22222536191E+04  0.24095701969E+04  0.46999998093E+01 0.  1.
       -5    1    3    3    0  502  0.64626453323E+03  0.67077376916E+03  0.44037783910E+03  0.10303154990E+04  0.46999998093E+01 0. -1.
</event>
<event>
 5   0  0.2528460E-05  0.2354264E+04  0.7818609E-02  0.8456827E-01
        2   -1    0    0  501    0  0.00000000000E+00  0.00000000000E+00  0.18911666625E+04  0.18911666625E+04  0.25500000920E-02 0.  1.
       -2   -1    0    0    0  501  0.00000000000E+00  0.00000000000E+00 -0.73269070724E+03  0.73269070725E+03  0.25500000920E-02 0. -1.
    10030    2    1    2    0    0  0.00000000000E+00  0.00000000000E+00  0.11584759553E+04  0.26238573698E+04  0.23542644197E+04 0.  0.
        5    1    3    3  502    0  0.91869041428E+03 -0.67245218319E+03  0.24593696260E+03  0.11647708339E+04  0.46999998093E+01 0. -1.
       -5    1    3    3    0  502 -0.91869041428E+03  0.67245218319E+03  0.91253899268E+03  0.14590865359E+04  0.46999998093E+01 0.  1.
</event>
<event>
 5   0  0.2517854E-05  0.2512884E+04  0.7818609E-02  0.8398410E-01
       -2   -1    0    0    0  501  0.00000000000E+00  0.00000000000E+00  0.13526171214E+04  0.13526171214E+04  0.25500000920E-02 0. -1.
        2   -1    0    0  501    0  0.00000000000E+00  0.00000000000E+00 -0.11671053083E+04  0.11671053083E+04  0.25500000920E-02 0.  1.
    10030    2    1    2    0    0  0.00000000000E+00  0.00000000000E+00  0.18551181312E+03  0.25197224297E+04  0.25128840980E+04 0.  0.
        4    1    3    3  502    0  0.20828493609E+02 -0.84626382291E+03 -0.83823652608E+03  0.11913179134E+04  0.12699999809E+01 0.  1.
       -4    1    3    3    0  502 -0.20828493609E+02  0.84626382291E+03  0.10237483392E+04  0.13284045163E+04  0.12699999809E+01 0. -1.
</event>
<event>
 5   0  0.2484618E-05  0.2627054E+04  0.7818609E-02  0.8359069E-01
        2   -1    0    0  501    0  0.00000000000E+00  0.00000000000E+00  0.11321350328E+04  0.11321350328E+04  0.25500000920E-02 0.  1.
       -2   -1    0    0    0  501  0.00000000000E+00  0.00000000000E+00 -0.15239817464E+04  0.15239817464E+04  0.25500000920E-02 0. -1.
    10030    2    1    2    0    0  0.00000000000E+00  0.00000000000E+00 -0.39184671364E+03  0.26561167792E+04  0.26270539579E+04 0.  0.
        3    1    3    3  502    0  0.41795130172E+03  0.11266861562E+04 -0.73211864511E+03  0.14071612224E+04  0.10100000352E+00 0. -1.
       -3    1    3    3    0  502 -0.41795130172E+03 -0.11266861562E+04  0.34027193147E+03  0.12489555567E+04  0.10100000352E+00 0.  1.
</event>
<event>
 5   0  0.2484618E-05  0.2632875E+04  0.7818609E-02  0.8357119E-01
       -2   -1    0    0    0  501  0.00000000000E+00  0.00000000000E+00  0.11428649550E+04  0.11428649550E+04  0.25500000920E-02 0. -1.
        2   -1    0    0  501    0  0.00000000000E+00  0.00000000000E+00 -0.15163709852E+04  0.15163709852E+04  0.25500000920E-02 0.  1.
    10030    2    1    2    0    0  0.00000000000E+00  0.00000000000E+00 -0.37350603022E+03  0.26592359402E+04  0.26328746706E+04 0.  0.
        3    1    3    3  502    0  0.71167793512E+03  0.92140378203E+03  0.43383923878E+03  0.12424519742E+04  0.10100000352E+00 0.  1.
       -3    1    3    3    0  502 -0.71167793512E+03 -0.92140378203E+03 -0.80734526900E+03  0.14167839660E+04  0.10100000352E+00 0. -1.
</event>
<event>
 5   0  0.2517854E-05  0.2580126E+04  0.7818609E-02  0.8374984E-01
       -2   -1    0    0    0  501  0.00000000000E+00  0.00000000000E+00  0.11710910912E+04  0.11710910912E+04  0.25500000920E-02 0.  1.
        2   -1    0    0  501    0  0.00000000000E+00  0.00000000000E+00 -0.14211209459E+04  0.14211209459E+04  0.25500000920E-02 0. -1.
    10030    2    1    2    0    0  0.00000000000E+00  0.00000000000E+00 -0.25002985476E+03  0.25922120371E+04  0.25801256398E+04 0.  0.
        4    1    3    3  502    0  0.10943415299E+04  0.66587400983E+03  0.28306911898E+02  0.12813174763E+04  0.12699999809E+01 0. -1.
       -4    1    3    3    0  502 -0.10943415299E+04 -0.66587400983E+03 -0.27833676666E+03  0.13108945608E+04  0.12699999809E+01 0.  1.
</event>
<event>
 5   0  0.2484618E-05  0.2568669E+04  0.7818609E-02  0.8378922E-01
       -2   -1    0    0    0  501  0.00000000000E+00  0.00000000000E+00  0.16288091754E+04  0.16288091754E+04  0.25500000920E-02 0.  1.
        2   -1    0    0  501    0  0.00000000000E+00  0.00000000000E+00 -0.10127120943E+04  0.10127120943E+04  0.25500000920E-02 0. -1.
    10030    2    1    2    0    0  0.00000000000E+00  0.00000000000E+00  0.61609708106E+03  0.26415212697E+04  0.25686687223E+04 0.  0.
        3    1    3    3  502    0 -0.36775218047E+03 -0.66912049035E+03 -0.75398148784E+03  0.10730573102E+04  0.10100000352E+00 0. -1.
       -3    1    3    3    0  502  0.36775218047E+03  0.66912049035E+03  0.13700785689E+04  0.15684639594E+04  0.10100000352E+00 0.  1.
</event>
<event>
 5   0  0.1034714E-05  0.2563245E+04  0.7818609E-02  0.8380794E-01
       -1   -1    0    0    0  501  0.00000000000E+00  0.00000000000E+00  0.73913890250E+03  0.73913890252E+03  0.50400001928E-02 0. -1.
        1   -1    0    0  501    0  0.00000000000E+00  0.00000000000E+00 -0.22222557975E+04  0.22222557975E+04  0.50400001928E-02 0.  1.
    10030    2    1    2    0    0  0.00000000000E+00  0.00000000000E+00 -0.14831168950E+04  0.29613947000E+04  0.25632445933E+04 0.  0.
        5    1    3    3  502    0  0.58630923351E+03 -0.44291795937E+03 -0.19547098361E+04  0.20882642240E+04  0.46999998093E+01 0.  1.
       -5    1    3    3    0  502 -0.58630923351E+03  0.44291795937E+03  0.47159294109E+03  0.87313047600E+03  0.46999998093E+01 0. -1.
</event>
<event>
 5   0  0.2555801E-05  0.2604310E+04  0.7818609E-02  0.8366739E-01
        2   -1    0    0  501    0  0.00000000000E+00  0.00000000000E+00  0.25788354340E+04  0.25788354340E+04  0.25500000920E-02 0.  1.
       -2   -1    0    0    0  501  0.00000000000E+00  0.00000000000E+00 -0.65750909291E+03  0.65750909291E+03  0.25500000920E-02 0. -1.
    10030    2    1    2    0    0  0.00000000000E+00  0.00000000000E+00  0.19213263411E+04  0.32363445269E+04  0.26043100791E+04 0.  0.
        1    1    3    3  502    0  0.10490125371E+03 -0.11503423270E+04  0.17076374644E+04  0.20616298048E+04  0.50400001928E-02 0.  1.
       -1    1    3    3    0  502 -0.10490125371E+03  0.11503423270E+04  0.21368887673E+03  0.11747147221E+04  0.50400001928E-02 0. -1.
</event>
<event>
 5   0  0.1000421E-05  0.2601086E+04  0.7818609E-02  0.8367832E-01
        1   -1    0    0  501    0  0.00000000000E+00  0.00000000000E+00  0.12617528405E+04  0.12617528405E+04  0.50400001928E-02 0.  1.
       -1   -1    0    0    0  501  0.00000000000E+00  0.00000000000E+00 -0.13405260223E+04  0.13405260223E+04  0.50400001928E-02 0. -1.
    10030    2    1    2    0    0  0.00000000000E+00  0.00000000000E+00 -0.78773181868E+02  0.26022788628E+04  0.26010863242E+04 0.  0.
        3    1    3    3  502    0  0.99725581900E+03  0.16839750547E+02 -0.87440076222E+03  0.13264160165E+04  0.10100000352E+00 0. -1.
       -3    1    3    3    0  502 -0.99725581900E+03 -0.16839750547E+02  0.79562758035E+03  0.12758628463E+04  0.10100000352E+00 0.  1.
</event>
<event>
 5   0  0.2517854E-05  0.2602414E+04  0.7818609E-02  0.8367382E-01
        2   -1    0    0  501    0  0.00000000000E+00  0.00000000000E+00  0.15236338322E+04  0.15236338322E+04  0.25500000920E-02 0.  1.
       -2   -1    0    0    0  501  0.00000000000E+00  0.00000000000E+00 -0.11112507646E+04  0.11112507646E+04  0.25500000920E-02 0. -1.
    10030    2    1    2    0    0  0.00000000000E+00  0.00000000000E+00  0.41238306756E+03  0.26348845968E+04  0.26024136958E+04 0.  0.
        4    1    3    3  502    0 -0.96150981806E+02 -0.48695266402E+03 -0.10116337071E+04  0.11268417274E+04  0.12699999809E+01 0. -1.
       -4    1    3    3    0  502  0.96150981806E+02  0.48695266402E+03  0.14240167747E+04  0.15080428694E+04  0.12699999809E+01 0.  1.
</event>
<event>
 5   0  0.2517854E-05  0.2577343E+04  0.7818609E-02  0.8375938E-01
       -2   -1    0    0    0  501  0.00000000000E+00  0.00000000000E+00  0.10002614941E+04  0.10002614941E+04  0.25500000920E-02 0.  1.
        2   -1    0    0  501    0  0.00000000000E+00  0.00000000000E+00 -0.16602396685E+04  0.16602396685E+04  0.25500000920E-02 0. -1.
    10030    2    1    2    0    0  0.00000000000E+00  0.00000000000E+00 -0.65997817438E+03  0.26605011626E+04  0.25773426713E+04 0.  0.
        4    1    3    3  502    0  0.28543116236E+03 -0.11903062592E+04  0.85966733253E+02  0.12270663516E+04  0.12699999809E+01 0.  1.
       -4    1    3    3    0  502 -0.28543116236E+03  0.11903062592E+04 -0.74594490763E+03  0.14334348110E+04  0.12699999809E+01 0. -1.
</event>
<event>
 5   0  0.8605000E-06  0.2684632E+04  0.7818609E-02  0.8340009E-01
       -3   -1    0    0    0  501  0.00000000000E+00  0.00000000000E+00  0.19109386087E+04  0.19109386113E+04  0.10100000352E+00 0. -1.
        3   -1    0    0  501    0  0.00000000000E+00  0.00000000000E+00 -0.94289354400E+03  0.94289354941E+03  0.10100000352E+00 0.  1.
    10030    2    1    2    0    0  0.00000000000E+00  0.00000000000E+00  0.96804506467E+03  0.28538321608E+04  0.26846315864E+04 0.  0.
        3    1    3    3  502    0 -0.41851457125E+03 -0.39366608066E+03 -0.80556567516E+03  0.98947637496E+03  0.10100000352E+00 0.  1.
       -3    1    3    3    0  502  0.41851457125E+03  0.39366608066E+03  0.17736107398E+04  0.18643557858E+04  0.10100000352E+00 0. -1.
</event>
<event>
 5   0  0.2517854E-05  0.2556609E+04  0.7818609E-02  0.8383091E-01
       -2   -1    0    0    0  501  0.00000000000E+00  0.00000000000E+00  0.12434971863E+04  0.12434971863E+04  0.25500000920E-02 0.  1.
        2   -1    0    0  501    0  0.00000000000E+00  0.00000000000E+00 -0.13140860061E+04  0.13140860061E+04  0.25500000920E-02 0. -1.
    10030    2    1    2    0    0  0.00000000000E+00  0.00000000000E+00 -0.70588819748E+02  0.25575831924E+04  0.25566088877E+04 0.  0.
        4    1    3    3  502    0  0.43685949763E+03 -0.11053691152E+04  0.43538838830E+03  0.12658008386E+04  0.12699999809E+01 0.  1.
       -4    1    3    3    0  502 -0.43685949763E+03  0.11053691152E+04 -0.50597720805E+03  0.12917823537E+04  0.12699999809E+01 0. -1.
</event>
<event>
 5   0  0.2555801E-05  0.2675359E+04  0.7818609E-02  0.8343045E-01
       -2   -1    0    0    0  501  0.00000000000E+00  0.00000000000E+00  0.15582723129E+04  0.15582723129E+04  0.25500000920E-02 0. -1.
        2   -1    0    0  501    0  0.00000000000E+00  0.00000000000E+00 -0.11483144350E+04  0.11483144350E+04  0.25500000920E-02 0.  1.
    10030    2    1    2    0    0  0.00000000000E+00  0.00000000000E+00  0.40995787794E+03  0.27065867479E+04  0.26753591090E+04 0.  0.
        1    1    3    3  502    0 -0.29832421262E+03 -0.13024939642E+04  0.26814755054E+03  0.13628613178E+04  0.50400001928E-02 0. -1.
       -1    1    3    3    0  502  0.29832421262E+03  0.13024939642E+04  0.14181032740E+03  0.13437254301E+04  0.50400001928E-02 0.  1.
</event>
<event>
 5   0  0.1005492E-05  0.2606889E+04  0.7818609E-02  0.8365865E-01
        1   -1    0    0  501    0  0.00000000000E+00  0.00000000000E+00  0.20631047257E+04  0.20631047257E+04  0.50400001928E-02 0. -1.
       -1   -1    0    0    0  501  0.00000000000E+00  0.00000000000E+00 -0.82350052242E+03  0.82350052243E+03  0.50400001928E-02 0.  1.
    10030    2    1    2    0    0  0.00000000000E+00  0.00000000000E+00  0.12396042032E+04  0.28866052481E+04  0.26068891955E+04 0.  0.
        4    1    3    3  502    0 -0.93810657542E+03  0.83157624315E+03  0.10150367522E+04  0.16130295150E+04  0.12699999809E+01 0.  1.
       -4    1    3    3    0  502  0.93810657542E+03 -0.83157624315E+03  0.22456745106E+03  0.12735757331E+04  0.12699999809E+01 0. -1.
</event>
<event>
 5   0  0.8605000E-06  0.2614240E+04  0.7818609E-02  0.8363380E-01
       -3   -1    0    0    0  501  0.00000000000E+00  0.00000000000E+00  0.16578977279E+04  0.16578977310E+04  0.10100000352E+00 0.  1.
        3   -1    0    0  501    0  0.00000000000E+00  0.00000000000E+00 -0.10305598000E+04  0.10305598050E+04  0.10100000352E+00 0. -1.
    10030    2    1    2    0    0  0.00000000000E+00  0.00000000000E+00  0.62733792792E+03  0.26884575360E+04  0.26142400515E+04 0.  0.
        5    1    3    3  502    0  0.92261560775E+02 -0.10798223535E+04 -0.43783848707E+03  0.11688683166E+04  0.46999998093E+01 0. -1.
       -5    1    3    3    0  502 -0.92261560775E+02  0.10798223535E+04  0.10651764150E+04  0.15195892194E+04  0.46999998093E+01 0.  1.
</event>
<event>
 5   0  0.1034714E-05  0.2718653E+04  0.7818609E-02  0.8328978E-01
       -1   -1    0    0    0  501  0.00000000000E+00  0.00000000000E+00  0.76617500863E+03  0.76617500865E+03  0.50400001928E-02 0.  1.
        1   -1    0    0  501    0  0.00000000000E+00  0.00000000000E+00 -0.24116802737E+04  0.24116802737E+04  0.50400001928E-02 0. -1.
    10030    2    1    2    0    0  0.00000000000E+00  0.00000000000E+00 -0.16455052651E+04  0.31778552824E+04  0.27186534568E+04 0.  0.
        5    1    3    3  502    0  0.63448859056E+03  0.46145101799E+03  0.47480573230E+03  0.91704710183E+03  0.46999998093E+01 0.  1.
       -5    1    3    3    0  502 -0.63448859056E+03 -0.46145101799E+03 -0.21203109974E+04  0.22608081805E+04  0.46999998093E+01 0. -1.
</event>
<event>
 5   0  0.2517854E-05  0.2630571E+04  0.7818609E-02  0.8357890E-01
       -2   -1    0    0    0  501  0.00000000000E+00  0.00000000000E+00  0.10473334232E+04  0.10473334232E+04  0.25500000920E-02 0. -1.
        2   -1    0    0  501    0  0.00000000000E+00  0.00000000000E+00 -0.16517912443E+04  0.16517912443E+04  0.25500000920E-02 0.  1.
    10030    2    1    2    0    0  0.00000000000E+00  0.00000000000E+00 -0.60445782112E+03  0.26991246676E+04  0.26305711763E+04 0.  0.
        4    1    3    3  502    0 -0.48134630292E+03 -0.83805147701E+03  0.61318137365E+03  0.11445599815E+04  0.12699999809E+01 0. -1.
       -4    1    3    3    0  502  0.48134630292E+03  0.83805147701E+03 -0.12176391948E+04  0.15545646860E+04  0.12699999809E+01 0.  1.
</event>
<event>
 5   0  0.2555801E-05  0.2656349E+04  0.7818609E-02  0.8349309E-01
       -2   -1    0    0    0  501  0.00000000000E+00  0.00000000000E+00  0.78257132252E+03  0.78257132253E+03  0.25500000920E-02 0.  1.
        2   -1    0    0  501    0  0.00000000000E+00  0.00000000000E+00 -0.22541686831E+04  0.22541686831E+04  0.25500000920E-02 0. -1.
    10030    2    1    2    0    0  0.00000000000E+00  0.00000000000E+00 -0.14715973606E+04  0.30367400057E+04  0.26563491996E+04 0.  0.
        1    1    3    3  502    0 -0.73378642117E+03  0.71271873498E+03 -0.17042436206E+04  0.19876762376E+04  0.50400001928E-02 0. -1.
       -1    1    3    3    0  502  0.73378642117E+03 -0.71271873498E+03  0.23264626003E+03  0.10490637680E+04  0.50400001928E-02 0.  1.
</event>
<event>
 5   0  0.2517854E-05  0.2584912E+04  0.7818609E-02  0.8373344E-01
        2   -1    0    0  501    0  0.00000000000E+00  0.00000000000E+00  0.14171636494E+04  0.14171636494E+04  0.25500000920E-02 0. -1.
       -2   -1    0    0    0  501  0.00000000000E+00  0.00000000000E+00 -0.11787222225E+04  0.11787222225E+04  0.25500000920E-02 0.  1.
    10030    2    1    2    0    0  0.00000000000E+00  0.00000000000E+00  0.23844142689E+03  0.25958858719E+04  0.25849118256E+04 0.  0.
        4    1    3    3  502    0  0.24601817628E+03 -0.12479191639E+04  0.34957082151E+03  0.13191014195E+04  0.12699999809E+01 0. -1.
       -4    1    3    3    0  502 -0.24601817628E+03  0.12479191639E+04 -0.11112939462E+03  0.12767844524E+04  0.12699999809E+01 0.  1.
</event>
<event>
 5   0  0.2528460E-05  0.2640114E+04  0.7818609E-02  0.8354702E-01
       -2   -1    0    0    0  501  0.00000000000E+00  0.00000000000E+00  0.82712797512E+03  0.82712797513E+03  0.25500000920E-02 0.  1.
        2   -1    0    0  501    0  0.00000000000E+00  0.00000000000E+00 -0.21067486028E+04  0.21067486028E+04  0.25500000920E-02 0. -1.
    10030    2    1    2    0    0  0.00000000000E+00  0.00000000000E+00 -0.12796206277E+04  0.29338765779E+04  0.26401141687E+04 0.  0.
        5    1    3    3  502    0  0.63935867084E+03  0.87817814739E+03  0.19368001350E+03  0.11034085400E+04  0.46999998093E+01 0.  1.
       -5    1    3    3    0  502 -0.63935867084E+03 -0.87817814739E+03 -0.14733006412E+04  0.18304680379E+04  0.46999998093E+01 0. -1.
</event>
<event>
 5   0  0.2662024E-05  0.2594680E+04  0.7818609E-02  0.8370011E-01
       -2   -1    0    0    0  501  0.00000000000E+00  0.00000000000E+00  0.73611188218E+03  0.73611188218E+03  0.25500000920E-02 0. -1.
        2   -1    0    0  501    0  0.00000000000E+00  0.00000000000E+00 -0.22864601300E+04  0.22864601300E+04  0.25500000920E-02 0.  1.
    10030    2    1    2    0    0  0.00000000000E+00  0.00000000000E+00 -0.15503482478E+04  0.30225720121E+04  0.25946795330E+04 0.  0.
        2    1    3    3  502    0  0.26835711490E+03  0.76942213131E+02 -0.22510553038E+04  0.22683001622E+04  0.25500000920E-02 0.  1.
       -2    1    3    3    0  502 -0.26835711490E+03 -0.76942213131E+02  0.70070705599E+03  0.75427184993E+03  0.25500000920E-02 0. -1.
</event>
<event>
 5   0  0.1000421E-05  0.2507453E+04  0.7818609E-02  0.8400335E-01
        1   -1    0    0  501    0  0.00000000000E+00  0.00000000000E+00  0.12915163836E+04  0.12915163836E+04  0.50400001928E-02 0. -1.
       -1   -1    0    0    0  501  0.00000000000E+00  0.00000000000E+00 -0.12170425504E+04  0.12170425504E+04  0.50400001928E-02 0.  1.
    10030    2    1    2    0    0  0.00000000000E+00  0.00000000000E+00  0.74473833246E+02  0.25085589340E+04  0.25074532046E+04 0.  0.
        3    1    3    3  502    0  0.12466453462E+04  0.11323069160E+03 -0.32683634057E+02  0.12522036730E+04  0.10100000352E+00 0. -1.
       -3    1    3    3    0  502 -0.12466453462E+04 -0.11323069160E+03  0.10715746730E+03  0.12563552609E+04  0.10100000352E+00 0.  1.
</event>
<event>
 5   0  0.2555801E-05  0.2627527E+04  0.7818609E-02  0.8358911E-01
        2   -1    0    0  501    0  0.00000000000E+00  0.00000000000E+00  0.21669891123E+04  0.21669891123E+04  0.25500000920E-02 0. -1.
       -2   -1    0    0    0  501  0.00000000000E+00  0.00000000000E+00 -0.79648517826E+03  0.79648517827E+03  0.25500000920E-02 0.  1.
    10030    2    1    2    0    0  0.00000000000E+00  0.00000000000E+00  0.13705039340E+04  0.29634742905E+04  0.26275271335E+04 0.  0.
        1    1    3    3  502    0  0.68626655464E+03 -0.73253747304E+03  0.16412074159E+04  0.19238333388E+04  0.50400001928E-02 0. -1.
       -1    1    3    3    0  502 -0.68626655464E+03  0.73253747304E+03 -0.27070348188E+03  0.10396409518E+04  0.50400001928E-02 0.  1.
</event>
<event>
 5   0  0.9855352E-06  0.2616164E+04  0.7818609E-02  0.8362731E-01
       -1   -1    0    0    0  501  0.00000000000E+00  0.00000000000E+00  0.11683203813E+04  0.11683203813E+04  0.50400001928E-02 0.  1.
        1   -1    0    0  501    0  0.00000000000E+00  0.00000000000E+00 -0.14645623239E+04  0.14645623239E+04  0.50400001928E-02 0. -1.
    10030    2    1    2    0    0  0.00000000000E+00  0.00000000000E+00 -0.29624194258E+03  0.26328827051E+04  0.26161636131E+04 0.  0.
        2    1    3    3  502    0  0.20057236096E+03 -0.12525700455E+04  0.17316367589E+03  0.12802916267E+04  0.25500000920E-02 0.  1.
       -2    1    3    3    0  502 -0.20057236096E+03  0.12525700455E+04 -0.46940561847E+03  0.13525910784E+04  0.25500000920E-02 0. -1.
</event>
<event>
 5   0  0.1005492E-05  0.2592242E+04  0.7818609E-02  0.8370841E-01
        1   -1    0    0  501    0  0.00000000000E+00  0.00000000000E+00  0.17490694436E+04  0.17490694436E+04  0.50400001928E-02 0. -1.
       -1   -1    0    0    0  501  0.00000000000E+00  0.00000000000E+00 -0.96047019753E+03  0.96047019754E+03  0.50400001928E-02 0.  1.
    10030    2    1    2    0    0  0.00000000000E+00  0.00000000000E+00  0.78859924604E+03  0.27095396411E+04  0.25922415582E+04 0.  0.
        4    1    3    3  502    0  0.40763445489E+03 -0.29594280608E+02  0.16799506834E+04  0.17289527413E+04  0.12699999809E+01 0. -1.
       -4    1    3    3    0  502 -0.40763445489E+03  0.29594280608E+02 -0.89135143735E+03  0.98058689978E+03  0.12699999809E+01 0.  1.
</event>
<event>
 5   0  0.2484618E-05  0.2581404E+04  0.7818609E-02  0.8374545E-01
        2   -1    0    0  501    0  0.00000000000E+00  0.00000000000E+00  0.12043569147E+04  0.12043569147E+04  0.25500000920E-02 0. -1.
       -2   -1    0    0    0  501  0.00000000000E+00  0.00000000000E+00 -0.13832374626E+04  0.13832374626E+04  0.25500000920E-02 0.  1.
    10030    2    1    2    0    0  0.00000000000E+00  0.00000000000E+00 -0.17888054787E+03  0.25875943773E+04  0.25814039613E+04 0.  0.
        3    1    3    3  502    0 -0.12453218878E+04  0.18773131701E+03  0.19380049806E+03  0.12742167378E+04  0.10100000352E+00 0. -1.
       -3    1    3    3    0  502  0.12453218878E+04 -0.18773131701E+03 -0.37268104594E+03  0.13133776395E+04  0.10100000352E+00 0.  1.
</event>
<event>
 5   0  0.2528460E-05  0.2615604E+04  0.7818609E-02  0.8362920E-01
       -2   -1    0    0    0  501  0.00000000000E+00  0.00000000000E+00  0.13079420659E+04  0.13079420659E+04  0.25500000920E-02 0.  1.
        2   -1    0    0  501    0  0.00000000000E+00  0.00000000000E+00 -0.13076618330E+04  0.13076618330E+04  0.25500000920E-02 0. -1.
    10030    2    1    2    0    0  0.00000000000E+00  0.00000000000E+00  0.28023296330E+00  0.26156038989E+04  0.26156038839E+04 0.  0.
        5    1    3    3  502    0  0.95181251171E+03  0.86497249870E+03  0.23720413541E+03  0.13078273482E+04  0.46999998093E+01 0. -1.
       -5    1    3    3    0  502 -0.95181251171E+03 -0.86497249870E+03 -0.23692390244E+03  0.13077765507E+04  0.46999998093E+01 0.  1.
</event>
<event>
 5   0  0.8605000E-06  0.2585940E+04  0.7818609E-02  0.8372993E-01
       -3   -1    0    0    0  501  0.00000000000E+00  0.00000000000E+00  0.18636810092E+04  0.18636810119E+04  0.10100000352E+00 0. -1.
        3   -1    0    0  501    0  0.00000000000E+00  0.00000000000E+00 -0.89702640212E+03  0.89702640780E+03  0.10100000352E+00 0.  1.
    10030    2    1    2    0    0  0.00000000000E+00  0.00000000000E+00  0.96665460707E+03  0.27607074197E+04  0.25859397379E+04 0.  0.
        3    1    3    3  502    0  0.93461473553E+03  0.77633736841E+03  0.11210574014E+02  0.12150432505E+04  0.10100000352E+00 0. -1.
       -3    1    3    3    0  502 -0.93461473553E+03 -0.77633736841E+03  0.95544403306E+03  0.15456641692E+04  0.10100000352E+00 0.  1.
</event>
<event>
 5   0  0.2528460E-05  0.2643060E+04  0.7818609E-02  0.8353720E-01
        2   -1    0    0  501    0  0.00000000000E+00  0.00000000000E+00  0.23904360551E+04  0.23904360551E+04  0.25500000920E-02 0. -1.
       -2   -1    0    0    0  501  0.00000000000E+00  0.00000000000E+00 -0.73059529391E+03  0.73059529392E+03  0.25500000920E-02 0.  1.
    10030    2    1    2    0    0  0.00000000000E+00  0.00000000000E+00  0.16598407612E+04  0.31210313490E+04  0.26430598421E+04 0.  0.
        5    1    3    3  502    0  0.39137728087E+03  0.69067674606E+03 -0.41764649753E+03  0.89702911348E+03  0.46999998093E+01 0.  1.
       -5    1    3    3    0  502 -0.39137728087E+03 -0.69067674606E+03  0.20774872587E+04  0.22240022355E+04  0.46999998093E+01 0. -1.
</event>
<event>
 5   0  0.2555801E-05  0.2617497E+04  0.7818609E-02  0.8362282E-01
       -2   -1    0    0    0  501  0.00000000000E+00  0.00000000000E+00  0.83911211179E+03  0.83911211180E+03  0.25500000920E-02 0.  1.
        2   -1    0    0  501    0  0.00000000000E+00  0.00000000000E+00 -0.20412316139E+04  0.20412316139E+04  0.25500000920E-02 0. -1.
    10030    2    1    2    0    0  0.00000000000E+00  0.00000000000E+00 -0.12021195021E+04  0.28803437257E+04  0.26174966439E+04 0.  0.
        1    1    3    3  502    0 -0.78454813926E+03 -0.60075679274E+03 -0.15453693074E+04  0.18342820947E+04  0.50400001928E-02 0. -1.
       -1    1    3    3    0  502  0.78454813926E+03  0.60075679274E+03  0.34324980531E+03  0.10460616309E+04  0.50400001928E-02 0.  1.
</event>
<event>
 5   0  0.1005492E-05  0.2606051E+04  0.7818609E-02  0.8366149E-01
        1   -1    0    0  501    0  0.00000000000E+00  0.00000000000E+00  0.31817077373E+04  0.31817077373E+04  0.50400001928E-02 0. -1.
       -1   -1    0    0    0  501  0.00000000000E+00  0.00000000000E+00 -0.53363633565E+03  0.53363633568E+03  0.50400001928E-02 0.  1.
    10030    2    1    2    0    0  0.00000000000E+00  0.00000000000E+00  0.26480714016E+04  0.37153440729E+04  0.26060505429E+04 0.  0.
        4    1    3    3  502    0 -0.64467913566E+03 -0.30382631632E+03  0.28792164029E+04  0.29661103024E+04  0.12699999809E+01 0. -1.
       -4    1    3    3    0  502  0.64467913566E+03  0.30382631632E+03 -0.23114500127E+03  0.74923377056E+03  0.12699999809E+01 0.  1.
</event>
<event>
 5   0  0.1034714E-05  0.2588513E+04  0.7818609E-02  0.8372114E-01
        1   -1    0    0  501    0  0.00000000000E+00  0.00000000000E+00  0.25092851137E+04  0.25092851137E+04  0.50400001928E-02 0. -1.
       -1   -1    0    0    0  501  0.00000000000E+00  0.00000000000E+00 -0.66756051158E+03  0.66756051160E+03  0.50400001928E-02 0.  1.
    10030    2    1    2    0    0  0.00000000000E+00  0.00000000000E+00  0.18417246021E+04  0.31768456253E+04  0.25885128195E+04 0.  0.
        5    1    3    3  502    0  0.39700604492E+02 -0.42819634992E+03 -0.57730627843E+03  0.71988393592E+03  0.46999998093E+01 0.  1.
       -5    1    3    3    0  502 -0.39700604492E+02  0.42819634992E+03  0.24190308805E+04  0.24569616894E+04  0.46999998093E+01 0. -1.
</event>
<event>
 5   0  0.2528460E-05  0.2633515E+04  0.7818609E-02  0.8356905E-01
        2   -1    0    0  501    0  0.00000000000E+00  0.00000000000E+00  0.12759323906E+04  0.12759323906E+04  0.25500000920E-02 0. -1.
       -2   -1    0    0    0  501  0.00000000000E+00  0.00000000000E+00 -0.13588890397E+04  0.13588890397E+04  0.25500000920E-02 0.  1.
    10030    2    1    2    0    0  0.00000000000E+00  0.00000000000E+00 -0.82956649162E+02  0.26348214303E+04  0.26335151725E+04 0.  0.
        5    1    3    3  502    0  0.43881948641E+03 -0.83023863009E+02  0.11978341715E+04  0.12783912921E+04  0.46999998093E+01 0. -1.
       -5    1    3    3    0  502 -0.43881948641E+03  0.83023863009E+02 -0.12807908206E+04  0.13564301382E+04  0.46999998093E+01 0.  1.
</event>
<event>
 5   0  0.2662024E-05  0.2588455E+04  0.7818609E-02  0.8372133E-01
        2   -1    0    0  501    0  0.00000000000E+00  0.00000000000E+00  0.22267338302E+04  0.22267338302E+04  0.25500000920E-02 0. -1.
       -2   -1    0    0    0  501  0.00000000000E+00  0.00000000000E+00 -0.75223423253E+03  0.75223423254E+03  0.25500000920E-02 0.  1.
    10030    2    1    2    0    0  0.00000000000E+00  0.00000000000E+00  0.14744995977E+04  0.29789680628E+04  0.25884554575E+04 0.  0.
        2    1    3    3  502    0  0.12632554598E+04 -0.11859872990E+03  0.10309924592E+04  0.16348778138E+04  0.25500000920E-02 0. -1.
       -2    1    3    3    0  502 -0.12632554598E+04  0.11859872990E+03  0.44350713854E+03  0.13440902489E+04  0.25500000920E-02 0.  1.
</event>
<event>
 5   0  0.2484618E-05  0.2131518E+04  0.7818609E-02  0.8547485E-01
        2   -1    0    0  501    0  0.00000000000E+00  0.00000000000E+00  0.12275106800E+04  0.12275106800E+04  0.25500000920E-02 0. -1.
       -2   -1    0    0    0  501  0.00000000000E+00  0.00000000000E+00 -0.92532151117E+03  0.92532151117E+03  0.25500000920E-02 0.  1.
    10030    2    1    2    0    0  0.00000000000E+00  0.00000000000E+00  0.30218916879E+03  0.21528321911E+04  0.21315178042E+04 0.  0.
        3    1    3    3  502    0  0.46105308001E+01  0.69330171511E+03 -0.66641480162E+03  0.96166377866E+03  0.10100000352E+00 0.  1.
       -3    1    3    3    0  502 -0.46105308001E+01 -0.69330171511E+03  0.96860397040E+03  0.11911684125E+04  0.10100000352E+00 0. -1.
</event>
<event>
 5   0  0.1025153E-05  0.2574856E+04  0.7818609E-02  0.8376793E-01
        1   -1    0    0  501    0  0.00000000000E+00  0.00000000000E+00  0.23466907354E+04  0.23466907354E+04  0.50400001928E-02 0.  1.
       -1   -1    0    0    0  501  0.00000000000E+00  0.00000000000E+00 -0.70630136452E+03  0.70630136454E+03  0.50400001928E-02 0. -1.
    10030    2    1    2    0    0  0.00000000000E+00  0.00000000000E+00  0.16403893709E+04  0.30529921000E+04  0.25748560104E+04 0.  0.
        1    1    3    3  502    0  0.24534197439E+03  0.46362028253E+03 -0.57385834063E+03  0.77746372642E+03  0.50400001928E-02 0. -1.
       -1    1    3    3    0  502 -0.24534197439E+03 -0.46362028253E+03  0.22142477115E+04  0.22755283736E+04  0.50400001928E-02 0.  1.
</event>
<event>
 5   0  0.2484618E-05  0.2592247E+04  0.7818609E-02  0.8370840E-01
       -2   -1    0    0    0  501  0.00000000000E+00  0.00000000000E+00  0.94464751929E+03  0.94464751930E+03  0.25500000920E-02 0.  1.
        2   -1    0    0  501    0  0.00000000000E+00  0.00000000000E+00 -0.17783730326E+04  0.17783730326E+04  0.25500000920E-02 0. -1.
    10030    2    1    2    0    0  0.00000000000E+00  0.00000000000E+00 -0.83372551326E+03  0.27230205519E+04  0.25922466500E+04 0.  0.
        3    1    3    3  502    0 -0.29998535388E+03  0.12274684463E+04 -0.71997785709E+03  0.14543170645E+04  0.10100000352E+00 0.  1.
       -3    1    3    3    0  502  0.29998535388E+03 -0.12274684463E+04 -0.11374765617E+03  0.12687034873E+04  0.10100000352E+00 0. -1.
</event>
<event>
 5   0  0.2528460E-05  0.2393551E+04  0.7818609E-02  0.8441922E-01
       -2   -1    0    0    0  501  0.00000000000E+00  0.00000000000E+00  0.65024366726E+03  0.65024366727E+03  0.25500000920E-02 0.  1.
        2   -1    0    0  501    0  0.00000000000E+00  0.00000000000E+00 -0.22026691365E+04  0.22026691365E+04  0.25500000920E-02 0. -1.
    10030    2    1    2    0    0  0.00000000000E+00  0.00000000000E+00 -0.15524254693E+04  0.28529128038E+04  0.23935510499E+04 0.  0.
        5    1    3    3  502    0 -0.11410555717E+04 -0.33000131337E+03 -0.60209139805E+03  0.13317074852E+04  0.46999998093E+01 0.  1.
       -5    1    3    3    0  502  0.11410555717E+04  0.33000131337E+03 -0.95033407121E+03  0.15212053186E+04  0.46999998093E+01 0. -1.
</event>
<event>
 5   0  0.1025153E-05  0.2593554E+04  0.7818609E-02  0.8370394E-01
       -1   -1    0    0    0  501  0.00000000000E+00  0.00000000000E+00  0.76521548063E+03  0.76521548065E+03  0.50400001928E-02 0.  1.
        1   -1    0    0  501    0  0.00000000000E+00  0.00000000000E+00 -0.21975913633E+04  0.21975913633E+04  0.50400001928E-02 0. -1.
    10030    2    1    2    0    0  0.00000000000E+00  0.00000000000E+00 -0.14323758827E+04  0.29628068440E+04  0.25935542650E+04 0.  0.
        1    1    3    3  502    0  0.11633253301E+03 -0.21339751680E+03 -0.21713396447E+04  0.21848999087E+04  0.50400001928E-02 0. -1.
       -1    1    3    3    0  502 -0.11633253301E+03  0.21339751680E+03  0.73896376199E+03  0.77790693529E+03  0.50400001928E-02 0.  1.
</event>
<event>
 5   0  0.9855352E-06  0.1882949E+04  0.7818609E-02  0.8663390E-01
       -1   -1    0    0    0  501  0.00000000000E+00  0.00000000000E+00  0.54135566418E+03  0.54135566420E+03  0.50400001928E-02 0.  1.
        1   -1    0    0  501    0  0.00000000000E+00  0.00000000000E+00 -0.16373239758E+04  0.16373239759E+04  0.50400001928E-02 0. -1.
    10030    2    1    2    0    0  0.00000000000E+00  0.00000000000E+00 -0.10959683117E+04  0.21786796401E+04  0.18829493976E+04 0.  0.
        2    1    3    3  502    0  0.87326481193E+03  0.31833239369E+03 -0.72134072398E+03  0.11765455302E+04  0.25500000920E-02 0. -1.
       -2    1    3    3    0  502 -0.87326481193E+03 -0.31833239369E+03 -0.37462758769E+03  0.10021341098E+04  0.25500000920E-02 0.  1.
</event>
<event>
 5   0  0.2517854E-05  0.2596680E+04  0.7818609E-02  0.8369330E-01
        2   -1    0    0  501    0  0.00000000000E+00  0.00000000000E+00  0.10250963692E+04  0.10250963692E+04  0.25500000920E-02 0.  1.
       -2   -1    0    0    0  501  0.00000000000E+00  0.00000000000E+00 -0.16444183008E+04  0.16444183008E+04  0.25500000920E-02 0. -1.
    10030    2    1    2    0    0  0.00000000000E+00  0.00000000000E+00 -0.61932193152E+03  0.26695146700E+04  0.25966803651E+04 0.  0.
        4    1    3    3  502    0  0.52015076472E+03  0.16953247830E+03  0.90081491586E+03  0.10539294117E+04  0.12699999809E+01 0.  1.
       -4    1    3    3    0  502 -0.52015076472E+03 -0.16953247830E+03 -0.15201368474E+04  0.16155852583E+04  0.12699999809E+01 0. -1.
</event>
<event>
 5   0  0.2517854E-05  0.2568841E+04  0.7818609E-02  0.8378863E-01
        2   -1    0    0  501    0  0.00000000000E+00  0.00000000000E+00  0.17158858536E+04  0.17158858536E+04  0.25500000920E-02 0. -1.
       -2   -1    0    0    0  501  0.00000000000E+00  0.00000000000E+00 -0.96144886209E+03  0.96144886209E+03  0.25500000920E-02 0.  1.
    10030    2    1    2    0    0  0.00000000000E+00  0.00000000000E+00  0.75443699154E+03  0.26773347157E+04  0.25688413742E+04 0.  0.
        4    1    3    3  502    0  0.69401791349E+03  0.73952476089E+03  0.11986533353E+04  0.15701366715E+04  0.12699999809E+01 0. -1.
       -4    1    3    3    0  502 -0.69401791349E+03 -0.73952476089E+03 -0.44421634371E+03  0.11071980442E+04  0.12699999809E+01 0.  1.
</event>
<event>
 5   0  0.2662024E-05  0.2560769E+04  0.7818609E-02  0.8381651E-01
        2   -1    0    0  501    0  0.00000000000E+00  0.00000000000E+00  0.13916289413E+04  0.13916289413E+04  0.25500000920E-02 0.  1.
       -2   -1    0    0    0  501  0.00000000000E+00  0.00000000000E+00 -0.11780326331E+04  0.11780326331E+04  0.25500000920E-02 0. -1.
    10030    2    1    2    0    0  0.00000000000E+00  0.00000000000E+00  0.21359630818E+03  0.25696615744E+04  0.25607688736E+04 0.  0.
        2    1    3    3  502    0 -0.47055920748E+03 -0.70346211130E+03 -0.85731893641E+03  0.12046911092E+04  0.25500000920E-02 0. -1.
       -2    1    3    3    0  502  0.47055920748E+03  0.70346211130E+03  0.10709152446E+04  0.13649704652E+04  0.25500000920E-02 0.  1.
</event>
<event>
 5   0  0.2555801E-05  0.2557329E+04  0.7818609E-02  0.8382842E-01
        2   -1    0    0  501    0  0.00000000000E+00  0.00000000000E+00  0.20493006075E+04  0.20493006075E+04  0.25500000920E-02 0.  1.
       -2   -1    0    0    0  501  0.00000000000E+00  0.00000000000E+00 -0.79782480886E+03  0.79782480886E+03  0.25500000920E-02 0. -1.
    10030    2    1    2    0    0  0.00000000000E+00  0.00000000000E+00  0.12514757986E+04  0.28471254164E+04  0.25573289702E+04 0.  0.
        1    1    3    3  502    0 -0.54605020388E+03 -0.95018933375E+03  0.13591380287E+04  0.17459343562E+04  0.50400001928E-02 0.  1.
       -1    1    3    3    0  502  0.54605020388E+03  0.95018933375E+03 -0.10766223006E+03  0.11011910601E+04  0.50400001928E-02 0. -1.
</event>
<event>
 5   0  0.2517854E-05  0.2590144E+04  0.7818609E-02  0.8371557E-01
        2   -1    0    0  501    0  0.00000000000E+00  0.00000000000E+00  0.14322261256E+04  0.14322261256E+04  0.25500000920E-02 0. -1.
       -2   -1    0    0    0  501  0.00000000000E+00  0.00000000000E+00 -0.11710524461E+04  0.11710524461E+04  0.25500000920E-02 0.  1.
    10030    2    1    2    0    0  0.00000000000E+00  0.00000000000E+00  0.26117367948E+03  0.26032785717E+04  0.25901443263E+04 0.  0.
        4    1    3    3  502    0  0.11511823139E+04  0.15745316112E+03 -0.44432605657E+03  0.12439612032E+04  0.12699999809E+01 0.  1.
       -4    1    3    3    0  502 -0.11511823139E+04 -0.15745316112E+03  0.70549973605E+03  0.13593173684E+04  0.12699999809E+01 0. -1.
</event>
<event>
 5   0  0.2484618E-05  0.1861803E+04  0.7818609E-02  0.8674107E-01
       -2   -1    0    0    0  501  0.00000000000E+00  0.00000000000E+00  0.55457503355E+03  0.55457503356E+03  0.25500000920E-02 0. -1.
        2   -1    0    0  501    0  0.00000000000E+00  0.00000000000E+00 -0.15625973154E+04  0.15625973154E+04  0.25500000920E-02 0.  1.
    10030    2    1    2    0    0  0.00000000000E+00  0.00000000000E+00 -0.10080222819E+04  0.21171723490E+04  0.18618028453E+04 0.  0.
        3    1    3    3  502    0  0.44886603138E+03  0.70914160834E+03 -0.96201370939E+03  0.12766490990E+04  0.10100000352E+00 0.  1.
       -3    1    3    3    0  502 -0.44886603138E+03 -0.70914160834E+03 -0.46008572496E+02  0.84052324997E+03  0.10100000352E+00 0. -1.
</event>
<event>
 5   0  0.1000421E-05  0.2368925E+04  0.7818609E-02  0.8451230E-01
       -1   -1    0    0    0  501  0.00000000000E+00  0.00000000000E+00  0.20786341575E+04  0.20786341575E+04  0.50400001928E-02 0.  1.
        1   -1    0    0  501    0  0.00000000000E+00  0.00000000000E+00 -0.67493884558E+03  0.67493884560E+03  0.50400001928E-02 0. -1.
    10030    2    1    2    0    0  0.00000000000E+00  0.00000000000E+00  0.14036953119E+04  0.27535730031E+04  0.23689245988E+04 0.  0.
        3    1    3    3  502    0 -0.27288111200E+03  0.77438934258E+03 -0.29047273352E+03  0.87092902943E+03  0.10100000352E+00 0. -1.
       -3    1    3    3    0  502  0.27288111200E+03 -0.77438934258E+03  0.16941680454E+04  0.18826439736E+04  0.10100000352E+00 0.  1.
</event>
<event>
 5   0  0.1000421E-05  0.2628297E+04  0.7818609E-02  0.8358652E-01
        1   -1    0    0  501    0  0.00000000000E+00  0.00000000000E+00  0.14042822103E+04  0.14042822103E+04  0.50400001928E-02 0. -1.
       -1   -1    0    0    0  501  0.00000000000E+00  0.00000000000E+00 -0.12297998097E+04  0.12297998097E+04  0.50400001928E-02 0.  1.
    10030    2    1    2    0    0  0.00000000000E+00  0.00000000000E+00  0.17448240064E+03  0.26340820200E+04  0.26282967831E+04 0.  0.
        3    1    3    3  502    0 -0.89779305303E+03  0.92240537146E+03  0.35262956670E+03  0.13346204168E+04  0.10100000352E+00 0. -1.
       -3    1    3    3    0  502  0.89779305303E+03 -0.92240537146E+03 -0.17814716606E+03  0.12994616033E+04  0.10100000352E+00 0.  1.
</event>
<event>
 5   0  0.1005492E-05  0.2589948E+04  0.7818609E-02  0.8371624E-01
       -1   -1    0    0    0  501  0.00000000000E+00  0.00000000000E+00  0.87303842639E+03  0.87303842640E+03  0.50400001928E-02 0.  1.
        1   -1    0    0  501    0  0.00000000000E+00  0.00000000000E+00 -0.19208297569E+04  0.19208297569E+04  0.50400001928E-02 0. -1.
    10030    2    1    2    0    0  0.00000000000E+00  0.00000000000E+00 -0.10477913305E+04  0.27938681833E+04  0.25899484075E+04 0.  0.
        4    1    3    3  502    0  0.11227064394E+04 -0.37887421041E+03  0.39676213913E+02  0.11855763287E+04  0.12699999809E+01 0.  1.
       -4    1    3    3    0  502 -0.11227064394E+04  0.37887421041E+03 -0.10874675444E+04  0.16082918546E+04  0.12699999809E+01 0. -1.
</event>
<event>
 5   0  0.1025153E-05  0.2630142E+04  0.7818609E-02  0.8358034E-01
       -1   -1    0    0    0  501  0.00000000000E+00  0.00000000000E+00  0.84891427013E+03  0.84891427014E+03  0.50400001928E-02 0.  1.
        1   -1    0    0  501    0  0.00000000000E+00  0.00000000000E+00 -0.20372037875E+04  0.20372037875E+04  0.50400001928E-02 0. -1.
    10030    2    1    2    0    0  0.00000000000E+00  0.00000000000E+00 -0.11882895174E+04  0.28861180576E+04  0.26301417197E+04 0.  0.
        1    1    3    3  502    0  0.63131182508E+03 -0.14499229154E+03  0.66172056339E+03  0.92598676509E+03  0.50400001928E-02 0.  1.
       -1    1    3    3    0  502 -0.63131182508E+03  0.14499229154E+03 -0.18500100807E+04  0.19601312925E+04  0.50400001928E-02 0. -1.
</event>
<event>
 5   0  0.2555801E-05  0.2570308E+04  0.7818609E-02  0.8378357E-01
        2   -1    0    0  501    0  0.00000000000E+00  0.00000000000E+00  0.15049197013E+04  0.15049197013E+04  0.25500000920E-02 0. -1.
       -2   -1    0    0    0  501  0.00000000000E+00  0.00000000000E+00 -0.10974807384E+04  0.10974807385E+04  0.25500000920E-02 0.  1.
    10030    2    1    2    0    0  0.00000000000E+00  0.00000000000E+00  0.40743896282E+03  0.26024004397E+04  0.25703076742E+04 0.  0.
        1    1    3    3  502    0 -0.26707717375E+03  0.12293038435E+04 -0.62435769095E+02  0.12595302226E+04  0.50400001928E-02 0. -1.
       -1    1    3    3    0  502  0.26707717375E+03 -0.12293038435E+04  0.46987473192E+03  0.13428702171E+04  0.50400001928E-02 0.  1.
</event>
<event>
 5   0  0.2517854E-05  0.2628358E+04  0.7818609E-02  0.8358632E-01
        2   -1    0    0  501    0  0.00000000000E+00  0.00000000000E+00  0.13215485953E+04  0.13215485953E+04  0.25500000920E-02 0.  1.
       -2   -1    0    0    0  501  0.00000000000E+00  0.00000000000E+00 -0.13068505883E+04  0.13068505883E+04  0.25500000920E-02 0. -1.
    10030    2    1    2    0    0  0.00000000000E+00  0.00000000000E+00  0.14698006917E+02  0.26283991836E+04  0.26283580877E+04 0.  0.
        4    1    3    3  502    0 -0.36919390358E+03 -0.12611117948E+04 -0.11568189678E+02  0.13140938069E+04  0.12699999809E+01 0.  1.
       -4    1    3    3    0  502  0.36919390358E+03  0.12611117948E+04  0.26266196596E+02  0.13143053767E+04  0.12699999809E+01 0. -1.
</event>
<event>
 5   0  0.2662024E-05  0.2189087E+04  0.7818609E-02  0.8522984E-01
       -2   -1    0    0    0  501  0.00000000000E+00  0.00000000000E+00  0.12047438539E+04  0.12047438539E+04  0.25500000920E-02 0. -1.
        2   -1    0    0  501    0  0.00000000000E+00  0.00000000000E+00 -0.99442353126E+03  0.99442353126E+03  0.25500000920E-02 0.  1.
    10030    2    1    2    0    0  0.00000000000E+00  0.00000000000E+00  0.21032032266E+03  0.21991673852E+04  0.21890871499E+04 0.  0.
        2    1    3    3  502    0 -0.10942334452E+04 -0.24230057815E+02  0.95539571535E+02  0.10986636146E+04  0.25500000920E-02 0. -1.
       -2    1    3    3    0  502  0.10942334452E+04  0.24230057815E+02  0.11478075113E+03  0.11005037706E+04  0.25500000920E-02 0.  1.
</event>
<event>
 5   0  0.1034714E-05  0.2539597E+04  0.7818609E-02  0.8389013E-01
        1   -1    0    0  501    0  0.00000000000E+00  0.00000000000E+00  0.12935813838E+04  0.12935813838E+04  0.50400001928E-02 0. -1.
       -1   -1    0    0    0  501  0.00000000000E+00  0.00000000000E+00 -0.12464531483E+04  0.12464531483E+04  0.50400001928E-02 0.  1.
    10030    2    1    2    0    0  0.00000000000E+00  0.00000000000E+00  0.47128235487E+02  0.25400345321E+04  0.25395972818E+04 0.  0.
        5    1    3    3  502    0  0.26066937952E+03 -0.99391929496E+03 -0.72258202600E+03  0.12561731428E+04  0.46999998093E+01 0.  1.
       -5    1    3    3    0  502 -0.26066937952E+03  0.99391929496E+03  0.76971026148E+03  0.12838613893E+04  0.46999998093E+01 0. -1.
</event>
<event>
 5   0  0.1000421E-05  0.2510314E+04  0.7818609E-02  0.8399320E-01
        1   -1    0    0  501    0  0.00000000000E+00  0.00000000000E+00  0.23870254632E+04  0.23870254632E+04  0.50400001928E-02 0. -1.
       -1   -1    0    0    0  501  0.00000000000E+00  0.00000000000E+00 -0.65999280523E+03  0.65999280525E+03  0.50400001928E-02 0.  1.
    10030    2    1    2    0    0  0.00000000000E+00  0.00000000000E+00  0.17270326579E+04  0.30470182684E+04  0.25103144278E+04 0.  0.
        3    1    3    3  502    0  0.29276823563E+03  0.32032302670E+03 -0.56603827905E+03  0.71324569734E+03  0.10100000352E+00 0.  1.
       -3    1    3    3    0  502 -0.29276823563E+03 -0.32032302670E+03  0.22930709370E+04  0.23337725711E+04  0.10100000352E+00 0. -1.
</event>
<event>
 5   0  0.2555801E-05  0.2432725E+04  0.7818609E-02  0.8427352E-01
       -2   -1    0    0    0  501  0.00000000000E+00  0.00000000000E+00  0.17438588146E+04  0.17438588146E+04  0.25500000920E-02 0. -1.
        2   -1    0    0  501    0  0.00000000000E+00  0.00000000000E+00 -0.84842758221E+03  0.84842758222E+03  0.25500000920E-02 0.  1.
    10030    2    1    2    0    0  0.00000000000E+00  0.00000000000E+00  0.89543123241E+03  0.25922863968E+04  0.24327251533E+04 0.  0.
        1    1    3    3  502    0 -0.59628606620E+03 -0.73837908750E+03 -0.36295723784E+03  0.10161194350E+04  0.50400001928E-02 0.  1.
       -1    1    3    3    0  502  0.59628606620E+03  0.73837908750E+03  0.12583884702E+04  0.15761669619E+04  0.50400001928E-02 0. -1.
</event>
<event>
 5   0  0.1005492E-05  0.2634245E+04  0.7818609E-02  0.8356661E-01
       -1   -1    0    0    0  501  0.00000000000E+00  0.00000000000E+00  0.94331820486E+03  0.94331820487E+03  0.50400001928E-02 0.  1.
        1   -1    0    0  501    0  0.00000000000E+00  0.00000000000E+00 -0.18390523915E+04  0.18390523915E+04  0.50400001928E-02 0. -1.
    10030    2    1    2    0    0  0.00000000000E+00  0.00000000000E+00 -0.89573418664E+03  0.27823705964E+04  0.26342449397E+04 0.  0.
        4    1    3    3  502    0 -0.11554735775E+04 -0.34388322624E+03 -0.10082023780E+04  0.15715751683E+04  0.12699999809E+01 0. -1.
       -4    1    3    3    0  502  0.11554735775E+04  0.34388322624E+03  0.11246819136E+03  0.12107954281E+04  0.12699999809E+01 0.  1.
</event>
<event>
 5   0  0.1000421E-05  0.2735608E+04  0.7818609E-02  0.8323543E-01
       -1   -1    0    0    0  501  0.00000000000E+00  0.00000000000E+00  0.99168092008E+03  0.99168092009E+03  0.50400001928E-02 0. -1.
        1   -1    0    0  501    0  0.00000000000E+00  0.00000000000E+00 -0.18865830161E+04  0.18865830161E+04  0.50400001928E-02 0.  1.
    10030    2    1    2    0    0  0.00000000000E+00  0.00000000000E+00 -0.89490209599E+03  0.28782639362E+04  0.27356084378E+04 0.  0.
        3    1    3    3  502    0  0.79654460918E+03 -0.71674376922E+02  0.72003836131E+03  0.10761392952E+04  0.10100000352E+00 0. -1.
       -3    1    3    3    0  502 -0.79654460918E+03  0.71674376922E+02 -0.16149404573E+04  0.18021246410E+04  0.10100000352E+00 0.  1.
</event>
<event>
 5   0  0.1025153E-05  0.2642186E+04  0.7818609E-02  0.8354011E-01
       -1   -1    0    0    0  501  0.00000000000E+00  0.00000000000E+00  0.11655989716E+04  0.11655989716E+04  0.50400001928E-02 0.  1.
        1   -1    0    0  501    0  0.00000000000E+00  0.00000000000E+00 -0.14973299598E+04  0.14973299598E+04  0.50400001928E-02 0. -1.
    10030    2    1    2    0    0  0.00000000000E+00  0.00000000000E+00 -0.33173098820E+03  0.26629289313E+04  0.26421856568E+04 0.  0.
        1    1    3    3  502    0 -0.52715020889E+03 -0.11738506325E+04  0.13560424692E+03  0.12939092557E+04  0.50400001928E-02 0. -1.
       -1    1    3    3    0  502  0.52715020889E+03  0.11738506325E+04 -0.46733523512E+03  0.13690196756E+04  0.50400001928E-02 0.  1.
</event>
<event>
 5   0  0.1034714E-05  0.2688142E+04  0.7818609E-02  0.8338863E-01
        1   -1    0    0  501    0  0.00000000000E+00  0.00000000000E+00  0.15770665084E+04  0.15770665084E+04  0.50400001928E-02 0.  1.
       -1   -1    0    0    0  501  0.00000000000E+00  0.00000000000E+00 -0.11454985965E+04  0.11454985965E+04  0.50400001928E-02 0. -1.
    10030    2    1    2    0    0  0.00000000000E+00  0.00000000000E+00  0.43156791192E+03  0.27225651049E+04  0.26881424604E+04 0.  0.
        5    1    3    3  502    0  0.72647072184E+03  0.65939529557E+03 -0.71464385584E+03  0.12137956155E+04  0.46999998093E+01 0. -1.
       -5    1    3    3    0  502 -0.72647072184E+03 -0.65939529557E+03  0.11462117678E+04  0.15087694894E+04  0.46999998093E+01 0.  1.
</event>
<event>
 5   0  0.1000421E-05  0.2684527E+04  0.7818609E-02  0.8340043E-01
        1   -1    0    0  501    0  0.00000000000E+00  0.00000000000E+00  0.15927733858E+04  0.15927733858E+04  0.50400001928E-02 0. -1.
       -1   -1    0    0    0  501  0.00000000000E+00  0.00000000000E+00 -0.11311534728E+04  0.11311534728E+04  0.50400001928E-02 0.  1.
    10030    2    1    2    0    0  0.00000000000E+00  0.00000000000E+00  0.46161991304E+03  0.27239268586E+04  0.26845268832E+04 0.  0.
        3    1    3    3  502    0 -0.10294862389E+04 -0.50961670490E+02  0.11032148672E+04  0.15098086175E+04  0.10100000352E+00 0. -1.
       -3    1    3    3    0  502  0.10294862389E+04  0.50961670490E+02 -0.64159495419E+03  0.12141182411E+04  0.10100000352E+00 0.  1.
</event>
<event>
 5   0  0.2517854E-05  0.2614743E+04  0.7818609E-02  0.8363211E-01
       -2   -1    0    0    0  501  0.00000000000E+00  0.00000000000E+00  0.69188300163E+03  0.69188300164E+03  0.25500000920E-02 0.  1.
        2   -1    0    0  501    0  0.00000000000E+00  0.00000000000E+00 -0.24703882071E+04  0.24703882071E+04  0.25500000920E-02 0. -1.
    10030    2    1    2    0    0  0.00000000000E+00  0.00000000000E+00 -0.17785052055E+04  0.31622712088E+04  0.26147425173E+04 0.  0.
        4    1    3    3  502    0  0.63752989797E+03 -0.11103923976E+04 -0.56972734055E+03  0.14014301634E+04  0.12699999809E+01 0.  1.
       -4    1    3    3    0  502 -0.63752989797E+03  0.11103923976E+04 -0.12087778650E+04  0.17608410454E+04  0.12699999809E+01 0. -1.
</event>
<event>
 5   0  0.2555801E-05  0.2541898E+04  0.7818609E-02  0.8388209E-01
       -2   -1    0    0    0  501  0.00000000000E+00  0.00000000000E+00  0.12972984505E+04  0.12972984505E+04  0.25500000920E-02 0.  1.
        2   -1    0    0  501    0  0.00000000000E+00  0.00000000000E+00 -0.12451346960E+04  0.12451346960E+04  0.25500000920E-02 0. -1.
    10030    2    1    2    0    0  0.00000000000E+00  0.00000000000E+00  0.52163754556E+02  0.25424331465E+04  0.25418979616E+04 0.  0.
        1    1    3    3  502    0  0.98631989110E+03  0.19414429683E+03  0.80392959727E+03  0.12871758749E+04  0.50400001928E-02 0.  1.
       -1    1    3    3    0  502 -0.98631989110E+03 -0.19414429683E+03 -0.75176584272E+03  0.12552572716E+04  0.50400001928E-02 0. -1.
</event>
<event>
 5   0  0.1005492E-05  0.2473490E+04  0.7818609E-02  0.8412491E-01
       -1   -1    0    0    0  501  0.00000000000E+00  0.00000000000E+00  0.88127450343E+03  0.88127450345E+03  0.50400001928E-02 0. -1.
        1   -1    0    0  501    0  0.00000000000E+00  0.00000000000E+00 -0.17355980812E+04  0.17355980812E+04  0.50400001928E-02 0.  1.
    10030    2    1    2    0    0  0.00000000000E+00  0.00000000000E+00 -0.85432357772E+03  0.26168725846E+04  0.24734901149E+04 0.  0.
        4    1    3    3  502    0  0.11751533911E+04  0.28734385498E+03 -0.15539639408E+03  0.12197137516E+04  0.12699999809E+01 0.  1.
       -4    1    3    3    0  502 -0.11751533911E+04 -0.28734385498E+03 -0.69892718364E+03  0.13971588330E+04  0.12699999809E+01 0. -1.
</event>
<event>
 5   0  0.2528460E-05  0.2594978E+04  0.7818609E-02  0.8369909E-01
       -2   -1    0    0    0  501  0.00000000000E+00  0.00000000000E+00  0.12529300989E+04  0.12529300989E+04  0.25500000920E-02 0.  1.
        2   -1    0    0  501    0  0.00000000000E+00  0.00000000000E+00 -0.13436330146E+04  0.13436330146E+04  0.25500000920E-02 0. -1.
    10030    2    1    2    0    0  0.00000000000E+00  0.00000000000E+00 -0.90702915613E+02  0.25965631135E+04  0.25949784168E+04 0.  0.
        5    1    3    3  502    0 -0.23296114488E+03  0.69395866681E+03  0.10265667733E+04  0.12608374028E+04  0.46999998093E+01 0.  1.
       -5    1    3    3    0  502  0.23296114488E+03 -0.69395866681E+03 -0.11172696890E+04  0.13357257107E+04  0.46999998093E+01 0. -1.
</event>
<event>
 5   0  0.1005492E-05  0.2664852E+04  0.7818609E-02  0.8346500E-01
       -1   -1    0    0    0  501  0.00000000000E+00  0.00000000000E+00  0.15512852054E+04  0.15512852054E+04  0.50400001928E-02 0. -1.
        1   -1    0    0  501    0  0.00000000000E+00  0.00000000000E+00 -0.11444438483E+04  0.11444438483E+04  0.50400001928E-02 0.  1.
    10030    2    1    2    0    0  0.00000000000E+00  0.00000000000E+00  0.40684135713E+03  0.26957290537E+04  0.26648518235E+04 0.  0.
        4    1    3    3  502    0  0.25925152262E+03 -0.11474394488E+03  0.15204196050E+04  0.15466269469E+04  0.12699999809E+01 0. -1.
       -4    1    3    3    0  502 -0.25925152262E+03  0.11474394488E+03 -0.11135782479E+04  0.11491021068E+04  0.12699999809E+01 0.  1.
</event>
<event>
 5   0  0.1025153E-05  0.2631648E+04  0.7818609E-02  0.8357530E-01
       -1   -1    0    0    0  501  0.00000000000E+00  0.00000000000E+00  0.15015983878E+04  0.15015983878E+04  0.50400001928E-02 0.  1.
        1   -1    0    0  501    0  0.00000000000E+00  0.00000000000E+00 -0.11530329636E+04  0.11530329636E+04  0.50400001928E-02 0. -1.
    10030    2    1    2    0    0  0.00000000000E+00  0.00000000000E+00  0.34856542426E+03  0.26546313514E+04  0.26316477266E+04 0.  0.
        1    1    3    3  502    0 -0.66425260612E+03  0.44352252725E+03  0.12290961841E+04  0.14658175830E+04  0.50400001928E-02 0.  1.
       -1    1    3    3    0  502  0.66425260612E+03 -0.44352252725E+03 -0.88053075984E+03  0.11888137684E+04  0.50400001928E-02 0. -1.
</event>
<event>
 5   0  0.1025153E-05  0.2588172E+04  0.7818609E-02  0.8372230E-01
       -1   -1    0    0    0  501  0.00000000000E+00  0.00000000000E+00  0.10589549710E+04  0.10589549710E+04  0.50400001928E-02 0.  1.
        1   -1    0    0  501    0  0.00000000000E+00  0.00000000000E+00 -0.15814252647E+04  0.15814252648E+04  0.50400001928E-02 0. -1.
    10030    2    1    2    0    0  0.00000000000E+00  0.00000000000E+00 -0.52247029379E+03  0.26403802357E+04  0.25881716677E+04 0.  0.
        1    1    3    3  502    0  0.83559754780E+03  0.51353237866E+03  0.60002168191E+03  0.11497672741E+04  0.50400001928E-02 0.  1.
       -1    1    3    3    0  502 -0.83559754780E+03 -0.51353237866E+03 -0.11224919757E+04  0.14906129616E+04  0.50400001928E-02 0. -1.
</event>
<event>
 5   0  0.1000421E-05  0.2596357E+04  0.7818609E-02  0.8369440E-01
       -1   -1    0    0    0  501  0.00000000000E+00  0.00000000000E+00  0.88920210829E+03  0.88920210831E+03  0.50400001928E-02 0.  1.
        1   -1    0    0  501    0  0.00000000000E+00  0.00000000000E+00 -0.18952582023E+04  0.18952582023E+04  0.50400001928E-02 0. -1.
    10030    2    1    2    0    0  0.00000000000E+00  0.00000000000E+00 -0.10060560940E+04  0.27844603106E+04  0.25963571320E+04 0.  0.
        3    1    3    3  502    0 -0.71561776517E+03 -0.65568577829E+03  0.42154167040E+03  0.10581729612E+04  0.10100000352E+00 0.  1.
       -3    1    3    3    0  502  0.71561776517E+03  0.65568577829E+03 -0.14275977644E+04  0.17262873494E+04  0.10100000352E+00 0. -1.
</event>
<event>
 5   0  0.2528460E-05  0.2561457E+04  0.7818609E-02  0.8381412E-01
        2   -1    0    0  501    0  0.00000000000E+00  0.00000000000E+00  0.19034891034E+04  0.19034891034E+04  0.25500000920E-02 0. -1.
       -2   -1    0    0    0  501  0.00000000000E+00  0.00000000000E+00 -0.86171540673E+03  0.86171540673E+03  0.25500000920E-02 0.  1.
    10030    2    1    2    0    0  0.00000000000E+00  0.00000000000E+00  0.10417736967E+04  0.27652045102E+04  0.25614573094E+04 0.  0.
        5    1    3    3  502    0  0.63123873148E+03 -0.10438378287E+04  0.99748586222E+02  0.12239410195E+04  0.46999998093E+01 0.  1.
       -5    1    3    3    0  502 -0.63123873148E+03  0.10438378287E+04  0.94202511047E+03  0.15412634906E+04  0.46999998093E+01 0. -1.
</event>
<event>
 5   0  0.2555801E-05  0.2550565E+04  0.7818609E-02  0.8385190E-01
       -2   -1    0    0    0  501  0.00000000000E+00  0.00000000000E+00  0.93037256199E+03  0.93037256200E+03  0.25500000920E-02 0. -1.
        2   -1    0    0  501    0  0.00000000000E+00  0.00000000000E+00 -0.17480580346E+04  0.17480580346E+04  0.25500000920E-02 0.  1.
    10030    2    1    2    0    0  0.00000000000E+00  0.00000000000E+00 -0.81768547260E+03  0.26784305966E+04  0.25505648254E+04 0.  0.
        1    1    3    3  502    0  0.62763738409E+03 -0.54865403039E+03 -0.14223130983E+04  0.16486128959E+04  0.50400001928E-02 0.  1.
       -1    1    3    3    0  502 -0.62763738409E+03  0.54865403039E+03  0.60462762566E+03  0.10298177007E+04  0.50400001928E-02 0. -1.
</event>
<event>
 5   0  0.1005492E-05  0.2636522E+04  0.7818609E-02  0.8355900E-01
        1   -1    0    0  501    0  0.00000000000E+00  0.00000000000E+00  0.16430661071E+04  0.16430661071E+04  0.50400001928E-02 0.  1.
       -1   -1    0    0    0  501  0.00000000000E+00  0.00000000000E+00 -0.10576639535E+04  0.10576639535E+04  0.50400001928E-02 0. -1.
    10030    2    1    2    0    0  0.00000000000E+00  0.00000000000E+00  0.58540215368E+03  0.27007300606E+04  0.26365217956E+04 0.  0.
        4    1    3    3  502    0  0.13995819570E+02 -0.12480003812E+04  0.72742940277E+03  0.14445954393E+04  0.12699999809E+01 0. -1.
       -4    1    3    3    0  502 -0.13995819570E+02  0.12480003812E+04 -0.14202724908E+03  0.12561346213E+04  0.12699999809E+01 0.  1.
</event>
<event>
 5   0  0.1000421E-05  0.2642331E+04  0.7818609E-02  0.8353963E-01
        1   -1    0    0  501    0  0.00000000000E+00  0.00000000000E+00  0.11925047882E+04  0.11925047882E+04  0.50400001928E-02 0. -1.
       -1   -1    0    0    0  501  0.00000000000E+00  0.00000000000E+00 -0.14637071737E+04  0.14637071738E+04  0.50400001928E-02 0.  1.
    10030    2    1    2    0    0  0.00000000000E+00  0.00000000000E+00 -0.27120238558E+03  0.26562119619E+04  0.26423306479E+04 0.  0.
        3    1    3    3  502    0  0.11099891486E+04  0.41501975295E+03 -0.72275912954E+03  0.13880555014E+04  0.10100000352E+00 0.  1.
       -3    1    3    3    0  502 -0.11099891486E+04 -0.41501975295E+03  0.45155674396E+03  0.12681564606E+04  0.10100000352E+00 0. -1.
</event>
<event>
 5   0  0.2528460E-05  0.2591158E+04  0.7818609E-02  0.8371211E-01
       -2   -1    0    0    0  501  0.00000000000E+00  0.00000000000E+00  0.10631270474E+04  0.10631270474E+04  0.25500000920E-02 0.  1.
        2   -1    0    0  501    0  0.00000000000E+00  0.00000000000E+00 -0.15788562292E+04  0.15788562292E+04  0.25500000920E-02 0. -1.
    10030    2    1    2    0    0  0.00000000000E+00  0.00000000000E+00 -0.51572918186E+03  0.26419832766E+04  0.25911578579E+04 0.  0.
        5    1    3    3  502    0 -0.51123251584E+03 -0.76397221493E+03 -0.11887291681E+04  0.15027013528E+04  0.46999998093E+01 0. -1.
       -5    1    3    3    0  502  0.51123251584E+03  0.76397221493E+03  0.67299998627E+03  0.11392819238E+04  0.46999998093E+01 0.  1.
</event>
<event>
 5   0  0.1000421E-05  0.2772566E+04  0.7818609E-02  0.8311837E-01
        1   -1    0    0  501    0  0.00000000000E+00  0.00000000000E+00  0.17928948747E+04  0.17928948748E+04  0.50400001928E-02 0.  1.
       -1   -1    0    0    0  501  0.00000000000E+00  0.00000000000E+00 -0.10718865531E+04  0.10718865531E+04  0.50400001928E-02 0. -1.
    10030    2    1    2    0    0  0.00000000000E+00  0.00000000000E+00  0.72100832168E+03  0.28647814278E+04  0.27725655320E+04 0.  0.
        3    1    3    3  502    0  0.61079364878E+03 -0.24599289097E+03 -0.89998787441E+03  0.11151500204E+04  0.10100000352E+00 0. -1.
       -3    1    3    3    0  502 -0.61079364878E+03  0.24599289097E+03  0.16209961961E+04  0.17496314074E+04  0.10100000352E+00 0.  1.
</event>
<event>
 5   0  0.1000421E-05  0.1937061E+04  0.7818609E-02  0.8636626E-01
        1   -1    0    0  501    0  0.00000000000E+00  0.00000000000E+00  0.11515903165E+04  0.11515903165E+04  0.50400001928E-02 0.  1.
       -1   -1    0    0    0  501  0.00000000000E+00  0.00000000000E+00 -0.81457032925E+03  0.81457032927E+03  0.50400001928E-02 0. -1.
    10030    2    1    2    0    0  0.00000000000E+00  0.00000000000E+00  0.33701998726E+03  0.19661606458E+04  0.19370609730E+04 0.  0.
        3    1    3    3  502    0  0.27741573411E+03 -0.72452956484E+03  0.75700317394E+03  0.10839540560E+04  0.10100000352E+00 0.  1.
       -3    1    3    3    0  502 -0.27741573411E+03  0.72452956484E+03 -0.41998318668E+03  0.88220658984E+03  0.10100000352E+00 0. -1.
</event>
<event>
 5   0  0.2517854E-05  0.2614797E+04  0.7818609E-02  0.8363192E-01
        2   -1    0    0  501    0  0.00000000000E+00  0.00000000000E+00  0.16687914856E+04  0.16687914856E+04  0.25500000920E-02 0. -1.
       -2   -1    0    0    0  501  0.00000000000E+00  0.00000000000E+00 -0.10242685516E+04  0.10242685516E+04  0.25500000920E-02 0.  1.
    10030    2    1    2    0    0  0.00000000000E+00  0.00000000000E+00  0.64452293401E+03  0.26930600372E+04  0.26147968471E+04 0.  0.
        4    1    3    3  502    0  0.10265301006E+04 -0.80850735106E+03  0.27807226048E+03  0.13359543327E+04  0.12699999809E+01 0. -1.
       -4    1    3    3    0  502 -0.10265301006E+04  0.80850735106E+03  0.36645067354E+03  0.13571057045E+04  0.12699999809E+01 0.  1.
</event>
<event>
 5   0  0.2662024E-05  0.2598649E+04  0.7818609E-02  0.8368660E-01
        2   -1    0    0  501    0  0.00000000000E+00  0.00000000000E+00  0.25711544432E+04  0.25711544432E+04  0.25500000920E-02 0. -1.
       -2   -1    0    0    0  501  0.00000000000E+00  0.00000000000E+00 -0.65660944131E+03  0.65660944132E+03  0.25500000920E-02 0.  1.
    10030    2    1    2    0    0  0.00000000000E+00  0.00000000000E+00  0.19145450019E+04  0.32277638845E+04  0.25986490971E+04 0.  0.
        2    1    3    3  502    0  0.48004383443E+03 -0.34663933001E+02 -0.54180595398E+03  0.72470501792E+03  0.25500000920E-02 0.  1.
       -2    1    3    3    0  502 -0.48004383443E+03  0.34663933001E+02  0.24563509558E+04  0.25030588666E+04  0.25500000920E-02 0. -1.
</event>
<event>
 5   0  0.9855352E-06  0.2587646E+04  0.7818609E-02  0.8372410E-01
        1   -1    0    0  501    0  0.00000000000E+00  0.00000000000E+00  0.29982524868E+04  0.29982524868E+04  0.50400001928E-02 0.  1.
       -1   -1    0    0    0  501  0.00000000000E+00  0.00000000000E+00 -0.55831798909E+03  0.55831798911E+03  0.50400001928E-02 0. -1.
    10030    2    1    2    0    0  0.00000000000E+00  0.00000000000E+00  0.24399344977E+04  0.35565704759E+04  0.25876462658E+04 0.  0.
        2    1    3    3  502    0 -0.59708107280E+03  0.42237464916E+03 -0.24693822030E+03  0.77193564266E+03  0.25500000920E-02 0. -1.
       -2    1    3    3    0  502  0.59708107280E+03 -0.42237464916E+03  0.26868727180E+04  0.27846348332E+04  0.25500000920E-02 0.  1.
</event>
<event>
 5   0  0.2662024E-05  0.2623296E+04  0.7818609E-02  0.8360331E-01
       -2   -1    0    0    0  501  0.00000000000E+00  0.00000000000E+00  0.10776282942E+04  0.10776282942E+04  0.25500000920E-02 0. -1.
        2   -1    0    0  501    0  0.00000000000E+00  0.00000000000E+00 -0.15964873624E+04  0.15964873624E+04  0.25500000920E-02 0.  1.
    10030    2    1    2    0    0  0.00000000000E+00  0.00000000000E+00 -0.51885906816E+03  0.26741156566E+04  0.26232956013E+04 0.  0.
        2    1    3    3  502    0  0.89665245638E+02 -0.86122322811E+03 -0.12637441872E+04  0.15319251534E+04  0.25500000920E-02 0.  1.
       -2    1    3    3    0  502 -0.89665245638E+02  0.86122322811E+03  0.74488511905E+03  0.11421905032E+04  0.25500000920E-02 0. -1.
</event>
<event>
 5   0  0.9855352E-06  0.2539038E+04  0.7818609E-02  0.8389209E-01
        1   -1    0    0  501    0  0.00000000000E+00  0.00000000000E+00  0.32167794429E+04  0.32167794429E+04  0.50400001928E-02 0. -1.
       -1   -1    0    0    0  501  0.00000000000E+00  0.00000000000E+00 -0.50102222533E+03  0.50102222535E+03  0.50400001928E-02 0.  1.
    10030    2    1    2    0    0  0.00000000000E+00  0.00000000000E+00  0.27157572176E+04  0.37178016683E+04  0.25390376090E+04 0.  0.
        2    1    3    3  502    0 -0.89749375124E+03 -0.67468226538E+03  0.49039260332E+03  0.12252249174E+04  0.25500000920E-02 0.  1.
       -2    1    3    3    0  502  0.89749375124E+03  0.67468226538E+03  0.22253646143E+04  0.24925767509E+04  0.25500000920E-02 0. -1.
</event>
<event>
 5   0  0.8605000E-06  0.2576309E+04  0.7818609E-02  0.8376293E-01
        3   -1    0    0  501    0  0.00000000000E+00  0.00000000000E+00  0.12426537107E+04  0.12426537148E+04  0.10100000352E+00 0. -1.
       -3   -1    0    0    0  501  0.00000000000E+00  0.00000000000E+00 -0.13353215404E+04  0.13353215442E+04  0.10100000352E+00 0.  1.
    10030    2    1    2    0    0  0.00000000000E+00  0.00000000000E+00 -0.92667829712E+02  0.25779752590E+04  0.25763092030E+04 0.  0.
        1    1    3    3  502    0  0.11908423631E+03  0.68997048041E+03 -0.11282833242E+04  0.13278793540E+04  0.50400001928E-02 0.  1.
       -1    1    3    3    0  502 -0.11908423631E+03 -0.68997048041E+03  0.10356154945E+04  0.12500959050E+04  0.50400001928E-02 0. -1.
</event>
<event>
 5   0  0.1025153E-05  0.2541542E+04  0.7818609E-02  0.8388334E-01
       -1   -1    0    0    0  501  0.00000000000E+00  0.00000000000E+00  0.11151506735E+04  0.11151506735E+04  0.50400001928E-02 0. -1.
        1   -1    0    0  501    0  0.00000000000E+00  0.00000000000E+00 -0.14481081046E+04  0.14481081046E+04  0.50400001928E-02 0.  1.
    10030    2    1    2    0    0  0.00000000000E+00  0.00000000000E+00 -0.33295743112E+03  0.25632587781E+04  0.25415418377E+04 0.  0.
        1    1    3    3  502    0  0.10775030922E+03  0.28018378424E+03  0.10788783556E+04  0.11198623077E+04  0.50400001928E-02 0. -1.
       -1    1    3    3    0  502 -0.10775030922E+03 -0.28018378424E+03 -0.14118357867E+04  0.14433964704E+04  0.50400001928E-02 0.  1.
</event>
<event>
 5   0  0.2662024E-05  0.2305441E+04  0.7818609E-02  0.8475779E-01
       -2   -1    0    0    0  501  0.00000000000E+00  0.00000000000E+00  0.89811307747E+03  0.89811307747E+03  0.25500000920E-02 0. -1.
        2   -1    0    0  501    0  0.00000000000E+00  0.00000000000E+00 -0.14795064353E+04  0.14795064353E+04  0.25500000920E-02 0.  1.
    10030    2    1    2    0    0  0.00000000000E+00  0.00000000000E+00 -0.58139335787E+03  0.23776195128E+04  0.23054405894E+04 0.  0.
        2    1    3    3  502    0 -0.78044283988E+03 -0.84833186813E+03 -0.29324235380E+03  0.11894322439E+04  0.25500000920E-02 0.  1.
       -2    1    3    3    0  502  0.78044283988E+03  0.84833186813E+03 -0.28815100406E+03  0.11881872689E+04  0.25500000920E-02 0. -1.
</event>
<event>
 5   0  0.2517854E-05  0.2615416E+04  0.7818609E-02  0.8362984E-01
       -2   -1    0    0    0  501  0.00000000000E+00  0.00000000000E+00  0.92937745339E+03  0.92937745339E+03  0.25500000920E-02 0. -1.
        2   -1    0    0  501    0  0.00000000000E+00  0.00000000000E+00 -0.18400491179E+04  0.18400491179E+04  0.25500000920E-02 0.  1.
    10030    2    1    2    0    0  0.00000000000E+00  0.00000000000E+00 -0.91067166450E+03  0.27694265713E+04  0.26154159618E+04 0.  0.
        4    1    3    3  502    0 -0.19643469034E+03 -0.87469552744E+03 -0.14634593637E+04  0.17162149560E+04  0.12699999809E+01 0.  1.
       -4    1    3    3    0  502  0.19643469034E+03  0.87469552744E+03  0.55278769915E+03  0.10532116153E+04  0.12699999809E+01 0. -1.
</event>
<event>
 5   0  0.2555801E-05  0.2603696E+04  0.7818609E-02  0.8366947E-01
        2   -1    0    0  501    0  0.00000000000E+00  0.00000000000E+00  0.18109961074E+04  0.18109961074E+04  0.25500000920E-02 0. -1.
       -2   -1    0    0    0  501  0.00000000000E+00  0.00000000000E+00 -0.93584289009E+03  0.93584289010E+03  0.25500000920E-02 0.  1.
    10030    2    1    2    0    0  0.00000000000E+00  0.00000000000E+00  0.87515321727E+03  0.27468389975E+04  0.26036957050E+04 0.  0.
        1    1    3    3  502    0  0.87097423722E+03 -0.69640997286E+03 -0.27108594805E+03  0.11476369476E+04  0.50400001928E-02 0.  1.
       -1    1    3    3    0  502 -0.87097423722E+03  0.69640997286E+03  0.11462391653E+04  0.15992020499E+04  0.50400001928E-02 0. -1.
</event>
<event>
 5   0  0.2555801E-05  0.2578247E+04  0.7818609E-02  0.8375628E-01
        2   -1    0    0  501    0  0.00000000000E+00  0.00000000000E+00  0.16073889319E+04  0.16073889319E+04  0.25500000920E-02 0.  1.
       -2   -1    0    0    0  501  0.00000000000E+00  0.00000000000E+00 -0.10338747857E+04  0.10338747857E+04  0.25500000920E-02 0. -1.
    10030    2    1    2    0    0  0.00000000000E+00  0.00000000000E+00  0.57351414618E+03  0.26412637176E+04  0.25782466038E+04 0.  0.
        1    1    3    3  502    0 -0.11260657405E+04  0.18189733512E+03 -0.32852938348E+03  0.11870308539E+04  0.50400001928E-02 0. -1.
       -1    1    3    3    0  502  0.11260657405E+04 -0.18189733512E+03  0.90204352965E+03  0.14542328637E+04  0.50400001928E-02 0.  1.
</event>
<event>
 5   0  0.9855352E-06  0.2586198E+04  0.7818609E-02  0.8372905E-01
        1   -1    0    0  501    0  0.00000000000E+00  0.00000000000E+00  0.22180473018E+04  0.22180473018E+04  0.50400001928E-02 0. -1.
       -1   -1    0    0    0  501  0.00000000000E+00  0.00000000000E+00 -0.75386365233E+03  0.75386365235E+03  0.50400001928E-02 0.  1.
    10030    2    1    2    0    0  0.00000000000E+00  0.00000000000E+00  0.14641836495E+04  0.29719109541E+04  0.25861981672E+04 0.  0.
        2    1    3    3  502    0  0.43321201994E+03 -0.10540621606E+04  0.29904889178E+02  0.11400061382E+04  0.25500000920E-02 0.  1.
       -2    1    3    3    0  502 -0.43321201994E+03  0.10540621606E+04  0.14342787603E+04  0.18319048160E+04  0.25500000920E-02 0. -1.
</event>
<event>
 5   0  0.9855352E-06  0.2604369E+04  0.7818609E-02  0.8366719E-01
       -1   -1    0    0    0  501  0.00000000000E+00  0.00000000000E+00  0.11207407947E+04  0.11207407947E+04  0.50400001928E-02 0. -1.
        1   -1    0    0  501    0  0.00000000000E+00  0.00000000000E+00 -0.15130035904E+04  0.15130035904E+04  0.50400001928E-02 0.  1.
    10030    2    1    2    0    0  0.00000000000E+00  0.00000000000E+00 -0.39226279572E+03  0.26337443852E+04  0.26043692875E+04 0.  0.
        2    1    3    3  502    0  0.12391919662E+04 -0.34948068856E+03  0.87701020997E+00  0.12875302908E+04  0.25500000920E-02 0. -1.
       -2    1    3    3    0  502 -0.12391919662E+04  0.34948068856E+03 -0.39313980593E+03  0.13462140943E+04  0.25500000920E-02 0.  1.
</event>
<event>
 5   0  0.2555801E-05  0.2490965E+04  0.7818609E-02  0.8406211E-01
       -2   -1    0    0    0  501  0.00000000000E+00  0.00000000000E+00  0.68358689621E+03  0.68358689621E+03  0.25500000920E-02 0.  1.
        2   -1    0    0  501    0  0.00000000000E+00  0.00000000000E+00 -0.22692460558E+04  0.22692460558E+04  0.25500000920E-02 0. -1.
    10030    2    1    2    0    0  0.00000000000E+00  0.00000000000E+00 -0.15856591596E+04  0.29528329520E+04  0.24909651688E+04 0.  0.
        1    1    3    3  502    0  0.82384139828E+03 -0.51966593500E+02  0.31273430779E+03  0.88273321205E+03  0.50400001928E-02 0.  1.
       -1    1    3    3    0  502 -0.82384139828E+03  0.51966593500E+02 -0.18983934674E+04  0.20700997400E+04  0.50400001928E-02 0. -1.
</event>
<event>
 5   0  0.2528460E-05  0.2594502E+04  0.7818609E-02  0.8370071E-01
       -2   -1    0    0    0  501  0.00000000000E+00  0.00000000000E+00  0.10634708142E+04  0.10634708142E+04  0.25500000920E-02 0.  1.
        2   -1    0    0  501    0  0.00000000000E+00  0.00000000000E+00 -0.15824228666E+04  0.15824228666E+04  0.25500000920E-02 0. -1.
    10030    2    1    2    0    0  0.00000000000E+00  0.00000000000E+00 -0.51895205238E+03  0.26458936808E+04  0.25945022909E+04 0.  0.
        5    1    3    3  502    0  0.13671253723E+03  0.12215526572E+04  0.16341508184E+03  0.12400031416E+04  0.46999998093E+01 0.  1.
       -5    1    3    3    0  502 -0.13671253723E+03 -0.12215526572E+04 -0.68236713422E+03  0.14058905392E+04  0.46999998093E+01 0. -1.
</event>
<event>
 5   0  0.2517854E-05  0.2589411E+04  0.7818609E-02  0.8371807E-01
        2   -1    0    0  501    0  0.00000000000E+00  0.00000000000E+00  0.12367908126E+04  0.12367908126E+04  0.25500000920E-02 0. -1.
       -2   -1    0    0    0  501  0.00000000000E+00  0.00000000000E+00 -0.13553323873E+04  0.13553323873E+04  0.25500000920E-02 0.  1.
    10030    2    1    2    0    0  0.00000000000E+00  0.00000000000E+00 -0.11854157464E+03  0.25921231999E+04  0.25894112417E+04 0.  0.
        4    1    3    3  502    0 -0.17440903904E+03  0.58331479769E+03  0.10845484936E+04  0.12437530759E+04  0.12699999809E+01 0. -1.
       -4    1    3    3    0  502  0.17440903904E+03 -0.58331479769E+03 -0.12030900682E+04  0.13483701240E+04  0.12699999809E+01 0.  1.
</event>
<event>
 5   0  0.1025153E-05  0.2635002E+04  0.7818609E-02  0.8356408E-01
        1   -1    0    0  501    0  0.00000000000E+00  0.00000000000E+00  0.20940134524E+04  0.20940134524E+04  0.50400001928E-02 0. -1.
       -1   -1    0    0    0  501  0.00000000000E+00  0.00000000000E+00 -0.82893869774E+03  0.82893869776E+03  0.50400001928E-02 0.  1.
    10030    2    1    2    0    0  0.00000000000E+00  0.00000000000E+00  0.12650747546E+04  0.29229521501E+04  0.26350019236E+04 0.  0.
        1    1    3    3  502    0  0.59388122612E+03  0.10888165806E+04  0.13944781710E+03  0.12480633600E+04  0.50400001928E-02 0.  1.
       -1    1    3    3    0  502 -0.59388122612E+03 -0.10888165806E+04  0.11256269375E+04  0.16748887901E+04  0.50400001928E-02 0. -1.
</event>
<event>
 5   0  0.2484618E-05  0.2886982E+04  0.7818609E-02  0.8276761E-01
        2   -1    0    0  501    0  0.00000000000E+00  0.00000000000E+00  0.17759193749E+04  0.17759193749E+04  0.25500000920E-02 0. -1.
       -2   -1    0    0    0  501  0.00000000000E+00  0.00000000000E+00 -0.11732884090E+04  0.11732884090E+04  0.25500000920E-02 0.  1.
    10030    2    1    2    0    0  0.00000000000E+00  0.00000000000E+00  0.60263096594E+03  0.29492077840E+04  0.28869815503E+04 0.  0.
        3    1    3    3  502    0 -0.13175087614E+04  0.34932926444E+03 -0.18411658595E+03  0.13754123741E+04  0.10100000352E+00 0.  1.
       -3    1    3    3    0  502  0.13175087614E+04 -0.34932926444E+03  0.78674755189E+03  0.15737954098E+04  0.10100000352E+00 0. -1.
</event>
<event>
 5   0  0.2555801E-05  0.2687245E+04  0.7818609E-02  0.8339155E-01
        2   -1    0    0  501    0  0.00000000000E+00  0.00000000000E+00  0.11139685882E+04  0.11139685882E+04  0.25500000920E-02 0. -1.
       -2   -1    0    0    0  501  0.00000000000E+00  0.00000000000E+00 -0.16206215311E+04  0.16206215311E+04  0.25500000920E-02 0.  1.
    10030    2    1    2    0    0  0.00000000000E+00  0.00000000000E+00 -0.50665294296E+03  0.27345901193E+04  0.26872450421E+04 0.  0.
        1    1    3    3  502    0  0.63251611252E+03 -0.39290937686E+03 -0.13914530078E+04  0.15781621856E+04  0.50400001928E-02 0.  1.
       -1    1    3    3    0  502 -0.63251611252E+03  0.39290937686E+03  0.88480006489E+03  0.11564279337E+04  0.50400001928E-02 0. -1.
</event>
<event>
 5   0  0.1005492E-05  0.2619288E+04  0.7818609E-02  0.8361679E-01
        1   -1    0    0  501    0  0.00000000000E+00  0.00000000000E+00  0.22273722185E+04  0.22273722185E+04  0.50400001928E-02 0. -1.
       -1   -1    0    0    0  501  0.00000000000E+00  0.00000000000E+00 -0.77004047517E+03  0.77004047519E+03  0.50400001928E-02 0.  1.
    10030    2    1    2    0    0  0.00000000000E+00  0.00000000000E+00  0.14573317433E+04  0.29974126937E+04  0.26192875073E+04 0.  0.
        4    1    3    3  502    0 -0.79788895660E+03 -0.77706151582E+03  0.15171251746E+04  0.18820525483E+04  0.12699999809E+01 0. -1.
       -4    1    3    3    0  502  0.79788895660E+03  0.77706151582E+03 -0.59793431313E+02  0.11153601453E+04  0.12699999809E+01 0.  1.
</event>
<event>
 5   0  0.2484618E-05  0.2604418E+04  0.7818609E-02  0.8366702E-01
        2   -1    0    0  501    0  0.00000000000E+00  0.00000000000E+00  0.18302375285E+04  0.18302375285E+04  0.25500000920E-02 0.  1.
       -2   -1    0    0    0  501  0.00000000000E+00  0.00000000000E+00 -0.92651782931E+03  0.92651782931E+03  0.25500000920E-02 0. -1.
    10030    2    1    2    0    0  0.00000000000E+00  0.00000000000E+00  0.90371969920E+03  0.27567553578E+04  0.26044175564E+04 0.  0.
        3    1    3    3  502    0 -0.20399972235E+03  0.35700622353E+03  0.17597202433E+04  0.18071205480E+04  0.10100000352E+00 0.  1.
       -3    1    3    3    0  502  0.20399972235E+03 -0.35700622353E+03 -0.85600054405E+03  0.94963480980E+03  0.10100000352E+00 0. -1.
</event>
<event>
 5   0  0.2555801E-05  0.2586527E+04  0.7818609E-02  0.8372792E-01
        2   -1    0    0  501    0  0.00000000000E+00  0.00000000000E+00  0.11311188226E+04  0.11311188226E+04  0.25500000920E-02 0.  1.
       -2   -1    0    0    0  501  0.00000000000E+00  0.00000000000E+00 -0.14786516023E+04  0.14786516023E+04  0.25500000920E-02 0. -1.
    10030    2    1    2    0    0  0.00000000000E+00  0.00000000000E+00 -0.34753277973E+03  0.26097704248E+04  0.25865271383E+04 0.  0.
        1    1    3    3  502    0 -0.18383356236E+03  0.77335296319E+03  0.85552874721E+03  0.11678180602E+04  0.50400001928E-02 0.  1.
       -1    1    3    3    0  502  0.18383356236E+03 -0.77335296319E+03 -0.12030615269E+04  0.14419523647E+04  0.50400001928E-02 0. -1.
</event>
<event>
 5   0  0.9855352E-06  0.2570398E+04  0.7818609E-02  0.8378326E-01
        1   -1    0    0  501    0  0.00000000000E+00  0.00000000000E+00  0.14133210396E+04  0.14133210396E+04  0.50400001928E-02 0.  1.
       -1   -1    0    0    0  501  0.00000000000E+00  0.00000000000E+00 -0.11686917981E+04  0.11686917981E+04  0.50400001928E-02 0. -1.
    10030    2    1    2    0    0  0.00000000000E+00  0.00000000000E+00  0.24462924155E+03  0.25820128377E+04  0.25703981848E+04 0.  0.
        2    1    3    3  502    0 -0.58256723386E+03 -0.10688274941E+04 -0.29181018135E+03  0.12517707362E+04  0.25500000920E-02 0. -1.
       -2    1    3    3    0  502  0.58256723386E+03  0.10688274941E+04  0.53643942289E+03  0.13302421015E+04  0.25500000920E-02 0.  1.
</event>
<event>
 5   0  0.2528460E-05  0.2594596E+04  0.7818609E-02  0.8370039E-01
       -2   -1    0    0    0  501  0.00000000000E+00  0.00000000000E+00  0.21702416797E+04  0.21702416797E+04  0.25500000920E-02 0. -1.
        2   -1    0    0  501    0  0.00000000000E+00  0.00000000000E+00 -0.77548128328E+03  0.77548128329E+03  0.25500000920E-02 0.  1.
    10030    2    1    2    0    0  0.00000000000E+00  0.00000000000E+00  0.13947603964E+04  0.29457229630E+04  0.25945957703E+04 0.  0.
        5    1    3    3  502    0 -0.70239720661E+03 -0.57537671523E+03  0.17493477357E+04  0.19709540306E+04  0.46999998093E+01 0. -1.
       -5    1    3    3    0  502  0.70239720661E+03  0.57537671523E+03 -0.35458733933E+03  0.97476893236E+03  0.46999998093E+01 0.  1.
</event>
<event>
 5   0  0.1025153E-05  0.2591272E+04  0.7818609E-02  0.8371172E-01
        1   -1    0    0  501    0  0.00000000000E+00  0.00000000000E+00  0.12536943735E+04  0.12536943735E+04  0.50400001928E-02 0. -1.
       -1   -1    0    0    0  501  0.00000000000E+00  0.00000000000E+00 -0.13389803780E+04  0.13389803780E+04  0.50400001928E-02 0.  1.
    10030    2    1    2    0    0  0.00000000000E+00  0.00000000000E+00 -0.85286004505E+02  0.25926747515E+04  0.25912716308E+04 0.  0.
        1    1    3    3  502    0 -0.35411073232E+03  0.87363424289E+03  0.84668077388E+03  0.12670830809E+04  0.50400001928E-02 0. -1.
       -1    1    3    3    0  502  0.35411073232E+03 -0.87363424289E+03 -0.93196677839E+03  0.13255916706E+04  0.50400001928E-02 0.  1.
</event>
<event>
 5   0  0.2555801E-05  0.2631065E+04  0.7818609E-02  0.8357725E-01
        2   -1    0    0  501    0  0.00000000000E+00  0.00000000000E+00  0.20697783437E+04  0.20697783437E+04  0.25500000920E-02 0.  1.
       -2   -1    0    0    0  501  0.00000000000E+00  0.00000000000E+00 -0.83614043022E+03  0.83614043023E+03  0.25500000920E-02 0. -1.
    10030    2    1    2    0    0  0.00000000000E+00  0.00000000000E+00  0.12336379135E+04  0.29059187740E+04  0.26310646931E+04 0.  0.
        1    1    3    3  502    0 -0.70802714032E+02 -0.41153636689E+03  0.19946362998E+04  0.20378785965E+04  0.50400001928E-02 0.  1.
       -1    1    3    3    0  502  0.70802714032E+02  0.41153636689E+03 -0.76099838633E+03  0.86804017742E+03  0.50400001928E-02 0. -1.
</event>
<event>
 5   0  0.2662024E-05  0.2601991E+04  0.7818609E-02  0.8367525E-01
       -2   -1    0    0    0  501  0.00000000000E+00  0.00000000000E+00  0.15202963195E+04  0.15202963195E+04  0.25500000920E-02 0. -1.
        2   -1    0    0  501    0  0.00000000000E+00  0.00000000000E+00 -0.11133282750E+04  0.11133282750E+04  0.25500000920E-02 0.  1.
    10030    2    1    2    0    0  0.00000000000E+00  0.00000000000E+00  0.40696804447E+03  0.26336245945E+04  0.26019906832E+04 0.  0.
        2    1    3    3  502    0  0.44564278096E+03  0.27562230441E+03 -0.10018013403E+04  0.11305622797E+04  0.25500000920E-02 0.  1.
       -2    1    3    3    0  502 -0.44564278096E+03 -0.27562230441E+03  0.14087693847E+04  0.15030623148E+04  0.25500000920E-02 0. -1.
</event>
<event>
 5   0  0.1034714E-05  0.2538213E+04  0.7818609E-02  0.8389497E-01
       -1   -1    0    0    0  501  0.00000000000E+00  0.00000000000E+00  0.22544385583E+04  0.22544385583E+04  0.50400001928E-02 0.  1.
        1   -1    0    0  501    0  0.00000000000E+00  0.00000000000E+00 -0.71442665795E+03  0.71442665797E+03  0.50400001928E-02 0. -1.
    10030    2    1    2    0    0  0.00000000000E+00  0.00000000000E+00  0.15400119003E+04  0.29688652162E+04  0.25382127608E+04 0.  0.
        5    1    3    3  502    0 -0.73634717787E+03 -0.74701080176E+03  0.16056240530E+04  0.19178850314E+04  0.46999998093E+01 0.  1.
       -5    1    3    3    0  502  0.73634717787E+03  0.74701080176E+03 -0.65612152649E+02  0.10509801848E+04  0.46999998093E+01 0. -1.
</event>
<event>
 5   0  0.1000421E-05  0.2630259E+04  0.7818609E-02  0.8357995E-01
       -1   -1    0    0    0  501  0.00000000000E+00  0.00000000000E+00  0.89200873692E+03  0.89200873693E+03  0.50400001928E-02 0.  1.
        1   -1    0    0  501    0  0.00000000000E+00  0.00000000000E+00 -0.19389552819E+04  0.19389552819E+04  0.50400001928E-02 0. -1.
    10030    2    1    2    0    0  0.00000000000E+00  0.00000000000E+00 -0.10469465450E+04  0.28309640189E+04  0.26302585820E+04 0.  0.
        3    1    3    3  502    0  0.30852747883E+03  0.37361763297E+03  0.79243425321E+03  0.92883335250E+03  0.10100000352E+00 0.  1.
       -3    1    3    3    0  502 -0.30852747883E+03 -0.37361763297E+03 -0.18393807982E+04  0.19021306664E+04  0.10100000352E+00 0. -1.
</event>
<event>
 5   0  0.2484618E-05  0.2501068E+04  0.7818609E-02  0.8402605E-01
        2   -1    0    0  501    0  0.00000000000E+00  0.00000000000E+00  0.14005358261E+04  0.14005358261E+04  0.25500000920E-02 0. -1.
       -2   -1    0    0    0  501  0.00000000000E+00  0.00000000000E+00 -0.11165978690E+04  0.11165978690E+04  0.25500000920E-02 0.  1.
    10030    2    1    2    0    0  0.00000000000E+00  0.00000000000E+00  0.28393795711E+03  0.25171336951E+04  0.25010680269E+04 0.  0.
        3    1    3    3  502    0 -0.40947055520E+02  0.11315004328E+03  0.13946957198E+04  0.13998770499E+04  0.10100000352E+00 0. -1.
       -3    1    3    3    0  502  0.40947055520E+02 -0.11315004328E+03 -0.11107577627E+04  0.11172566452E+04  0.10100000352E+00 0.  1.
</event>
<event>
 5   0  0.2528460E-05  0.2612560E+04  0.7818609E-02  0.8363947E-01
       -2   -1    0    0    0  501  0.00000000000E+00  0.00000000000E+00  0.13475941195E+04  0.13475941195E+04  0.25500000920E-02 0.  1.
        2   -1    0    0  501    0  0.00000000000E+00  0.00000000000E+00 -0.12662322037E+04  0.12662322037E+04  0.25500000920E-02 0. -1.
    10030    2    1    2    0    0  0.00000000000E+00  0.00000000000E+00  0.81361915868E+02  0.26138263232E+04  0.26125597192E+04 0.  0.
        5    1    3    3  502    0  0.11927067248E+04  0.47740679791E+03 -0.19581976923E+03  0.12995514819E+04  0.46999998093E+01 0.  1.
       -5    1    3    3    0  502 -0.11927067248E+04 -0.47740679791E+03  0.27718168510E+03  0.13142748413E+04  0.46999998093E+01 0. -1.
</event>
<event>
 5   0  0.1034714E-05  0.2774335E+04  0.7818609E-02  0.8311281E-01
        1   -1    0    0  501    0  0.00000000000E+00  0.00000000000E+00  0.19441299099E+04  0.19441299100E+04  0.50400001928E-02 0. -1.
       -1   -1    0    0    0  501  0.00000000000E+00  0.00000000000E+00 -0.98976603665E+03  0.98976603666E+03  0.50400001928E-02 0.  1.
    10030    2    1    2    0    0  0.00000000000E+00  0.00000000000E+00  0.95436387330E+03  0.29338959466E+04  0.27743350596E+04 0.  0.
        5    1    3    3  502    0 -0.94392041284E+03  0.76811891885E+03  0.11812183187E+04  0.16959632147E+04  0.46999998093E+01 0. -1.
       -5    1    3    3    0  502  0.94392041284E+03 -0.76811891885E+03 -0.22685444541E+03  0.12379327319E+04  0.46999998093E+01 0.  1.
</event>
<event>
 5   0  0.2555801E-05  0.2620559E+04  0.7818609E-02  0.8361251E-01
        2   -1    0    0  501    0  0.00000000000E+00  0.00000000000E+00  0.15447933925E+04  0.15447933925E+04  0.25500000920E-02 0.  1.
       -2   -1    0    0    0  501  0.00000000000E+00  0.00000000000E+00 -0.11113670847E+04  0.11113670847E+04  0.25500000920E-02 0. -1.
    10030    2    1    2    0    0  0.00000000000E+00  0.00000000000E+00  0.43342630777E+03  0.26561604772E+04  0.26205591229E+04 0.  0.
        1    1    3    3  502    0  0.10942056543E+04 -0.64717107708E+03  0.53838260961E+03  0.13805695388E+04  0.50400001928E-02 0. -1.
       -1    1    3    3    0  502 -0.10942056543E+04  0.64717107708E+03 -0.10495630184E+03  0.12755909385E+04  0.50400001928E-02 0.  1.
</event>
<event>
 5   0  0.1025153E-05  0.2570582E+04  0.7818609E-02  0.8378263E-01
        1   -1    0    0  501    0  0.00000000000E+00  0.00000000000E+00  0.16274798597E+04  0.16274798597E+04  0.50400001928E-02 0.  1.
       -1   -1    0    0    0  501  0.00000000000E+00  0.00000000000E+00 -0.10150493152E+04  0.10150493152E+04  0.50400001928E-02 0. -1.
    10030    2    1    2    0    0  0.00000000000E+00  0.00000000000E+00  0.61243054448E+03  0.26425291748E+04  0.25705815039E+04 0.  0.
        1    1    3    3  502    0 -0.99518182937E+03  0.49687048310E+01  0.11423442590E+04  0.15150452032E+04  0.50400001928E-02 0.  1.
       -1    1    3    3    0  502  0.99518182937E+03 -0.49687048310E+01 -0.52991371452E+03  0.11274839717E+04  0.50400001928E-02 0. -1.
</event>
<event>
 5   0  0.2484618E-05  0.2610206E+04  0.7818609E-02  0.8364743E-01
       -2   -1    0    0    0  501  0.00000000000E+00  0.00000000000E+00  0.77106144253E+03  0.77106144253E+03  0.25500000920E-02 0. -1.
        2   -1    0    0  501    0  0.00000000000E+00  0.00000000000E+00 -0.22090246463E+04  0.22090246463E+04  0.25500000920E-02 0.  1.
    10030    2    1    2    0    0  0.00000000000E+00  0.00000000000E+00 -0.14379632037E+04  0.29800860888E+04  0.26102059155E+04 0.  0.
        3    1    3    3  502    0 -0.61994939324E+03  0.49449717997E+03  0.46444929433E+03  0.91900917753E+03  0.10100000352E+00 0. -1.
       -3    1    3    3    0  502  0.61994939324E+03 -0.49449717997E+03 -0.19024124981E+04  0.20610769113E+04  0.10100000352E+00 0.  1.
</event>
<event>
 5   0  0.2517854E-05  0.2613943E+04  0.7818609E-02  0.8363480E-01
        2   -1    0    0  501    0  0.00000000000E+00  0.00000000000E+00  0.14182767813E+04  0.14182767813E+04  0.25500000920E-02 0.  1.
       -2   -1    0    0    0  501  0.00000000000E+00  0.00000000000E+00 -0.12044017814E+04  0.12044017814E+04  0.25500000920E-02 0. -1.
    10030    2    1    2    0    0  0.00000000000E+00  0.00000000000E+00  0.21387499988E+03  0.26226785626E+04  0.26139434438E+04 0.  0.
        4    1    3    3  502    0 -0.10221330389E+04 -0.78485306470E+03 -0.11155887997E+03  0.12935212712E+04  0.12699999809E+01 0. -1.
       -4    1    3    3    0  502  0.10221330389E+04  0.78485306470E+03  0.32543387985E+03  0.13291572915E+04  0.12699999809E+01 0.  1.
</event>
<event>
 5   0  0.2662024E-05  0.2614944E+04  0.7818609E-02  0.8363143E-01
        2   -1    0    0  501    0  0.00000000000E+00  0.00000000000E+00  0.24734643557E+04  0.24734643557E+04  0.25500000920E-02 0.  1.
       -2   -1    0    0    0  501  0.00000000000E+00  0.00000000000E+00 -0.69112889619E+03  0.69112889619E+03  0.25500000920E-02 0. -1.
    10030    2    1    2    0    0  0.00000000000E+00  0.00000000000E+00  0.17823354595E+04  0.31645932519E+04  0.26149437393E+04 0.  0.
        2    1    3    3  502    0 -0.10715829399E+03 -0.53583911252E+03  0.23286417601E+04  0.23918985977E+04  0.25500000920E-02 0.  1.
       -2    1    3    3    0  502  0.10715829399E+03  0.53583911252E+03 -0.54630630065E+03  0.77269465419E+03  0.25500000920E-02 0. -1.
</event>
<event>
 5   0  0.2517854E-05  0.2329626E+04  0.7818609E-02  0.8466331E-01
        2   -1    0    0  501    0  0.00000000000E+00  0.00000000000E+00  0.75163453705E+03  0.75163453705E+03  0.25500000920E-02 0.  1.
       -2   -1    0    0    0  501  0.00000000000E+00  0.00000000000E+00 -0.18051180879E+04  0.18051180879E+04  0.25500000920E-02 0. -1.
    10030    2    1    2    0    0  0.00000000000E+00  0.00000000000E+00 -0.10534835509E+04  0.25567526250E+04  0.23296258054E+04 0.  0.
        4    1    3    3  502    0  0.40988225231E+02 -0.10645363670E+04 -0.97881174608E+01  0.10653708892E+04  0.12699999809E+01 0. -1.
       -4    1    3    3    0  502 -0.40988225231E+02  0.10645363670E+04 -0.10436954334E+04  0.14913817358E+04  0.12699999809E+01 0.  1.
</event>
<event>
 5   0  0.2555801E-05  0.2592051E+04  0.7818609E-02  0.8370906E-01
       -2   -1    0    0    0  501  0.00000000000E+00  0.00000000000E+00  0.93655547919E+03  0.93655547919E+03  0.25500000920E-02 0. -1.
        2   -1    0    0  501    0  0.00000000000E+00  0.00000000000E+00 -0.17934675161E+04  0.17934675161E+04  0.25500000920E-02 0.  1.
    10030    2    1    2    0    0  0.00000000000E+00  0.00000000000E+00 -0.85691203692E+03  0.27300229953E+04  0.25920507934E+04 0.  0.
        1    1    3    3  502    0  0.86730535321E+03 -0.47448917199E+03 -0.13111117168E+04  0.16420634835E+04  0.50400001928E-02 0.  1.
       -1    1    3    3    0  502 -0.86730535321E+03  0.47448917199E+03  0.45419967986E+03  0.10879595118E+04  0.50400001928E-02 0. -1.
</event>
<event>
 5   0  0.1034714E-05  0.2578293E+04  0.7818609E-02  0.8375612E-01
        1   -1    0    0  501    0  0.00000000000E+00  0.00000000000E+00  0.18122327992E+04  0.18122327992E+04  0.50400001928E-02 0.  1.
       -1   -1    0    0    0  501  0.00000000000E+00  0.00000000000E+00 -0.91704446493E+03  0.91704446494E+03  0.50400001928E-02 0. -1.
    10030    2    1    2    0    0  0.00000000000E+00  0.00000000000E+00  0.89518833427E+03  0.27292772641E+04  0.25782925030E+04 0.  0.
        5    1    3    3  502    0  0.13498680610E+03  0.86683564548E+03  0.14474994664E+04  0.16926022183E+04  0.46999998093E+01 0.  1.
       -5    1    3    3    0  502 -0.13498680610E+03 -0.86683564548E+03 -0.55231113212E+03  0.10366750459E+04  0.46999998093E+01 0. -1.
</event>
<event>
 5   0  0.1025153E-05  0.2617663E+04  0.7818609E-02  0.8362226E-01
       -1   -1    0    0    0  501  0.00000000000E+00  0.00000000000E+00  0.10719504376E+04  0.10719504376E+04  0.50400001928E-02 0. -1.
        1   -1    0    0  501    0  0.00000000000E+00  0.00000000000E+00 -0.15980585604E+04  0.15980585604E+04  0.50400001928E-02 0.  1.
    10030    2    1    2    0    0  0.00000000000E+00  0.00000000000E+00 -0.52610812281E+03  0.26700089980E+04  0.26176627538E+04 0.  0.
        1    1    3    3  502    0  0.40635796731E+03  0.12413396919E+04 -0.17778481839E+03  0.13182027424E+04  0.50400001928E-02 0. -1.
       -1    1    3    3    0  502 -0.40635796731E+03 -0.12413396919E+04 -0.34832330442E+03  0.13518062556E+04  0.50400001928E-02 0.  1.
</event>
<event>
 5   0  0.2555801E-05  0.2573294E+04  0.7818609E-02  0.8377330E-01
        2   -1    0    0  501    0  0.00000000000E+00  0.00000000000E+00  0.16459040015E+04  0.16459040015E+04  0.25500000920E-02 0. -1.
       -2   -1    0    0    0  501  0.00000000000E+00  0.00000000000E+00 -0.10058063028E+04  0.10058063028E+04  0.25500000920E-02 0.  1.
    10030    2    1    2    0    0  0.00000000000E+00  0.00000000000E+00  0.64009769865E+03  0.26517103043E+04  0.25732940901E+04 0.  0.
        1    1    3    3  502    0 -0.86175959984E+03  0.14038303112E+03 -0.65380198357E+03  0.10907768044E+04  0.50400001928E-02 0.  1.
       -1    1    3    3    0  502  0.86175959984E+03 -0.14038303112E+03  0.12938996822E+04  0.15609334999E+04  0.50400001928E-02 0. -1.
</event>
<event>
 5   0  0.9855352E-06  0.2581462E+04  0.7818609E-02  0.8374525E-01
        1   -1    0    0  501    0  0.00000000000E+00  0.00000000000E+00  0.19399880720E+04  0.19399880720E+04  0.50400001928E-02 0. -1.
       -1   -1    0    0    0  501  0.00000000000E+00  0.00000000000E+00 -0.85876132693E+03  0.85876132694E+03  0.50400001928E-02 0.  1.
    10030    2    1    2    0    0  0.00000000000E+00  0.00000000000E+00  0.10812267450E+04  0.27987493989E+04  0.25814621678E+04 0.  0.
        2    1    3    3  502    0  0.58420878810E+03 -0.10040010398E+04  0.11507131156E+04  0.16350714573E+04  0.25500000920E-02 0. -1.
       -2    1    3    3    0  502 -0.58420878810E+03  0.10040010398E+04 -0.69486370559E+02  0.11636779416E+04  0.25500000920E-02 0.  1.
</event>
<event>
 5   0  0.1000421E-05  0.2609481E+04  0.7818609E-02  0.8364988E-01
       -1   -1    0    0    0  501  0.00000000000E+00  0.00000000000E+00  0.18337714318E+04  0.18337714318E+04  0.50400001928E-02 0.  1.
        1   -1    0    0  501    0  0.00000000000E+00  0.00000000000E+00 -0.92833114121E+03  0.92833114123E+03  0.50400001928E-02 0. -1.
    10030    2    1    2    0    0  0.00000000000E+00  0.00000000000E+00  0.90544029055E+03  0.27621025730E+04  0.26094805046E+04 0.  0.
        3    1    3    3  502    0  0.10280213879E+04 -0.55091902505E+03 -0.16629814015E+03  0.11781319229E+04  0.10100000352E+00 0. -1.
       -3    1    3    3    0  502 -0.10280213879E+04  0.55091902505E+03  0.10717384307E+04  0.15839706501E+04  0.10100000352E+00 0.  1.
</event>
<event>
 5   0  0.1005492E-05  0.2583582E+04  0.7818609E-02  0.8373799E-01
        1   -1    0    0  501    0  0.00000000000E+00  0.00000000000E+00  0.55983018002E+03  0.55983018004E+03  0.50400001928E-02 0. -1.
       -1   -1    0    0    0  501  0.00000000000E+00  0.00000000000E+00 -0.29807689389E+04  0.29807689390E+04  0.50400001928E-02 0.  1.
    10030    2    1    2    0    0  0.00000000000E+00  0.00000000000E+00 -0.24209387589E+04  0.35405991190E+04  0.25835823283E+04 0.  0.
        4    1    3    3  502    0  0.30019158454E+03 -0.11091189612E+04 -0.40149875680E+03  0.12171535327E+04  0.12699999809E+01 0. -1.
       -4    1    3    3    0  502 -0.30019158454E+03  0.11091189612E+04 -0.20194400021E+04  0.23234455863E+04  0.12699999809E+01 0.  1.
</event>
<event>
 5   0  0.2555801E-05  0.2642306E+04  0.7818609E-02  0.8353971E-01
        2   -1    0    0  501    0  0.00000000000E+00  0.00000000000E+00  0.88172179182E+03  0.88172179182E+03  0.25500000920E-02 0. -1.
       -2   -1    0    0    0  501  0.00000000000E+00  0.00000000000E+00 -0.19795877235E+04  0.19795877235E+04  0.25500000920E-02 0.  1.
    10030    2    1    2    0    0  0.00000000000E+00  0.00000000000E+00 -0.10978659317E+04  0.28613095153E+04  0.26423062916E+04 0.  0.
        1    1    3    3  502    0  0.96616314186E+03 -0.88918072200E+03 -0.39077244215E+03  0.13699695889E+04  0.50400001928E-02 0.  1.
       -1    1    3    3    0  502 -0.96616314186E+03  0.88918072200E+03 -0.70709348955E+03  0.14913399264E+04  0.50400001928E-02 0. -1.
</event>
<event>
 5   0  0.9855352E-06  0.2611646E+04  0.7818609E-02  0.8364256E-01
       -1   -1    0    0    0  501  0.00000000000E+00  0.00000000000E+00  0.10897224895E+04  0.10897224895E+04  0.50400001928E-02 0.  1.
        1   -1    0    0  501    0  0.00000000000E+00  0.00000000000E+00 -0.15647774145E+04  0.15647774145E+04  0.50400001928E-02 0. -1.
    10030    2    1    2    0    0  0.00000000000E+00  0.00000000000E+00 -0.47505492502E+03  0.26544999040E+04  0.26116455653E+04 0.  0.
        2    1    3    3  502    0  0.11718382775E+03 -0.70993743666E+03  0.87004582244E+03  0.11290362911E+04  0.25500000920E-02 0.  1.
       -2    1    3    3    0  502 -0.11718382775E+03  0.70993743666E+03 -0.13451007475E+04  0.15254636129E+04  0.25500000920E-02 0. -1.
</event>
<event>
 5   0  0.1000421E-05  0.2565473E+04  0.7818609E-02  0.8380025E-01
        1   -1    0    0  501    0  0.00000000000E+00  0.00000000000E+00  0.12569888229E+04  0.12569888229E+04  0.50400001928E-02 0.  1.
       -1   -1    0    0    0  501  0.00000000000E+00  0.00000000000E+00 -0.13090115170E+04  0.13090115170E+04  0.50400001928E-02 0. -1.
    10030    2    1    2    0    0  0.00000000000E+00  0.00000000000E+00 -0.52022694080E+02  0.25660003399E+04  0.25654729357E+04 0.  0.
        3    1    3    3  502    0  0.63578739656E+03  0.46252646101E+03 -0.10397563350E+04  0.13035526791E+04  0.10100000352E+00 0. -1.
       -3    1    3    3    0  502 -0.63578739656E+03 -0.46252646101E+03  0.98773364089E+03  0.12624476608E+04  0.10100000352E+00 0.  1.
</event>
<event>
 5   0  0.1034714E-05  0.2530928E+04  0.7818609E-02  0.8392049E-01
        1   -1    0    0  501    0  0.00000000000E+00  0.00000000000E+00  0.16924126516E+04  0.16924126517E+04  0.50400001928E-02 0. -1.
       -1   -1    0    0    0  501  0.00000000000E+00  0.00000000000E+00 -0.94622273670E+03  0.94622273672E+03  0.50400001928E-02 0.  1.
    10030    2    1    2    0    0  0.00000000000E+00  0.00000000000E+00  0.74618991494E+03  0.26386353884E+04  0.25309281546E+04 0.  0.
        5    1    3    3  502    0 -0.46148296841E+03 -0.97401828819E+03 -0.31822221768E+03  0.11238174343E+04  0.46999998093E+01 0.  1.
       -5    1    3    3    0  502  0.46148296841E+03  0.97401828819E+03  0.10644121326E+04  0.15148179541E+04  0.46999998093E+01 0. -1.
</event>
<event>
 5   0  0.2555801E-05  0.2608376E+04  0.7818609E-02  0.8365361E-01
       -2   -1    0    0    0  501  0.00000000000E+00  0.00000000000E+00  0.10820119245E+04  0.10820119245E+04  0.25500000920E-02 0.  1.
        2   -1    0    0  501    0  0.00000000000E+00  0.00000000000E+00 -0.15719854108E+04  0.15719854108E+04  0.25500000920E-02 0. -1.
    10030    2    1    2    0    0  0.00000000000E+00  0.00000000000E+00 -0.48997348634E+03  0.26539973353E+04  0.26083764756E+04 0.  0.
        1    1    3    3  502    0 -0.72299280644E+03 -0.10829652701E+04 -0.31958053468E+03  0.13407699626E+04  0.50400001928E-02 0.  1.
       -1    1    3    3    0  502  0.72299280644E+03  0.10829652701E+04 -0.17039295166E+03  0.13132273727E+04  0.50400001928E-02 0. -1.
</event>
<event>
 5   0  0.1034714E-05  0.2554818E+04  0.7818609E-02  0.8383713E-01
       -1   -1    0    0    0  501  0.00000000000E+00  0.00000000000E+00  0.19287600102E+04  0.19287600102E+04  0.50400001928E-02 0. -1.
        1   -1    0    0  501    0  0.00000000000E+00  0.00000000000E+00 -0.84602186436E+03  0.84602186438E+03  0.50400001928E-02 0.  1.
    10030    2    1    2    0    0  0.00000000000E+00  0.00000000000E+00  0.10827381459E+04  0.27747818746E+04  0.25548175197E+04 0.  0.
        5    1    3    3  502    0 -0.58059542360E+02 -0.88160638172E+03  0.15433791713E+04  0.17783818710E+04  0.46999998093E+01 0. -1.
       -5    1    3    3    0  502  0.58059542360E+02  0.88160638172E+03 -0.46064102547E+03  0.99640000356E+03  0.46999998093E+01 0.  1.
</event>
<event>
 5   0  0.2662024E-05  0.2528395E+04  0.7818609E-02  0.8392939E-01
        2   -1    0    0  501    0  0.00000000000E+00  0.00000000000E+00  0.18939690200E+04  0.18939690200E+04  0.25500000920E-02 0. -1.
       -2   -1    0    0    0  501  0.00000000000E+00  0.00000000000E+00 -0.84383421043E+03  0.84383421043E+03  0.25500000920E-02 0.  1.
    10030    2    1    2    0    0  0.00000000000E+00  0.00000000000E+00  0.10501348096E+04  0.27378032305E+04  0.25283954221E+04 0.  0.
        2    1    3    3  502    0  0.34206129790E+03 -0.47949014053E+02 -0.79174919261E+03  0.86381237747E+03  0.25500000920E-02 0.  1.
       -2    1    3    3    0  502 -0.34206129790E+03  0.47949014053E+02  0.18418840022E+04  0.18739908530E+04  0.25500000920E-02 0. -1.
</event>
<event>
 5   0  0.9855352E-06  0.2444718E+04  0.7818609E-02  0.8422949E-01
       -1   -1    0    0    0  501  0.00000000000E+00  0.00000000000E+00  0.68547388353E+03  0.68547388355E+03  0.50400001928E-02 0. -1.
        1   -1    0    0  501    0  0.00000000000E+00  0.00000000000E+00 -0.21797500058E+04  0.21797500059E+04  0.50400001928E-02 0.  1.
    10030    2    1    2    0    0  0.00000000000E+00  0.00000000000E+00 -0.14942761223E+04  0.28652238894E+04  0.24447181446E+04 0.  0.
        2    1    3    3  502    0 -0.89932386066E+03 -0.56311421017E+03 -0.35893044048E+02  0.10616823116E+04  0.25500000920E-02 0. -1.
       -2    1    3    3    0  502  0.89932386066E+03  0.56311421017E+03 -0.14583830783E+04  0.18035415779E+04  0.25500000920E-02 0.  1.
</event>
<event>
 5   0  0.2528460E-05  0.2600319E+04  0.7818609E-02  0.8368093E-01
       -2   -1    0    0    0  501  0.00000000000E+00  0.00000000000E+00  0.26453542660E+04  0.26453542660E+04  0.25500000920E-02 0.  1.
        2   -1    0    0  501    0  0.00000000000E+00  0.00000000000E+00 -0.63901253413E+03  0.63901253414E+03  0.25500000920E-02 0. -1.
    10030    2    1    2    0    0  0.00000000000E+00  0.00000000000E+00  0.20063417319E+04  0.32843668001E+04  0.26003188522E+04 0.  0.
        5    1    3    3  502    0  0.25990231855E+03 -0.98830832146E+03 -0.12075681802E+02  0.10219933784E+04  0.46999998093E+01 0.  1.
       -5    1    3    3    0  502 -0.25990231855E+03  0.98830832146E+03  0.20184174137E+04  0.22623734217E+04  0.46999998093E+01 0. -1.
</event>
<event>
 5   0  0.2517854E-05  0.1992522E+04  0.7818609E-02  0.8610125E-01
       -2   -1    0    0    0  501  0.00000000000E+00  0.00000000000E+00  0.45477307735E+03  0.45477307736E+03  0.25500000920E-02 0. -1.
        2   -1    0    0  501    0  0.00000000000E+00  0.00000000000E+00 -0.21824857100E+04  0.21824857100E+04  0.25500000920E-02 0.  1.
    10030    2    1    2    0    0  0.00000000000E+00  0.00000000000E+00 -0.17277126326E+04  0.26372587873E+04  0.19925217616E+04 0.  0.
        4    1    3    3  502    0  0.14025480727E+03  0.78088627537E+03 -0.16613925914E+04  0.18411088349E+04  0.12699999809E+01 0.  1.
       -4    1    3    3    0  502 -0.14025480727E+03 -0.78088627537E+03 -0.66320041159E+02  0.79614995245E+03  0.12699999809E+01 0. -1.
</event>
<event>
 5   0  0.2517854E-05  0.2596448E+04  0.7818609E-02  0.8369409E-01
        2   -1    0    0  501    0  0.00000000000E+00  0.00000000000E+00  0.12895433403E+04  0.12895433403E+04  0.25500000920E-02 0.  1.
       -2   -1    0    0    0  501  0.00000000000E+00  0.00000000000E+00 -0.13069633392E+04  0.13069633392E+04  0.25500000920E-02 0. -1.
    10030    2    1    2    0    0  0.00000000000E+00  0.00000000000E+00 -0.17419998872E+02  0.25965066795E+04  0.25964482433E+04 0.  0.
        4    1    3    3  502    0 -0.10543859249E+03 -0.37795035711E+03 -0.12462436037E+04  0.13065559696E+04  0.12699999809E+01 0. -1.
       -4    1    3    3    0  502  0.10543859249E+03  0.37795035711E+03  0.12288236048E+04  0.12899507098E+04  0.12699999809E+01 0.  1.
</event>
<event>
 5   0  0.1034714E-05  0.2623055E+04  0.7818609E-02  0.8360412E-01
       -1   -1    0    0    0  501  0.00000000000E+00  0.00000000000E+00  0.89254707531E+03  0.89254707533E+03  0.50400001928E-02 0.  1.
        1   -1    0    0  501    0  0.00000000000E+00  0.00000000000E+00 -0.19271865509E+04  0.19271865510E+04  0.50400001928E-02 0. -1.
    10030    2    1    2    0    0  0.00000000000E+00  0.00000000000E+00 -0.10346394756E+04  0.28197336263E+04  0.26230552565E+04 0.  0.
        5    1    3    3  502    0  0.52522352395E+03  0.11607529652E+04 -0.85190551303E+03  0.15326357328E+04  0.46999998093E+01 0.  1.
       -5    1    3    3    0  502 -0.52522352395E+03 -0.11607529652E+04 -0.18273396260E+03  0.12870978935E+04  0.46999998093E+01 0. -1.
</event>
<event>
 5   0  0.8605000E-06  0.2619590E+04  0.7818609E-02  0.8361577E-01
        3   -1    0    0  501    0  0.00000000000E+00  0.00000000000E+00  0.13605080441E+04  0.13605080478E+04  0.10100000352E+00 0. -1.
       -3   -1    0    0    0  501  0.00000000000E+00  0.00000000000E+00 -0.12609721298E+04  0.12609721338E+04  0.10100000352E+00 0.  1.
    10030    2    1    2    0    0  0.00000000000E+00  0.00000000000E+00  0.99535914289E+02  0.26214801816E+04  0.26195898428E+04 0.  0.
        2    1    3    3  502    0  0.10596199464E+04 -0.24143285299E+03 -0.68183995556E+03  0.12829614095E+04  0.25500000920E-02 0.  1.
       -2    1    3    3    0  502 -0.10596199464E+04  0.24143285299E+03  0.78137586985E+03  0.13385187721E+04  0.25500000920E-02 0. -1.
</event>
<event>
 5   0  0.1034714E-05  0.2405933E+04  0.7818609E-02  0.8437286E-01
        1   -1    0    0  501    0  0.00000000000E+00  0.00000000000E+00  0.14623231933E+04  0.14623231933E+04  0.50400001928E-02 0.  1.
       -1   -1    0    0    0  501  0.00000000000E+00  0.00000000000E+00 -0.98960929428E+03  0.98960929430E+03  0.50400001928E-02 0. -1.
    10030    2    1    2    0    0  0.00000000000E+00  0.00000000000E+00  0.47271389905E+03  0.24519324876E+04  0.24059331856E+04 0.  0.
        5    1    3    3  502    0 -0.53878863672E+03  0.29454469688E+03 -0.81785601537E+03  0.10227220177E+04  0.46999998093E+01 0. -1.
       -5    1    3    3    0  502  0.53878863672E+03 -0.29454469688E+03  0.12905699144E+04  0.14292104700E+04  0.46999998093E+01 0.  1.
</event>
<event>
 5   0  0.2555801E-05  0.2567062E+04  0.7818609E-02  0.8379476E-01
       -2   -1    0    0    0  501  0.00000000000E+00  0.00000000000E+00  0.15025728360E+04  0.15025728360E+04  0.25500000920E-02 0. -1.
        2   -1    0    0  501    0  0.00000000000E+00  0.00000000000E+00 -0.10964209192E+04  0.10964209192E+04  0.25500000920E-02 0.  1.
    10030    2    1    2    0    0  0.00000000000E+00  0.00000000000E+00  0.40615191680E+03  0.25989937553E+04  0.25670623600E+04 0.  0.
        1    1    3    3  502    0 -0.31680925645E+03  0.34787616148E+02  0.14618734376E+04  0.14962126289E+04  0.50400001928E-02 0. -1.
       -1    1    3    3    0  502  0.31680925645E+03 -0.34787616148E+02 -0.10557215208E+04  0.11027811264E+04  0.50400001928E-02 0.  1.
</event>
<event>
 5   0  0.2528460E-05  0.2684574E+04  0.7818609E-02  0.8340027E-01
       -2   -1    0    0    0  501  0.00000000000E+00  0.00000000000E+00  0.12669929758E+04  0.12669929758E+04  0.25500000920E-02 0.  1.
        2   -1    0    0  501    0  0.00000000000E+00  0.00000000000E+00 -0.14220559910E+04  0.14220559910E+04  0.25500000920E-02 0. -1.
    10030    2    1    2    0    0  0.00000000000E+00  0.00000000000E+00 -0.15506301516E+03  0.26890489668E+04  0.26845744183E+04 0.  0.
        5    1    3    3  502    0 -0.32675360180E+03  0.48961543371E+03 -0.12858678572E+04  0.14142027526E+04  0.46999998093E+01 0. -1.
       -5    1    3    3    0  502  0.32675360180E+03 -0.48961543371E+03  0.11308048420E+04  0.12748462143E+04  0.46999998093E+01 0.  1.
</event>
<event>
 5   0  0.1000421E-05  0.2514984E+04  0.7818609E-02  0.8397667E-01
        1   -1    0    0  501    0  0.00000000000E+00  0.00000000000E+00  0.20725911534E+04  0.20725911534E+04  0.50400001928E-02 0. -1.
       -1   -1    0    0    0  501  0.00000000000E+00  0.00000000000E+00 -0.76295108116E+03  0.76295108118E+03  0.50400001928E-02 0.  1.
    10030    2    1    2    0    0  0.00000000000E+00  0.00000000000E+00  0.13096400723E+04  0.28355422346E+04  0.25149836273E+04 0.  0.
        3    1    3    3  502    0 -0.71032245968E+02 -0.89659961203E+03 -0.33602972886E+03  0.96013146659E+03  0.10100000352E+00 0.  1.
       -3    1    3    3    0  502  0.71032245968E+02  0.89659961203E+03  0.16456698011E+04  0.18754107680E+04  0.10100000352E+00 0. -1.
</event>
<event>
 5   0  0.2517854E-05  0.2582554E+04  0.7818609E-02  0.8374152E-01
       -2   -1    0    0    0  501  0.00000000000E+00  0.00000000000E+00  0.83350629154E+03  0.83350629154E+03  0.25500000920E-02 0. -1.
        2   -1    0    0  501    0  0.00000000000E+00  0.00000000000E+00 -0.20004595939E+04  0.20004595939E+04  0.25500000920E-02 0.  1.
    10030    2    1    2    0    0  0.00000000000E+00  0.00000000000E+00 -0.11669533024E+04  0.28339658854E+04  0.25825535096E+04 0.  0.
        4    1    3    3  502    0  0.30749465436E+03  0.42274460013E+03  0.71219998462E+03  0.88345706765E+03  0.12699999809E+01 0. -1.
       -4    1    3    3    0  502 -0.30749465436E+03 -0.42274460013E+03 -0.18791532870E+04  0.19505088178E+04  0.12699999809E+01 0.  1.
</event>
<event>
 5   0  0.2555801E-05  0.2771117E+04  0.7818609E-02  0.8312292E-01
       -2   -1    0    0    0  501  0.00000000000E+00  0.00000000000E+00  0.13703465741E+04  0.13703465741E+04  0.25500000920E-02 0. -1.
        2   -1    0    0  501    0  0.00000000000E+00  0.00000000000E+00 -0.14009391373E+04  0.14009391373E+04  0.25500000920E-02 0.  1.
    10030    2    1    2    0    0  0.00000000000E+00  0.00000000000E+00 -0.30592563209E+02  0.27712857113E+04  0.27711168487E+04 0.  0.
        1    1    3    3  502    0 -0.45367079484E+03 -0.70110144252E+03 -0.11209909539E+04  0.13978487549E+04  0.50400001928E-02 0.  1.
       -1    1    3    3    0  502  0.45367079484E+03  0.70110144252E+03  0.10903983907E+04  0.13734369564E+04  0.50400001928E-02 0. -1.
</event>
<event>
 5   0  0.1000421E-05  0.2625867E+04  0.7818609E-02  0.8359467E-01
        1   -1    0    0  501    0  0.00000000000E+00  0.00000000000E+00  0.21038392667E+04  0.21038392667E+04  0.50400001928E-02 0. -1.
       -1   -1    0    0    0  501  0.00000000000E+00  0.00000000000E+00 -0.81935660792E+03  0.81935660794E+03  0.50400001928E-02 0.  1.
    10030    2    1    2    0    0  0.00000000000E+00  0.00000000000E+00  0.12844826588E+04  0.29231958747E+04  0.26258671750E+04 0.  0.
        3    1    3    3  502    0 -0.56301645724E+03 -0.99965789019E+03  0.13528725147E+04  0.17738566684E+04  0.10100000352E+00 0. -1.
       -3    1    3    3    0  502  0.56301645724E+03  0.99965789019E+03 -0.68389855952E+02  0.11493392063E+04  0.10100000352E+00 0.  1.
</event>
<event>
 5   0  0.2484618E-05  0.2597757E+04  0.7818609E-02  0.8368964E-01
       -2   -1    0    0    0  501  0.00000000000E+00  0.00000000000E+00  0.17715374062E+04  0.17715374062E+04  0.25500000920E-02 0.  1.
        2   -1    0    0  501    0  0.00000000000E+00  0.00000000000E+00 -0.95232825950E+03  0.95232825950E+03  0.25500000920E-02 0. -1.
    10030    2    1    2    0    0  0.00000000000E+00  0.00000000000E+00  0.81920914674E+03  0.27238656657E+04  0.25977568283E+04 0.  0.
        3    1    3    3  502    0 -0.65994168113E+03 -0.10482087393E+04 -0.29555718151E+00  0.12386543833E+04  0.10100000352E+00 0. -1.
       -3    1    3    3    0  502  0.65994168113E+03  0.10482087393E+04  0.81950470392E+03  0.14852112825E+04  0.10100000352E+00 0.  1.
</event>
<event>
 5   0  0.1000421E-05  0.2621482E+04  0.7818609E-02  0.8360941E-01
        1   -1    0    0  501    0  0.00000000000E+00  0.00000000000E+00  0.98440344995E+03  0.98440344997E+03  0.50400001928E-02 0. -1.
       -1   -1    0    0    0  501  0.00000000000E+00  0.00000000000E+00 -0.17452618582E+04  0.17452618582E+04  0.50400001928E-02 0.  1.
    10030    2    1    2    0    0  0.00000000000E+00  0.00000000000E+00 -0.76085840826E+03  0.27296653082E+04  0.26214818667E+04 0.  0.
        3    1    3    3  502    0 -0.13084278679E+04  0.69971572575E+02 -0.34493009288E+03  0.13549377424E+04  0.10100000352E+00 0.  1.
       -3    1    3    3    0  502  0.13084278679E+04 -0.69971572575E+02 -0.41592831538E+03  0.13747275658E+04  0.10100000352E+00 0. -1.
</event>
<event>
 5   0  0.1034714E-05  0.2575115E+04  0.7818609E-02  0.8376704E-01
       -1   -1    0    0    0  501  0.00000000000E+00  0.00000000000E+00  0.73906084371E+03  0.73906084373E+03  0.50400001928E-02 0. -1.
        1   -1    0    0  501    0  0.00000000000E+00  0.00000000000E+00 -0.22431221231E+04  0.22431221231E+04  0.50400001928E-02 0.  1.
    10030    2    1    2    0    0  0.00000000000E+00  0.00000000000E+00 -0.15040612794E+04  0.29821829669E+04  0.25751145442E+04 0.  0.
        5    1    3    3  502    0  0.11860417477E+04  0.15176836605E+03 -0.13050694434E+04  0.17700161034E+04  0.46999998093E+01 0. -1.
       -5    1    3    3    0  502 -0.11860417477E+04 -0.15176836605E+03 -0.19899183599E+03  0.12121668635E+04  0.46999998093E+01 0.  1.
</event>
<event>
 5   0  0.1025153E-05  0.2542188E+04  0.7818609E-02  0.8388108E-01
        1   -1    0    0  501    0  0.00000000000E+00  0.00000000000E+00  0.70004687699E+03  0.70004687700E+03  0.50400001928E-02 0.  1.
       -1   -1    0    0    0  501  0.00000000000E+00  0.00000000000E+00 -0.23079589375E+04  0.23079589375E+04  0.50400001928E-02 0. -1.
    10030    2    1    2    0    0  0.00000000000E+00  0.00000000000E+00 -0.16079120605E+04  0.30080058145E+04  0.25421875985E+04 0.  0.
        1    1    3    3  502    0  0.55888337693E+03  0.10741403028E+04 -0.34637674389E+03  0.12594065539E+04  0.50400001928E-02 0.  1.
       -1    1    3    3    0  502 -0.55888337693E+03 -0.10741403028E+04 -0.12615353166E+04  0.17485992606E+04  0.50400001928E-02 0. -1.
</event>
<event>
 5   0  0.1025153E-05  0.2580307E+04  0.7818609E-02  0.8374921E-01
        1   -1    0    0  501    0  0.00000000000E+00  0.00000000000E+00  0.12103542843E+04  0.12103542843E+04  0.50400001928E-02 0.  1.
       -1   -1    0    0    0  501  0.00000000000E+00  0.00000000000E+00 -0.13752143417E+04  0.13752143417E+04  0.50400001928E-02 0. -1.
    10030    2    1    2    0    0  0.00000000000E+00  0.00000000000E+00 -0.16486005738E+03  0.25855686261E+04  0.25803074006E+04 0.  0.
        1    1    3    3  502    0  0.74788035762E+03  0.59109479193E+03 -0.95355785073E+03  0.13483288386E+04  0.50400001928E-02 0. -1.
       -1    1    3    3    0  502 -0.74788035762E+03 -0.59109479193E+03  0.78869779335E+03  0.12372397874E+04  0.50400001928E-02 0.  1.
</event>
<event>
 5   0  0.2484618E-05  0.2624377E+04  0.7818609E-02  0.8359968E-01
        2   -1    0    0  501    0  0.00000000000E+00  0.00000000000E+00  0.21669567793E+04  0.21669567793E+04  0.25500000920E-02 0. -1.
       -2   -1    0    0    0  501  0.00000000000E+00  0.00000000000E+00 -0.79458832189E+03  0.79458832190E+03  0.25500000920E-02 0.  1.
    10030    2    1    2    0    0  0.00000000000E+00  0.00000000000E+00  0.13723684574E+04  0.29615451012E+04  0.26243769172E+04 0.  0.
        3    1    3    3  502    0  0.83221101717E+03 -0.41866123551E+03  0.17290239168E+04  0.19640203976E+04  0.10100000352E+00 0. -1.
       -3    1    3    3    0  502 -0.83221101717E+03  0.41866123551E+03 -0.35665545943E+03  0.99752470354E+03  0.10100000352E+00 0.  1.
</event>
<event>
 5   0  0.1025153E-05  0.2610664E+04  0.7818609E-02  0.8364588E-01
       -1   -1    0    0    0  501  0.00000000000E+00  0.00000000000E+00  0.83517817121E+03  0.83517817123E+03  0.50400001928E-02 0. -1.
        1   -1    0    0  501    0  0.00000000000E+00  0.00000000000E+00 -0.20401541310E+04  0.20401541310E+04  0.50400001928E-02 0.  1.
    10030    2    1    2    0    0  0.00000000000E+00  0.00000000000E+00 -0.12049759598E+04  0.28753323022E+04  0.26106644335E+04 0.  0.
        1    1    3    3  502    0  0.73847283110E+03 -0.99908351584E+03 -0.10435656552E+04  0.16225101758E+04  0.50400001928E-02 0.  1.
       -1    1    3    3    0  502 -0.73847283110E+03  0.99908351584E+03 -0.16141030454E+03  0.12528221264E+04  0.50400001928E-02 0. -1.
</event>
<event>
 5   0  0.9855352E-06  0.2728888E+04  0.7818609E-02  0.8325692E-01
       -1   -1    0    0    0  501  0.00000000000E+00  0.00000000000E+00  0.21244823569E+04  0.21244823569E+04  0.50400001928E-02 0.  1.
        1   -1    0    0  501    0  0.00000000000E+00  0.00000000000E+00 -0.87631100964E+03  0.87631100965E+03  0.50400001928E-02 0. -1.
    10030    2    1    2    0    0  0.00000000000E+00  0.00000000000E+00  0.12481713473E+04  0.30007933666E+04  0.27288878901E+04 0.  0.
        2    1    3    3  502    0  0.37074719305E+03 -0.12992914251E+04  0.83300445020E+03  0.15872958459E+04  0.25500000920E-02 0.  1.
       -2    1    3    3    0  502 -0.37074719305E+03  0.12992914251E+04  0.41516689709E+03  0.14134975207E+04  0.25500000920E-02 0. -1.
</event>
<event>
 5   0  0.1034714E-05  0.2603774E+04  0.7818609E-02  0.8366920E-01
        1   -1    0    0  501    0  0.00000000000E+00  0.00000000000E+00  0.21532267912E+04  0.21532267912E+04  0.50400001928E-02 0. -1.
       -1   -1    0    0    0  501  0.00000000000E+00  0.00000000000E+00 -0.78714886383E+03  0.78714886384E+03  0.50400001928E-02 0.  1.
    10030    2    1    2    0    0  0.00000000000E+00  0.00000000000E+00  0.13660779274E+04  0.29403756551E+04  0.26037742009E+04 0.  0.
        5    1    3    3  502    0 -0.10859743670E+04  0.71741738948E+03  0.64992414220E+03  0.14548029135E+04  0.46999998093E+01 0.  1.
       -5    1    3    3    0  502  0.10859743670E+04 -0.71741738948E+03  0.71615378521E+03  0.14855727416E+04  0.46999998093E+01 0. -1.
</event>
<event>
 5   0  0.2555801E-05  0.2569204E+04  0.7818609E-02  0.8378738E-01
       -2   -1    0    0    0  501  0.00000000000E+00  0.00000000000E+00  0.13420234176E+04  0.13420234176E+04  0.25500000920E-02 0.  1.
        2   -1    0    0  501    0  0.00000000000E+00  0.00000000000E+00 -0.12296377573E+04  0.12296377573E+04  0.25500000920E-02 0. -1.
    10030    2    1    2    0    0  0.00000000000E+00  0.00000000000E+00  0.11238566036E+03  0.25716611749E+04  0.25692042858E+04 0.  0.
        1    1    3    3  502    0  0.19917417307E+03  0.55173228208E+03 -0.10877578018E+04  0.12358381357E+04  0.50400001928E-02 0. -1.
       -1    1    3    3    0  502 -0.19917417307E+03 -0.55173228208E+03  0.12001434622E+04  0.13358230392E+04  0.50400001928E-02 0.  1.
</event>
<event>
 5   0  0.2484618E-05  0.2594604E+04  0.7818609E-02  0.8370036E-01
        2   -1    0    0  501    0  0.00000000000E+00  0.00000000000E+00  0.89362040865E+03  0.89362040865E+03  0.25500000920E-02 0. -1.
       -2   -1    0    0    0  501  0.00000000000E+00  0.00000000000E+00 -0.18833413074E+04  0.18833413074E+04  0.25500000920E-02 0.  1.
    10030    2    1    2    0    0  0.00000000000E+00  0.00000000000E+00 -0.98972089875E+03  0.27769617161E+04  0.25946038069E+04 0.  0.
        3    1    3    3  502    0 -0.75068071512E+03  0.99271950391E+03 -0.88661736446E+03  0.15281046792E+04  0.10100000352E+00 0. -1.
       -3    1    3    3    0  502  0.75068071512E+03 -0.99271950391E+03 -0.10310353429E+03  0.12488570368E+04  0.10100000352E+00 0.  1.
</event>
<event>
 5   0  0.1005492E-05  0.2434927E+04  0.7818609E-02  0.8426542E-01
        1   -1    0    0  501    0  0.00000000000E+00  0.00000000000E+00  0.99745898400E+03  0.99745898402E+03  0.50400001928E-02 0. -1.
       -1   -1    0    0    0  501  0.00000000000E+00  0.00000000000E+00 -0.14859928986E+04  0.14859928986E+04  0.50400001928E-02 0.  1.
    10030    2    1    2    0    0  0.00000000000E+00  0.00000000000E+00 -0.48853391459E+03  0.24834518826E+04  0.24349266658E+04 0.  0.
        4    1    3    3  502    0  0.11167338224E+04  0.10362062595E+03  0.23886471232E+03  0.11466863686E+04  0.12699999809E+01 0.  1.
       -4    1    3    3    0  502 -0.11167338224E+04 -0.10362062595E+03 -0.72739862692E+03  0.13367655140E+04  0.12699999809E+01 0. -1.
</event>
<event>
 5   0  0.9855352E-06  0.2527363E+04  0.7818609E-02  0.8393302E-01
       -1   -1    0    0    0  501  0.00000000000E+00  0.00000000000E+00  0.11024115045E+04  0.11024115045E+04  0.50400001928E-02 0. -1.
        1   -1    0    0  501    0  0.00000000000E+00  0.00000000000E+00 -0.14485436438E+04  0.14485436438E+04  0.50400001928E-02 0.  1.
    10030    2    1    2    0    0  0.00000000000E+00  0.00000000000E+00 -0.34613213932E+03  0.25509551483E+04  0.25273631933E+04 0.  0.
        2    1    3    3  502    0 -0.41512245917E+03  0.43455579211E+03  0.94894262092E+03  0.11232352783E+04  0.25500000920E-02 0. -1.
       -2    1    3    3    0  502  0.41512245917E+03 -0.43455579211E+03 -0.12950747602E+04  0.14277198700E+04  0.25500000920E-02 0.  1.
</event>
<event>
 5   0  0.1005492E-05  0.2420918E+04  0.7818609E-02  0.8431713E-01
       -1   -1    0    0    0  501  0.00000000000E+00  0.00000000000E+00  0.98155557235E+03  0.98155557236E+03  0.50400001928E-02 0. -1.
        1   -1    0    0  501    0  0.00000000000E+00  0.00000000000E+00 -0.14927443997E+04  0.14927443997E+04  0.50400001928E-02 0.  1.
    10030    2    1    2    0    0  0.00000000000E+00  0.00000000000E+00 -0.51118882738E+03  0.24742999721E+04  0.24209184899E+04 0.  0.
        4    1    3    3  502    0  0.43748789990E+03  0.74596708034E+03 -0.11212336918E+04  0.14159905197E+04  0.12699999809E+01 0.  1.
       -4    1    3    3    0  502 -0.43748789990E+03 -0.74596708034E+03  0.61004486439E+03  0.10583094524E+04  0.12699999809E+01 0. -1.
</event>
<event>
 5   0  0.1025153E-05  0.2411572E+04  0.7818609E-02  0.8435184E-01
       -1   -1    0    0    0  501  0.00000000000E+00  0.00000000000E+00  0.17149271954E+04  0.17149271954E+04  0.50400001928E-02 0.  1.
        1   -1    0    0  501    0  0.00000000000E+00  0.00000000000E+00 -0.84780253088E+03  0.84780253089E+03  0.50400001928E-02 0. -1.
    10030    2    1    2    0    0  0.00000000000E+00  0.00000000000E+00  0.86712466456E+03  0.25627297263E+04  0.24115717834E+04 0.  0.
        1    1    3    3  502    0 -0.96697161322E+03 -0.15813046078E+03  0.11803780550E+04  0.15340572663E+04  0.50400001928E-02 0.  1.
       -1    1    3    3    0  502  0.96697161322E+03  0.15813046078E+03 -0.31325339048E+03  0.10286724601E+04  0.50400001928E-02 0. -1.
</event>
<event>
 5   0  0.8605000E-06  0.2586788E+04  0.7818609E-02  0.8372703E-01
       -3   -1    0    0    0  501  0.00000000000E+00  0.00000000000E+00  0.14140592846E+04  0.14140592882E+04  0.10100000352E+00 0.  1.
        3   -1    0    0  501    0  0.00000000000E+00  0.00000000000E+00 -0.11830257609E+04  0.11830257652E+04  0.10100000352E+00 0. -1.
    10030    2    1    2    0    0  0.00000000000E+00  0.00000000000E+00  0.23103352371E+03  0.25970850534E+04  0.25867884114E+04 0.  0.
        3    1    3    3  502    0  0.30876052681E+03 -0.11316580133E+04 -0.43152421807E+03  0.12498784273E+04  0.10100000352E+00 0. -1.
       -3    1    3    3    0  502 -0.30876052681E+03  0.11316580133E+04  0.66255774178E+03  0.13472066261E+04  0.10100000352E+00 0.  1.
</event>
<event>
 5   0  0.1025153E-05  0.2642872E+04  0.7818609E-02  0.8353783E-01
        1   -1    0    0  501    0  0.00000000000E+00  0.00000000000E+00  0.14618543120E+04  0.14618543120E+04  0.50400001928E-02 0. -1.
       -1   -1    0    0    0  501  0.00000000000E+00  0.00000000000E+00 -0.11945052794E+04  0.11945052794E+04  0.50400001928E-02 0.  1.
    10030    2    1    2    0    0  0.00000000000E+00  0.00000000000E+00  0.26734903256E+03  0.26563595914E+04  0.26428716907E+04 0.  0.
        1    1    3    3  502    0  0.62585128087E+03  0.11597952770E+04  0.36341343866E+02  0.13183837088E+04  0.50400001928E-02 0.  1.
       -1    1    3    3    0  502 -0.62585128087E+03 -0.11597952770E+04  0.23100768869E+03  0.13379758826E+04  0.50400001928E-02 0. -1.
</event>
<event>
 5   0  0.2517854E-05  0.2612004E+04  0.7818609E-02  0.8364135E-01
        2   -1    0    0  501    0  0.00000000000E+00  0.00000000000E+00  0.13574741858E+04  0.13574741858E+04  0.25500000920E-02 0.  1.
       -2   -1    0    0    0  501  0.00000000000E+00  0.00000000000E+00 -0.12564811629E+04  0.12564811630E+04  0.25500000920E-02 0. -1.
    10030    2    1    2    0    0  0.00000000000E+00  0.00000000000E+00  0.10099302285E+03  0.26139553488E+04  0.26120036322E+04 0.  0.
        4    1    3    3  502    0  0.15867503751E+02  0.11478246003E+04 -0.57277383247E+03  0.12828969432E+04  0.12699999809E+01 0.  1.
       -4    1    3    3    0  502 -0.15867503751E+02 -0.11478246003E+04  0.67376685532E+03  0.13310584056E+04  0.12699999809E+01 0. -1.
</event>
<event>
 5   0  0.2517854E-05  0.2074792E+04  0.7818609E-02  0.8572430E-01
       -2   -1    0    0    0  501  0.00000000000E+00  0.00000000000E+00  0.10454599081E+04  0.10454599081E+04  0.25500000920E-02 0. -1.
        2   -1    0    0  501    0  0.00000000000E+00  0.00000000000E+00 -0.10293939907E+04  0.10293939907E+04  0.25500000920E-02 0.  1.
    10030    2    1    2    0    0  0.00000000000E+00  0.00000000000E+00  0.16065917397E+02  0.20748538989E+04  0.20747916975E+04 0.  0.
        4    1    3    3  502    0 -0.23252663161E+03 -0.97074516787E+03 -0.27441792549E+03  0.10352398882E+04  0.12699999809E+01 0.  1.
       -4    1    3    3    0  502  0.23252663161E+03  0.97074516787E+03  0.29048384289E+03  0.10396140107E+04  0.12699999809E+01 0. -1.
</event>
<event>
 5   0  0.1025153E-05  0.2583257E+04  0.7818609E-02  0.8373911E-01
        1   -1    0    0  501    0  0.00000000000E+00  0.00000000000E+00  0.10908840537E+04  0.10908840537E+04  0.50400001928E-02 0. -1.
       -1   -1    0    0    0  501  0.00000000000E+00  0.00000000000E+00 -0.15293143129E+04  0.15293143129E+04  0.50400001928E-02 0.  1.
    10030    2    1    2    0    0  0.00000000000E+00  0.00000000000E+00 -0.43843025917E+03  0.26201983666E+04  0.25832573214E+04 0.  0.
        1    1    3    3  502    0 -0.88298869544E+03 -0.49193941904E+03 -0.10348481882E+04  0.14465767179E+04  0.50400001928E-02 0. -1.
       -1    1    3    3    0  502  0.88298869544E+03  0.49193941904E+03  0.59641792899E+03  0.11736216487E+04  0.50400001928E-02 0.  1.
</event>
<event>
 5   0  0.1005492E-05  0.2558230E+04  0.7818609E-02  0.8382529E-01
        1   -1    0    0  501    0  0.00000000000E+00  0.00000000000E+00  0.12492773392E+04  0.12492773392E+04  0.50400001928E-02 0. -1.
       -1   -1    0    0    0  501  0.00000000000E+00  0.00000000000E+00 -0.13096656383E+04  0.13096656383E+04  0.50400001928E-02 0.  1.
    10030    2    1    2    0    0  0.00000000000E+00  0.00000000000E+00 -0.60388299150E+02  0.25589429775E+04  0.25582303289E+04 0.  0.
        4    1    3    3  502    0 -0.43747086226E+03 -0.87362499323E+03  0.79558570617E+03  0.12599839733E+04  0.12699999809E+01 0.  1.
       -4    1    3    3    0  502  0.43747086226E+03  0.87362499323E+03 -0.85597400532E+03  0.12989590043E+04  0.12699999809E+01 0. -1.
</event>
<event>
 5   0  0.2517854E-05  0.2592336E+04  0.7818609E-02  0.8370809E-01
        2   -1    0    0  501    0  0.00000000000E+00  0.00000000000E+00  0.10372902537E+04  0.10372902537E+04  0.25500000920E-02 0. -1.
       -2   -1    0    0    0  501  0.00000000000E+00  0.00000000000E+00 -0.16196545720E+04  0.16196545720E+04  0.25500000920E-02 0.  1.
    10030    2    1    2    0    0  0.00000000000E+00  0.00000000000E+00 -0.58236431829E+03  0.26569448258E+04  0.25923363223E+04 0.  0.
        4    1    3    3  502    0 -0.84926002128E+03 -0.51396227787E+03 -0.11454112587E+04  0.15157072182E+04  0.12699999809E+01 0.  1.
       -4    1    3    3    0  502  0.84926002128E+03  0.51396227787E+03  0.56304694045E+03  0.11412376075E+04  0.12699999809E+01 0. -1.
</event>
<event>
 5   0  0.2517854E-05  0.2615035E+04  0.7818609E-02  0.8363112E-01
        2   -1    0    0  501    0  0.00000000000E+00  0.00000000000E+00  0.97032650253E+03  0.97032650253E+03  0.25500000920E-02 0. -1.
       -2   -1    0    0    0  501  0.00000000000E+00  0.00000000000E+00 -0.17618838614E+04  0.17618838614E+04  0.25500000920E-02 0.  1.
    10030    2    1    2    0    0  0.00000000000E+00  0.00000000000E+00 -0.79155735890E+03  0.27322103640E+04  0.26150354530E+04 0.  0.
        4    1    3    3  502    0  0.10306914157E+04  0.78960607518E+03 -0.55695856171E+03  0.14128011186E+04  0.12699999809E+01 0. -1.
       -4    1    3    3    0  502 -0.10306914157E+04 -0.78960607518E+03 -0.23459879718E+03  0.13194092454E+04  0.12699999809E+01 0.  1.
</event>
<event>
 5   0  0.2528460E-05  0.2556172E+04  0.7818609E-02  0.8383243E-01
        2   -1    0    0  501    0  0.00000000000E+00  0.00000000000E+00  0.21223082932E+04  0.21223082932E+04  0.25500000920E-02 0.  1.
       -2   -1    0    0    0  501  0.00000000000E+00  0.00000000000E+00 -0.76968260737E+03  0.76968260738E+03  0.25500000920E-02 0. -1.
    10030    2    1    2    0    0  0.00000000000E+00  0.00000000000E+00  0.13526256859E+04  0.28919909006E+04  0.25561719667E+04 0.  0.
        5    1    3    3  502    0 -0.27890578703E+02  0.10128061470E+04 -0.20509166582E+03  0.10337499007E+04  0.46999998093E+01 0. -1.
       -5    1    3    3    0  502  0.27890578703E+02 -0.10128061470E+04  0.15577173517E+04  0.18582409999E+04  0.46999998093E+01 0.  1.
</event>
<event>
 5   0  0.2555801E-05  0.2601573E+04  0.7818609E-02  0.8367667E-01
       -2   -1    0    0    0  501  0.00000000000E+00  0.00000000000E+00  0.77316577395E+03  0.77316577395E+03  0.25500000920E-02 0. -1.
        2   -1    0    0  501    0  0.00000000000E+00  0.00000000000E+00 -0.21884645765E+04  0.21884645765E+04  0.25500000920E-02 0.  1.
    10030    2    1    2    0    0  0.00000000000E+00  0.00000000000E+00 -0.14152988025E+04  0.29616303504E+04  0.26015732994E+04 0.  0.
        1    1    3    3  502    0 -0.12788501562E+04  0.61467559457E+01 -0.43693420267E+03  0.13514462631E+04  0.50400001928E-02 0.  1.
       -1    1    3    3    0  502  0.12788501562E+04 -0.61467559457E+01 -0.97836459985E+03  0.16101840873E+04  0.50400001928E-02 0. -1.
</event>
<event>
 5   0  0.1034714E-05  0.2136114E+04  0.7818609E-02  0.8545500E-01
       -1   -1    0    0    0  501  0.00000000000E+00  0.00000000000E+00  0.10214066686E+04  0.10214066686E+04  0.50400001928E-02 0.  1.
        1   -1    0    0  501    0  0.00000000000E+00  0.00000000000E+00 -0.11168380083E+04  0.11168380083E+04  0.50400001928E-02 0. -1.
    10030    2    1    2    0    0  0.00000000000E+00  0.00000000000E+00 -0.95431339709E+02  0.21382446769E+04  0.21361140320E+04 0.  0.
        5    1    3    3  502    0  0.48452140868E+03  0.86797864439E+03 -0.43871477326E+03  0.10865728990E+04  0.46999998093E+01 0. -1.
       -5    1    3    3    0  502 -0.48452140868E+03 -0.86797864439E+03  0.34328343355E+03  0.10516717779E+04  0.46999998093E+01 0.  1.
</event>
<event>
 5   0  0.2528460E-05  0.2596938E+04  0.7818609E-02  0.8369242E-01
        2   -1    0    0  501    0  0.00000000000E+00  0.00000000000E+00  0.14167201952E+04  0.14167201952E+04  0.25500000920E-02 0. -1.
       -2   -1    0    0    0  501  0.00000000000E+00  0.00000000000E+00 -0.11900882669E+04  0.11900882669E+04  0.25500000920E-02 0.  1.
    10030    2    1    2    0    0  0.00000000000E+00  0.00000000000E+00  0.22663192827E+03  0.26068084621E+04  0.25969382602E+04 0.  0.
        5    1    3    3  502    0 -0.55551284148E+03 -0.11564288497E+04 -0.87639297533E+02  0.12859334889E+04  0.46999998093E+01 0.  1.
       -5    1    3    3    0  502  0.55551284148E+03  0.11564288497E+04  0.31427122580E+03  0.13208749732E+04  0.46999998093E+01 0. -1.
</event>
<event>
 5   0  0.9855352E-06  0.2609971E+04  0.7818609E-02  0.8364822E-01
        1   -1    0    0  501    0  0.00000000000E+00  0.00000000000E+00  0.13250248748E+04  0.13250248748E+04  0.50400001928E-02 0.  1.
       -1   -1    0    0    0  501  0.00000000000E+00  0.00000000000E+00 -0.12852496739E+04  0.12852496739E+04  0.50400001928E-02 0. -1.
    10030    2    1    2    0    0  0.00000000000E+00  0.00000000000E+00  0.39775200894E+02  0.26102745487E+04  0.26099714851E+04 0.  0.
        2    1    3    3  502    0  0.34906871087E+03  0.81276844058E+03  0.97945004291E+03  0.13197590271E+04  0.25500000920E-02 0.  1.
       -2    1    3    3    0  502 -0.34906871087E+03 -0.81276844058E+03 -0.93967484202E+03  0.12905155217E+04  0.25500000920E-02 0. -1.
</event>
<event>
 5   0  0.2528460E-05  0.2606556E+04  0.7818609E-02  0.8365978E-01
       -2   -1    0    0    0  501  0.00000000000E+00  0.00000000000E+00  0.72740472627E+03  0.72740472628E+03  0.25500000920E-02 0.  1.
        2   -1    0    0  501    0  0.00000000000E+00  0.00000000000E+00 -0.23350603251E+04  0.23350603251E+04  0.25500000920E-02 0. -1.
    10030    2    1    2    0    0  0.00000000000E+00  0.00000000000E+00 -0.16076555989E+04  0.30624650514E+04  0.26065562849E+04 0.  0.
        5    1    3    3  502    0 -0.77701100945E+03  0.66789709578E+03  0.14245079450E+03  0.10344790758E+04  0.46999998093E+01 0.  1.
       -5    1    3    3    0  502  0.77701100945E+03 -0.66789709578E+03 -0.17501063934E+04  0.20279859756E+04  0.46999998093E+01 0. -1.
</event>
<event>
 5   0  0.1000421E-05  0.2636644E+04  0.7818609E-02  0.8355860E-01
        1   -1    0    0  501    0  0.00000000000E+00  0.00000000000E+00  0.10999127525E+04  0.10999127526E+04  0.50400001928E-02 0. -1.
       -1   -1    0    0    0  501  0.00000000000E+00  0.00000000000E+00 -0.15801001363E+04  0.15801001364E+04  0.50400001928E-02 0.  1.
    10030    2    1    2    0    0  0.00000000000E+00  0.00000000000E+00 -0.48018738380E+03  0.26800128889E+04  0.26366435408E+04 0.  0.
        3    1    3    3  502    0 -0.13022319117E+04 -0.17628334347E+03 -0.34712777139E+03  0.13591841189E+04  0.10100000352E+00 0. -1.
       -3    1    3    3    0  502  0.13022319117E+04  0.17628334347E+03 -0.13305961241E+03  0.13208287700E+04  0.10100000352E+00 0.  1.
</event>
<event>
 5   0  0.1005492E-05  0.2589272E+04  0.7818609E-02  0.8371854E-01
       -1   -1    0    0    0  501  0.00000000000E+00  0.00000000000E+00  0.12625229473E+04  0.12625229473E+04  0.50400001928E-02 0. -1.
        1   -1    0    0  501    0  0.00000000000E+00  0.00000000000E+00 -0.13275662901E+04  0.13275662901E+04  0.50400001928E-02 0.  1.
    10030    2    1    2    0    0  0.00000000000E+00  0.00000000000E+00 -0.65043342768E+02  0.25900892374E+04  0.25892724116E+04 0.  0.
        4    1    3    3  502    0  0.99007424351E+03  0.57788706655E+03  0.56923341242E+03  0.12799331077E+04  0.12699999809E+01 0. -1.
       -4    1    3    3    0  502 -0.99007424351E+03 -0.57788706655E+03 -0.63427675519E+03  0.13101561298E+04  0.12699999809E+01 0.  1.
</event>
<event>
 5   0  0.1000421E-05  0.2549337E+04  0.7818609E-02  0.8385617E-01
        1   -1    0    0  501    0  0.00000000000E+00  0.00000000000E+00  0.13881019757E+04  0.13881019757E+04  0.50400001928E-02 0. -1.
       -1   -1    0    0    0  501  0.00000000000E+00  0.00000000000E+00 -0.11705048958E+04  0.11705048958E+04  0.50400001928E-02 0.  1.
    10030    2    1    2    0    0  0.00000000000E+00  0.00000000000E+00  0.21759707993E+03  0.25586068715E+04  0.25493372930E+04 0.  0.
        3    1    3    3  502    0  0.21565786997E+03  0.11765237995E+04 -0.33332972790E+03  0.12417025752E+04  0.10100000352E+00 0. -1.
       -3    1    3    3    0  502 -0.21565786997E+03 -0.11765237995E+04  0.55092680783E+03  0.13169042962E+04  0.10100000352E+00 0.  1.
</event>
<event>
 5   0  0.1000421E-05  0.2183168E+04  0.7818609E-02  0.8525467E-01
        1   -1    0    0  501    0  0.00000000000E+00  0.00000000000E+00  0.15527391265E+04  0.15527391265E+04  0.50400001928E-02 0. -1.
       -1   -1    0    0    0  501  0.00000000000E+00  0.00000000000E+00 -0.76738978952E+03  0.76738978954E+03  0.50400001928E-02 0.  1.
    10030    2    1    2    0    0  0.00000000000E+00  0.00000000000E+00  0.78534933696E+03  0.23201289160E+04  0.21831684786E+04 0.  0.
        3    1    3    3  502    0  0.47223434099E+03 -0.82361682776E+03  0.96517823953E+03  0.13538533879E+04  0.10100000352E+00 0. -1.
       -3    1    3    3    0  502 -0.47223434099E+03  0.82361682776E+03 -0.17982890257E+03  0.96627552809E+03  0.10100000352E+00 0.  1.
</event>
<event>
 5   0  0.2662024E-05  0.2670296E+04  0.7818609E-02  0.8344708E-01
       -2   -1    0    0    0  501  0.00000000000E+00  0.00000000000E+00  0.10335047770E+04  0.10335047770E+04  0.25500000920E-02 0.  1.
        2   -1    0    0  501    0  0.00000000000E+00  0.00000000000E+00 -0.17248302163E+04  0.17248302163E+04  0.25500000920E-02 0. -1.
    10030    2    1    2    0    0  0.00000000000E+00  0.00000000000E+00 -0.69132543927E+03  0.27583349933E+04  0.26702960645E+04 0.  0.
        2    1    3    3  502    0 -0.84298112113E+03 -0.45237938919E+03 -0.13076875540E+04  0.16202811550E+04  0.25500000920E-02 0. -1.
       -2    1    3    3    0  502  0.84298112113E+03  0.45237938919E+03  0.61636211473E+03  0.11380538383E+04  0.25500000920E-02 0.  1.
</event>
<event>
 5   0  0.1034714E-05  0.2625609E+04  0.7818609E-02  0.8359554E-01
       -1   -1    0    0    0  501  0.00000000000E+00  0.00000000000E+00  0.10728452508E+04  0.10728452508E+04  0.50400001928E-02 0.  1.
        1   -1    0    0  501    0  0.00000000000E+00  0.00000000000E+00 -0.16064345033E+04  0.16064345033E+04  0.50400001928E-02 0. -1.
    10030    2    1    2    0    0  0.00000000000E+00  0.00000000000E+00 -0.53358925255E+03  0.26792797541E+04  0.26256089789E+04 0.  0.
        5    1    3    3  502    0  0.44065561766E+03  0.59218092535E+03 -0.13746094266E+04  0.15602656144E+04  0.46999998093E+01 0. -1.
       -5    1    3    3    0  502 -0.44065561766E+03 -0.59218092535E+03  0.84102017404E+03  0.11190141397E+04  0.46999998093E+01 0.  1.
</event>
<event>
 5   0  0.9855352E-06  0.2540494E+04  0.7818609E-02  0.8388700E-01
        1   -1    0    0  501    0  0.00000000000E+00  0.00000000000E+00  0.21734375662E+04  0.21734375662E+04  0.50400001928E-02 0. -1.
       -1   -1    0    0    0  501  0.00000000000E+00  0.00000000000E+00 -0.74238503034E+03  0.74238503036E+03  0.50400001928E-02 0.  1.
    10030    2    1    2    0    0  0.00000000000E+00  0.00000000000E+00  0.14310525358E+04  0.29158225965E+04  0.25404940571E+04 0.  0.
        2    1    3    3  502    0 -0.14283969201E+03 -0.12076201736E+04  0.11368851757E+04  0.16647094533E+04  0.25500000920E-02 0. -1.
       -2    1    3    3    0  502  0.14283969201E+03  0.12076201736E+04  0.29416736016E+03  0.12511131432E+04  0.25500000920E-02 0.  1.
</event>
<event>
 5   0  0.1000421E-05  0.2541239E+04  0.7818609E-02  0.8388440E-01
        1   -1    0    0  501    0  0.00000000000E+00  0.00000000000E+00  0.11871176653E+04  0.11871176653E+04  0.50400001928E-02 0.  1.
       -1   -1    0    0    0  501  0.00000000000E+00  0.00000000000E+00 -0.13599948108E+04  0.13599948108E+04  0.50400001928E-02 0. -1.
    10030    2    1    2    0    0  0.00000000000E+00  0.00000000000E+00 -0.17287714555E+03  0.25471124761E+04  0.25412389613E+04 0.  0.
        3    1    3    3  502    0  0.52623221384E+03  0.70130163830E+03 -0.10081996465E+04  0.13361178347E+04  0.10100000352E+00 0. -1.
       -3    1    3    3    0  502 -0.52623221384E+03 -0.70130163830E+03  0.83532250097E+03  0.12109946414E+04  0.10100000352E+00 0.  1.
</event>
<event>
 5   0  0.2555801E-05  0.2606479E+04  0.7818609E-02  0.8366004E-01
       -2   -1    0    0    0  501  0.00000000000E+00  0.00000000000E+00  0.14563158682E+04  0.14563158682E+04  0.25500000920E-02 0. -1.
        2   -1    0    0  501    0  0.00000000000E+00  0.00000000000E+00 -0.11662530105E+04  0.11662530105E+04  0.25500000920E-02 0.  1.
    10030    2    1    2    0    0  0.00000000000E+00  0.00000000000E+00  0.29006285776E+03  0.26225688787E+04  0.26064786709E+04 0.  0.
        1    1    3    3  502    0 -0.36164996664E+03  0.12057495240E+04 -0.19440873654E+03  0.12737414847E+04  0.50400001928E-02 0. -1.
       -1    1    3    3    0  502  0.36164996664E+03 -0.12057495240E+04  0.48447159430E+03  0.13488273940E+04  0.50400001928E-02 0.  1.
</event>
<event>
 5   0  0.2662024E-05  0.2617102E+04  0.7818609E-02  0.8362415E-01
       -2   -1    0    0    0  501  0.00000000000E+00  0.00000000000E+00  0.13446974109E+04  0.13446974109E+04  0.25500000920E-02 0.  1.
        2   -1    0    0  501    0  0.00000000000E+00  0.00000000000E+00 -0.12733762332E+04  0.12733762332E+04  0.25500000920E-02 0. -1.
    10030    2    1    2    0    0  0.00000000000E+00  0.00000000000E+00  0.71321177759E+02  0.26180736441E+04  0.26171020033E+04 0.  0.
        2    1    3    3  502    0  0.67159962344E+03  0.73595266742E+03 -0.81296641454E+03  0.12859186499E+04  0.25500000920E-02 0. -1.
       -2    1    3    3    0  502 -0.67159962344E+03 -0.73595266742E+03  0.88428759230E+03  0.13321549943E+04  0.25500000920E-02 0.  1.
</event>
<event>
 5   0  0.1000421E-05  0.2579468E+04  0.7818609E-02  0.8375209E-01
        1   -1    0    0  501    0  0.00000000000E+00  0.00000000000E+00  0.10972733817E+04  0.10972733817E+04  0.50400001928E-02 0. -1.
       -1   -1    0    0    0  501  0.00000000000E+00  0.00000000000E+00 -0.15159521257E+04  0.15159521257E+04  0.50400001928E-02 0.  1.
    10030    2    1    2    0    0  0.00000000000E+00  0.00000000000E+00 -0.41867874398E+03  0.26132255074E+04  0.25794680967E+04 0.  0.
        3    1    3    3  502    0  0.11896121291E+04 -0.49717366872E+03 -0.17642993816E+03  0.13013401584E+04  0.10100000352E+00 0. -1.
       -3    1    3    3    0  502 -0.11896121291E+04  0.49717366872E+03 -0.24224880581E+03  0.13118853490E+04  0.10100000352E+00 0.  1.
</event>
<event>
 5   0  0.2555801E-05  0.2591404E+04  0.7818609E-02  0.8371127E-01
       -2   -1    0    0    0  501  0.00000000000E+00  0.00000000000E+00  0.14142570307E+04  0.14142570307E+04  0.25500000920E-02 0. -1.
        2   -1    0    0  501    0  0.00000000000E+00  0.00000000000E+00 -0.11870849775E+04  0.11870849775E+04  0.25500000920E-02 0.  1.
    10030    2    1    2    0    0  0.00000000000E+00  0.00000000000E+00  0.22717205319E+03  0.26013420081E+04  0.25914036933E+04 0.  0.
        1    1    3    3  502    0  0.78500427551E+03 -0.10275132921E+04  0.19653462531E+03  0.13079148049E+04  0.50400001928E-02 0. -1.
       -1    1    3    3    0  502 -0.78500427551E+03  0.10275132921E+04  0.30637427886E+02  0.12934272032E+04  0.50400001928E-02 0.  1.
</event>
<event>
 5   0  0.1025153E-05  0.2521928E+04  0.7818609E-02  0.8395215E-01
       -1   -1    0    0    0  501  0.00000000000E+00  0.00000000000E+00  0.12925412422E+04  0.12925412422E+04  0.50400001928E-02 0.  1.
        1   -1    0    0  501    0  0.00000000000E+00  0.00000000000E+00 -0.12301577492E+04  0.12301577492E+04  0.50400001928E-02 0. -1.
    10030    2    1    2    0    0  0.00000000000E+00  0.00000000000E+00  0.62383492991E+02  0.25226989913E+04  0.25219275368E+04 0.  0.
        1    1    3    3  502    0  0.10587929941E+04  0.66843110385E+03  0.18018992139E+03  0.12650340520E+04  0.50400001928E-02 0. -1.
       -1    1    3    3    0  502 -0.10587929941E+04 -0.66843110385E+03 -0.11780642840E+03  0.12576649393E+04  0.50400001928E-02 0.  1.
</event>
<event>
 5   0  0.1000421E-05  0.2667428E+04  0.7818609E-02  0.8345652E-01
        1   -1    0    0  501    0  0.00000000000E+00  0.00000000000E+00  0.22029212512E+04  0.22029212512E+04  0.50400001928E-02 0.  1.
       -1   -1    0    0    0  501  0.00000000000E+00  0.00000000000E+00 -0.80746989405E+03  0.80746989407E+03  0.50400001928E-02 0. -1.
    10030    2    1    2    0    0  0.00000000000E+00  0.00000000000E+00  0.13954513572E+04  0.30103911453E+04  0.26674276668E+04 0.  0.
        3    1    3    3  502    0  0.11100812937E+04  0.42034967687E+03  0.11409169336E+02  0.11870570790E+04  0.10100000352E+00 0. -1.
       -3    1    3    3    0  502 -0.11100812937E+04 -0.42034967687E+03  0.13840421879E+04  0.18233340663E+04  0.10100000352E+00 0.  1.
</event>
<event>
 5   0  0.2517854E-05  0.2607355E+04  0.7818609E-02  0.8365707E-01
        2   -1    0    0  501    0  0.00000000000E+00  0.00000000000E+00  0.24814152851E+04  0.24814152851E+04  0.25500000920E-02 0. -1.
       -2   -1    0    0    0  501  0.00000000000E+00  0.00000000000E+00 -0.68492163418E+03  0.68492163419E+03  0.25500000920E-02 0.  1.
    10030    2    1    2    0    0  0.00000000000E+00  0.00000000000E+00  0.17964936509E+04  0.31663369193E+04  0.26073549909E+04 0.  0.
        4    1    3    3  502    0  0.13302787551E+03  0.10843067216E+04  0.17622177347E+04  0.20733621101E+04  0.12699999809E+01 0.  1.
       -4    1    3    3    0  502 -0.13302787551E+03 -0.10843067216E+04  0.34275916219E+02  0.10929748092E+04  0.12699999809E+01 0. -1.
</event>
<event>
 5   0  0.8605000E-06  0.2625487E+04  0.7818609E-02  0.8359595E-01
       -4   -1    0    0    0  501  0.00000000000E+00  0.00000000000E+00  0.11901593112E+04  0.11901599888E+04  0.12699999809E+01 0.  1.
        4   -1    0    0  501    0  0.00000000000E+00  0.00000000000E+00 -0.14479523230E+04  0.14479528800E+04  0.12699999809E+01 0. -1.
    10030    2    1    2    0    0  0.00000000000E+00  0.00000000000E+00 -0.25779301182E+03  0.26381128687E+04  0.26254870541E+04 0.  0.
        4    1    3    3  502    0  0.21747269420E+03 -0.12941114205E+04 -0.16477836751E+03  0.13225627639E+04  0.12699999809E+01 0. -1.
       -4    1    3    3    0  502 -0.21747269420E+03  0.12941114205E+04 -0.93014644312E+02  0.13155501048E+04  0.12699999809E+01 0.  1.
</event>
<event>
 5   0  0.2555801E-05  0.2539621E+04  0.7818609E-02  0.8389005E-01
        2   -1    0    0  501    0  0.00000000000E+00  0.00000000000E+00  0.29103315628E+04  0.29103315628E+04  0.25500000920E-02 0. -1.
       -2   -1    0    0    0  501  0.00000000000E+00  0.00000000000E+00 -0.55403268416E+03  0.55403268417E+03  0.25500000920E-02 0.  1.
    10030    2    1    2    0    0  0.00000000000E+00  0.00000000000E+00  0.23562988786E+04  0.34643642470E+04  0.25396210800E+04 0.  0.
        1    1    3    3  502    0  0.21858604620E+03 -0.93899224441E+03  0.23054598537E+04  0.24989260557E+04  0.50400001928E-02 0. -1.
       -1    1    3    3    0  502 -0.21858604620E+03  0.93899224441E+03  0.50839024882E+02  0.96543819125E+03  0.50400001928E-02 0.  1.
</event>
<event>
 5   0  0.2528460E-05  0.2612137E+04  0.7818609E-02  0.8364090E-01
       -2   -1    0    0    0  501  0.00000000000E+00  0.00000000000E+00  0.10357923901E+04  0.10357923902E+04  0.25500000920E-02 0.  1.
        2   -1    0    0  501    0  0.00000000000E+00  0.00000000000E+00 -0.16468698582E+04  0.16468698582E+04  0.25500000920E-02 0. -1.
    10030    2    1    2    0    0  0.00000000000E+00  0.00000000000E+00 -0.61107746809E+03  0.26826622484E+04  0.26121372604E+04 0.  0.
        5    1    3    3  502    0  0.37615227121E+03  0.89246570030E+03 -0.12054427965E+04  0.15463182024E+04  0.46999998093E+01 0. -1.
       -5    1    3    3    0  502 -0.37615227121E+03 -0.89246570030E+03  0.59436532840E+03  0.11363440460E+04  0.46999998093E+01 0.  1.
</event>
<event>
 5   0  0.2517854E-05  0.2598848E+04  0.7818609E-02  0.8368593E-01
        2   -1    0    0  501    0  0.00000000000E+00  0.00000000000E+00  0.26331233020E+04  0.26331233020E+04  0.25500000920E-02 0. -1.
       -2   -1    0    0    0  501  0.00000000000E+00  0.00000000000E+00 -0.64125483424E+03  0.64125483425E+03  0.25500000920E-02 0.  1.
    10030    2    1    2    0    0  0.00000000000E+00  0.00000000000E+00  0.19918684678E+04  0.32743781363E+04  0.25988482423E+04 0.  0.
        4    1    3    3  502    0  0.12091210104E+04  0.47321354301E+03  0.10601384735E+04  0.16762457669E+04  0.12699999809E+01 0.  1.
       -4    1    3    3    0  502 -0.12091210104E+04 -0.47321354301E+03  0.93172999428E+03  0.15981323694E+04  0.12699999809E+01 0. -1.
</event>
<event>
 5   0  0.1000421E-05  0.2263767E+04  0.7818609E-02  0.8492346E-01
       -1   -1    0    0    0  501  0.00000000000E+00  0.00000000000E+00  0.92359444418E+03  0.92359444419E+03  0.50400001928E-02 0. -1.
        1   -1    0    0  501    0  0.00000000000E+00  0.00000000000E+00 -0.13871453157E+04  0.13871453157E+04  0.50400001928E-02 0.  1.
    10030    2    1    2    0    0  0.00000000000E+00  0.00000000000E+00 -0.46355087151E+03  0.23107397599E+04  0.22637665135E+04 0.  0.
        3    1    3    3  502    0 -0.93317316863E+03 -0.61779487150E+03 -0.40463224692E+03  0.11900461887E+04  0.10100000352E+00 0.  1.
       -3    1    3    3    0  502  0.93317316863E+03  0.61779487150E+03 -0.58918624594E+02  0.11206935712E+04  0.10100000352E+00 0. -1.
</event>
<event>
 5   0  0.1000421E-05  0.2572463E+04  0.7818609E-02  0.8377616E-01
        1   -1    0    0  501    0  0.00000000000E+00  0.00000000000E+00  0.10581285715E+04  0.10581285715E+04  0.50400001928E-02 0. -1.
       -1   -1    0    0    0  501  0.00000000000E+00  0.00000000000E+00 -0.15635068834E+04  0.15635068834E+04  0.50400001928E-02 0.  1.
    10030    2    1    2    0    0  0.00000000000E+00  0.00000000000E+00 -0.50537831193E+03  0.26216354549E+04  0.25724628705E+04 0.  0.
        3    1    3    3  502    0  0.70506853057E+03 -0.96143654948E+03 -0.74452108234E+03  0.14056292270E+04  0.10100000352E+00 0.  1.
       -3    1    3    3    0  502 -0.70506853057E+03  0.96143654948E+03  0.23914277041E+03  0.12160062279E+04  0.10100000352E+00 0. -1.
</event>
<event>
 5   0  0.2484618E-05  0.2463647E+04  0.7818609E-02  0.8416052E-01
        2   -1    0    0  501    0  0.00000000000E+00  0.00000000000E+00  0.16840039818E+04  0.16840039818E+04  0.25500000920E-02 0.  1.
       -2   -1    0    0    0  501  0.00000000000E+00  0.00000000000E+00 -0.90106002890E+03  0.90106002890E+03  0.25500000920E-02 0. -1.
    10030    2    1    2    0    0  0.00000000000E+00  0.00000000000E+00  0.78294395288E+03  0.25850640107E+04  0.24636466277E+04 0.  0.
        3    1    3    3  502    0 -0.85891046476E+03 -0.10126659417E+03  0.13118597224E+04  0.15712918415E+04  0.10100000352E+00 0.  1.
       -3    1    3    3    0  502  0.85891046476E+03  0.10126659417E+03 -0.52891576955E+03  0.10137721692E+04  0.10100000352E+00 0. -1.
</event>
<event>
 5   0  0.2517854E-05  0.2600094E+04  0.7818609E-02  0.8368169E-01
        2   -1    0    0  501    0  0.00000000000E+00  0.00000000000E+00  0.15523142217E+04  0.15523142217E+04  0.25500000920E-02 0.  1.
       -2   -1    0    0    0  501  0.00000000000E+00  0.00000000000E+00 -0.10887755229E+04  0.10887755229E+04  0.25500000920E-02 0. -1.
    10030    2    1    2    0    0  0.00000000000E+00  0.00000000000E+00  0.46353869877E+03  0.26410897446E+04  0.26000936356E+04 0.  0.
        4    1    3    3  502    0 -0.56558179067E+03  0.25111883096E+03  0.13931145176E+04  0.15243730191E+04  0.12699999809E+01 0.  1.
       -4    1    3    3    0  502  0.56558179067E+03 -0.25111883096E+03 -0.92957581886E+03  0.11167167255E+04  0.12699999809E+01 0. -1.
</event>
<event>
 5   0  0.9855352E-06  0.2629867E+04  0.7818609E-02  0.8358126E-01
       -1   -1    0    0    0  501  0.00000000000E+00  0.00000000000E+00  0.26900779451E+04  0.26900779451E+04  0.50400001928E-02 0.  1.
        1   -1    0    0  501    0  0.00000000000E+00  0.00000000000E+00 -0.64275117403E+03  0.64275117405E+03  0.50400001928E-02 0. -1.
    10030    2    1    2    0    0  0.00000000000E+00  0.00000000000E+00  0.20473267711E+04  0.33328291192E+04  0.26298674929E+04 0.  0.
        2    1    3    3  502    0 -0.76918830994E+03  0.95580440757E+03  0.42408478614E+03  0.12980988512E+04  0.25500000920E-02 0. -1.
       -2    1    3    3    0  502  0.76918830994E+03 -0.95580440757E+03  0.16232419850E+04  0.20347302680E+04  0.25500000920E-02 0.  1.
</event>
<event>
 5   0  0.1025153E-05  0.2582952E+04  0.7818609E-02  0.8374015E-01
       -1   -1    0    0    0  501  0.00000000000E+00  0.00000000000E+00  0.14631886837E+04  0.14631886837E+04  0.50400001928E-02 0. -1.
        1   -1    0    0  501    0  0.00000000000E+00  0.00000000000E+00 -0.11399147646E+04  0.11399147646E+04  0.50400001928E-02 0.  1.
    10030    2    1    2    0    0  0.00000000000E+00  0.00000000000E+00  0.32327391911E+03  0.26031034484E+04  0.25829520971E+04 0.  0.
        1    1    3    3  502    0  0.81835494078E+02  0.10423249483E+04  0.92568891510E+03  0.13964377227E+04  0.50400001928E-02 0. -1.
       -1    1    3    3    0  502 -0.81835494078E+02 -0.10423249483E+04 -0.60241499599E+03  0.12066657256E+04  0.50400001928E-02 0.  1.
</event>
<event>
 5   0  0.9855352E-06  0.2611758E+04  0.7818609E-02  0.8364218E-01
       -1   -1    0    0    0  501  0.00000000000E+00  0.00000000000E+00  0.69830188218E+03  0.69830188220E+03  0.50400001928E-02 0. -1.
        1   -1    0    0  501    0  0.00000000000E+00  0.00000000000E+00 -0.24420947315E+04  0.24420947315E+04  0.50400001928E-02 0.  1.
    10030    2    1    2    0    0  0.00000000000E+00  0.00000000000E+00 -0.17437928494E+04  0.31403966137E+04  0.26117575290E+04 0.  0.
        2    1    3    3  502    0  0.12495345335E+04  0.35717274785E+03 -0.71786420822E+03  0.14846676206E+04  0.25500000920E-02 0.  1.
       -2    1    3    3    0  502 -0.12495345335E+04 -0.35717274785E+03 -0.10259286411E+04  0.16557289932E+04  0.25500000920E-02 0. -1.
</event>
<event>
 5   0  0.2517854E-05  0.2631905E+04  0.7818609E-02  0.8357444E-01
        2   -1    0    0  501    0  0.00000000000E+00  0.00000000000E+00  0.17215221304E+04  0.17215221304E+04  0.25500000920E-02 0. -1.
       -2   -1    0    0    0  501  0.00000000000E+00  0.00000000000E+00 -0.10059297822E+04  0.10059297822E+04  0.25500000920E-02 0.  1.
    10030    2    1    2    0    0  0.00000000000E+00  0.00000000000E+00  0.71559234821E+03  0.27274519125E+04  0.26319045435E+04 0.  0.
        4    1    3    3  502    0  0.65212777019E+03 -0.86570688906E+03 -0.41562909357E+03  0.11608049805E+04  0.12699999809E+01 0.  1.
       -4    1    3    3    0  502 -0.65212777019E+03  0.86570688906E+03  0.11312214418E+04  0.15666469320E+04  0.12699999809E+01 0. -1.
</event>
<event>
 5   0  0.2517854E-05  0.2635230E+04  0.7818609E-02  0.8356332E-01
       -2   -1    0    0    0  501  0.00000000000E+00  0.00000000000E+00  0.90814145983E+03  0.90814145983E+03  0.25500000920E-02 0. -1.
        2   -1    0    0  501    0  0.00000000000E+00  0.00000000000E+00 -0.19117164932E+04  0.19117164932E+04  0.25500000920E-02 0.  1.
    10030    2    1    2    0    0  0.00000000000E+00  0.00000000000E+00 -0.10035750334E+04  0.28198579530E+04  0.26352297865E+04 0.  0.
        4    1    3    3  502    0 -0.11558383353E+04 -0.56553865459E+03 -0.80503465350E+03  0.15178532977E+04  0.12699999809E+01 0.  1.
       -4    1    3    3    0  502  0.11558383353E+04  0.56553865459E+03 -0.19854037989E+03  0.13020046553E+04  0.12699999809E+01 0. -1.
</event>
<event>
 5   0  0.2528460E-05  0.2374246E+04  0.7818609E-02  0.8449209E-01
        2   -1    0    0  501    0  0.00000000000E+00  0.00000000000E+00  0.21911049195E+04  0.21911049195E+04  0.25500000920E-02 0.  1.
       -2   -1    0    0    0  501  0.00000000000E+00  0.00000000000E+00 -0.64317382538E+03  0.64317382539E+03  0.25500000920E-02 0. -1.
    10030    2    1    2    0    0  0.00000000000E+00  0.00000000000E+00  0.15479310942E+04  0.28342787449E+04  0.23742462660E+04 0.  0.
        5    1    3    3  502    0  0.93080467153E+03 -0.53058290731E+03  0.16371780255E+03  0.10838547721E+04  0.46999998093E+01 0. -1.
       -5    1    3    3    0  502 -0.93080467153E+03  0.53058290731E+03  0.13842132916E+04  0.17504239729E+04  0.46999998093E+01 0.  1.
</event>
<event>
 5   0  0.1000421E-05  0.2633952E+04  0.7818609E-02  0.8356759E-01
        1   -1    0    0  501    0  0.00000000000E+00  0.00000000000E+00  0.13919879828E+04  0.13919879828E+04  0.50400001928E-02 0.  1.
       -1   -1    0    0    0  501  0.00000000000E+00  0.00000000000E+00 -0.12460059672E+04  0.12460059672E+04  0.50400001928E-02 0. -1.
    10030    2    1    2    0    0  0.00000000000E+00  0.00000000000E+00  0.14598201559E+03  0.26379939499E+04  0.26339516569E+04 0.  0.
        3    1    3    3  502    0  0.61262258229E+03  0.11290922234E+04 -0.21774684474E+03  0.13029080458E+04  0.10100000352E+00 0. -1.
       -3    1    3    3    0  502 -0.61262258229E+03 -0.11290922234E+04  0.36372886033E+03  0.13350859041E+04  0.10100000352E+00 0.  1.
</event>
<event>
 5   0  0.9855352E-06  0.2641286E+04  0.7818609E-02  0.8354311E-01
        1   -1    0    0  501    0  0.00000000000E+00  0.00000000000E+00  0.19932986117E+04  0.19932986117E+04  0.50400001928E-02 0.  1.
       -1   -1    0    0    0  501  0.00000000000E+00  0.00000000000E+00 -0.87498061030E+03  0.87498061031E+03  0.50400001928E-02 0. -1.
    10030    2    1    2    0    0  0.00000000000E+00  0.00000000000E+00  0.11183180014E+04  0.28682792220E+04  0.26412857746E+04 0.  0.
        2    1    3    3  502    0 -0.64538639536E+03 -0.20633051598E+03 -0.67184055125E+03  0.95418321482E+03  0.25500000920E-02 0. -1.
       -2    1    3    3    0  502  0.64538639536E+03  0.20633051598E+03  0.17901585527E+04  0.19140960072E+04  0.25500000920E-02 0.  1.
</event>
<event>
 5   0  0.2555801E-05  0.2478667E+04  0.7818609E-02  0.8410625E-01
        2   -1    0    0  501    0  0.00000000000E+00  0.00000000000E+00  0.14872304554E+04  0.14872304554E+04  0.25500000920E-02 0. -1.
       -2   -1    0    0    0  501  0.00000000000E+00  0.00000000000E+00 -0.10327571145E+04  0.10327571145E+04  0.25500000920E-02 0.  1.
    10030    2    1    2    0    0  0.00000000000E+00  0.00000000000E+00  0.45447334094E+03  0.25199875699E+04  0.24786672497E+04 0.  0.
        1    1    3    3  502    0  0.26688017260E+03  0.11359113854E+04 -0.19737158584E+03  0.11834167672E+04  0.50400001928E-02 0.  1.
       -1    1    3    3    0  502 -0.26688017260E+03 -0.11359113854E+04  0.65184492678E+03  0.13365708027E+04  0.50400001928E-02 0. -1.
</event>
<event>
 5   0  0.1005492E-05  0.2545516E+04  0.7818609E-02  0.8386947E-01
        1   -1    0    0  501    0  0.00000000000E+00  0.00000000000E+00  0.14408749288E+04  0.14408749288E+04  0.50400001928E-02 0.  1.
       -1   -1    0    0    0  501  0.00000000000E+00  0.00000000000E+00 -0.11242567136E+04  0.11242567136E+04  0.50400001928E-02 0. -1.
    10030    2    1    2    0    0  0.00000000000E+00  0.00000000000E+00  0.31661821521E+03  0.25651316424E+04  0.25455163029E+04 0.  0.
        4    1    3    3  502    0 -0.75081235684E+03  0.47108688179E+03  0.10787311241E+04  0.13961749519E+04  0.12699999809E+01 0.  1.
       -4    1    3    3    0  502  0.75081235684E+03 -0.47108688179E+03 -0.76211290889E+03  0.11689566905E+04  0.12699999809E+01 0. -1.
</event>
<event>
 5   0  0.2555801E-05  0.2595339E+04  0.7818609E-02  0.8369786E-01
        2   -1    0    0  501    0  0.00000000000E+00  0.00000000000E+00  0.11669433298E+04  0.11669433298E+04  0.25500000920E-02 0. -1.
       -2   -1    0    0    0  501  0.00000000000E+00  0.00000000000E+00 -0.14430405998E+04  0.14430405998E+04  0.25500000920E-02 0.  1.
    10030    2    1    2    0    0  0.00000000000E+00  0.00000000000E+00 -0.27609727000E+03  0.26099839296E+04  0.25953393633E+04 0.  0.
        1    1    3    3  502    0  0.12336085001E+04 -0.12031008477E+03  0.24841415920E+03  0.12641099804E+04  0.50400001928E-02 0. -1.
       -1    1    3    3    0  502 -0.12336085001E+04  0.12031008477E+03 -0.52451142920E+03  0.13458739493E+04  0.50400001928E-02 0.  1.
</event>
<event>
 5   0  0.8605000E-06  0.2546910E+04  0.7818609E-02  0.8386462E-01
        3   -1    0    0  501    0  0.00000000000E+00  0.00000000000E+00  0.11507106769E+04  0.11507106813E+04  0.10100000352E+00 0. -1.
       -3   -1    0    0    0  501  0.00000000000E+00  0.00000000000E+00 -0.14092923034E+04  0.14092923070E+04  0.10100000352E+00 0.  1.
    10030    2    1    2    0    0  0.00000000000E+00  0.00000000000E+00 -0.25858162651E+03  0.25600029883E+04  0.25469100578E+04 0.  0.
        5    1    3    3  502    0  0.56411289937E+03  0.32019971315E+03  0.97220510012E+03  0.11687412315E+04  0.46999998093E+01 0. -1.
       -5    1    3    3    0  502 -0.56411289937E+03 -0.32019971315E+03 -0.12307867266E+04  0.13912617568E+04  0.46999998093E+01 0.  1.
</event>
<event>
 5   0  0.2662024E-05  0.2611643E+04  0.7818609E-02  0.8364257E-01
       -2   -1    0    0    0  501  0.00000000000E+00  0.00000000000E+00  0.20058523660E+04  0.20058523660E+04  0.25500000920E-02 0.  1.
        2   -1    0    0  501    0  0.00000000000E+00  0.00000000000E+00 -0.85009745231E+03  0.85009745232E+03  0.25500000920E-02 0. -1.
    10030    2    1    2    0    0  0.00000000000E+00  0.00000000000E+00  0.11557549137E+04  0.28559498183E+04  0.26116431503E+04 0.  0.
        2    1    3    3  502    0  0.50316536993E+02  0.10351767546E+04  0.14465732125E+04  0.17795214881E+04  0.25500000920E-02 0.  1.
       -2    1    3    3    0  502 -0.50316536993E+02 -0.10351767546E+04 -0.29081829884E+03  0.10764283303E+04  0.25500000920E-02 0. -1.
</event>
<event>
 5   0  0.1005492E-05  0.2602559E+04  0.7818609E-02  0.8367332E-01
        1   -1    0    0  501    0  0.00000000000E+00  0.00000000000E+00  0.16570717838E+04  0.16570717838E+04  0.50400001928E-02 0. -1.
       -1   -1    0    0    0  501  0.00000000000E+00  0.00000000000E+00 -0.10218798900E+04  0.10218798900E+04  0.50400001928E-02 0.  1.
    10030    2    1    2    0    0  0.00000000000E+00  0.00000000000E+00  0.63519189386E+03  0.26789516738E+04  0.26025589962E+04 0.  0.
        4    1    3    3  502    0 -0.65229701718E+03 -0.13291426861E+03 -0.83333344104E+03  0.10665851294E+04  0.12699999809E+01 0.  1.
       -4    1    3    3    0  502  0.65229701718E+03  0.13291426861E+03  0.14685253349E+04  0.16123665444E+04  0.12699999809E+01 0. -1.
</event>
<event>
 5   0  0.2517854E-05  0.2525567E+04  0.7818609E-02  0.8393933E-01
        2   -1    0    0  501    0  0.00000000000E+00  0.00000000000E+00  0.17772184564E+04  0.17772184564E+04  0.25500000920E-02 0. -1.
       -2   -1    0    0    0  501  0.00000000000E+00  0.00000000000E+00 -0.89725709133E+03  0.89725709134E+03  0.25500000920E-02 0.  1.
    10030    2    1    2    0    0  0.00000000000E+00  0.00000000000E+00  0.87996136504E+03  0.26744755477E+04  0.25255667584E+04 0.  0.
        4    1    3    3  502    0 -0.99177639996E+03  0.15234260483E+03 -0.37189858125E+03  0.10701116131E+04  0.12699999809E+01 0.  1.
       -4    1    3    3    0  502  0.99177639996E+03 -0.15234260483E+03  0.12518599463E+04  0.16043639347E+04  0.12699999809E+01 0. -1.
</event>
<event>
 5   0  0.1000421E-05  0.2555257E+04  0.7818609E-02  0.8383560E-01
       -1   -1    0    0    0  501  0.00000000000E+00  0.00000000000E+00  0.18425657665E+04  0.18425657666E+04  0.50400001928E-02 0.  1.
        1   -1    0    0  501    0  0.00000000000E+00  0.00000000000E+00 -0.88590300799E+03  0.88590300800E+03  0.50400001928E-02 0. -1.
    10030    2    1    2    0    0  0.00000000000E+00  0.00000000000E+00  0.95666275856E+03  0.27284687746E+04  0.25552569773E+04 0.  0.
        3    1    3    3  502    0 -0.83648231655E+03 -0.73594083539E+03  0.11460377774E+04  0.15983473266E+04  0.10100000352E+00 0.  1.
       -3    1    3    3    0  502  0.83648231655E+03  0.73594083539E+03 -0.18937501886E+03  0.11301214479E+04  0.10100000352E+00 0. -1.
</event>
<event>
 5   0  0.2528460E-05  0.2577600E+04  0.7818609E-02  0.8375850E-01
       -2   -1    0    0    0  501  0.00000000000E+00  0.00000000000E+00  0.96693296855E+03  0.96693296855E+03  0.25500000920E-02 0.  1.
        2   -1    0    0  501    0  0.00000000000E+00  0.00000000000E+00 -0.17178081844E+04  0.17178081844E+04  0.25500000920E-02 0. -1.
    10030    2    1    2    0    0  0.00000000000E+00  0.00000000000E+00 -0.75087521585E+03  0.26847411529E+04  0.25775999435E+04 0.  0.
        5    1    3    3  502    0 -0.85821546800E+03  0.85437431330E+02  0.62204900472E+03  0.10633909904E+04  0.46999998093E+01 0.  1.
       -5    1    3    3    0  502  0.85821546800E+03 -0.85437431330E+02 -0.13729242206E+04  0.16213501626E+04  0.46999998093E+01 0. -1.
</event>
<event>
 5   0  0.2528460E-05  0.2354938E+04  0.7818609E-02  0.8456570E-01
       -2   -1    0    0    0  501  0.00000000000E+00  0.00000000000E+00  0.57105681062E+03  0.57105681063E+03  0.25500000920E-02 0.  1.
        2   -1    0    0  501    0  0.00000000000E+00  0.00000000000E+00 -0.24278368117E+04  0.24278368117E+04  0.25500000920E-02 0. -1.
    10030    2    1    2    0    0  0.00000000000E+00  0.00000000000E+00 -0.18567800011E+04  0.29988936223E+04  0.23549375757E+04 0.  0.
        5    1    3    3  502    0 -0.57515390493E+03  0.63008009088E+03 -0.19618533276E+04  0.21393208044E+04  0.46999998093E+01 0. -1.
       -5    1    3    3    0  502  0.57515390493E+03 -0.63008009088E+03  0.10507332653E+03  0.85957281788E+03  0.46999998093E+01 0.  1.
</event>
<event>
 5   0  0.2555801E-05  0.2726078E+04  0.7818609E-02  0.8326593E-01
        2   -1    0    0  501    0  0.00000000000E+00  0.00000000000E+00  0.15977766236E+04  0.15977766236E+04  0.25500000920E-02 0.  1.
       -2   -1    0    0    0  501  0.00000000000E+00  0.00000000000E+00 -0.11627880866E+04  0.11627880866E+04  0.25500000920E-02 0. -1.
    10030    2    1    2    0    0  0.00000000000E+00  0.00000000000E+00  0.43498853699E+03  0.27605647102E+04  0.27260782255E+04 0.  0.
        1    1    3    3  502    0  0.83037303827E+03 -0.13193161759E+03  0.13038896259E+04  0.15514681728E+04  0.50400001928E-02 0.  1.
       -1    1    3    3    0  502 -0.83037303827E+03  0.13193161759E+03 -0.86890108896E+03  0.12090965374E+04  0.50400001928E-02 0. -1.
</event>
<event>
 5   0  0.1005492E-05  0.2329529E+04  0.7818609E-02  0.8466369E-01
        1   -1    0    0  501    0  0.00000000000E+00  0.00000000000E+00  0.74954544191E+03  0.74954544193E+03  0.50400001928E-02 0.  1.
       -1   -1    0    0    0  501  0.00000000000E+00  0.00000000000E+00 -0.18099980799E+04  0.18099980799E+04  0.50400001928E-02 0. -1.
    10030    2    1    2    0    0  0.00000000000E+00  0.00000000000E+00 -0.10604526379E+04  0.25595435218E+04  0.23295285451E+04 0.  0.
        4    1    3    3  502    0 -0.35030531313E+03  0.87223311890E+03 -0.12860195154E+04  0.15929068500E+04  0.12699999809E+01 0. -1.
       -4    1    3    3    0  502  0.35030531313E+03 -0.87223311890E+03  0.22556687742E+03  0.96663667176E+03  0.12699999809E+01 0.  1.
</event>
<event>
 5   0  0.1000421E-05  0.2145454E+04  0.7818609E-02  0.8541481E-01
        1   -1    0    0  501    0  0.00000000000E+00  0.00000000000E+00  0.69561366556E+03  0.69561366558E+03  0.50400001928E-02 0.  1.
       -1   -1    0    0    0  501  0.00000000000E+00  0.00000000000E+00 -0.16542848858E+04  0.16542848858E+04  0.50400001928E-02 0. -1.
    10030    2    1    2    0    0  0.00000000000E+00  0.00000000000E+00 -0.95867122028E+03  0.23498985514E+04  0.21454539597E+04 0.  0.
        3    1    3    3  502    0  0.50849362512E+03 -0.59096767445E+03 -0.12863916193E+04  0.15041981144E+04  0.10100000352E+00 0. -1.
       -3    1    3    3    0  502 -0.50849362512E+03  0.59096767445E+03  0.32772039901E+03  0.84570043701E+03  0.10100000352E+00 0.  1.
</event>
<event>
 5   0  0.1000421E-05  0.2621423E+04  0.7818609E-02  0.8360961E-01
       -1   -1    0    0    0  501  0.00000000000E+00  0.00000000000E+00  0.12890112567E+04  0.12890112567E+04  0.50400001928E-02 0. -1.
        1   -1    0    0  501    0  0.00000000000E+00  0.00000000000E+00 -0.13327768292E+04  0.13327768292E+04  0.50400001928E-02 0.  1.
    10030    2    1    2    0    0  0.00000000000E+00  0.00000000000E+00 -0.43765572466E+02  0.26217880859E+04  0.26214227705E+04 0.  0.
        3    1    3    3  502    0 -0.52683691104E+03 -0.10772386899E+04 -0.55107276637E+03  0.13197278242E+04  0.10100000352E+00 0.  1.
       -3    1    3    3    0  502  0.52683691104E+03  0.10772386899E+04  0.50730719390E+03  0.13020602617E+04  0.10100000352E+00 0. -1.
</event>
<event>
 5   0  0.2517854E-05  0.2630651E+04  0.7818609E-02  0.8357864E-01
       -2   -1    0    0    0  501  0.00000000000E+00  0.00000000000E+00  0.15308894988E+04  0.15308894988E+04  0.25500000920E-02 0. -1.
        2   -1    0    0  501    0  0.00000000000E+00  0.00000000000E+00 -0.11301151047E+04  0.11301151047E+04  0.25500000920E-02 0.  1.
    10030    2    1    2    0    0  0.00000000000E+00  0.00000000000E+00  0.40077439415E+03  0.26610046035E+04  0.26306511333E+04 0.  0.
        4    1    3    3  502    0  0.10478733314E+04  0.67469278114E+03  0.62575185697E+03  0.13945665516E+04  0.12699999809E+01 0. -1.
       -4    1    3    3    0  502 -0.10478733314E+04 -0.67469278114E+03 -0.22497746282E+03  0.12664380519E+04  0.12699999809E+01 0.  1.
</event>
<event>
 5   0  0.1034714E-05  0.2574624E+04  0.7818609E-02  0.8376872E-01
        1   -1    0    0  501    0  0.00000000000E+00  0.00000000000E+00  0.18200098312E+04  0.18200098312E+04  0.50400001928E-02 0.  1.
       -1   -1    0    0    0  501  0.00000000000E+00  0.00000000000E+00 -0.91052957741E+03  0.91052957742E+03  0.50400001928E-02 0. -1.
    10030    2    1    2    0    0  0.00000000000E+00  0.00000000000E+00  0.90948025378E+03  0.27305394086E+04  0.25746244639E+04 0.  0.
        5    1    3    3  502    0  0.71493633019E+03  0.52170789629E+03 -0.53666217525E+03  0.10350562620E+04  0.46999998093E+01 0. -1.
       -5    1    3    3    0  502 -0.71493633019E+03 -0.52170789629E+03  0.14461424290E+04  0.16954831466E+04  0.46999998093E+01 0.  1.
</event>
<event>
 5   0  0.1005492E-05  0.1921693E+04  0.7818609E-02  0.8644133E-01
        1   -1    0    0  501    0  0.00000000000E+00  0.00000000000E+00  0.14852837963E+04  0.14852837963E+04  0.50400001928E-02 0.  1.
       -1   -1    0    0    0  501  0.00000000000E+00  0.00000000000E+00 -0.62158219064E+03  0.62158219066E+03  0.50400001928E-02 0. -1.
    10030    2    1    2    0    0  0.00000000000E+00  0.00000000000E+00  0.86370160566E+03  0.21068659870E+04  0.19216929576E+04 0.  0.
        4    1    3    3  502    0  0.56673750295E+03 -0.77199857685E+03  0.34656600525E+03  0.10184708188E+04  0.12699999809E+01 0. -1.
       -4    1    3    3    0  502 -0.56673750295E+03  0.77199857685E+03  0.51713560041E+03  0.10883951681E+04  0.12699999809E+01 0.  1.
</event>
<event>
 5   0  0.9855352E-06  0.2603005E+04  0.7818609E-02  0.8367181E-01
       -1   -1    0    0    0  501  0.00000000000E+00  0.00000000000E+00  0.16120546037E+04  0.16120546037E+04  0.50400001928E-02 0. -1.
        1   -1    0    0  501    0  0.00000000000E+00  0.00000000000E+00 -0.10507764666E+04  0.10507764666E+04  0.50400001928E-02 0.  1.
    10030    2    1    2    0    0  0.00000000000E+00  0.00000000000E+00  0.56127813708E+03  0.26628310703E+04  0.26030052174E+04 0.  0.
        2    1    3    3  502    0  0.10478671836E+04 -0.54973498845E+03 -0.27373378264E+03  0.12145634507E+04  0.25500000920E-02 0.  1.
       -2    1    3    3    0  502 -0.10478671836E+04  0.54973498845E+03  0.83501191972E+03  0.14482676196E+04  0.25500000920E-02 0. -1.
</event>
<event>
 5   0  0.2484618E-05  0.2651505E+04  0.7818609E-02  0.8350914E-01
       -2   -1    0    0    0  501  0.00000000000E+00  0.00000000000E+00  0.94725901202E+03  0.94725901202E+03  0.25500000920E-02 0. -1.
        2   -1    0    0  501    0  0.00000000000E+00  0.00000000000E+00 -0.18554791730E+04  0.18554791730E+04  0.25500000920E-02 0.  1.
    10030    2    1    2    0    0  0.00000000000E+00  0.00000000000E+00 -0.90822016102E+03  0.28027381851E+04  0.26515047564E+04 0.  0.
        3    1    3    3  502    0  0.11920364677E+04 -0.52267143636E+02 -0.10649425391E+04  0.15993077929E+04  0.10100000352E+00 0.  1.
       -3    1    3    3    0  502 -0.11920364677E+04  0.52267143636E+02  0.15672237812E+03  0.12034303921E+04  0.10100000352E+00 0. -1.
</event>
<event>
 5   0  0.2517854E-05  0.2571572E+04  0.7818609E-02  0.8377922E-01
        2   -1    0    0  501    0  0.00000000000E+00  0.00000000000E+00  0.19078360864E+04  0.19078360864E+04  0.25500000920E-02 0. -1.
       -2   -1    0    0    0  501  0.00000000000E+00  0.00000000000E+00 -0.86655558768E+03  0.86655558768E+03  0.25500000920E-02 0.  1.
    10030    2    1    2    0    0  0.00000000000E+00  0.00000000000E+00  0.10412804987E+04  0.27743916741E+04  0.25715722981E+04 0.  0.
        4    1    3    3  502    0 -0.75050114300E+03 -0.90955858122E+03 -0.32321967726E+02  0.11796588917E+04  0.12699999809E+01 0.  1.
       -4    1    3    3    0  502  0.75050114300E+03  0.90955858122E+03  0.10736024665E+04  0.15947327824E+04  0.12699999809E+01 0. -1.
</event>
<event>
 5   0  0.2555801E-05  0.2590321E+04  0.7818609E-02  0.8371496E-01
        2   -1    0    0  501    0  0.00000000000E+00  0.00000000000E+00  0.13255343075E+04  0.13255343075E+04  0.25500000920E-02 0. -1.
       -2   -1    0    0    0  501  0.00000000000E+00  0.00000000000E+00 -0.12654826770E+04  0.12654826770E+04  0.25500000920E-02 0.  1.
    10030    2    1    2    0    0  0.00000000000E+00  0.00000000000E+00  0.60051630420E+02  0.25910169845E+04  0.25903209870E+04 0.  0.
        1    1    3    3  502    0 -0.12899958109E+04 -0.13439282596E+02 -0.84769550922E+02  0.12928478965E+04  0.50400001928E-02 0.  1.
       -1    1    3    3    0  502  0.12899958109E+04  0.13439282596E+02  0.14482118134E+03  0.12981690881E+04  0.50400001928E-02 0. -1.
</event>
<event>
 5   0  0.2484618E-05  0.2837849E+04  0.7818609E-02  0.8291613E-01
       -2   -1    0    0    0  501  0.00000000000E+00  0.00000000000E+00  0.73111665888E+03  0.73111665889E+03  0.25500000920E-02 0. -1.
        2   -1    0    0  501    0  0.00000000000E+00  0.00000000000E+00 -0.27537967467E+04  0.27537967467E+04  0.25500000920E-02 0.  1.
    10030    2    1    2    0    0  0.00000000000E+00  0.00000000000E+00 -0.20226800879E+04  0.34849134056E+04  0.28378489577E+04 0.  0.
        3    1    3    3  502    0  0.26710207458E+03 -0.17967984318E+03  0.68568155340E+03  0.75748766799E+03  0.10100000352E+00 0. -1.
       -3    1    3    3    0  502 -0.26710207458E+03  0.17967984318E+03 -0.27083616413E+04  0.27274257376E+04  0.10100000352E+00 0.  1.
</event>
<event>
 5   0  0.1034714E-05  0.2584430E+04  0.7818609E-02  0.8373509E-01
        1   -1    0    0  501    0  0.00000000000E+00  0.00000000000E+00  0.24478773658E+04  0.24478773658E+04  0.50400001928E-02 0.  1.
       -1   -1    0    0    0  501  0.00000000000E+00  0.00000000000E+00 -0.68214992458E+03  0.68214992460E+03  0.50400001928E-02 0. -1.
    10030    2    1    2    0    0  0.00000000000E+00  0.00000000000E+00  0.17657274412E+04  0.31300272904E+04  0.25844298098E+04 0.  0.
        5    1    3    3  502    0  0.60554159853E+03 -0.25532880358E+03  0.22303686005E+04  0.23251751782E+04  0.46999998093E+01 0.  1.
       -5    1    3    3    0  502 -0.60554159853E+03  0.25532880358E+03 -0.46464115929E+03  0.80485211213E+03  0.46999998093E+01 0. -1.
</event>
<event>
 5   0  0.1005492E-05  0.2705999E+04  0.7818609E-02  0.8333061E-01
        1   -1    0    0  501    0  0.00000000000E+00  0.00000000000E+00  0.14186099142E+04  0.14186099142E+04  0.50400001928E-02 0. -1.
       -1   -1    0    0    0  501  0.00000000000E+00  0.00000000000E+00 -0.12904237657E+04  0.12904237657E+04  0.50400001928E-02 0.  1.
    10030    2    1    2    0    0  0.00000000000E+00  0.00000000000E+00  0.12818614852E+03  0.27090336800E+04  0.27059992222E+04 0.  0.
        4    1    3    3  502    0 -0.54677753551E+03  0.55145048861E+03 -0.10450947601E+04  0.13020322520E+04  0.12699999809E+01 0.  1.
       -4    1    3    3    0  502  0.54677753551E+03 -0.55145048861E+03  0.11732809087E+04  0.14070014279E+04  0.12699999809E+01 0. -1.
</event>
<event>
 5   0  0.1034714E-05  0.2600371E+04  0.7818609E-02  0.8368075E-01
        1   -1    0    0  501    0  0.00000000000E+00  0.00000000000E+00  0.17358377176E+04  0.17358377176E+04  0.50400001928E-02 0. -1.
       -1   -1    0    0    0  501  0.00000000000E+00  0.00000000000E+00 -0.97387116943E+03  0.97387116944E+03  0.50400001928E-02 0.  1.
    10030    2    1    2    0    0  0.00000000000E+00  0.00000000000E+00  0.76196654816E+03  0.27097088870E+04  0.26003709797E+04 0.  0.
        5    1    3    3  502    0  0.65861509941E+03 -0.94131920718E+03 -0.25338678990E+03  0.11764704222E+04  0.46999998093E+01 0.  1.
       -5    1    3    3    0  502 -0.65861509941E+03  0.94131920718E+03  0.10153533381E+04  0.15332384648E+04  0.46999998093E+01 0. -1.
</event>
<event>
 5   0  0.1025153E-05  0.2632640E+04  0.7818609E-02  0.8357198E-01
       -1   -1    0    0    0  501  0.00000000000E+00  0.00000000000E+00  0.12286892992E+04  0.12286892993E+04  0.50400001928E-02 0.  1.
        1   -1    0    0  501    0  0.00000000000E+00  0.00000000000E+00 -0.14102007423E+04  0.14102007423E+04  0.50400001928E-02 0. -1.
    10030    2    1    2    0    0  0.00000000000E+00  0.00000000000E+00 -0.18151144301E+03  0.26388900415E+04  0.26326401667E+04 0.  0.
        1    1    3    3  502    0 -0.11079312917E+04  0.43167332881E+03 -0.65675980409E+03  0.13583766231E+04  0.50400001928E-02 0. -1.
       -1    1    3    3    0  502  0.11079312917E+04 -0.43167332881E+03  0.47524836108E+03  0.12805134184E+04  0.50400001928E-02 0.  1.
</event>
<event>
 5   0  0.2517854E-05  0.2702178E+04  0.7818609E-02  0.8334299E-01
       -2   -1    0    0    0  501  0.00000000000E+00  0.00000000000E+00  0.10794919406E+04  0.10794919406E+04  0.25500000920E-02 0.  1.
        2   -1    0    0  501    0  0.00000000000E+00  0.00000000000E+00 -0.16910189415E+04  0.16910189416E+04  0.25500000920E-02 0. -1.
    10030    2    1    2    0    0  0.00000000000E+00  0.00000000000E+00 -0.61152700093E+03  0.27705108822E+04  0.27021778763E+04 0.  0.
        4    1    3    3  502    0  0.60246667875E+03 -0.11811073554E+04 -0.39466701349E+02  0.13264765047E+04  0.12699999809E+01 0. -1.
       -4    1    3    3    0  502 -0.60246667875E+03  0.11811073554E+04 -0.57206029959E+03  0.14440343775E+04  0.12699999809E+01 0.  1.
</event>
<event>
 5   0  0.2555801E-05  0.2606967E+04  0.7818609E-02  0.8365838E-01
       -2   -1    0    0    0  501  0.00000000000E+00  0.00000000000E+00  0.15329838582E+04  0.15329838582E+04  0.25500000920E-02 0. -1.
        2   -1    0    0  501    0  0.00000000000E+00  0.00000000000E+00 -0.11083415316E+04  0.11083415316E+04  0.25500000920E-02 0.  1.
    10030    2    1    2    0    0  0.00000000000E+00  0.00000000000E+00  0.42464232659E+03  0.26413253897E+04  0.26069673394E+04 0.  0.
        1    1    3    3  502    0 -0.43329412611E+03  0.77771294940E+03  0.11769660181E+04  0.14757473494E+04  0.50400001928E-02 0. -1.
       -1    1    3    3    0  502  0.43329412611E+03 -0.77771294940E+03 -0.75232369149E+03  0.11655780404E+04  0.50400001928E-02 0.  1.
</event>
<event>
 5   0  0.2662024E-05  0.2615711E+04  0.7818609E-02  0.8362884E-01
        2   -1    0    0  501    0  0.00000000000E+00  0.00000000000E+00  0.15317964426E+04  0.15317964426E+04  0.25500000920E-02 0.  1.
       -2   -1    0    0    0  501  0.00000000000E+00  0.00000000000E+00 -0.11166538041E+04  0.11166538041E+04  0.25500000920E-02 0. -1.
    10030    2    1    2    0    0  0.00000000000E+00  0.00000000000E+00  0.41514263845E+03  0.26484502467E+04  0.26157112415E+04 0.  0.
        2    1    3    3  502    0  0.45193708908E+03 -0.25899146523E+02  0.14499450765E+04  0.15189663008E+04  0.25500000920E-02 0.  1.
       -2    1    3    3    0  502 -0.45193708908E+03  0.25899146523E+02 -0.10348024380E+04  0.11294839459E+04  0.25500000920E-02 0. -1.
</event>
<event>
 5   0  0.1000421E-05  0.2776700E+04  0.7818609E-02  0.8310539E-01
       -1   -1    0    0    0  501  0.00000000000E+00  0.00000000000E+00  0.92745762458E+03  0.92745762459E+03  0.50400001928E-02 0.  1.
        1   -1    0    0  501    0  0.00000000000E+00  0.00000000000E+00 -0.20782791490E+04  0.20782791490E+04  0.50400001928E-02 0. -1.
    10030    2    1    2    0    0  0.00000000000E+00  0.00000000000E+00 -0.11508215244E+04  0.30057367736E+04  0.27767000866E+04 0.  0.
        3    1    3    3  502    0  0.10433549785E+04 -0.63619397434E+03 -0.12886883904E+04  0.17759645723E+04  0.10100000352E+00 0. -1.
       -3    1    3    3    0  502 -0.10433549785E+04  0.63619397434E+03  0.13786686597E+03  0.12297722013E+04  0.10100000352E+00 0.  1.
</event>
<event>
 5   0  0.2484618E-05  0.2609388E+04  0.7818609E-02  0.8365019E-01
        2   -1    0    0  501    0  0.00000000000E+00  0.00000000000E+00  0.17365074584E+04  0.17365074584E+04  0.25500000920E-02 0.  1.
       -2   -1    0    0    0  501  0.00000000000E+00  0.00000000000E+00 -0.98025840178E+03  0.98025840179E+03  0.25500000920E-02 0. -1.
    10030    2    1    2    0    0  0.00000000000E+00  0.00000000000E+00  0.75624905664E+03  0.27167658602E+04  0.26093876875E+04 0.  0.
        3    1    3    3  502    0 -0.35988379486E+03  0.31895836247E+03  0.16408713455E+04  0.17098858341E+04  0.10100000352E+00 0.  1.
       -3    1    3    3    0  502  0.35988379486E+03 -0.31895836247E+03 -0.88462228890E+03  0.10068800261E+04  0.10100000352E+00 0. -1.
</event>
<event>
 5   0  0.2528460E-05  0.2325029E+04  0.7818609E-02  0.8468118E-01
        2   -1    0    0  501    0  0.00000000000E+00  0.00000000000E+00  0.15704469843E+04  0.15704469843E+04  0.25500000920E-02 0.  1.
       -2   -1    0    0    0  501  0.00000000000E+00  0.00000000000E+00 -0.86054458791E+03  0.86054458792E+03  0.25500000920E-02 0. -1.
    10030    2    1    2    0    0  0.00000000000E+00  0.00000000000E+00  0.70990239641E+03  0.24309915722E+04  0.23250287336E+04 0.  0.
        5    1    3    3  502    0  0.41030479095E+03 -0.16021911969E+03  0.14798057637E+04  0.15439777771E+04  0.46999998093E+01 0.  1.
       -5    1    3    3    0  502 -0.41030479095E+03  0.16021911969E+03 -0.76990336731E+03  0.88701379515E+03  0.46999998093E+01 0. -1.
</event>
<event>
 5   0  0.2555801E-05  0.2609655E+04  0.7818609E-02  0.8364929E-01
       -2   -1    0    0    0  501  0.00000000000E+00  0.00000000000E+00  0.11700204621E+04  0.11700204621E+04  0.25500000920E-02 0. -1.
        2   -1    0    0  501    0  0.00000000000E+00  0.00000000000E+00 -0.14551669852E+04  0.14551669852E+04  0.25500000920E-02 0.  1.
    10030    2    1    2    0    0  0.00000000000E+00  0.00000000000E+00 -0.28514652308E+03  0.26251874472E+04  0.26096552633E+04 0.  0.
        1    1    3    3  502    0 -0.62127429384E+03  0.71235152410E+03 -0.10474540137E+04  0.14108814099E+04  0.50400001928E-02 0.  1.
       -1    1    3    3    0  502  0.62127429384E+03 -0.71235152410E+03  0.76230749059E+03  0.12143060373E+04  0.50400001928E-02 0. -1.
</event>
<event>
 5   0  0.1000421E-05  0.2570197E+04  0.7818609E-02  0.8378396E-01
       -1   -1    0    0    0  501  0.00000000000E+00  0.00000000000E+00  0.11623732409E+04  0.11623732409E+04  0.50400001928E-02 0. -1.
        1   -1    0    0  501    0  0.00000000000E+00  0.00000000000E+00 -0.14207816596E+04  0.14207816596E+04  0.50400001928E-02 0.  1.
    10030    2    1    2    0    0  0.00000000000E+00  0.00000000000E+00 -0.25840841871E+03  0.25831549005E+04  0.25701973328E+04 0.  0.
        3    1    3    3  502    0 -0.22757915455E+03  0.28561442853E+03 -0.13675322341E+04  0.14154548014E+04  0.10100000352E+00 0.  1.
       -3    1    3    3    0  502  0.22757915455E+03 -0.28561442853E+03  0.11091238154E+04  0.11677000991E+04  0.10100000352E+00 0. -1.
</event>
<event>
 5   0  0.1005492E-05  0.2508307E+04  0.7818609E-02  0.8400032E-01
        1   -1    0    0  501    0  0.00000000000E+00  0.00000000000E+00  0.20083602769E+04  0.20083602769E+04  0.50400001928E-02 0. -1.
       -1   -1    0    0    0  501  0.00000000000E+00  0.00000000000E+00 -0.78317693360E+03  0.78317693361E+03  0.50400001928E-02 0.  1.
    10030    2    1    2    0    0  0.00000000000E+00  0.00000000000E+00  0.12251833433E+04  0.27915372106E+04  0.25083073522E+04 0.  0.
        4    1    3    3  502    0  0.10234777344E+04  0.13188728625E+03 -0.18062906035E+03  0.10476303735E+04  0.12699999809E+01 0.  1.
       -4    1    3    3    0  502 -0.10234777344E+04 -0.13188728625E+03  0.14058124037E+04  0.17439068371E+04  0.12699999809E+01 0. -1.
</event>
<event>
 5   0  0.1000421E-05  0.2129411E+04  0.7818609E-02  0.8548397E-01
        1   -1    0    0  501    0  0.00000000000E+00  0.00000000000E+00  0.12158727023E+04  0.12158727023E+04  0.50400001928E-02 0.  1.
       -1   -1    0    0    0  501  0.00000000000E+00  0.00000000000E+00 -0.93233244958E+03  0.93233244959E+03  0.50400001928E-02 0. -1.
    10030    2    1    2    0    0  0.00000000000E+00  0.00000000000E+00  0.28354025267E+03  0.21482051519E+04  0.21294107870E+04 0.  0.
        3    1    3    3  502    0  0.46537853466E+03  0.72269965217E+03  0.77558722212E+03  0.11577596975E+04  0.10100000352E+00 0.  1.
       -3    1    3    3    0  502 -0.46537853466E+03 -0.72269965217E+03 -0.49204696945E+03  0.99044545439E+03  0.10100000352E+00 0. -1.
</event>
<event>
 5   0  0.2517854E-05  0.2478029E+04  0.7818609E-02  0.8410855E-01
       -2   -1    0    0    0  501  0.00000000000E+00  0.00000000000E+00  0.60821022477E+03  0.60821022477E+03  0.25500000920E-02 0. -1.
        2   -1    0    0  501    0  0.00000000000E+00  0.00000000000E+00 -0.25240561616E+04  0.25240561616E+04  0.25500000920E-02 0.  1.
    10030    2    1    2    0    0  0.00000000000E+00  0.00000000000E+00 -0.19158459368E+04  0.31322663864E+04  0.24780288662E+04 0.  0.
        4    1    3    3  502    0  0.10720714854E+03 -0.12291336453E+04 -0.11014444421E+04  0.16539178827E+04  0.12699999809E+01 0. -1.
       -4    1    3    3    0  502 -0.10720714854E+03  0.12291336453E+04 -0.81440149471E+03  0.14783485037E+04  0.12699999809E+01 0.  1.
</event>
<event>
 5   0  0.2528460E-05  0.2588943E+04  0.7818609E-02  0.8371967E-01
        2   -1    0    0  501    0  0.00000000000E+00  0.00000000000E+00  0.20829790130E+04  0.20829790130E+04  0.25500000920E-02 0. -1.
       -2   -1    0    0    0  501  0.00000000000E+00  0.00000000000E+00 -0.80445207604E+03  0.80445207604E+03  0.25500000920E-02 0.  1.
    10030    2    1    2    0    0  0.00000000000E+00  0.00000000000E+00  0.12785269369E+04  0.28874310890E+04  0.25889432526E+04 0.  0.
        5    1    3    3  502    0  0.72316946336E+03 -0.40239881380E+03 -0.47085168338E+03  0.95216714700E+03  0.46999998093E+01 0.  1.
       -5    1    3    3    0  502 -0.72316946336E+03  0.40239881380E+03  0.17493786203E+04  0.19352639420E+04  0.46999998093E+01 0. -1.
</event>
<event>
 5   0  0.2662024E-05  0.2493883E+04  0.7818609E-02  0.8405168E-01
       -2   -1    0    0    0  501  0.00000000000E+00  0.00000000000E+00  0.71803319277E+03  0.71803319277E+03  0.25500000920E-02 0. -1.
        2   -1    0    0  501    0  0.00000000000E+00  0.00000000000E+00 -0.21654473885E+04  0.21654473885E+04  0.25500000920E-02 0.  1.
    10030    2    1    2    0    0  0.00000000000E+00  0.00000000000E+00 -0.14474141957E+04  0.28834805813E+04  0.24938829982E+04 0.  0.
        2    1    3    3  502    0 -0.15738867604E+03 -0.11414658656E+04 -0.12747621874E+04  0.17183521619E+04  0.25500000920E-02 0.  1.
       -2    1    3    3    0  502  0.15738867604E+03  0.11414658656E+04 -0.17265200829E+03  0.11651284194E+04  0.25500000920E-02 0. -1.
</event>
<event>
 5   0  0.2484618E-05  0.2607286E+04  0.7818609E-02  0.8365731E-01
        2   -1    0    0  501    0  0.00000000000E+00  0.00000000000E+00  0.19184899311E+04  0.19184899311E+04  0.25500000920E-02 0.  1.
       -2   -1    0    0    0  501  0.00000000000E+00  0.00000000000E+00 -0.88584523249E+03  0.88584523250E+03  0.25500000920E-02 0. -1.
    10030    2    1    2    0    0  0.00000000000E+00  0.00000000000E+00  0.10326446986E+04  0.28043351636E+04  0.26072860672E+04 0.  0.
        3    1    3    3  502    0 -0.11099778249E+04 -0.53000039201E+03  0.51785477971E+02  0.12311104472E+04  0.10100000352E+00 0. -1.
       -3    1    3    3    0  502  0.11099778249E+04  0.53000039201E+03  0.98085922064E+03  0.15732247164E+04  0.10100000352E+00 0.  1.
</event>
<event>
 5   0  0.2662024E-05  0.2473018E+04  0.7818609E-02  0.8412661E-01
       -2   -1    0    0    0  501  0.00000000000E+00  0.00000000000E+00  0.10032847523E+04  0.10032847523E+04  0.25500000920E-02 0. -1.
        2   -1    0    0  501    0  0.00000000000E+00  0.00000000000E+00 -0.15239489766E+04  0.15239489766E+04  0.25500000920E-02 0.  1.
    10030    2    1    2    0    0  0.00000000000E+00  0.00000000000E+00 -0.52066422426E+03  0.25272337290E+04  0.24730182139E+04 0.  0.
        2    1    3    3  502    0  0.63405945213E+03  0.15356092095E+03 -0.13337609370E+04  0.14847661709E+04  0.25500000920E-02 0.  1.
       -2    1    3    3    0  502 -0.63405945213E+03 -0.15356092095E+03  0.81309671273E+03  0.10424675580E+04  0.25500000920E-02 0. -1.
</event>
<event>
 5   0  0.2484618E-05  0.2594853E+04  0.7818609E-02  0.8369951E-01
       -2   -1    0    0    0  501  0.00000000000E+00  0.00000000000E+00  0.18537985125E+04  0.18537985125E+04  0.25500000920E-02 0. -1.
        2   -1    0    0  501    0  0.00000000000E+00  0.00000000000E+00 -0.90803618413E+03  0.90803618413E+03  0.25500000920E-02 0.  1.
    10030    2    1    2    0    0  0.00000000000E+00  0.00000000000E+00  0.94576232833E+03  0.27618346966E+04  0.25948534659E+04 0.  0.
        3    1    3    3  502    0  0.65558513584E+03 -0.10071143095E+04  0.99348371495E+03  0.15591924207E+04  0.10100000352E+00 0. -1.
       -3    1    3    3    0  502 -0.65558513584E+03  0.10071143095E+04 -0.47721386622E+02  0.12026422759E+04  0.10100000352E+00 0.  1.
</event>
<event>
 5   0  0.2484618E-05  0.2667064E+04  0.7818609E-02  0.8345771E-01
       -2   -1    0    0    0  501  0.00000000000E+00  0.00000000000E+00  0.95853291117E+03  0.95853291117E+03  0.25500000920E-02 0.  1.
        2   -1    0    0  501    0  0.00000000000E+00  0.00000000000E+00 -0.18552395384E+04  0.18552395384E+04  0.25500000920E-02 0. -1.
    10030    2    1    2    0    0  0.00000000000E+00  0.00000000000E+00 -0.89670662722E+03  0.28137724496E+04  0.26670644204E+04 0.  0.
        3    1    3    3  502    0  0.10216521151E+04 -0.40204079369E+03 -0.12468888255E+04  0.16613673878E+04  0.10100000352E+00 0. -1.
       -3    1    3    3    0  502 -0.10216521151E+04  0.40204079369E+03  0.35018219826E+03  0.11524050617E+04  0.10100000352E+00 0.  1.
</event>
<event>
 5   0  0.2517854E-05  0.2560203E+04  0.7818609E-02  0.8381846E-01
        2   -1    0    0  501    0  0.00000000000E+00  0.00000000000E+00  0.11529086074E+04  0.11529086074E+04  0.25500000920E-02 0.  1.
       -2   -1    0    0    0  501  0.00000000000E+00  0.00000000000E+00 -0.14213269122E+04  0.14213269122E+04  0.25500000920E-02 0. -1.
    10030    2    1    2    0    0  0.00000000000E+00  0.00000000000E+00 -0.26841830476E+03  0.25742355196E+04  0.25602031411E+04 0.  0.
        4    1    3    3  502    0  0.74374358296E+01 -0.12538920342E+04 -0.39322126173E+03  0.13141252309E+04  0.12699999809E+01 0.  1.
       -4    1    3    3    0  502 -0.74374358296E+01  0.12538920342E+04  0.12480295697E+03  0.12601102887E+04  0.12699999809E+01 0. -1.
</event>
<event>
 5   0  0.1000421E-05  0.2583763E+04  0.7818609E-02  0.8373738E-01
        1   -1    0    0  501    0  0.00000000000E+00  0.00000000000E+00  0.10565950069E+04  0.10565950069E+04  0.50400001928E-02 0.  1.
       -1   -1    0    0    0  501  0.00000000000E+00  0.00000000000E+00 -0.15795618659E+04  0.15795618659E+04  0.50400001928E-02 0. -1.
    10030    2    1    2    0    0  0.00000000000E+00  0.00000000000E+00 -0.52296685902E+03  0.26361568728E+04  0.25837625128E+04 0.  0.
        3    1    3    3  502    0  0.34444370981E+03  0.11601687907E+04  0.19970503102E+03  0.12265868097E+04  0.10100000352E+00 0.  1.
       -3    1    3    3    0  502 -0.34444370981E+03 -0.11601687907E+04 -0.72267189004E+03  0.14095700631E+04  0.10100000352E+00 0. -1.
</event>
<event>
 5   0  0.9855352E-06  0.2454467E+04  0.7818609E-02  0.8419389E-01
       -1   -1    0    0    0  501  0.00000000000E+00  0.00000000000E+00  0.91366020261E+03  0.91366020262E+03  0.50400001928E-02 0. -1.
        1   -1    0    0  501    0  0.00000000000E+00  0.00000000000E+00 -0.16484263882E+04  0.16484263882E+04  0.50400001928E-02 0.  1.
    10030    2    1    2    0    0  0.00000000000E+00  0.00000000000E+00 -0.73476618563E+03  0.25620865909E+04  0.24544666124E+04 0.  0.
        2    1    3    3  502    0  0.24778698991E+03  0.91588220778E+03 -0.11798840511E+04  0.15140558064E+04  0.25500000920E-02 0.  1.
       -2    1    3    3    0  502 -0.24778698991E+03 -0.91588220778E+03  0.44511786551E+03  0.10480307844E+04  0.25500000920E-02 0. -1.
</event>
<event>
 5   0  0.9855352E-06  0.2595009E+04  0.7818609E-02  0.8369899E-01
       -1   -1    0    0    0  501  0.00000000000E+00  0.00000000000E+00  0.71615548271E+03  0.71615548273E+03  0.50400001928E-02 0. -1.
        1   -1    0    0  501    0  0.00000000000E+00  0.00000000000E+00 -0.23507713540E+04  0.23507713541E+04  0.50400001928E-02 0.  1.
    10030    2    1    2    0    0  0.00000000000E+00  0.00000000000E+00 -0.16346158713E+04  0.30669268368E+04  0.25950088970E+04 0.  0.
        2    1    3    3  502    0 -0.65327068648E+03 -0.98936473473E+03 -0.19426395682E+03  0.12013923810E+04  0.25500000920E-02 0. -1.
       -2    1    3    3    0  502  0.65327068648E+03  0.98936473473E+03 -0.14403519145E+04  0.18655344558E+04  0.25500000920E-02 0.  1.
</event>
<event>
 5   0  0.1000421E-05  0.2590154E+04  0.7818609E-02  0.8371553E-01
       -1   -1    0    0    0  501  0.00000000000E+00  0.00000000000E+00  0.86876206820E+03  0.86876206821E+03  0.50400001928E-02 0.  1.
        1   -1    0    0  501    0  0.00000000000E+00  0.00000000000E+00 -0.19305914611E+04  0.19305914611E+04  0.50400001928E-02 0. -1.
    10030    2    1    2    0    0  0.00000000000E+00  0.00000000000E+00 -0.10618293929E+04  0.27993535293E+04  0.25901541503E+04 0.  0.
        3    1    3    3  502    0 -0.56314956299E+03 -0.40844708521E+03 -0.17115053629E+04  0.18474893962E+04  0.10100000352E+00 0. -1.
       -3    1    3    3    0  502  0.56314956299E+03  0.40844708521E+03  0.64967597000E+03  0.95186413311E+03  0.10100000352E+00 0.  1.
</event>
<event>
 5   0  0.2555801E-05  0.2261973E+04  0.7818609E-02  0.8493067E-01
        2   -1    0    0  501    0  0.00000000000E+00  0.00000000000E+00  0.14103769775E+04  0.14103769775E+04  0.25500000920E-02 0. -1.
       -2   -1    0    0    0  501  0.00000000000E+00  0.00000000000E+00 -0.90694252569E+03  0.90694252570E+03  0.25500000920E-02 0.  1.
    10030    2    1    2    0    0  0.00000000000E+00  0.00000000000E+00  0.50343445181E+03  0.23173195032E+04  0.22619733492E+04 0.  0.
        1    1    3    3  502    0  0.31267479327E+03  0.73778796521E+03  0.10693905406E+04  0.13362981465E+04  0.50400001928E-02 0. -1.
       -1    1    3    3    0  502 -0.31267479327E+03 -0.73778796521E+03 -0.56595608875E+03  0.98102135674E+03  0.50400001928E-02 0.  1.
</event>
<event>
 5   0  0.1000421E-05  0.2567912E+04  0.7818609E-02  0.8379183E-01
        1   -1    0    0  501    0  0.00000000000E+00  0.00000000000E+00  0.13997439709E+04  0.13997439709E+04  0.50400001928E-02 0.  1.
       -1   -1    0    0    0  501  0.00000000000E+00  0.00000000000E+00 -0.11777462011E+04  0.11777462011E+04  0.50400001928E-02 0. -1.
    10030    2    1    2    0    0  0.00000000000E+00  0.00000000000E+00  0.22199776973E+03  0.25774901720E+04  0.25679121046E+04 0.  0.
        3    1    3    3  502    0 -0.12785955193E+04  0.80195272536E+02  0.19678902676E+03  0.12961341424E+04  0.10100000352E+00 0. -1.
       -3    1    3    3    0  502  0.12785955193E+04 -0.80195272536E+02  0.25208742970E+02  0.12813560296E+04  0.10100000352E+00 0.  1.
</event>
<event>
 5   0  0.2484618E-05  0.2484268E+04  0.7818609E-02  0.8408612E-01
       -2   -1    0    0    0  501  0.00000000000E+00  0.00000000000E+00  0.84548088600E+03  0.84548088600E+03  0.25500000920E-02 0.  1.
        2   -1    0    0  501    0  0.00000000000E+00  0.00000000000E+00 -0.18248752498E+04  0.18248752498E+04  0.25500000920E-02 0. -1.
    10030    2    1    2    0    0  0.00000000000E+00  0.00000000000E+00 -0.97939436376E+03  0.26703561358E+04  0.24842682166E+04 0.  0.
        3    1    3    3  502    0 -0.22197608685E+03 -0.21386920003E+02 -0.18031812197E+04  0.18169186291E+04  0.10100000352E+00 0. -1.
       -3    1    3    3    0  502  0.22197608685E+03  0.21386920003E+02  0.82378685596E+03  0.85343750664E+03  0.10100000352E+00 0.  1.
</event>
<event>
 5   0  0.1025153E-05  0.2525967E+04  0.7818609E-02  0.8393793E-01
       -1   -1    0    0    0  501  0.00000000000E+00  0.00000000000E+00  0.94004944494E+03  0.94004944495E+03  0.50400001928E-02 0.  1.
        1   -1    0    0  501    0  0.00000000000E+00  0.00000000000E+00 -0.16968543964E+04  0.16968543964E+04  0.50400001928E-02 0. -1.
    10030    2    1    2    0    0  0.00000000000E+00  0.00000000000E+00 -0.75680495143E+03  0.26369038413E+04  0.25259667721E+04 0.  0.
        1    1    3    3  502    0 -0.10820911662E+04 -0.32951860109E+02  0.30064227086E+03  0.11235625893E+04  0.50400001928E-02 0.  1.
       -1    1    3    3    0  502  0.10820911662E+04  0.32951860109E+02 -0.10574472223E+04  0.15133412520E+04  0.50400001928E-02 0. -1.
</event>
<event>
 5   0  0.2517854E-05  0.2513070E+04  0.7818609E-02  0.8398344E-01
       -2   -1    0    0    0  501  0.00000000000E+00  0.00000000000E+00  0.82111684427E+03  0.82111684428E+03  0.25500000920E-02 0.  1.
        2   -1    0    0  501    0  0.00000000000E+00  0.00000000000E+00 -0.19228443033E+04  0.19228443033E+04  0.25500000920E-02 0. -1.
    10030    2    1    2    0    0  0.00000000000E+00  0.00000000000E+00 -0.11017274590E+04  0.27439611476E+04  0.25130697136E+04 0.  0.
        4    1    3    3  502    0 -0.10973111651E+04  0.45193062817E+03 -0.10017770919E+04  0.15530267353E+04  0.12699999809E+01 0. -1.
       -4    1    3    3    0  502  0.10973111651E+04 -0.45193062817E+03 -0.99950367171E+02  0.11909344123E+04  0.12699999809E+01 0.  1.
</event>
<event>
 5   0  0.2517854E-05  0.2586357E+04  0.7818609E-02  0.8372850E-01
        2   -1    0    0  501    0  0.00000000000E+00  0.00000000000E+00  0.20485517987E+04  0.20485517987E+04  0.25500000920E-02 0. -1.
       -2   -1    0    0    0  501  0.00000000000E+00  0.00000000000E+00 -0.81633825120E+03  0.81633825120E+03  0.25500000920E-02 0.  1.
    10030    2    1    2    0    0  0.00000000000E+00  0.00000000000E+00  0.12322135475E+04  0.28648900499E+04  0.25863574331E+04 0.  0.
        4    1    3    3  502    0 -0.10702947715E+04 -0.72318014923E+03  0.68429203992E+03  0.14617720872E+04  0.12699999809E+01 0.  1.
       -4    1    3    3    0  502  0.10702947715E+04  0.72318014923E+03  0.54792150762E+03  0.14031179628E+04  0.12699999809E+01 0. -1.
</event>
<event>
 5   0  0.1034714E-05  0.2612227E+04  0.7818609E-02  0.8364060E-01
       -1   -1    0    0    0  501  0.00000000000E+00  0.00000000000E+00  0.10036385616E+04  0.10036385616E+04  0.50400001928E-02 0.  1.
        1   -1    0    0  501    0  0.00000000000E+00  0.00000000000E+00 -0.16997484164E+04  0.16997484164E+04  0.50400001928E-02 0. -1.
    10030    2    1    2    0    0  0.00000000000E+00  0.00000000000E+00 -0.69610985481E+03  0.27033869781E+04  0.26122274448E+04 0.  0.
        5    1    3    3  502    0 -0.50667689684E+03 -0.88462111053E+03 -0.11930249049E+04  0.15692694163E+04  0.46999998093E+01 0. -1.
       -5    1    3    3    0  502  0.50667689684E+03  0.88462111053E+03  0.49691505012E+03  0.11341175618E+04  0.46999998093E+01 0.  1.
</event>
<event>
 5   0  0.1000421E-05  0.2503648E+04  0.7818609E-02  0.8401687E-01
        1   -1    0    0  501    0  0.00000000000E+00  0.00000000000E+00  0.20393923029E+04  0.20393923029E+04  0.50400001928E-02 0. -1.
       -1   -1    0    0    0  501  0.00000000000E+00  0.00000000000E+00 -0.76839709574E+03  0.76839709576E+03  0.50400001928E-02 0.  1.
    10030    2    1    2    0    0  0.00000000000E+00  0.00000000000E+00  0.12709952072E+04  0.28077893987E+04  0.25036478368E+04 0.  0.
        3    1    3    3  502    0 -0.78956208771E+03  0.96871202494E+03  0.55422450451E+03  0.13671050030E+04  0.10100000352E+00 0. -1.
       -3    1    3    3    0  502  0.78956208771E+03 -0.96871202494E+03  0.71677070269E+03  0.14406843957E+04  0.10100000352E+00 0.  1.
</event>
<event>
 5   0  0.9855352E-06  0.2602239E+04  0.7818609E-02  0.8367441E-01
       -1   -1    0    0    0  501  0.00000000000E+00  0.00000000000E+00  0.13742534151E+04  0.13742534151E+04  0.50400001928E-02 0.  1.
        1   -1    0    0  501    0  0.00000000000E+00  0.00000000000E+00 -0.12318776362E+04  0.12318776362E+04  0.50400001928E-02 0. -1.
    10030    2    1    2    0    0  0.00000000000E+00  0.00000000000E+00  0.14237577891E+03  0.26061310514E+04  0.26022390733E+04 0.  0.
        2    1    3    3  502    0 -0.12168941845E+04  0.58196640559E+01 -0.38998613803E+03  0.12778710861E+04  0.25500000920E-02 0. -1.
       -2    1    3    3    0  502  0.12168941845E+04 -0.58196640559E+01  0.53236191694E+03  0.13282599653E+04  0.25500000920E-02 0.  1.
</event>
<event>
 5   0  0.2517854E-05  0.2603600E+04  0.7818609E-02  0.8366979E-01
       -2   -1    0    0    0  501  0.00000000000E+00  0.00000000000E+00  0.16510639577E+04  0.16510639577E+04  0.25500000920E-02 0.  1.
        2   -1    0    0  501    0  0.00000000000E+00  0.00000000000E+00 -0.10264191307E+04  0.10264191307E+04  0.25500000920E-02 0. -1.
    10030    2    1    2    0    0  0.00000000000E+00  0.00000000000E+00  0.62464482707E+03  0.26774830884E+04  0.26036003012E+04 0.  0.
        4    1    3    3  502    0 -0.54944210336E+03 -0.82605741814E+03  0.11791074383E+04  0.15409586130E+04  0.12699999809E+01 0.  1.
       -4    1    3    3    0  502  0.54944210336E+03  0.82605741814E+03 -0.55446261123E+03  0.11365244754E+04  0.12699999809E+01 0. -1.
</event>
<event>
 5   0  0.1000421E-05  0.2616218E+04  0.7818609E-02  0.8362713E-01
        1   -1    0    0  501    0  0.00000000000E+00  0.00000000000E+00  0.10173472850E+04  0.10173472850E+04  0.50400001928E-02 0.  1.
       -1   -1    0    0    0  501  0.00000000000E+00  0.00000000000E+00 -0.16819709160E+04  0.16819709160E+04  0.50400001928E-02 0. -1.
    10030    2    1    2    0    0  0.00000000000E+00  0.00000000000E+00 -0.66462363097E+03  0.26993182010E+04  0.26162175328E+04 0.  0.
        3    1    3    3  502    0 -0.11797474177E+04 -0.48254069588E+03 -0.63576093338E+03  0.14243740616E+04  0.10100000352E+00 0.  1.
       -3    1    3    3    0  502  0.11797474177E+04  0.48254069588E+03 -0.28862697584E+02  0.12749441393E+04  0.10100000352E+00 0. -1.
</event>
<event>
 5   0  0.2662024E-05  0.2676987E+04  0.7818609E-02  0.8342511E-01
       -2   -1    0    0    0  501  0.00000000000E+00  0.00000000000E+00  0.96989558413E+03  0.96989558413E+03  0.25500000920E-02 0. -1.
        2   -1    0    0  501    0  0.00000000000E+00  0.00000000000E+00 -0.18471730523E+04  0.18471730523E+04  0.25500000920E-02 0.  1.
    10030    2    1    2    0    0  0.00000000000E+00  0.00000000000E+00 -0.87727746812E+03  0.28170686364E+04  0.26769871023E+04 0.  0.
        2    1    3    3  502    0 -0.11971244606E+04  0.22006137085E+02 -0.10682561544E+04  0.16046066358E+04  0.25500000920E-02 0. -1.
       -2    1    3    3    0  502  0.11971244606E+04 -0.22006137085E+02  0.19097868626E+03  0.12124620006E+04  0.25500000920E-02 0.  1.
</event>
<event>
 5   0  0.2517854E-05  0.2595185E+04  0.7818609E-02  0.8369839E-01
        2   -1    0    0  501    0  0.00000000000E+00  0.00000000000E+00  0.98993570881E+03  0.98993570881E+03  0.25500000920E-02 0. -1.
       -2   -1    0    0    0  501  0.00000000000E+00  0.00000000000E+00 -0.17008637017E+04  0.17008637017E+04  0.25500000920E-02 0.  1.
    10030    2    1    2    0    0  0.00000000000E+00  0.00000000000E+00 -0.71092799289E+03  0.26907994105E+04  0.25951845515E+04 0.  0.
        4    1    3    3  502    0  0.45300646422E+03  0.88921585606E+03  0.50444376218E+03  0.11182060711E+04  0.12699999809E+01 0. -1.
       -4    1    3    3    0  502 -0.45300646422E+03 -0.88921585606E+03 -0.12153717551E+04  0.15725933394E+04  0.12699999809E+01 0.  1.
</event>
<event>
 5   0  0.1034714E-05  0.2567977E+04  0.7818609E-02  0.8379161E-01
       -1   -1    0    0    0  501  0.00000000000E+00  0.00000000000E+00  0.72887432888E+03  0.72887432890E+03  0.50400001928E-02 0. -1.
        1   -1    0    0  501    0  0.00000000000E+00  0.00000000000E+00 -0.22618807702E+04  0.22618807702E+04  0.50400001928E-02 0.  1.
    10030    2    1    2    0    0  0.00000000000E+00  0.00000000000E+00 -0.15330064413E+04  0.29907550991E+04  0.25679772806E+04 0.  0.
        5    1    3    3  502    0 -0.43706813678E+03 -0.10412085569E+04 -0.14782282810E+04  0.18601948167E+04  0.46999998093E+01 0. -1.
       -5    1    3    3    0  502  0.43706813678E+03  0.10412085569E+04 -0.54778160271E+02  0.11305602824E+04  0.46999998093E+01 0.  1.
</event>
<event>
 5   0  0.9855352E-06  0.2187604E+04  0.7818609E-02  0.8523605E-01
       -1   -1    0    0    0  501  0.00000000000E+00  0.00000000000E+00  0.13122641384E+04  0.13122641384E+04  0.50400001928E-02 0.  1.
        1   -1    0    0  501    0  0.00000000000E+00  0.00000000000E+00 -0.91170876720E+03  0.91170876722E+03  0.50400001928E-02 0. -1.
    10030    2    1    2    0    0  0.00000000000E+00  0.00000000000E+00  0.40055537122E+03  0.22239729057E+04  0.21876039129E+04 0.  0.
        2    1    3    3  502    0 -0.91949253249E+03  0.50426975316E+03 -0.11577372091E+03  0.10550630577E+04  0.25500000920E-02 0. -1.
       -2    1    3    3    0  502  0.91949253249E+03 -0.50426975316E+03  0.51632909213E+03  0.11689098480E+04  0.25500000920E-02 0.  1.
</event>
<event>
 5   0  0.2662024E-05  0.1893030E+04  0.7818609E-02  0.8658333E-01
        2   -1    0    0  501    0  0.00000000000E+00  0.00000000000E+00  0.99226154302E+03  0.99226154302E+03  0.25500000920E-02 0. -1.
       -2   -1    0    0    0  501  0.00000000000E+00  0.00000000000E+00 -0.90287771067E+03  0.90287771067E+03  0.25500000920E-02 0.  1.
    10030    2    1    2    0    0  0.00000000000E+00  0.00000000000E+00  0.89383832352E+02  0.18951392537E+04  0.18930301956E+04 0.  0.
        2    1    3    3  502    0  0.16901124656E+03 -0.29694308927E+03  0.92837055059E+03  0.98924813821E+03  0.25500000920E-02 0. -1.
       -2    1    3    3    0  502 -0.16901124656E+03  0.29694308927E+03 -0.83898671824E+03  0.90589111549E+03  0.25500000920E-02 0.  1.
</event>
<event>
 5   0  0.2484618E-05  0.2565574E+04  0.7818609E-02  0.8379990E-01
       -2   -1    0    0    0  501  0.00000000000E+00  0.00000000000E+00  0.57820085852E+03  0.57820085852E+03  0.25500000920E-02 0.  1.
        2   -1    0    0  501    0  0.00000000000E+00  0.00000000000E+00 -0.28459698643E+04  0.28459698643E+04  0.25500000920E-02 0. -1.
    10030    2    1    2    0    0  0.00000000000E+00  0.00000000000E+00 -0.22677690058E+04  0.34241707229E+04  0.25655737907E+04 0.  0.
        3    1    3    3  502    0 -0.86929651721E+03  0.38852281948E+03 -0.22811617316E+04  0.24719072134E+04  0.10100000352E+00 0. -1.
       -3    1    3    3    0  502  0.86929651721E+03 -0.38852281948E+03  0.13392725733E+02  0.95226350943E+03  0.10100000352E+00 0.  1.
</event>
<event>
 5   0  0.2528460E-05  0.2634047E+04  0.7818609E-02  0.8356727E-01
       -2   -1    0    0    0  501  0.00000000000E+00  0.00000000000E+00  0.60145198181E+03  0.60145198181E+03  0.25500000920E-02 0.  1.
        2   -1    0    0  501    0  0.00000000000E+00  0.00000000000E+00 -0.28839395146E+04  0.28839395146E+04  0.25500000920E-02 0. -1.
    10030    2    1    2    0    0  0.00000000000E+00  0.00000000000E+00 -0.22824875328E+04  0.34853914964E+04  0.26340471799E+04 0.  0.
        5    1    3    3  502    0  0.68770807595E+03 -0.28021146975E+03 -0.25804827195E+04  0.26852139619E+04  0.46999998093E+01 0.  1.
       -5    1    3    3    0  502 -0.68770807595E+03  0.28021146975E+03  0.29799518668E+03  0.80017753455E+03  0.46999998093E+01 0. -1.
</event>
<event>
 5   0  0.9855352E-06  0.2563297E+04  0.7818609E-02  0.8380776E-01
       -1   -1    0    0    0  501  0.00000000000E+00  0.00000000000E+00  0.10953306282E+04  0.10953306282E+04  0.50400001928E-02 0. -1.
        1   -1    0    0  501    0  0.00000000000E+00  0.00000000000E+00 -0.14996594082E+04  0.14996594082E+04  0.50400001928E-02 0.  1.
    10030    2    1    2    0    0  0.00000000000E+00  0.00000000000E+00 -0.40432877998E+03  0.25949900364E+04  0.25632970033E+04 0.  0.
        2    1    3    3  502    0  0.11978300747E+04 -0.44569985841E+03 -0.29914882527E+03  0.13126062895E+04  0.25500000920E-02 0. -1.
       -2    1    3    3    0  502 -0.11978300747E+04  0.44569985841E+03 -0.10517995470E+03  0.12823837469E+04  0.25500000920E-02 0.  1.
</event>
<event>
 5   0  0.2662024E-05  0.2618501E+04  0.7818609E-02  0.8361944E-01
       -2   -1    0    0    0  501  0.00000000000E+00  0.00000000000E+00  0.13260152771E+04  0.13260152771E+04  0.25500000920E-02 0. -1.
        2   -1    0    0  501    0  0.00000000000E+00  0.00000000000E+00 -0.12926976351E+04  0.12926976351E+04  0.25500000920E-02 0.  1.
    10030    2    1    2    0    0  0.00000000000E+00  0.00000000000E+00  0.33317642088E+02  0.26187129122E+04  0.26185009550E+04 0.  0.
        2    1    3    3  502    0  0.37407011396E+03  0.11566837199E+03  0.12660914468E+04  0.13252528718E+04  0.25500000920E-02 0. -1.
       -2    1    3    3    0  502 -0.37407011396E+03 -0.11566837199E+03 -0.12327738048E+04  0.12934600404E+04  0.25500000920E-02 0.  1.
</event>
<event>
 5   0  0.9855352E-06  0.2569843E+04  0.7818609E-02  0.8378518E-01
       -1   -1    0    0    0  501  0.00000000000E+00  0.00000000000E+00  0.61506159052E+03  0.61506159054E+03  0.50400001928E-02 0. -1.
        1   -1    0    0  501    0  0.00000000000E+00  0.00000000000E+00 -0.26843217466E+04  0.26843217466E+04  0.50400001928E-02 0.  1.
    10030    2    1    2    0    0  0.00000000000E+00  0.00000000000E+00 -0.20692601561E+04  0.32993833371E+04  0.25698429547E+04 0.  0.
        2    1    3    3  502    0 -0.12377046255E+04  0.28263655476E+03 -0.78034611747E+03  0.14902134831E+04  0.25500000920E-02 0.  1.
       -2    1    3    3    0  502  0.12377046255E+04 -0.28263655476E+03 -0.12889140386E+04  0.18091698541E+04  0.25500000920E-02 0. -1.
</event>
<event>
 5   0  0.2528460E-05  0.2621656E+04  0.7818609E-02  0.8360882E-01
        2   -1    0    0  501    0  0.00000000000E+00  0.00000000000E+00  0.86346068024E+03  0.86346068025E+03  0.25500000920E-02 0. -1.
       -2   -1    0    0    0  501  0.00000000000E+00  0.00000000000E+00 -0.19899805306E+04  0.19899805306E+04  0.25500000920E-02 0.  1.
    10030    2    1    2    0    0  0.00000000000E+00  0.00000000000E+00 -0.11265198504E+04  0.28534412109E+04  0.26216559215E+04 0.  0.
        5    1    3    3  502    0 -0.25411588874E+03  0.81604616699E+03  0.51846021102E+03  0.99966459974E+03  0.46999998093E+01 0. -1.
       -5    1    3    3    0  502  0.25411588874E+03 -0.81604616699E+03 -0.16449800614E+04  0.18537766111E+04  0.46999998093E+01 0.  1.
</event>
<event>
 5   0  0.1025153E-05  0.2879041E+04  0.7818609E-02  0.8279141E-01
        1   -1    0    0  501    0  0.00000000000E+00  0.00000000000E+00  0.16869909001E+04  0.16869909001E+04  0.50400001928E-02 0. -1.
       -1   -1    0    0    0  501  0.00000000000E+00  0.00000000000E+00 -0.12283520589E+04  0.12283520589E+04  0.50400001928E-02 0.  1.
    10030    2    1    2    0    0  0.00000000000E+00  0.00000000000E+00  0.45863884117E+03  0.29153429590E+04  0.28790406357E+04 0.  0.
        1    1    3    3  502    0  0.10925116399E+04 -0.92122379534E+03  0.40466105755E+03  0.14852560506E+04  0.50400001928E-02 0. -1.
       -1    1    3    3    0  502 -0.10925116399E+04  0.92122379534E+03  0.53977783621E+02  0.14300869084E+04  0.50400001928E-02 0.  1.
</event>
<event>
 5   0  0.9855352E-06  0.2614376E+04  0.7818609E-02  0.8363334E-01
       -1   -1    0    0    0  501  0.00000000000E+00  0.00000000000E+00  0.14267725643E+04  0.14267725643E+04  0.50400001928E-02 0. -1.
        1   -1    0    0  501    0  0.00000000000E+00  0.00000000000E+00 -0.11976265022E+04  0.11976265022E+04  0.50400001928E-02 0.  1.
    10030    2    1    2    0    0  0.00000000000E+00  0.00000000000E+00  0.22914606211E+03  0.26243990666E+04  0.26143761288E+04 0.  0.
        2    1    3    3  502    0 -0.11381957132E+04 -0.54808488358E+03  0.45179860630E+03  0.13416439549E+04  0.25500000920E-02 0. -1.
       -2    1    3    3    0  502  0.11381957132E+04  0.54808488358E+03 -0.22265254419E+03  0.12827551117E+04  0.25500000920E-02 0.  1.
</event>
<event>
 5   0  0.1025153E-05  0.2626767E+04  0.7818609E-02  0.8359166E-01
       -1   -1    0    0    0  501  0.00000000000E+00  0.00000000000E+00  0.81927562388E+03  0.81927562389E+03  0.50400001928E-02 0. -1.
        1   -1    0    0  501    0  0.00000000000E+00  0.00000000000E+00 -0.21054889391E+04  0.21054889391E+04  0.50400001928E-02 0.  1.
    10030    2    1    2    0    0  0.00000000000E+00  0.00000000000E+00 -0.12862133152E+04  0.29247645630E+04  0.26267666544E+04 0.  0.
        1    1    3    3  502    0 -0.21559692093E+03 -0.29780797515E+03 -0.20470230005E+04  0.20797775811E+04  0.50400001928E-02 0.  1.
       -1    1    3    3    0  502  0.21559692093E+03  0.29780797515E+03  0.76080968525E+03  0.84498698189E+03  0.50400001928E-02 0. -1.
</event>
<event>
 5   0  0.2528460E-05  0.2581809E+04  0.7818609E-02  0.8374407E-01
        2   -1    0    0  501    0  0.00000000000E+00  0.00000000000E+00  0.14242348502E+04  0.14242348502E+04  0.25500000920E-02 0.  1.
       -2   -1    0    0    0  501  0.00000000000E+00  0.00000000000E+00 -0.11700559221E+04  0.11700559221E+04  0.25500000920E-02 0. -1.
    10030    2    1    2    0    0  0.00000000000E+00  0.00000000000E+00  0.25417892815E+03  0.25942907723E+04  0.25818089944E+04 0.  0.
        5    1    3    3  502    0  0.65520229351E+03  0.11120443377E+04  0.14909686523E+03  0.12993015892E+04  0.46999998093E+01 0.  1.
       -5    1    3    3    0  502 -0.65520229351E+03 -0.11120443377E+04  0.10508206291E+03  0.12949891831E+04  0.46999998093E+01 0. -1.
</event>
<event>
 5   0  0.1034714E-05  0.2408886E+04  0.7818609E-02  0.8436184E-01
       -1   -1    0    0    0  501  0.00000000000E+00  0.00000000000E+00  0.10823315823E+04  0.10823315823E+04  0.50400001928E-02 0. -1.
        1   -1    0    0  501    0  0.00000000000E+00  0.00000000000E+00 -0.13403307871E+04  0.13403307871E+04  0.50400001928E-02 0.  1.
    10030    2    1    2    0    0  0.00000000000E+00  0.00000000000E+00 -0.25799920480E+03  0.24226623693E+04  0.24088855029E+04 0.  0.
        5    1    3    3  502    0  0.88816849185E+03  0.77902164214E+03  0.10673862094E+03  0.11862264590E+04  0.46999998093E+01 0.  1.
       -5    1    3    3    0  502 -0.88816849185E+03 -0.77902164214E+03 -0.36473782574E+03  0.12364359103E+04  0.46999998093E+01 0. -1.
</event>
<event>
 5   0  0.1000421E-05  0.2525471E+04  0.7818609E-02  0.8393967E-01
        1   -1    0    0  501    0  0.00000000000E+00  0.00000000000E+00  0.15231718776E+04  0.15231718776E+04  0.50400001928E-02 0.  1.
       -1   -1    0    0    0  501  0.00000000000E+00  0.00000000000E+00 -0.10468294582E+04  0.10468294582E+04  0.50400001928E-02 0. -1.
    10030    2    1    2    0    0  0.00000000000E+00  0.00000000000E+00  0.47634241944E+03  0.25700013358E+04  0.25254711967E+04 0.  0.
        3    1    3    3  502    0 -0.18785897018E+02  0.43480681438E+02 -0.10459251313E+04  0.10469970726E+04  0.10100000352E+00 0. -1.
       -3    1    3    3    0  502  0.18785897018E+02 -0.43480681438E+02  0.15222675507E+04  0.15230042632E+04  0.10100000352E+00 0.  1.
</event>
<event>
 5   0  0.2555801E-05  0.2542559E+04  0.7818609E-02  0.8387979E-01
        2   -1    0    0  501    0  0.00000000000E+00  0.00000000000E+00  0.10656933353E+04  0.10656933353E+04  0.25500000920E-02 0. -1.
       -2   -1    0    0    0  501  0.00000000000E+00  0.00000000000E+00 -0.15165260098E+04  0.15165260098E+04  0.25500000920E-02 0.  1.
    10030    2    1    2    0    0  0.00000000000E+00  0.00000000000E+00 -0.45083267455E+03  0.25822193451E+04  0.25425590742E+04 0.  0.
        1    1    3    3  502    0  0.43071970775E+03 -0.11756609735E+04 -0.44897140576E+03  0.13301404116E+04  0.50400001928E-02 0.  1.
       -1    1    3    3    0  502 -0.43071970775E+03  0.11756609735E+04 -0.18612687888E+01  0.12520789335E+04  0.50400001928E-02 0. -1.
</event>
<event>
 5   0  0.1000421E-05  0.2927064E+04  0.7818609E-02  0.8264870E-01
        1   -1    0    0  501    0  0.00000000000E+00  0.00000000000E+00  0.18329086959E+04  0.18329086959E+04  0.50400001928E-02 0. -1.
       -1   -1    0    0    0  501  0.00000000000E+00  0.00000000000E+00 -0.11685940807E+04  0.11685940807E+04  0.50400001928E-02 0.  1.
    10030    2    1    2    0    0  0.00000000000E+00  0.00000000000E+00  0.66431461518E+03  0.30015027766E+04  0.29270642306E+04 0.  0.
        3    1    3    3  502    0  0.65891039829E+03 -0.97094331228E+02 -0.10041868129E+04  0.12049819034E+04  0.10100000352E+00 0.  1.
       -3    1    3    3    0  502 -0.65891039829E+03  0.97094331228E+02  0.16685014281E+04  0.17965208732E+04  0.10100000352E+00 0. -1.
</event>
<event>
 5   0  0.2484618E-05  0.2608207E+04  0.7818609E-02  0.8365419E-01
       -2   -1    0    0    0  501  0.00000000000E+00  0.00000000000E+00  0.93325910350E+03  0.93325910351E+03  0.25500000920E-02 0. -1.
        2   -1    0    0  501    0  0.00000000000E+00  0.00000000000E+00 -0.18223084455E+04  0.18223084455E+04  0.25500000920E-02 0.  1.
    10030    2    1    2    0    0  0.00000000000E+00  0.00000000000E+00 -0.88904934201E+03  0.27555675490E+04  0.26082070057E+04 0.  0.
        3    1    3    3  502    0 -0.76687149053E+03  0.22213416517E+03 -0.15339232271E+04  0.17292645683E+04  0.10100000352E+00 0.  1.
       -3    1    3    3    0  502  0.76687149053E+03 -0.22213416517E+03  0.64487388511E+03  0.10263029807E+04  0.10100000352E+00 0. -1.
</event>
<event>
 5   0  0.1025153E-05  0.2581351E+04  0.7818609E-02  0.8374564E-01
        1   -1    0    0  501    0  0.00000000000E+00  0.00000000000E+00  0.10445223475E+04  0.10445223476E+04  0.50400001928E-02 0. -1.
       -1   -1    0    0    0  501  0.00000000000E+00  0.00000000000E+00 -0.15948369650E+04  0.15948369650E+04  0.50400001928E-02 0.  1.
    10030    2    1    2    0    0  0.00000000000E+00  0.00000000000E+00 -0.55031461746E+03  0.26393593126E+04  0.25813506935E+04 0.  0.
        1    1    3    3  502    0 -0.22670295104E+03 -0.12486816154E+04 -0.51547709506E+03  0.13697870784E+04  0.50400001928E-02 0.  1.
       -1    1    3    3    0  502  0.22670295104E+03  0.12486816154E+04 -0.34837522403E+02  0.12695722341E+04  0.50400001928E-02 0. -1.
</event>
<event>
 5   0  0.1025153E-05  0.2583056E+04  0.7818609E-02  0.8373980E-01
       -1   -1    0    0    0  501  0.00000000000E+00  0.00000000000E+00  0.97717784949E+03  0.97717784950E+03  0.50400001928E-02 0. -1.
        1   -1    0    0  501    0  0.00000000000E+00  0.00000000000E+00 -0.17070015126E+04  0.17070015126E+04  0.50400001928E-02 0.  1.
    10030    2    1    2    0    0  0.00000000000E+00  0.00000000000E+00 -0.72982366312E+03  0.26841793621E+04  0.25830556070E+04 0.  0.
        1    1    3    3  502    0  0.34972868691E+03  0.10670330705E+04  0.29817129621E+03  0.11617985410E+04  0.50400001928E-02 0. -1.
       -1    1    3    3    0  502 -0.34972868691E+03 -0.10670330705E+04 -0.10279949593E+04  0.15223808211E+04  0.50400001928E-02 0.  1.
</event>
<event>
 5   0  0.2555801E-05  0.2283557E+04  0.7818609E-02  0.8484433E-01
        2   -1    0    0  501    0  0.00000000000E+00  0.00000000000E+00  0.24189026934E+04  0.24189026934E+04  0.25500000920E-02 0. -1.
       -2   -1    0    0    0  501  0.00000000000E+00  0.00000000000E+00 -0.53894617933E+03  0.53894617934E+03  0.25500000920E-02 0.  1.
    10030    2    1    2    0    0  0.00000000000E+00  0.00000000000E+00  0.18799565140E+04  0.29578488727E+04  0.22835571942E+04 0.  0.
        1    1    3    3  502    0 -0.25627949971E+03 -0.43736773240E+03  0.22651520677E+04  0.23211815106E+04  0.50400001928E-02 0. -1.
       -1    1    3    3    0  502  0.25627949971E+03  0.43736773240E+03 -0.38519555370E+03  0.63666736208E+03  0.50400001928E-02 0.  1.
</event>
<event>
 5   0  0.1025153E-05  0.2145310E+04  0.7818609E-02  0.8541543E-01
        1   -1    0    0  501    0  0.00000000000E+00  0.00000000000E+00  0.16624516976E+04  0.16624516976E+04  0.50400001928E-02 0. -1.
       -1   -1    0    0    0  501  0.00000000000E+00  0.00000000000E+00 -0.69210350477E+03  0.69210350479E+03  0.50400001928E-02 0.  1.
    10030    2    1    2    0    0  0.00000000000E+00  0.00000000000E+00  0.97034819278E+03  0.23545552024E+04  0.21453099043E+04 0.  0.
        1    1    3    3  502    0 -0.43347668834E+03 -0.22075427055E+03 -0.56408089983E+03  0.74486357736E+03  0.50400001928E-02 0.  1.
       -1    1    3    3    0  502  0.43347668834E+03  0.22075427055E+03  0.15344290926E+04  0.16096916250E+04  0.50400001928E-02 0. -1.
</event>
<event>
 5   0  0.1025153E-05  0.2603130E+04  0.7818609E-02  0.8367139E-01
        1   -1    0    0  501    0  0.00000000000E+00  0.00000000000E+00  0.11828721552E+04  0.11828721552E+04  0.50400001928E-02 0. -1.
       -1   -1    0    0    0  501  0.00000000000E+00  0.00000000000E+00 -0.14321680730E+04  0.14321680730E+04  0.50400001928E-02 0.  1.
    10030    2    1    2    0    0  0.00000000000E+00  0.00000000000E+00 -0.24929591784E+03  0.26150402283E+04  0.26031302197E+04 0.  0.
        1    1    3    3  502    0  0.13780627410E+03 -0.63878520648E+03 -0.12554243229E+04  0.14153188120E+04  0.50400001928E-02 0.  1.
       -1    1    3    3    0  502 -0.13780627410E+03  0.63878520648E+03  0.10061284050E+04  0.11997214162E+04  0.50400001928E-02 0. -1.
</event>
<event>
 5   0  0.2484618E-05  0.2611197E+04  0.7818609E-02  0.8364408E-01
       -2   -1    0    0    0  501  0.00000000000E+00  0.00000000000E+00  0.15114661792E+04  0.15114661792E+04  0.25500000920E-02 0. -1.
        2   -1    0    0  501    0  0.00000000000E+00  0.00000000000E+00 -0.11277708642E+04  0.11277708642E+04  0.25500000920E-02 0.  1.
    10030    2    1    2    0    0  0.00000000000E+00  0.00000000000E+00  0.38369531505E+03  0.26392370434E+04  0.26111970581E+04 0.  0.
        3    1    3    3  502    0  0.94274236191E+03 -0.60913964462E+03  0.86592243334E+03  0.14176162874E+04  0.10100000352E+00 0.  1.
       -3    1    3    3    0  502 -0.94274236191E+03  0.60913964462E+03 -0.48222711828E+03  0.12216207560E+04  0.10100000352E+00 0. -1.
</event>
<event>
 5   0  0.2528460E-05  0.2575964E+04  0.7818609E-02  0.8376412E-01
       -2   -1    0    0    0  501  0.00000000000E+00  0.00000000000E+00  0.11605668621E+04  0.11605668621E+04  0.25500000920E-02 0.  1.
        2   -1    0    0  501    0  0.00000000000E+00  0.00000000000E+00 -0.14293860342E+04  0.14293860342E+04  0.25500000920E-02 0. -1.
    10030    2    1    2    0    0  0.00000000000E+00  0.00000000000E+00 -0.26881917214E+03  0.25899528963E+04  0.25759643355E+04 0.  0.
        5    1    3    3  502    0  0.11406090519E+04  0.53612368319E+03 -0.40129097529E+03  0.13226768879E+04  0.46999998093E+01 0. -1.
       -5    1    3    3    0  502 -0.11406090519E+04 -0.53612368319E+03  0.13247180315E+03  0.12672760084E+04  0.46999998093E+01 0.  1.
</event>
<event>
 5   0  0.2662024E-05  0.2737782E+04  0.7818609E-02  0.8322849E-01
       -2   -1    0    0    0  501  0.00000000000E+00  0.00000000000E+00  0.98609229237E+03  0.98609229238E+03  0.25500000920E-02 0.  1.
        2   -1    0    0  501    0  0.00000000000E+00  0.00000000000E+00 -0.19002916877E+04  0.19002916877E+04  0.25500000920E-02 0. -1.
    10030    2    1    2    0    0  0.00000000000E+00  0.00000000000E+00 -0.91419939533E+03  0.28863839801E+04  0.27377823044E+04 0.  0.
        2    1    3    3  502    0 -0.46367017366E+03 -0.12276916327E+04 -0.46545047195E+02  0.13131577272E+04  0.25500000920E-02 0.  1.
       -2    1    3    3    0  502  0.46367017366E+03  0.12276916327E+04 -0.86765434814E+03  0.15732262529E+04  0.25500000920E-02 0. -1.
</event>
<event>
 5   0  0.2662024E-05  0.2576331E+04  0.7818609E-02  0.8376286E-01
        2   -1    0    0  501    0  0.00000000000E+00  0.00000000000E+00  0.17222219863E+04  0.17222219863E+04  0.25500000920E-02 0.  1.
       -2   -1    0    0    0  501  0.00000000000E+00  0.00000000000E+00 -0.96350546723E+03  0.96350546724E+03  0.25500000920E-02 0. -1.
    10030    2    1    2    0    0  0.00000000000E+00  0.00000000000E+00  0.75871651906E+03  0.26857274535E+04  0.25763309567E+04 0.  0.
        2    1    3    3  502    0  0.53727156647E+02 -0.91875746915E+03 -0.56022830662E+03  0.10774310419E+04  0.25500000920E-02 0. -1.
       -2    1    3    3    0  502 -0.53727156647E+02  0.91875746915E+03  0.13189448257E+04  0.16082964116E+04  0.25500000920E-02 0.  1.
</event>
<event>
 5   0  0.2484618E-05  0.2484566E+04  0.7818609E-02  0.8408505E-01
        2   -1    0    0  501    0  0.00000000000E+00  0.00000000000E+00  0.16527254068E+04  0.16527254068E+04  0.25500000920E-02 0. -1.
       -2   -1    0    0    0  501  0.00000000000E+00  0.00000000000E+00 -0.93377127696E+03  0.93377127696E+03  0.25500000920E-02 0.  1.
    10030    2    1    2    0    0  0.00000000000E+00  0.00000000000E+00  0.71895412986E+03  0.25864966838E+04  0.24845663715E+04 0.  0.
        3    1    3    3  502    0  0.10978009379E+04 -0.56621376989E+03  0.49720189557E+03  0.13315309488E+04  0.10100000352E+00 0. -1.
       -3    1    3    3    0  502 -0.10978009379E+04  0.56621376989E+03  0.22175223429E+03  0.12549657350E+04  0.10100000352E+00 0.  1.
</event>
<event>
 5   0  0.9855352E-06  0.2614672E+04  0.7818609E-02  0.8363234E-01
        1   -1    0    0  501    0  0.00000000000E+00  0.00000000000E+00  0.18953598978E+04  0.18953598978E+04  0.50400001928E-02 0.  1.
       -1   -1    0    0    0  501  0.00000000000E+00  0.00000000000E+00 -0.90174328162E+03  0.90174328164E+03  0.50400001928E-02 0. -1.
    10030    2    1    2    0    0  0.00000000000E+00  0.00000000000E+00  0.99361661621E+03  0.27971031795E+04  0.26146724874E+04 0.  0.
        2    1    3    3  502    0 -0.42082590071E+03  0.10318300426E+04 -0.23452800085E+03  0.11387585603E+04  0.25500000920E-02 0. -1.
       -2    1    3    3    0  502  0.42082590071E+03 -0.10318300426E+04  0.12281446171E+04  0.16583446192E+04  0.25500000920E-02 0.  1.
</event>
<event>
 5   0  0.2555801E-05  0.2586373E+04  0.7818609E-02  0.8372845E-01
        2   -1    0    0  501    0  0.00000000000E+00  0.00000000000E+00  0.20805618523E+04  0.20805618523E+04  0.25500000920E-02 0.  1.
       -2   -1    0    0    0  501  0.00000000000E+00  0.00000000000E+00 -0.80378805979E+03  0.80378805979E+03  0.25500000920E-02 0. -1.
    10030    2    1    2    0    0  0.00000000000E+00  0.00000000000E+00  0.12767737925E+04  0.28843499121E+04  0.25863725753E+04 0.  0.
        1    1    3    3  502    0  0.89690776688E+03  0.13895399035E+03 -0.38892662444E+03  0.98742881918E+03  0.50400001928E-02 0. -1.
       -1    1    3    3    0  502 -0.89690776688E+03 -0.13895399035E+03  0.16657004170E+04  0.18969210929E+04  0.50400001928E-02 0.  1.
</event>
<event>
 5   0  0.1000421E-05  0.2594440E+04  0.7818609E-02  0.8370092E-01
        1   -1    0    0  501    0  0.00000000000E+00  0.00000000000E+00  0.28624079823E+04  0.28624079823E+04  0.50400001928E-02 0. -1.
       -1   -1    0    0    0  501  0.00000000000E+00  0.00000000000E+00 -0.58788933920E+03  0.58788933922E+03  0.50400001928E-02 0.  1.
    10030    2    1    2    0    0  0.00000000000E+00  0.00000000000E+00  0.22745186431E+04  0.34502973215E+04  0.25944395443E+04 0.  0.
        3    1    3    3  502    0 -0.10611867146E+04 -0.74609372120E+03  0.11339901284E+04  0.17229935303E+04  0.10100000352E+00 0. -1.
       -3    1    3    3    0  502  0.10611867146E+04  0.74609372120E+03  0.11405285147E+04  0.17273037912E+04  0.10100000352E+00 0.  1.
</event>
<event>
 5   0  0.1000421E-05  0.2074815E+04  0.7818609E-02  0.8572419E-01
        1   -1    0    0  501    0  0.00000000000E+00  0.00000000000E+00  0.72648236333E+03  0.72648236335E+03  0.50400001928E-02 0.  1.
       -1   -1    0    0    0  501  0.00000000000E+00  0.00000000000E+00 -0.14814053086E+04  0.14814053086E+04  0.50400001928E-02 0. -1.
    10030    2    1    2    0    0  0.00000000000E+00  0.00000000000E+00 -0.75492294522E+03  0.22078876719E+04  0.20748154902E+04 0.  0.
        3    1    3    3  502    0  0.18179146455E+03  0.26004539025E+03 -0.14285050402E+04  0.14633176011E+04  0.10100000352E+00 0. -1.
       -3    1    3    3    0  502 -0.18179146455E+03 -0.26004539025E+03  0.67358209495E+03  0.74457007085E+03  0.10100000352E+00 0.  1.
</event>
<event>
 5   0  0.1005492E-05  0.2608194E+04  0.7818609E-02  0.8365423E-01
        1   -1    0    0  501    0  0.00000000000E+00  0.00000000000E+00  0.22243499085E+04  0.22243499085E+04  0.50400001928E-02 0.  1.
       -1   -1    0    0    0  501  0.00000000000E+00  0.00000000000E+00 -0.76456888841E+03  0.76456888842E+03  0.50400001928E-02 0. -1.
    10030    2    1    2    0    0  0.00000000000E+00  0.00000000000E+00  0.14597810201E+04  0.29889187970E+04  0.26081938095E+04 0.  0.
        4    1    3    3  502    0  0.80756255291E+03  0.41322031746E+03 -0.34375733476E+03  0.97009227691E+03  0.12699999809E+01 0. -1.
       -4    1    3    3    0  502 -0.80756255291E+03 -0.41322031746E+03  0.18035383549E+04  0.20188265201E+04  0.12699999809E+01 0.  1.
</event>
<event>
 5   0  0.2517854E-05  0.2681883E+04  0.7818609E-02  0.8340907E-01
        2   -1    0    0  501    0  0.00000000000E+00  0.00000000000E+00  0.21936201775E+04  0.21936201775E+04  0.25500000920E-02 0.  1.
       -2   -1    0    0    0  501  0.00000000000E+00  0.00000000000E+00 -0.81970617345E+03  0.81970617346E+03  0.25500000920E-02 0. -1.
    10030    2    1    2    0    0  0.00000000000E+00  0.00000000000E+00  0.13739140041E+04  0.30133263510E+04  0.26818829219E+04 0.  0.
        4    1    3    3  502    0 -0.23138492104E+03 -0.55800456257E+03 -0.65816576476E+03  0.89335987169E+03  0.12699999809E+01 0. -1.
       -4    1    3    3    0  502  0.23138492104E+03  0.55800456257E+03  0.20320797688E+04  0.21199664793E+04  0.12699999809E+01 0.  1.
</event>
<event>
 5   0  0.1000421E-05  0.2385774E+04  0.7818609E-02  0.8444849E-01
       -1   -1    0    0    0  501  0.00000000000E+00  0.00000000000E+00  0.14109501476E+04  0.14109501476E+04  0.50400001928E-02 0. -1.
        1   -1    0    0  501    0  0.00000000000E+00  0.00000000000E+00 -0.10085256452E+04  0.10085256452E+04  0.50400001928E-02 0.  1.
    10030    2    1    2    0    0  0.00000000000E+00  0.00000000000E+00  0.40242450247E+03  0.24194757928E+04  0.23857740111E+04 0.  0.
        3    1    3    3  502    0  0.73820650759E+03  0.15197082888E+03  0.11389008431E+04  0.13657009634E+04  0.10100000352E+00 0. -1.
       -3    1    3    3    0  502 -0.73820650759E+03 -0.15197082888E+03 -0.73647634065E+03  0.10537748295E+04  0.10100000352E+00 0.  1.
</event>
<event>
 5   0  0.2528460E-05  0.2543680E+04  0.7818609E-02  0.8387587E-01
        2   -1    0    0  501    0  0.00000000000E+00  0.00000000000E+00  0.21676073382E+04  0.21676073382E+04  0.25500000920E-02 0. -1.
       -2   -1    0    0    0  501  0.00000000000E+00  0.00000000000E+00 -0.74625020561E+03  0.74625020562E+03  0.25500000920E-02 0.  1.
    10030    2    1    2    0    0  0.00000000000E+00  0.00000000000E+00  0.14213571325E+04  0.29138575438E+04  0.25436803430E+04 0.  0.
        5    1    3    3  502    0  0.29769628039E+03  0.10503662011E+04 -0.36696807329E+02  0.10923648555E+04  0.46999998093E+01 0.  1.
       -5    1    3    3    0  502 -0.29769628039E+03 -0.10503662011E+04  0.14580539399E+04  0.18214926883E+04  0.46999998093E+01 0. -1.
</event>
<event>
 5   0  0.1000421E-05  0.2523289E+04  0.7818609E-02  0.8394735E-01
        1   -1    0    0  501    0  0.00000000000E+00  0.00000000000E+00  0.16683375182E+04  0.16683375182E+04  0.50400001928E-02 0.  1.
       -1   -1    0    0    0  501  0.00000000000E+00  0.00000000000E+00 -0.95409165746E+03  0.95409165747E+03  0.50400001928E-02 0. -1.
    10030    2    1    2    0    0  0.00000000000E+00  0.00000000000E+00  0.71424586071E+03  0.26224291756E+04  0.25232890504E+04 0.  0.
        3    1    3    3  502    0  0.83940294737E+03 -0.74462573037E+03 -0.24232503350E+03  0.11479487003E+04  0.10100000352E+00 0. -1.
       -3    1    3    3    0  502 -0.83940294737E+03  0.74462573037E+03  0.95657089421E+03  0.14744804754E+04  0.10100000352E+00 0.  1.
</event>
<event>
 5   0  0.2555801E-05  0.2770981E+04  0.7818609E-02  0.8312335E-01
       -2   -1    0    0    0  501  0.00000000000E+00  0.00000000000E+00  0.10880229223E+04  0.10880229223E+04  0.25500000920E-02 0.  1.
        2   -1    0    0  501    0  0.00000000000E+00  0.00000000000E+00 -0.17642858592E+04  0.17642858592E+04  0.25500000920E-02 0. -1.
    10030    2    1    2    0    0  0.00000000000E+00  0.00000000000E+00 -0.67626293692E+03  0.28523087815E+04  0.27709806612E+04 0.  0.
        1    1    3    3  502    0 -0.50182059457E+03 -0.54992590725E+03 -0.15409043206E+04  0.17113236216E+04  0.50400001928E-02 0. -1.
       -1    1    3    3    0  502  0.50182059457E+03  0.54992590725E+03  0.86464138368E+03  0.11409851598E+04  0.50400001928E-02 0.  1.
</event>
<event>
 5   0  0.1000421E-05  0.2599315E+04  0.7818609E-02  0.8368434E-01
       -1   -1    0    0    0  501  0.00000000000E+00  0.00000000000E+00  0.86317522623E+03  0.86317522625E+03  0.50400001928E-02 0.  1.
        1   -1    0    0  501    0  0.00000000000E+00  0.00000000000E+00 -0.19568558392E+04  0.19568558392E+04  0.50400001928E-02 0. -1.
    10030    2    1    2    0    0  0.00000000000E+00  0.00000000000E+00 -0.10936806130E+04  0.28200310655E+04  0.25993148957E+04 0.  0.
        3    1    3    3  502    0 -0.22882967168E+03 -0.20316395750E+03 -0.19172153318E+04  0.19414822304E+04  0.10100000352E+00 0. -1.
       -3    1    3    3    0  502  0.22882967168E+03  0.20316395750E+03  0.82353471883E+03  0.87854883506E+03  0.10100000352E+00 0.  1.
</event>
<event>
 5   0  0.2528460E-05  0.2466178E+04  0.7818609E-02  0.8415135E-01
       -2   -1    0    0    0  501  0.00000000000E+00  0.00000000000E+00  0.92810002539E+03  0.92810002540E+03  0.25500000920E-02 0. -1.
        2   -1    0    0  501    0  0.00000000000E+00  0.00000000000E+00 -0.16383021211E+04  0.16383021211E+04  0.25500000920E-02 0.  1.
    10030    2    1    2    0    0  0.00000000000E+00  0.00000000000E+00 -0.71020209572E+03  0.25664021465E+04  0.24661778040E+04 0.  0.
        5    1    3    3  502    0 -0.66783678662E+03  0.45442144274E+03  0.61441614891E+03  0.10149059637E+04  0.46999998093E+01 0. -1.
       -5    1    3    3    0  502  0.66783678662E+03 -0.45442144274E+03 -0.13246182446E+04  0.15514961828E+04  0.46999998093E+01 0.  1.
</event>
<event>
 5   0  0.2484618E-05  0.2573480E+04  0.7818609E-02  0.8377266E-01
        2   -1    0    0  501    0  0.00000000000E+00  0.00000000000E+00  0.17890335672E+04  0.17890335672E+04  0.25500000920E-02 0. -1.
       -2   -1    0    0    0  501  0.00000000000E+00  0.00000000000E+00 -0.92547172873E+03  0.92547172874E+03  0.25500000920E-02 0.  1.
    10030    2    1    2    0    0  0.00000000000E+00  0.00000000000E+00  0.86356183844E+03  0.27145052959E+04  0.25734801248E+04 0.  0.
        3    1    3    3  502    0  0.11443981745E+04  0.16683768621E+03  0.10268018376E+04  0.15465458348E+04  0.10100000352E+00 0. -1.
       -3    1    3    3    0  502 -0.11443981745E+04 -0.16683768621E+03 -0.16323999915E+03  0.11679594611E+04  0.10100000352E+00 0.  1.
</event>
<event>
 5   0  0.2484618E-05  0.2610567E+04  0.7818609E-02  0.8364621E-01
       -2   -1    0    0    0  501  0.00000000000E+00  0.00000000000E+00  0.11100852563E+04  0.11100852563E+04  0.25500000920E-02 0.  1.
        2   -1    0    0  501    0  0.00000000000E+00  0.00000000000E+00 -0.15348052682E+04  0.15348052682E+04  0.25500000920E-02 0. -1.
    10030    2    1    2    0    0  0.00000000000E+00  0.00000000000E+00 -0.42472001184E+03  0.26448905245E+04  0.26105667580E+04 0.  0.
        3    1    3    3  502    0  0.12167321945E+04 -0.28879764036E+02  0.26553388477E+03  0.12457044304E+04  0.10100000352E+00 0.  1.
       -3    1    3    3    0  502 -0.12167321945E+04  0.28879764036E+02 -0.69025389660E+03  0.13991860941E+04  0.10100000352E+00 0. -1.
</event>
<event>
 5   0  0.1025153E-05  0.2605251E+04  0.7818609E-02  0.8366420E-01
        1   -1    0    0  501    0  0.00000000000E+00  0.00000000000E+00  0.14881820700E+04  0.14881820700E+04  0.50400001928E-02 0.  1.
       -1   -1    0    0    0  501  0.00000000000E+00  0.00000000000E+00 -0.11402052308E+04  0.11402052308E+04  0.50400001928E-02 0. -1.
    10030    2    1    2    0    0  0.00000000000E+00  0.00000000000E+00  0.34797683922E+03  0.26283873008E+04  0.26052508367E+04 0.  0.
        1    1    3    3  502    0  0.11296633020E+04 -0.57489940906E+03 -0.12898582039E+03  0.12740823554E+04  0.50400001928E-02 0. -1.
       -1    1    3    3    0  502 -0.11296633020E+04  0.57489940906E+03  0.47696265960E+03  0.13543049454E+04  0.50400001928E-02 0.  1.
</event>
<event>
 5   0  0.1005492E-05  0.2607836E+04  0.7818609E-02  0.8365544E-01
        1   -1    0    0  501    0  0.00000000000E+00  0.00000000000E+00  0.10458448820E+04  0.10458448820E+04  0.50400001928E-02 0. -1.
       -1   -1    0    0    0  501  0.00000000000E+00  0.00000000000E+00 -0.16256732002E+04  0.16256732002E+04  0.50400001928E-02 0.  1.
    10030    2    1    2    0    0  0.00000000000E+00  0.00000000000E+00 -0.57982831820E+03  0.26715180822E+04  0.26078358815E+04 0.  0.
        4    1    3    3  502    0  0.49575463194E+03  0.11374540043E+04 -0.70048295693E+03  0.14248692055E+04  0.12699999809E+01 0.  1.
       -4    1    3    3    0  502 -0.49575463194E+03 -0.11374540043E+04  0.12065463872E+03  0.12466488767E+04  0.12699999809E+01 0. -1.
</event>
<event>
 5   0  0.1025153E-05  0.2508150E+04  0.7818609E-02  0.8400088E-01
        1   -1    0    0  501    0  0.00000000000E+00  0.00000000000E+00  0.11411258947E+04  0.11411258947E+04  0.50400001928E-02 0. -1.
       -1   -1    0    0    0  501  0.00000000000E+00  0.00000000000E+00 -0.13782040739E+04  0.13782040739E+04  0.50400001928E-02 0.  1.
    10030    2    1    2    0    0  0.00000000000E+00  0.00000000000E+00 -0.23707817920E+03  0.25193299686E+04  0.25081502004E+04 0.  0.
        1    1    3    3  502    0 -0.10617004945E+04  0.45824430065E+02  0.55030926251E+03  0.11967239041E+04  0.50400001928E-02 0. -1.
       -1    1    3    3    0  502  0.10617004945E+04 -0.45824430065E+02 -0.78738744171E+03  0.13226060644E+04  0.50400001928E-02 0.  1.
</event>
<event>
 5   0  0.8605000E-06  0.2652668E+04  0.7818609E-02  0.8350528E-01
        3   -1    0    0  501    0  0.00000000000E+00  0.00000000000E+00  0.19905350157E+04  0.19905350182E+04  0.10100000352E+00 0. -1.
       -3   -1    0    0    0  501  0.00000000000E+00  0.00000000000E+00 -0.88376331571E+03  0.88376332148E+03  0.10100000352E+00 0.  1.
    10030    2    1    2    0    0  0.00000000000E+00  0.00000000000E+00  0.11067716999E+04  0.28742983397E+04  0.26526679683E+04 0.  0.
        2    1    3    3  502    0  0.77038720686E+03 -0.10780757417E+04  0.61673493227E+03  0.14615422436E+04  0.25500000920E-02 0. -1.
       -2    1    3    3    0  502 -0.77038720686E+03  0.10780757417E+04  0.49003676767E+03  0.14127560961E+04  0.25500000920E-02 0.  1.
</event>
<event>
 5   0  0.1000421E-05  0.2557805E+04  0.7818609E-02  0.8382677E-01
        1   -1    0    0  501    0  0.00000000000E+00  0.00000000000E+00  0.12763027869E+04  0.12763027869E+04  0.50400001928E-02 0.  1.
       -1   -1    0    0    0  501  0.00000000000E+00  0.00000000000E+00 -0.12815073871E+04  0.12815073871E+04  0.50400001928E-02 0. -1.
    10030    2    1    2    0    0  0.00000000000E+00  0.00000000000E+00 -0.52046001983E+01  0.25578101740E+04  0.25578048788E+04 0.  0.
        3    1    3    3  502    0 -0.86144610927E+03  0.56305797356E+03 -0.76185861082E+03  0.12804500122E+04  0.10100000352E+00 0. -1.
       -3    1    3    3    0  502  0.86144610927E+03 -0.56305797356E+03  0.75665401062E+03  0.12773601617E+04  0.10100000352E+00 0.  1.
</event>
<event>
 5   0  0.1005492E-05  0.2610224E+04  0.7818609E-02  0.8364737E-01
        1   -1    0    0  501    0  0.00000000000E+00  0.00000000000E+00  0.19890213334E+04  0.19890213334E+04  0.50400001928E-02 0. -1.
       -1   -1    0    0    0  501  0.00000000000E+00  0.00000000000E+00 -0.85635975038E+03  0.85635975040E+03  0.50400001928E-02 0.  1.
    10030    2    1    2    0    0  0.00000000000E+00  0.00000000000E+00  0.11326615830E+04  0.28453810838E+04  0.26102243678E+04 0.  0.
        4    1    3    3  502    0 -0.36452943887E+02 -0.10524578301E+04 -0.27404345686E+03  0.10881625478E+04  0.12699999809E+01 0.  1.
       -4    1    3    3    0  502  0.36452943887E+02  0.10524578301E+04  0.14067050399E+04  0.17572185360E+04  0.12699999809E+01 0. -1.
</event>
<event>
 5   0  0.9855352E-06  0.2564973E+04  0.7818609E-02  0.8380197E-01
        1   -1    0    0  501    0  0.00000000000E+00  0.00000000000E+00  0.15570820099E+04  0.15570820099E+04  0.50400001928E-02 0.  1.
       -1   -1    0    0    0  501  0.00000000000E+00  0.00000000000E+00 -0.10563169238E+04  0.10563169238E+04  0.50400001928E-02 0. -1.
    10030    2    1    2    0    0  0.00000000000E+00  0.00000000000E+00  0.50076508608E+03  0.26133989337E+04  0.25649733557E+04 0.  0.
        2    1    3    3  502    0  0.72433273787E+03  0.38422419503E+03 -0.75438249559E+03  0.11141719333E+04  0.25500000920E-02 0. -1.
       -2    1    3    3    0  502 -0.72433273787E+03 -0.38422419503E+03  0.12551475817E+04  0.14992270005E+04  0.25500000920E-02 0.  1.
</event>
<event>
 5   0  0.2662024E-05  0.2609328E+04  0.7818609E-02  0.8365040E-01
       -2   -1    0    0    0  501  0.00000000000E+00  0.00000000000E+00  0.76657841692E+03  0.76657841692E+03  0.25500000920E-02 0.  1.
        2   -1    0    0  501    0  0.00000000000E+00  0.00000000000E+00 -0.22204487345E+04  0.22204487345E+04  0.25500000920E-02 0. -1.
    10030    2    1    2    0    0  0.00000000000E+00  0.00000000000E+00 -0.14538703176E+04  0.29870271514E+04  0.26093279409E+04 0.  0.
        2    1    3    3  502    0  0.65524247537E+03  0.18080660750E+03 -0.20017331519E+04  0.21139936949E+04  0.25500000920E-02 0. -1.
       -2    1    3    3    0  502 -0.65524247537E+03 -0.18080660750E+03  0.54786283434E+03  0.87303345646E+03  0.25500000920E-02 0.  1.
</event>
<event>
 5   0  0.1034714E-05  0.2570497E+04  0.7818609E-02  0.8378292E-01
        1   -1    0    0  501    0  0.00000000000E+00  0.00000000000E+00  0.17710903223E+04  0.17710903223E+04  0.50400001928E-02 0. -1.
       -1   -1    0    0    0  501  0.00000000000E+00  0.00000000000E+00 -0.93268166444E+03  0.93268166445E+03  0.50400001928E-02 0.  1.
    10030    2    1    2    0    0  0.00000000000E+00  0.00000000000E+00  0.83840865787E+03  0.27037719868E+04  0.25704968156E+04 0.  0.
        5    1    3    3  502    0 -0.11261297576E+04 -0.44709155810E+03  0.87012985468E+03  0.14917128230E+04  0.46999998093E+01 0.  1.
       -5    1    3    3    0  502  0.11261297576E+04  0.44709155810E+03 -0.31721196805E+02  0.12120591638E+04  0.46999998093E+01 0. -1.
</event>
<event>
 5   0  0.1000421E-05  0.2553518E+04  0.7818609E-02  0.8384164E-01
       -1   -1    0    0    0  501  0.00000000000E+00  0.00000000000E+00  0.12500430149E+04  0.12500430149E+04  0.50400001928E-02 0. -1.
        1   -1    0    0  501    0  0.00000000000E+00  0.00000000000E+00 -0.13040464650E+04  0.13040464650E+04  0.50400001928E-02 0.  1.
    10030    2    1    2    0    0  0.00000000000E+00  0.00000000000E+00 -0.54003450116E+02  0.25540894800E+04  0.25535184940E+04 0.  0.
        3    1    3    3  502    0  0.12334960564E+04  0.23846082082E+03  0.20050920015E+03  0.12722342684E+04  0.10100000352E+00 0. -1.
       -3    1    3    3    0  502 -0.12334960564E+04 -0.23846082082E+03 -0.25451265026E+03  0.12818552116E+04  0.10100000352E+00 0.  1.
</event>
<event>
 5   0  0.2662024E-05  0.2583492E+04  0.7818609E-02  0.8373830E-01
        2   -1    0    0  501    0  0.00000000000E+00  0.00000000000E+00  0.14791334356E+04  0.14791334356E+04  0.25500000920E-02 0. -1.
       -2   -1    0    0    0  501  0.00000000000E+00  0.00000000000E+00 -0.11280980958E+04  0.11280980958E+04  0.25500000920E-02 0.  1.
    10030    2    1    2    0    0  0.00000000000E+00  0.00000000000E+00  0.35103533984E+03  0.26072315314E+04  0.25834919099E+04 0.  0.
        2    1    3    3  502    0  0.92675830652E+03 -0.88692596640E+02 -0.72817725563E+03  0.11819430828E+04  0.25500000920E-02 0.  1.
       -2    1    3    3    0  502 -0.92675830652E+03  0.88692596640E+02  0.10792125955E+04  0.14252884486E+04  0.25500000920E-02 0. -1.
</event>
<event>
 5   0  0.9855352E-06  0.2534730E+04  0.7818609E-02  0.8390716E-01
        1   -1    0    0  501    0  0.00000000000E+00  0.00000000000E+00  0.13559277683E+04  0.13559277683E+04  0.50400001928E-02 0. -1.
       -1   -1    0    0    0  501  0.00000000000E+00  0.00000000000E+00 -0.11845866314E+04  0.11845866314E+04  0.50400001928E-02 0.  1.
    10030    2    1    2    0    0  0.00000000000E+00  0.00000000000E+00  0.17134113691E+03  0.25405143998E+04  0.25347298930E+04 0.  0.
        2    1    3    3  502    0  0.30970450875E+03  0.72881057340E+03  0.10774398093E+04  0.13371455707E+04  0.25500000920E-02 0. -1.
       -2    1    3    3    0  502 -0.30970450875E+03 -0.72881057340E+03 -0.90609867238E+03  0.12033688291E+04  0.25500000920E-02 0.  1.
</event>
<event>
 5   0  0.1034714E-05  0.2636532E+04  0.7818609E-02  0.8355897E-01
       -1   -1    0    0    0  501  0.00000000000E+00  0.00000000000E+00  0.83946971098E+03  0.83946971100E+03  0.50400001928E-02 0.  1.
        1   -1    0    0  501    0  0.00000000000E+00  0.00000000000E+00 -0.20701472365E+04  0.20701472365E+04  0.50400001928E-02 0. -1.
    10030    2    1    2    0    0  0.00000000000E+00  0.00000000000E+00 -0.12306775255E+04  0.29096169475E+04  0.26365324973E+04 0.  0.
        5    1    3    3  502    0  0.33703988214E+03 -0.66103516618E+03  0.58712508860E+03  0.94620364232E+03  0.46999998093E+01 0.  1.
       -5    1    3    3    0  502 -0.33703988214E+03  0.66103516618E+03 -0.18178026141E+04  0.19634133052E+04  0.46999998093E+01 0. -1.
</event>
<event>
 5   0  0.2555801E-05  0.2595741E+04  0.7818609E-02  0.8369649E-01
        2   -1    0    0  501    0  0.00000000000E+00  0.00000000000E+00  0.98006394668E+03  0.98006394668E+03  0.25500000920E-02 0.  1.
       -2   -1    0    0    0  501  0.00000000000E+00  0.00000000000E+00 -0.17187325537E+04  0.17187325538E+04  0.25500000920E-02 0. -1.
    10030    2    1    2    0    0  0.00000000000E+00  0.00000000000E+00 -0.73866860707E+03  0.26987965004E+04  0.25957409809E+04 0.  0.
        1    1    3    3  502    0  0.12444255282E+04  0.60416308836E+02  0.87267444587E+01  0.12459218200E+04  0.50400001928E-02 0.  1.
       -1    1    3    3    0  502 -0.12444255282E+04 -0.60416308836E+02 -0.74739535153E+03  0.14528746804E+04  0.50400001928E-02 0. -1.
</event>
<event>
 5   0  0.2662024E-05  0.2608410E+04  0.7818609E-02  0.8365350E-01
       -2   -1    0    0    0  501  0.00000000000E+00  0.00000000000E+00  0.10305904543E+04  0.10305904543E+04  0.25500000920E-02 0. -1.
        2   -1    0    0  501    0  0.00000000000E+00  0.00000000000E+00 -0.16504620958E+04  0.16504620958E+04  0.25500000920E-02 0.  1.
    10030    2    1    2    0    0  0.00000000000E+00  0.00000000000E+00 -0.61987164150E+03  0.26810525501E+04  0.26084098459E+04 0.  0.
        2    1    3    3  502    0  0.42762412299E+03 -0.11908376634E+04 -0.63496018924E+03  0.14156733992E+04  0.25500000920E-02 0.  1.
       -2    1    3    3    0  502 -0.42762412299E+03  0.11908376634E+04  0.15088547739E+02  0.12653791509E+04  0.25500000920E-02 0. -1.
</event>
<event>
 5   0  0.2517854E-05  0.2653922E+04  0.7818609E-02  0.8350112E-01
        2   -1    0    0  501    0  0.00000000000E+00  0.00000000000E+00  0.16803247745E+04  0.16803247745E+04  0.25500000920E-02 0.  1.
       -2   -1    0    0    0  501  0.00000000000E+00  0.00000000000E+00 -0.10479077044E+04  0.10479077044E+04  0.25500000920E-02 0. -1.
    10030    2    1    2    0    0  0.00000000000E+00  0.00000000000E+00  0.63241707008E+03  0.27282324789E+04  0.26539218354E+04 0.  0.
        4    1    3    3  502    0  0.87121169790E+03 -0.95443465631E+03  0.62609279449E+03  0.14359488626E+04  0.12699999809E+01 0. -1.
       -4    1    3    3    0  502 -0.87121169790E+03  0.95443465631E+03  0.63242755883E+01  0.12922836163E+04  0.12699999809E+01 0.  1.
</event>
<event>
 5   0  0.2528460E-05  0.2474796E+04  0.7818609E-02  0.8412020E-01
       -2   -1    0    0    0  501  0.00000000000E+00  0.00000000000E+00  0.12419740519E+04  0.12419740519E+04  0.25500000920E-02 0.  1.
        2   -1    0    0  501    0  0.00000000000E+00  0.00000000000E+00 -0.12328384709E+04  0.12328384709E+04  0.25500000920E-02 0. -1.
    10030    2    1    2    0    0  0.00000000000E+00  0.00000000000E+00  0.91355809666E+01  0.24748125229E+04  0.24747956611E+04 0.  0.
        5    1    3    3  502    0  0.84260399065E+03 -0.76870988400E+03 -0.47526350034E+03  0.12356350009E+04  0.46999998093E+01 0.  1.
       -5    1    3    3    0  502 -0.84260399065E+03  0.76870988400E+03  0.48439908130E+03  0.12391775219E+04  0.46999998093E+01 0. -1.
</event>
<event>
 5   0  0.2517854E-05  0.2951585E+04  0.7818609E-02  0.8257693E-01
       -2   -1    0    0    0  501  0.00000000000E+00  0.00000000000E+00  0.94312382509E+03  0.94312382509E+03  0.25500000920E-02 0. -1.
        2   -1    0    0  501    0  0.00000000000E+00  0.00000000000E+00 -0.23093082111E+04  0.23093082111E+04  0.25500000920E-02 0.  1.
    10030    2    1    2    0    0  0.00000000000E+00  0.00000000000E+00 -0.13661843860E+04  0.32524320362E+04  0.29515850612E+04 0.  0.
        4    1    3    3  502    0 -0.36698838676E+03  0.15233221939E+02  0.89195063027E+03  0.96461913044E+03  0.12699999809E+01 0. -1.
       -4    1    3    3    0  502  0.36698838676E+03 -0.15233221939E+02 -0.22581350163E+04  0.22878129057E+04  0.12699999809E+01 0.  1.
</event>
<event>
 5   0  0.2555801E-05  0.2695756E+04  0.7818609E-02  0.8336383E-01
        2   -1    0    0  501    0  0.00000000000E+00  0.00000000000E+00  0.22014997173E+04  0.22014997173E+04  0.25500000920E-02 0.  1.
       -2   -1    0    0    0  501  0.00000000000E+00  0.00000000000E+00 -0.82524456757E+03  0.82524456757E+03  0.25500000920E-02 0. -1.
    10030    2    1    2    0    0  0.00000000000E+00  0.00000000000E+00  0.13762551497E+04  0.30267442848E+04  0.26957564298E+04 0.  0.
        1    1    3    3  502    0  0.36916838196E+03 -0.93443987229E+03  0.16969527774E+04  0.19720831366E+04  0.50400001928E-02 0.  1.
       -1    1    3    3    0  502 -0.36916838196E+03  0.93443987229E+03 -0.32069762765E+03  0.10546611482E+04  0.50400001928E-02 0. -1.
</event>
<event>
 5   0  0.9855352E-06  0.2620567E+04  0.7818609E-02  0.8361248E-01
       -1   -1    0    0    0  501  0.00000000000E+00  0.00000000000E+00  0.96301535527E+03  0.96301535529E+03  0.50400001928E-02 0. -1.
        1   -1    0    0  501    0  0.00000000000E+00  0.00000000000E+00 -0.17827784769E+04  0.17827784769E+04  0.50400001928E-02 0.  1.
    10030    2    1    2    0    0  0.00000000000E+00  0.00000000000E+00 -0.81976312162E+03  0.27457938322E+04  0.26205671511E+04 0.  0.
        2    1    3    3  502    0 -0.83803410420E+02 -0.13870994486E+03  0.95247391860E+03  0.96616252567E+03  0.25500000920E-02 0. -1.
       -2    1    3    3    0  502  0.83803410420E+02  0.13870994486E+03 -0.17722370402E+04  0.17796313065E+04  0.25500000920E-02 0.  1.
</event>
<event>
 5   0  0.2662024E-05  0.2590557E+04  0.7818609E-02  0.8371416E-01
       -2   -1    0    0    0  501  0.00000000000E+00  0.00000000000E+00  0.96923816216E+03  0.96923816217E+03  0.25500000920E-02 0. -1.
        2   -1    0    0  501    0  0.00000000000E+00  0.00000000000E+00 -0.17309954324E+04  0.17309954324E+04  0.25500000920E-02 0.  1.
    10030    2    1    2    0    0  0.00000000000E+00  0.00000000000E+00 -0.76175727025E+03  0.27002335946E+04  0.25905573390E+04 0.  0.
        2    1    3    3  502    0 -0.74762368581E+03  0.59763484404E+03  0.52878849009E+03  0.10934925010E+04  0.25500000920E-02 0. -1.
       -2    1    3    3    0  502  0.74762368581E+03 -0.59763484404E+03 -0.12905457603E+04  0.16067410936E+04  0.25500000920E-02 0.  1.
</event>
<event>
 5   0  0.2484618E-05  0.2599010E+04  0.7818609E-02  0.8368538E-01
        2   -1    0    0  501    0  0.00000000000E+00  0.00000000000E+00  0.19437858525E+04  0.19437858525E+04  0.25500000920E-02 0.  1.
       -2   -1    0    0    0  501  0.00000000000E+00  0.00000000000E+00 -0.86877537408E+03  0.86877537408E+03  0.25500000920E-02 0. -1.
    10030    2    1    2    0    0  0.00000000000E+00  0.00000000000E+00  0.10750104784E+04  0.28125612266E+04  0.25990100278E+04 0.  0.
        3    1    3    3  502    0 -0.66332361413E+03 -0.59470395238E+03 -0.48629635523E+03  0.10149655971E+04  0.10100000352E+00 0. -1.
       -3    1    3    3    0  502  0.66332361413E+03  0.59470395238E+03  0.15613068337E+04  0.17975956295E+04  0.10100000352E+00 0.  1.
</event>
<event>
 5   0  0.8605000E-06  0.2074747E+04  0.7818609E-02  0.8572450E-01
        4   -1    0    0  501    0  0.00000000000E+00  0.00000000000E+00  0.76336049891E+03  0.76336155535E+03  0.12699999809E+01 0.  1.
       -4   -1    0    0    0  501  0.00000000000E+00  0.00000000000E+00 -0.14097425922E+04  0.14097431643E+04  0.12699999809E+01 0. -1.
    10030    2    1    2    0    0  0.00000000000E+00  0.00000000000E+00 -0.64638209333E+03  0.21731047196E+04  0.20747468067E+04 0.  0.
        2    1    3    3  502    0  0.50514745043E+03 -0.46597169975E+03  0.49071915443E+03  0.84445773143E+03  0.25500000920E-02 0.  1.
       -2    1    3    3    0  502 -0.50514745043E+03  0.46597169975E+03 -0.11371012478E+04  0.13286469882E+04  0.25500000920E-02 0. -1.
</event>
<event>
 5   0  0.2555801E-05  0.2581349E+04  0.7818609E-02  0.8374564E-01
       -2   -1    0    0    0  501  0.00000000000E+00  0.00000000000E+00  0.14781044530E+04  0.14781044530E+04  0.25500000920E-02 0.  1.
        2   -1    0    0  501    0  0.00000000000E+00  0.00000000000E+00 -0.11270114938E+04  0.11270114938E+04  0.25500000920E-02 0. -1.
    10030    2    1    2    0    0  0.00000000000E+00  0.00000000000E+00  0.35109295920E+03  0.26051159467E+04  0.25813490329E+04 0.  0.
        1    1    3    3  502    0  0.48180888895E+03  0.34524047090E+03  0.13326234778E+04  0.14584978991E+04  0.50400001928E-02 0.  1.
       -1    1    3    3    0  502 -0.48180888895E+03 -0.34524047090E+03 -0.98153051855E+03  0.11466180476E+04  0.50400001928E-02 0. -1.
</event>
<event>
 5   0  0.1025153E-05  0.2597683E+04  0.7818609E-02  0.8368989E-01
        1   -1    0    0  501    0  0.00000000000E+00  0.00000000000E+00  0.10425630827E+04  0.10425630827E+04  0.50400001928E-02 0. -1.
       -1   -1    0    0    0  501  0.00000000000E+00  0.00000000000E+00 -0.16181171821E+04  0.16181171821E+04  0.50400001928E-02 0.  1.
    10030    2    1    2    0    0  0.00000000000E+00  0.00000000000E+00 -0.57555409945E+03  0.26606802648E+04  0.25976829965E+04 0.  0.
        1    1    3    3  502    0  0.60879790100E+02  0.10939555709E+04  0.42666604154E+03  0.11757929456E+04  0.50400001928E-02 0. -1.
       -1    1    3    3    0  502 -0.60879790100E+02 -0.10939555709E+04 -0.10022201410E+04  0.14848873193E+04  0.50400001928E-02 0.  1.
</event>
<event>
 5   0  0.2662024E-05  0.2608412E+04  0.7818609E-02  0.8365349E-01
        2   -1    0    0  501    0  0.00000000000E+00  0.00000000000E+00  0.11900870297E+04  0.11900870297E+04  0.25500000920E-02 0.  1.
       -2   -1    0    0    0  501  0.00000000000E+00  0.00000000000E+00 -0.14292682446E+04  0.14292682446E+04  0.25500000920E-02 0. -1.
    10030    2    1    2    0    0  0.00000000000E+00  0.00000000000E+00 -0.23918121486E+03  0.26193552743E+04  0.26084122373E+04 0.  0.
        2    1    3    3  502    0 -0.76029873611E+02 -0.12541829371E+04 -0.47062576564E+03  0.13417317141E+04  0.25500000920E-02 0. -1.
       -2    1    3    3    0  502  0.76029873611E+02  0.12541829371E+04  0.23144455078E+03  0.12776235602E+04  0.25500000920E-02 0.  1.
</event>
<event>
 5   0  0.1000421E-05  0.1880550E+04  0.7818609E-02  0.8664599E-01
       -1   -1    0    0    0  501  0.00000000000E+00  0.00000000000E+00  0.12069529542E+04  0.12069529543E+04  0.50400001928E-02 0.  1.
        1   -1    0    0  501    0  0.00000000000E+00  0.00000000000E+00 -0.73251985419E+03  0.73251985421E+03  0.50400001928E-02 0. -1.
    10030    2    1    2    0    0  0.00000000000E+00  0.00000000000E+00  0.47443310005E+03  0.19394728085E+04  0.18805499218E+04 0.  0.
        3    1    3    3  502    0  0.77481251163E+03  0.18179114870E+03 -0.27920684944E+03  0.84340910886E+03  0.10100000352E+00 0. -1.
       -3    1    3    3    0  502 -0.77481251163E+03 -0.18179114870E+03  0.75363994950E+03  0.10960636996E+04  0.10100000352E+00 0.  1.
</event>
<event>
 5   0  0.2528460E-05  0.2597195E+04  0.7818609E-02  0.8369155E-01
        2   -1    0    0  501    0  0.00000000000E+00  0.00000000000E+00  0.15756577612E+04  0.15756577612E+04  0.25500000920E-02 0.  1.
       -2   -1    0    0    0  501  0.00000000000E+00  0.00000000000E+00 -0.10702549287E+04  0.10702549287E+04  0.25500000920E-02 0. -1.
    10030    2    1    2    0    0  0.00000000000E+00  0.00000000000E+00  0.50540283242E+03  0.26459126899E+04  0.25971950138E+04 0.  0.
        5    1    3    3  502    0 -0.11236765617E+04 -0.25273063216E+03  0.86379613904E+03  0.14396831761E+04  0.46999998093E+01 0. -1.
       -5    1    3    3    0  502  0.11236765617E+04  0.25273063216E+03 -0.35839330662E+03  0.12062295138E+04  0.46999998093E+01 0.  1.
</event>
<event>
 5   0  0.1005492E-05  0.2513177E+04  0.7818609E-02  0.8398306E-01
        1   -1    0    0  501    0  0.00000000000E+00  0.00000000000E+00  0.93856204732E+03  0.93856204733E+03  0.50400001928E-02 0. -1.
       -1   -1    0    0    0  501  0.00000000000E+00  0.00000000000E+00 -0.16823762570E+04  0.16823762570E+04  0.50400001928E-02 0.  1.
    10030    2    1    2    0    0  0.00000000000E+00  0.00000000000E+00 -0.74381420964E+03  0.26209383043E+04  0.25131768773E+04 0.  0.
        4    1    3    3  502    0 -0.45888963992E+03  0.16701731443E+02  0.84792840960E+03  0.96428359427E+03  0.12699999809E+01 0. -1.
       -4    1    3    3    0  502  0.45888963992E+03 -0.16701731443E+02 -0.15917426192E+04  0.16566547100E+04  0.12699999809E+01 0.  1.
</event>
<event>
 5   0  0.2517854E-05  0.2537125E+04  0.7818609E-02  0.8389878E-01
        2   -1    0    0  501    0  0.00000000000E+00  0.00000000000E+00  0.13867913596E+04  0.13867913596E+04  0.25500000920E-02 0.  1.
       -2   -1    0    0    0  501  0.00000000000E+00  0.00000000000E+00 -0.11604129054E+04  0.11604129054E+04  0.25500000920E-02 0. -1.
    10030    2    1    2    0    0  0.00000000000E+00  0.00000000000E+00  0.22637845423E+03  0.25472042650E+04  0.25371248221E+04 0.  0.
        4    1    3    3  502    0 -0.69594776822E+03 -0.10529431147E+04  0.24103907650E+03  0.12849645708E+04  0.12699999809E+01 0. -1.
       -4    1    3    3    0  502  0.69594776822E+03  0.10529431147E+04 -0.14660622267E+02  0.12622396942E+04  0.12699999809E+01 0.  1.
</event>
<event>
 5   0  0.1025153E-05  0.2495001E+04  0.7818609E-02  0.8404769E-01
       -1   -1    0    0    0  501  0.00000000000E+00  0.00000000000E+00  0.14496798925E+04  0.14496798925E+04  0.50400001928E-02 0.  1.
        1   -1    0    0  501    0  0.00000000000E+00  0.00000000000E+00 -0.10735179552E+04  0.10735179552E+04  0.50400001928E-02 0. -1.
    10030    2    1    2    0    0  0.00000000000E+00  0.00000000000E+00  0.37616193727E+03  0.25231978478E+04  0.24950009170E+04 0.  0.
        1    1    3    3  502    0 -0.12308105864E+03  0.82514484688E+03 -0.74989460812E+03  0.11217641858E+04  0.50400001928E-02 0. -1.
       -1    1    3    3    0  502  0.12308105864E+03 -0.82514484688E+03  0.11260565454E+04  0.14014336619E+04  0.50400001928E-02 0.  1.
</event>
<event>
 5   0  0.2555801E-05  0.2217223E+04  0.7818609E-02  0.8511294E-01
        2   -1    0    0  501    0  0.00000000000E+00  0.00000000000E+00  0.92641780886E+03  0.92641780887E+03  0.25500000920E-02 0.  1.
       -2   -1    0    0    0  501  0.00000000000E+00  0.00000000000E+00 -0.13266363208E+04  0.13266363208E+04  0.25500000920E-02 0. -1.
    10030    2    1    2    0    0  0.00000000000E+00  0.00000000000E+00 -0.40021851191E+03  0.22530541296E+04  0.22172230501E+04 0.  0.
        1    1    3    3  502    0  0.22644015820E+03  0.42403880021E+03  0.81500159288E+03  0.94620909198E+03  0.50400001928E-02 0.  1.
       -1    1    3    3    0  502 -0.22644015820E+03 -0.42403880021E+03 -0.12152201048E+04  0.13068450377E+04  0.50400001928E-02 0. -1.
</event>
<event>
 5   0  0.1005492E-05  0.2628807E+04  0.7818609E-02  0.8358482E-01
        1   -1    0    0  501    0  0.00000000000E+00  0.00000000000E+00  0.15400930283E+04  0.15400930284E+04  0.50400001928E-02 0.  1.
       -1   -1    0    0    0  501  0.00000000000E+00  0.00000000000E+00 -0.11217869799E+04  0.11217869799E+04  0.50400001928E-02 0. -1.
    10030    2    1    2    0    0  0.00000000000E+00  0.00000000000E+00  0.41830604849E+03  0.26618800082E+04  0.26288068069E+04 0.  0.
        4    1    3    3  502    0  0.11531853196E+04  0.44299196155E+03 -0.24546817550E+03  0.12594977163E+04  0.12699999809E+01 0. -1.
       -4    1    3    3    0  502 -0.11531853196E+04 -0.44299196155E+03  0.66377422400E+03  0.14023822919E+04  0.12699999809E+01 0.  1.
</event>
<event>
 5   0  0.2484618E-05  0.2574261E+04  0.7818609E-02  0.8376997E-01
       -2   -1    0    0    0  501  0.00000000000E+00  0.00000000000E+00  0.22801190062E+04  0.22801190062E+04  0.25500000920E-02 0.  1.
        2   -1    0    0  501    0  0.00000000000E+00  0.00000000000E+00 -0.72658712259E+03  0.72658712259E+03  0.25500000920E-02 0. -1.
    10030    2    1    2    0    0  0.00000000000E+00  0.00000000000E+00  0.15535318836E+04  0.30067061288E+04  0.25742611429E+04 0.  0.
        3    1    3    3  502    0  0.69863885992E+03 -0.47357847910E+03 -0.35824695380E+03  0.91690442389E+03  0.10100000352E+00 0. -1.
       -3    1    3    3    0  502 -0.69863885992E+03  0.47357847910E+03  0.19117788374E+04  0.20898017049E+04  0.10100000352E+00 0.  1.
</event>
<event>
 5   0  0.1000421E-05  0.2636731E+04  0.7818609E-02  0.8355830E-01
        1   -1    0    0  501    0  0.00000000000E+00  0.00000000000E+00  0.20843210987E+04  0.20843210987E+04  0.50400001928E-02 0.  1.
       -1   -1    0    0    0  501  0.00000000000E+00  0.00000000000E+00 -0.83388697068E+03  0.83388697069E+03  0.50400001928E-02 0. -1.
    10030    2    1    2    0    0  0.00000000000E+00  0.00000000000E+00  0.12504341280E+04  0.29182080694E+04  0.26367314667E+04 0.  0.
        3    1    3    3  502    0 -0.24112945364E+01 -0.47373439262E+03  0.19868631677E+04  0.20425609774E+04  0.10100000352E+00 0.  1.
       -3    1    3    3    0  502  0.24112945364E+01  0.47373439262E+03 -0.73642903966E+03  0.87564709201E+03  0.10100000352E+00 0. -1.
</event>
<event>
 5   0  0.2555801E-05  0.2589217E+04  0.7818609E-02  0.8371873E-01
        2   -1    0    0  501    0  0.00000000000E+00  0.00000000000E+00  0.10116842317E+04  0.10116842317E+04  0.25500000920E-02 0. -1.
       -2   -1    0    0    0  501  0.00000000000E+00  0.00000000000E+00 -0.16566547757E+04  0.16566547757E+04  0.25500000920E-02 0.  1.
    10030    2    1    2    0    0  0.00000000000E+00  0.00000000000E+00 -0.64497054403E+03  0.26683390074E+04  0.25892172670E+04 0.  0.
        1    1    3    3  502    0 -0.25305174077E+03  0.35086667675E+03 -0.15799642702E+04  0.16381177319E+04  0.50400001928E-02 0.  1.
       -1    1    3    3    0  502  0.25305174077E+03 -0.35086667675E+03  0.93499372621E+03  0.10302212755E+04  0.50400001928E-02 0. -1.
</event>
<event>
 5   0  0.1005492E-05  0.2609058E+04  0.7818609E-02  0.8365131E-01
        1   -1    0    0  501    0  0.00000000000E+00  0.00000000000E+00  0.11346944869E+04  0.11346944869E+04  0.50400001928E-02 0.  1.
       -1   -1    0    0    0  501  0.00000000000E+00  0.00000000000E+00 -0.14997836795E+04  0.14997836795E+04  0.50400001928E-02 0. -1.
    10030    2    1    2    0    0  0.00000000000E+00  0.00000000000E+00 -0.36508919255E+03  0.26344781664E+04  0.26090582766E+04 0.  0.
        4    1    3    3  502    0  0.42713140783E+03 -0.55946502954E+03 -0.12915863638E+04  0.14709314419E+04  0.12699999809E+01 0. -1.
       -4    1    3    3    0  502 -0.42713140783E+03  0.55946502954E+03  0.92649717122E+03  0.11635467245E+04  0.12699999809E+01 0.  1.
</event>
<event>
 5   0  0.2484618E-05  0.2683173E+04  0.7818609E-02  0.8340485E-01
        2   -1    0    0  501    0  0.00000000000E+00  0.00000000000E+00  0.18854187308E+04  0.18854187308E+04  0.25500000920E-02 0.  1.
       -2   -1    0    0    0  501  0.00000000000E+00  0.00000000000E+00 -0.95461799077E+03  0.95461799078E+03  0.25500000920E-02 0. -1.
    10030    2    1    2    0    0  0.00000000000E+00  0.00000000000E+00  0.93080074006E+03  0.28400367216E+04  0.26831732263E+04 0.  0.
        3    1    3    3  502    0 -0.57764008640E+03 -0.12104896513E+04  0.49717830058E+03  0.14304333393E+04  0.10100000352E+00 0. -1.
       -3    1    3    3    0  502  0.57764008640E+03  0.12104896513E+04  0.43362243947E+03  0.14096033823E+04  0.10100000352E+00 0.  1.
</event>
<event>
 5   0  0.1005492E-05  0.2478673E+04  0.7818609E-02  0.8410623E-01
       -1   -1    0    0    0  501  0.00000000000E+00  0.00000000000E+00  0.10868587868E+04  0.10868587868E+04  0.50400001928E-02 0. -1.
        1   -1    0    0  501    0  0.00000000000E+00  0.00000000000E+00 -0.14132053428E+04  0.14132053428E+04  0.50400001928E-02 0.  1.
    10030    2    1    2    0    0  0.00000000000E+00  0.00000000000E+00 -0.32634655604E+03  0.25000641296E+04  0.24786727451E+04 0.  0.
        4    1    3    3  502    0 -0.35589007470E+03 -0.21251247359E+02  0.10340174928E+04  0.10937564396E+04  0.12699999809E+01 0. -1.
       -4    1    3    3    0  502  0.35589007470E+03  0.21251247359E+02 -0.13603640488E+04  0.14063076900E+04  0.12699999809E+01 0.  1.
</event>
<event>
 5   0  0.8605000E-06  0.2545465E+04  0.7818609E-02  0.8386965E-01
       -3   -1    0    0    0  501  0.00000000000E+00  0.00000000000E+00  0.18988330300E+04  0.18988330326E+04  0.10100000352E+00 0. -1.
        3   -1    0    0  501    0  0.00000000000E+00  0.00000000000E+00 -0.85307532232E+03  0.85307532830E+03  0.10100000352E+00 0.  1.
    10030    2    1    2    0    0  0.00000000000E+00  0.00000000000E+00  0.10457577076E+04  0.27519083609E+04  0.25454646813E+04 0.  0.
        2    1    3    3  502    0  0.11002980558E+04  0.41369923275E+03  0.10503469429E+04  0.15763982895E+04  0.25500000920E-02 0. -1.
       -2    1    3    3    0  502 -0.11002980558E+04 -0.41369923275E+03 -0.45892352397E+01  0.11755100714E+04  0.25500000920E-02 0.  1.
</event>
<event>
 5   0  0.1005492E-05  0.2572298E+04  0.7818609E-02  0.8377672E-01
        1   -1    0    0  501    0  0.00000000000E+00  0.00000000000E+00  0.98103831493E+03  0.98103831495E+03  0.50400001928E-02 0. -1.
       -1   -1    0    0    0  501  0.00000000000E+00  0.00000000000E+00 -0.16861517267E+04  0.16861517267E+04  0.50400001928E-02 0.  1.
    10030    2    1    2    0    0  0.00000000000E+00  0.00000000000E+00 -0.70511341172E+03  0.26671900416E+04  0.25722981543E+04 0.  0.
        4    1    3    3  502    0  0.21563292877E+03  0.71986748316E+03 -0.14348388879E+04  0.16197132463E+04  0.12699999809E+01 0.  1.
       -4    1    3    3    0  502 -0.21563292877E+03 -0.71986748316E+03  0.72972547613E+03  0.10474767953E+04  0.12699999809E+01 0. -1.
</event>
<event>
 5   0  0.1034714E-05  0.2650752E+04  0.7818609E-02  0.8351163E-01
        1   -1    0    0  501    0  0.00000000000E+00  0.00000000000E+00  0.16884298942E+04  0.16884298942E+04  0.50400001928E-02 0.  1.
       -1   -1    0    0    0  501  0.00000000000E+00  0.00000000000E+00 -0.10403877097E+04  0.10403877097E+04  0.50400001928E-02 0. -1.
    10030    2    1    2    0    0  0.00000000000E+00  0.00000000000E+00  0.64804218443E+03  0.27288176039E+04  0.26507521277E+04 0.  0.
        5    1    3    3  502    0 -0.69843633253E+03  0.10789911520E+04  0.65690846566E+03  0.14434632101E+04  0.46999998093E+01 0.  1.
       -5    1    3    3    0  502  0.69843633253E+03 -0.10789911520E+04 -0.88662812311E+01  0.12853543938E+04  0.46999998093E+01 0. -1.
</event>
<event>
 5   0  0.2662024E-05  0.2596353E+04  0.7818609E-02  0.8369441E-01
       -2   -1    0    0    0  501  0.00000000000E+00  0.00000000000E+00  0.15728306098E+04  0.15728306098E+04  0.25500000920E-02 0. -1.
        2   -1    0    0  501    0  0.00000000000E+00  0.00000000000E+00 -0.10714839043E+04  0.10714839043E+04  0.25500000920E-02 0.  1.
    10030    2    1    2    0    0  0.00000000000E+00  0.00000000000E+00  0.50134670553E+03  0.26443145141E+04  0.25963533523E+04 0.  0.
        2    1    3    3  502    0 -0.82477558519E+03 -0.91376061900E+03  0.67066139357E+03  0.14017845553E+04  0.25500000920E-02 0. -1.
       -2    1    3    3    0  502  0.82477558519E+03  0.91376061900E+03 -0.16931468804E+03  0.12425299587E+04  0.25500000920E-02 0.  1.
</event>
<event>
 5   0  0.2517854E-05  0.2565930E+04  0.7818609E-02  0.8379867E-01
       -2   -1    0    0    0  501  0.00000000000E+00  0.00000000000E+00  0.13508025841E+04  0.13508025841E+04  0.25500000920E-02 0. -1.
        2   -1    0    0  501    0  0.00000000000E+00  0.00000000000E+00 -0.12185346445E+04  0.12185346445E+04  0.25500000920E-02 0.  1.
    10030    2    1    2    0    0  0.00000000000E+00  0.00000000000E+00  0.13226793954E+03  0.25693372286E+04  0.25659304329E+04 0.  0.
        4    1    3    3  502    0 -0.46211043084E+03  0.96662883724E+03  0.77281937358E+03  0.13210483550E+04  0.12699999809E+01 0. -1.
       -4    1    3    3    0  502  0.46211043084E+03 -0.96662883724E+03 -0.64055143404E+03  0.12482888736E+04  0.12699999809E+01 0.  1.
</event>
<event>
 5   0  0.2528460E-05  0.2600094E+04  0.7818609E-02  0.8368169E-01
       -2   -1    0    0    0  501  0.00000000000E+00  0.00000000000E+00  0.16774309429E+04  0.16774309429E+04  0.25500000920E-02 0. -1.
        2   -1    0    0  501    0  0.00000000000E+00  0.00000000000E+00 -0.10075655685E+04  0.10075655685E+04  0.25500000920E-02 0.  1.
    10030    2    1    2    0    0  0.00000000000E+00  0.00000000000E+00  0.66986537447E+03  0.26849965114E+04  0.26000935842E+04 0.  0.
        5    1    3    3  502    0 -0.10161162497E+04 -0.39224060382E+03  0.10678656923E+04  0.15253537789E+04  0.46999998093E+01 0. -1.
       -5    1    3    3    0  502  0.10161162497E+04  0.39224060382E+03 -0.39800031781E+03  0.11596427325E+04  0.46999998093E+01 0.  1.
</event>
<event>
 5   0  0.2528460E-05  0.2615942E+04  0.7818609E-02  0.8362806E-01
       -2   -1    0    0    0  501  0.00000000000E+00  0.00000000000E+00  0.13058559597E+04  0.13058559597E+04  0.25500000920E-02 0. -1.
        2   -1    0    0  501    0  0.00000000000E+00  0.00000000000E+00 -0.13100898362E+04  0.13100898362E+04  0.25500000920E-02 0.  1.
    10030    2    1    2    0    0  0.00000000000E+00  0.00000000000E+00 -0.42338765297E+01  0.26159457959E+04  0.26159423696E+04 0.  0.
        5    1    3    3  502    0 -0.35505848375E+03  0.91882176945E+03  0.85838785491E+03  0.13065801814E+04  0.46999998093E+01 0. -1.
       -5    1    3    3    0  502  0.35505848375E+03 -0.91882176945E+03 -0.86262173144E+03  0.13093656145E+04  0.46999998093E+01 0.  1.
</event>
<event>
 5   0  0.1005492E-05  0.2564047E+04  0.7818609E-02  0.8380517E-01
        1   -1    0    0  501    0  0.00000000000E+00  0.00000000000E+00  0.16159169740E+04  0.16159169741E+04  0.50400001928E-02 0.  1.
       -1   -1    0    0    0  501  0.00000000000E+00  0.00000000000E+00 -0.10171214647E+04  0.10171214648E+04  0.50400001928E-02 0. -1.
    10030    2    1    2    0    0  0.00000000000E+00  0.00000000000E+00  0.59879550931E+03  0.26330384388E+04  0.25640466763E+04 0.  0.
        4    1    3    3  502    0  0.11051549843E+04  0.25799513403E+03  0.91181107968E+03  0.14557919104E+04  0.12699999809E+01 0.  1.
       -4    1    3    3    0  502 -0.11051549843E+04 -0.25799513403E+03 -0.31301557038E+03  0.11772465284E+04  0.12699999809E+01 0. -1.
</event>
<event>
 5   0  0.1025153E-05  0.2612830E+04  0.7818609E-02  0.8363856E-01
       -1   -1    0    0    0  501  0.00000000000E+00  0.00000000000E+00  0.14577596309E+04  0.14577596310E+04  0.50400001928E-02 0.  1.
        1   -1    0    0  501    0  0.00000000000E+00  0.00000000000E+00 -0.11707827541E+04  0.11707827541E+04  0.50400001928E-02 0. -1.
    10030    2    1    2    0    0  0.00000000000E+00  0.00000000000E+00  0.28697687685E+03  0.26285423851E+04  0.26128297576E+04 0.  0.
        1    1    3    3  502    0 -0.63581359116E+02 -0.57671575827E+03 -0.10340530802E+04  0.11857105160E+04  0.50400001928E-02 0. -1.
       -1    1    3    3    0  502  0.63581359116E+02  0.57671575827E+03  0.13210299570E+04  0.14428318691E+04  0.50400001928E-02 0.  1.
</event>
<event>
 5   0  0.2484618E-05  0.2671804E+04  0.7818609E-02  0.8344212E-01
        2   -1    0    0  501    0  0.00000000000E+00  0.00000000000E+00  0.12484460948E+04  0.12484460948E+04  0.25500000920E-02 0. -1.
       -2   -1    0    0    0  501  0.00000000000E+00  0.00000000000E+00 -0.14294847563E+04  0.14294847563E+04  0.25500000920E-02 0.  1.
    10030    2    1    2    0    0  0.00000000000E+00  0.00000000000E+00 -0.18103866156E+03  0.26779308511E+04  0.26718043803E+04 0.  0.
        3    1    3    3  502    0  0.12514840590E+04  0.21487050406E+03  0.32546604006E+03  0.13108431778E+04  0.10100000352E+00 0. -1.
       -3    1    3    3    0  502 -0.12514840590E+04 -0.21487050406E+03 -0.50650470161E+03  0.13670876733E+04  0.10100000352E+00 0.  1.
</event>
<event>
 5   0  0.2555801E-05  0.2580009E+04  0.7818609E-02  0.8375024E-01
        2   -1    0    0  501    0  0.00000000000E+00  0.00000000000E+00  0.17907679559E+04  0.17907679559E+04  0.25500000920E-02 0. -1.
       -2   -1    0    0    0  501  0.00000000000E+00  0.00000000000E+00 -0.92927233724E+03  0.92927233724E+03  0.25500000920E-02 0.  1.
    10030    2    1    2    0    0  0.00000000000E+00  0.00000000000E+00  0.86149561868E+03  0.27200402932E+04  0.25800086231E+04 0.  0.
        1    1    3    3  502    0  0.56921603260E+03 -0.78277676615E+03 -0.46839838399E+03  0.10752410909E+04  0.50400001928E-02 0.  1.
       -1    1    3    3    0  502 -0.56921603260E+03  0.78277676615E+03  0.13298940027E+04  0.16447992023E+04  0.50400001928E-02 0. -1.
</event>
<event>
 5   0  0.2528460E-05  0.2595070E+04  0.7818609E-02  0.8369878E-01
       -2   -1    0    0    0  501  0.00000000000E+00  0.00000000000E+00  0.68451706537E+03  0.68451706537E+03  0.25500000920E-02 0. -1.
        2   -1    0    0  501    0  0.00000000000E+00  0.00000000000E+00 -0.24595395145E+04  0.24595395145E+04  0.25500000920E-02 0.  1.
    10030    2    1    2    0    0  0.00000000000E+00  0.00000000000E+00 -0.17750224491E+04  0.31440565799E+04  0.25950697645E+04 0.  0.
        5    1    3    3  502    0  0.10437904306E+04  0.40753957624E+03 -0.94905937391E+02  0.11245515533E+04  0.46999998093E+01 0. -1.
       -5    1    3    3    0  502 -0.10437904306E+04 -0.40753957624E+03 -0.16801165117E+04  0.20195050265E+04  0.46999998093E+01 0.  1.
</event>
<event>
 5   0  0.1000421E-05  0.2555363E+04  0.7818609E-02  0.8383523E-01
        1   -1    0    0  501    0  0.00000000000E+00  0.00000000000E+00  0.12065017583E+04  0.12065017583E+04  0.50400001928E-02 0. -1.
       -1   -1    0    0    0  501  0.00000000000E+00  0.00000000000E+00 -0.13530608319E+04  0.13530608319E+04  0.50400001928E-02 0.  1.
    10030    2    1    2    0    0  0.00000000000E+00  0.00000000000E+00 -0.14655907364E+03  0.25595625902E+04  0.25553632014E+04 0.  0.
        3    1    3    3  502    0 -0.15618098810E+02 -0.12602985410E+04  0.13652571850E+03  0.12677679675E+04  0.10100000352E+00 0. -1.
       -3    1    3    3    0  502  0.15618098810E+02  0.12602985410E+04 -0.28308479214E+03  0.12917946227E+04  0.10100000352E+00 0.  1.
</event>
<event>
 5   0  0.2662024E-05  0.2646792E+04  0.7818609E-02  0.8352479E-01
       -2   -1    0    0    0  501  0.00000000000E+00  0.00000000000E+00  0.13442140716E+04  0.13442140716E+04  0.25500000920E-02 0. -1.
        2   -1    0    0  501    0  0.00000000000E+00  0.00000000000E+00 -0.13028999654E+04  0.13028999654E+04  0.25500000920E-02 0.  1.
    10030    2    1    2    0    0  0.00000000000E+00  0.00000000000E+00  0.41314106175E+02  0.26471140370E+04  0.26467916181E+04 0.  0.
        2    1    3    3  502    0  0.72301335779E+03  0.77313615682E+03 -0.77372468614E+03  0.13111589234E+04  0.25500000920E-02 0.  1.
       -2    1    3    3    0  502 -0.72301335779E+03 -0.77313615682E+03  0.81503879231E+03  0.13359551136E+04  0.25500000920E-02 0. -1.
</event>
<event>
 5   0  0.1025153E-05  0.2611290E+04  0.7818609E-02  0.8364376E-01
       -1   -1    0    0    0  501  0.00000000000E+00  0.00000000000E+00  0.92361669541E+03  0.92361669543E+03  0.50400001928E-02 0.  1.
        1   -1    0    0  501    0  0.00000000000E+00  0.00000000000E+00 -0.18456886403E+04  0.18456886403E+04  0.50400001928E-02 0. -1.
    10030    2    1    2    0    0  0.00000000000E+00  0.00000000000E+00 -0.92207194485E+03  0.27693053357E+04  0.26112899821E+04 0.  0.
        1    1    3    3  502    0  0.74829261763E+03  0.78563672985E+03  0.30923624125E+03  0.11281817078E+04  0.50400001928E-02 0.  1.
       -1    1    3    3    0  502 -0.74829261763E+03 -0.78563672985E+03 -0.12313081861E+04  0.16411236279E+04  0.50400001928E-02 0. -1.
</event>
<event>
 5   0  0.2484618E-05  0.2604329E+04  0.7818609E-02  0.8366732E-01
       -2   -1    0    0    0  501  0.00000000000E+00  0.00000000000E+00  0.15305296542E+04  0.15305296542E+04  0.25500000920E-02 0. -1.
        2   -1    0    0  501    0  0.00000000000E+00  0.00000000000E+00 -0.11078732196E+04  0.11078732196E+04  0.25500000920E-02 0.  1.
    10030    2    1    2    0    0  0.00000000000E+00  0.00000000000E+00  0.42265643465E+03  0.26384028738E+04  0.26043293307E+04 0.  0.
        3    1    3    3  502    0  0.60873085568E+03  0.43947371931E+03 -0.86651941817E+03  0.11465366618E+04  0.10100000352E+00 0.  1.
       -3    1    3    3    0  502 -0.60873085568E+03 -0.43947371931E+03  0.12891758528E+04  0.14918662119E+04  0.10100000352E+00 0. -1.
</event>
<event>
 5   0  0.2662024E-05  0.2582536E+04  0.7818609E-02  0.8374158E-01
       -2   -1    0    0    0  501  0.00000000000E+00  0.00000000000E+00  0.74746138534E+03  0.74746138534E+03  0.25500000920E-02 0. -1.
        2   -1    0    0  501    0  0.00000000000E+00  0.00000000000E+00 -0.22307150939E+04  0.22307150939E+04  0.25500000920E-02 0.  1.
    10030    2    1    2    0    0  0.00000000000E+00  0.00000000000E+00 -0.14832537085E+04  0.29781764792E+04  0.25825362684E+04 0.  0.
        2    1    3    3  502    0 -0.64291878273E+03  0.10813155369E+04 -0.40583906232E+03  0.13218521839E+04  0.25500000920E-02 0. -1.
       -2    1    3    3    0  502  0.64291878273E+03 -0.10813155369E+04 -0.10774146462E+04  0.16563242953E+04  0.25500000920E-02 0.  1.
</event>
<event>
 5   0  0.1025153E-05  0.2589733E+04  0.7818609E-02  0.8371697E-01
        1   -1    0    0  501    0  0.00000000000E+00  0.00000000000E+00  0.20355226672E+04  0.20355226672E+04  0.50400001928E-02 0. -1.
       -1   -1    0    0    0  501  0.00000000000E+00  0.00000000000E+00 -0.82370962653E+03  0.82370962654E+03  0.50400001928E-02 0.  1.
    10030    2    1    2    0    0  0.00000000000E+00  0.00000000000E+00  0.12118130406E+04  0.28592322937E+04  0.25897332805E+04 0.  0.
        1    1    3    3  502    0  0.74943312673E+03  0.11402618859E+03 -0.55311271758E+03  0.93839525867E+03  0.50400001928E-02 0.  1.
       -1    1    3    3    0  502 -0.74943312673E+03 -0.11402618859E+03  0.17649257582E+04  0.19208370350E+04  0.50400001928E-02 0. -1.
</event>
<event>
 5   0  0.2528460E-05  0.2599969E+04  0.7818609E-02  0.8368212E-01
       -2   -1    0    0    0  501  0.00000000000E+00  0.00000000000E+00  0.87621933624E+03  0.87621933625E+03  0.25500000920E-02 0.  1.
        2   -1    0    0  501    0  0.00000000000E+00  0.00000000000E+00 -0.19286951118E+04  0.19286951118E+04  0.25500000920E-02 0. -1.
    10030    2    1    2    0    0  0.00000000000E+00  0.00000000000E+00 -0.10524757756E+04  0.28049144481E+04  0.25999691927E+04 0.  0.
        5    1    3    3  502    0  0.60517220008E+03  0.38015695786E+02 -0.17667749069E+04  0.18679385018E+04  0.46999998093E+01 0. -1.
       -5    1    3    3    0  502 -0.60517220008E+03 -0.38015695786E+02  0.71429913132E+03  0.93697594627E+03  0.46999998093E+01 0.  1.
</event>
<event>
 5   0  0.2662024E-05  0.2591877E+04  0.7818609E-02  0.8370966E-01
       -2   -1    0    0    0  501  0.00000000000E+00  0.00000000000E+00  0.12235174807E+04  0.12235174807E+04  0.25500000920E-02 0. -1.
        2   -1    0    0  501    0  0.00000000000E+00  0.00000000000E+00 -0.13726457444E+04  0.13726457444E+04  0.25500000920E-02 0.  1.
    10030    2    1    2    0    0  0.00000000000E+00  0.00000000000E+00 -0.14912826379E+03  0.25961632251E+04  0.25918765889E+04 0.  0.
        2    1    3    3  502    0 -0.29336843904E+03 -0.68631807072E+03 -0.11357305072E+04  0.13590369090E+04  0.25500000920E-02 0.  1.
       -2    1    3    3    0  502  0.29336843904E+03  0.68631807072E+03  0.98660224338E+03  0.12371263161E+04  0.25500000920E-02 0. -1.
</event>
<event>
 5   0  0.2528460E-05  0.2586292E+04  0.7818609E-02  0.8372872E-01
       -2   -1    0    0    0  501  0.00000000000E+00  0.00000000000E+00  0.11837204134E+04  0.11837204134E+04  0.25500000920E-02 0. -1.
        2   -1    0    0  501    0  0.00000000000E+00  0.00000000000E+00 -0.14126875460E+04  0.14126875460E+04  0.25500000920E-02 0.  1.
    10030    2    1    2    0    0  0.00000000000E+00  0.00000000000E+00 -0.22896713255E+03  0.25964079594E+04  0.25862923934E+04 0.  0.
        5    1    3    3  502    0  0.83144905335E+03  0.25255801749E+03  0.84692165704E+03  0.12134213875E+04  0.46999998093E+01 0. -1.
       -5    1    3    3    0  502 -0.83144905335E+03 -0.25255801749E+03 -0.10758887896E+04  0.13829865719E+04  0.46999998093E+01 0.  1.
</event>
<event>
 5   0  0.1025153E-05  0.2461892E+04  0.7818609E-02  0.8416689E-01
       -1   -1    0    0    0  501  0.00000000000E+00  0.00000000000E+00  0.15423691369E+04  0.15423691369E+04  0.50400001928E-02 0. -1.
        1   -1    0    0  501    0  0.00000000000E+00  0.00000000000E+00 -0.98240262969E+03  0.98240262971E+03  0.50400001928E-02 0.  1.
    10030    2    1    2    0    0  0.00000000000E+00  0.00000000000E+00  0.55996650720E+03  0.25247717666E+04  0.24618915460E+04 0.  0.
        1    1    3    3  502    0  0.20508129255E+03 -0.48547567891E+03  0.14208180141E+04  0.15154104397E+04  0.50400001928E-02 0. -1.
       -1    1    3    3    0  502 -0.20508129255E+03  0.48547567891E+03 -0.86085150692E+03  0.10093613270E+04  0.50400001928E-02 0.  1.
</event>
<event>
 5   0  0.2517854E-05  0.2634684E+04  0.7818609E-02  0.8356514E-01
       -2   -1    0    0    0  501  0.00000000000E+00  0.00000000000E+00  0.98570570441E+03  0.98570570442E+03  0.25500000920E-02 0. -1.
        2   -1    0    0  501    0  0.00000000000E+00  0.00000000000E+00 -0.17605563227E+04  0.17605563227E+04  0.25500000920E-02 0.  1.
    10030    2    1    2    0    0  0.00000000000E+00  0.00000000000E+00 -0.77485061829E+03  0.27462620271E+04  0.26346843532E+04 0.  0.
        4    1    3    3  502    0 -0.30057314640E+01  0.32064023454E+03 -0.17192566564E+04  0.17489037303E+04  0.12699999809E+01 0.  1.
       -4    1    3    3    0  502  0.30057314640E+01 -0.32064023454E+03  0.94440603813E+03  0.99735829679E+03  0.12699999809E+01 0. -1.
</event>
<event>
 5   0  0.2484618E-05  0.2571293E+04  0.7818609E-02  0.8378018E-01
       -2   -1    0    0    0  501  0.00000000000E+00  0.00000000000E+00  0.86412258812E+03  0.86412258812E+03  0.25500000920E-02 0. -1.
        2   -1    0    0  501    0  0.00000000000E+00  0.00000000000E+00 -0.19127924147E+04  0.19127924147E+04  0.25500000920E-02 0.  1.
    10030    2    1    2    0    0  0.00000000000E+00  0.00000000000E+00 -0.10486698266E+04  0.27769150028E+04  0.25712931625E+04 0.  0.
        3    1    3    3  502    0  0.99008991115E+02 -0.74305008861E+03  0.60368193448E+03  0.96247498810E+03  0.10100000352E+00 0. -1.
       -3    1    3    3    0  502 -0.99008991115E+02  0.74305008861E+03 -0.16523517610E+04  0.18144400147E+04  0.10100000352E+00 0.  1.
</event>
<event>
 5   0  0.2528460E-05  0.2600541E+04  0.7818609E-02  0.8368017E-01
       -2   -1    0    0    0  501  0.00000000000E+00  0.00000000000E+00  0.57831978770E+03  0.57831978771E+03  0.25500000920E-02 0. -1.
        2   -1    0    0  501    0  0.00000000000E+00  0.00000000000E+00 -0.29234748888E+04  0.29234748888E+04  0.25500000920E-02 0.  1.
    10030    2    1    2    0    0  0.00000000000E+00  0.00000000000E+00 -0.23451551011E+04  0.35017946765E+04  0.26005410030E+04 0.  0.
        5    1    3    3  502    0 -0.85578402173E+03  0.34834100495E+03 -0.24044984883E+04  0.25759159182E+04  0.46999998093E+01 0.  1.
       -5    1    3    3    0  502  0.85578402173E+03 -0.34834100495E+03  0.59343387126E+02  0.92587875835E+03  0.46999998093E+01 0. -1.
</event>
<event>
 5   0  0.2484618E-05  0.2580309E+04  0.7818609E-02  0.8374921E-01
        2   -1    0    0  501    0  0.00000000000E+00  0.00000000000E+00  0.13589192494E+04  0.13589192494E+04  0.25500000920E-02 0. -1.
       -2   -1    0    0    0  501  0.00000000000E+00  0.00000000000E+00 -0.12248696411E+04  0.12248696411E+04  0.25500000920E-02 0.  1.
    10030    2    1    2    0    0  0.00000000000E+00  0.00000000000E+00  0.13404960825E+03  0.25837888905E+04  0.25803092321E+04 0.  0.
        3    1    3    3  502    0  0.43589465964E+03  0.85007992797E+03 -0.80124248219E+03  0.12468478511E+04  0.10100000352E+00 0.  1.
       -3    1    3    3    0  502 -0.43589465964E+03 -0.85007992797E+03  0.93529209044E+03  0.13369410394E+04  0.10100000352E+00 0. -1.
</event>
<event>
 5   0  0.1000421E-05  0.2543494E+04  0.7818609E-02  0.8387653E-01
        1   -1    0    0  501    0  0.00000000000E+00  0.00000000000E+00  0.11494573568E+04  0.11494573568E+04  0.50400001928E-02 0. -1.
       -1   -1    0    0    0  501  0.00000000000E+00  0.00000000000E+00 -0.14070464194E+04  0.14070464194E+04  0.50400001928E-02 0.  1.
    10030    2    1    2    0    0  0.00000000000E+00  0.00000000000E+00 -0.25758906258E+03  0.25565037763E+04  0.25434935488E+04 0.  0.
        3    1    3    3  502    0 -0.11647365202E+04  0.39648275832E+03  0.19461225849E+03  0.12456659586E+04  0.10100000352E+00 0. -1.
       -3    1    3    3    0  502  0.11647365202E+04 -0.39648275832E+03 -0.45220132107E+03  0.13108378176E+04  0.10100000352E+00 0.  1.
</event>
<event>
 5   0  0.1000421E-05  0.2588054E+04  0.7818609E-02  0.8372270E-01
       -1   -1    0    0    0  501  0.00000000000E+00  0.00000000000E+00  0.10336061313E+04  0.10336061313E+04  0.50400001928E-02 0. -1.
        1   -1    0    0  501    0  0.00000000000E+00  0.00000000000E+00 -0.16200616963E+04  0.16200616963E+04  0.50400001928E-02 0.  1.
    10030    2    1    2    0    0  0.00000000000E+00  0.00000000000E+00 -0.58645556497E+03  0.26536678276E+04  0.25880538653E+04 0.  0.
        3    1    3    3  502    0  0.63250413128E+03 -0.88751640975E+03  0.42214130783E+03  0.11687386995E+04  0.10100000352E+00 0. -1.
       -3    1    3    3    0  502 -0.63250413128E+03  0.88751640975E+03 -0.10085968728E+04  0.14849291282E+04  0.10100000352E+00 0.  1.
</event>
<event>
 5   0  0.2517854E-05  0.2021247E+04  0.7818609E-02  0.8596751E-01
       -2   -1    0    0    0  501  0.00000000000E+00  0.00000000000E+00  0.13194305199E+04  0.13194305199E+04  0.25500000920E-02 0. -1.
        2   -1    0    0  501    0  0.00000000000E+00  0.00000000000E+00 -0.77409109135E+03  0.77409109135E+03  0.25500000920E-02 0.  1.
    10030    2    1    2    0    0  0.00000000000E+00  0.00000000000E+00  0.54533942858E+03  0.20935216113E+04  0.20212465571E+04 0.  0.
        4    1    3    3  502    0  0.36191031752E+02  0.71092534091E+03  0.10157008992E+04  0.12403122835E+04  0.12699999809E+01 0. -1.
       -4    1    3    3    0  502 -0.36191031752E+02 -0.71092534091E+03 -0.47036147058E+03  0.85320932779E+03  0.12699999809E+01 0.  1.
</event>
<event>
 5   0  0.1034714E-05  0.2642307E+04  0.7818609E-02  0.8353971E-01
        1   -1    0    0  501    0  0.00000000000E+00  0.00000000000E+00  0.16234858817E+04  0.16234858817E+04  0.50400001928E-02 0. -1.
       -1   -1    0    0    0  501  0.00000000000E+00  0.00000000000E+00 -0.10751225874E+04  0.10751225875E+04  0.50400001928E-02 0.  1.
    10030    2    1    2    0    0  0.00000000000E+00  0.00000000000E+00  0.54836329422E+03  0.26986084691E+04  0.26423068268E+04 0.  0.
        5    1    3    3  502    0  0.31459988942E+03 -0.60583409360E+03  0.14293959491E+04  0.15840463720E+04  0.46999998093E+01 0. -1.
       -5    1    3    3    0  502 -0.31459988942E+03  0.60583409360E+03 -0.88103265487E+03  0.11145620971E+04  0.46999998093E+01 0.  1.
</event>
<event>
 5   0  0.8605000E-06  0.2552105E+04  0.7818609E-02  0.8384654E-01
       -3   -1    0    0    0  501  0.00000000000E+00  0.00000000000E+00  0.10498843472E+04  0.10498843521E+04  0.10100000352E+00 0. -1.
        3   -1    0    0  501    0  0.00000000000E+00  0.00000000000E+00 -0.15509426049E+04  0.15509426081E+04  0.10100000352E+00 0.  1.
    10030    2    1    2    0    0  0.00000000000E+00  0.00000000000E+00 -0.50105825763E+03  0.26008269602E+04  0.25521053073E+04 0.  0.
        5    1    3    3  502    0  0.51384168637E+03 -0.20155991593E+03  0.92192521521E+03  0.10745361189E+04  0.46999998093E+01 0. -1.
       -5    1    3    3    0  502 -0.51384168637E+03  0.20155991593E+03 -0.14229834728E+04  0.15262908413E+04  0.46999998093E+01 0.  1.
</event>
<event>
 5   0  0.1000421E-05  0.2621206E+04  0.7818609E-02  0.8361033E-01
        1   -1    0    0  501    0  0.00000000000E+00  0.00000000000E+00  0.18417663791E+04  0.18417663791E+04  0.50400001928E-02 0.  1.
       -1   -1    0    0    0  501  0.00000000000E+00  0.00000000000E+00 -0.93262657866E+03  0.93262657867E+03  0.50400001928E-02 0. -1.
    10030    2    1    2    0    0  0.00000000000E+00  0.00000000000E+00  0.90913980042E+03  0.27743929578E+04  0.26212060406E+04 0.  0.
        3    1    3    3  502    0 -0.88767766381E+01  0.31120405428E+03 -0.89291931574E+03  0.94563823695E+03  0.10100000352E+00 0. -1.
       -3    1    3    3    0  502  0.88767766381E+01 -0.31120405428E+03  0.18020591162E+04  0.18287547208E+04  0.10100000352E+00 0.  1.
</event>
<event>
 5   0  0.8605000E-06  0.2586730E+04  0.7818609E-02  0.8372723E-01
       -3   -1    0    0    0  501  0.00000000000E+00  0.00000000000E+00  0.13003382353E+04  0.13003382392E+04  0.10100000352E+00 0.  1.
        3   -1    0    0  501    0  0.00000000000E+00  0.00000000000E+00 -0.12864289369E+04  0.12864289409E+04  0.10100000352E+00 0. -1.
    10030    2    1    2    0    0  0.00000000000E+00  0.00000000000E+00  0.13909298381E+02  0.25867671801E+04  0.25867297840E+04 0.  0.
        4    1    3    3  502    0 -0.95357954457E+03 -0.26838027060E+03  0.83850092335E+03  0.12978548951E+04  0.12699999809E+01 0.  1.
       -4    1    3    3    0  502  0.95357954457E+03  0.26838027060E+03 -0.82459162497E+03  0.12889122850E+04  0.12699999809E+01 0. -1.
</event>
<event>
 5   0  0.1000421E-05  0.2616557E+04  0.7818609E-02  0.8362599E-01
        1   -1    0    0  501    0  0.00000000000E+00  0.00000000000E+00  0.10515705881E+04  0.10515705881E+04  0.50400001928E-02 0.  1.
       -1   -1    0    0    0  501  0.00000000000E+00  0.00000000000E+00 -0.16276536267E+04  0.16276536267E+04  0.50400001928E-02 0. -1.
    10030    2    1    2    0    0  0.00000000000E+00  0.00000000000E+00 -0.57608303862E+03  0.26792242148E+04  0.26165570366E+04 0.  0.
        3    1    3    3  502    0 -0.57300137446E+03 -0.91591279233E+03  0.46744077591E+03  0.11771693623E+04  0.10100000352E+00 0.  1.
       -3    1    3    3    0  502  0.57300137446E+03  0.91591279233E+03 -0.10435238145E+04  0.15020548525E+04  0.10100000352E+00 0. -1.
</event>
<event>
 5   0  0.2555801E-05  0.2661555E+04  0.7818609E-02  0.8347588E-01
       -2   -1    0    0    0  501  0.00000000000E+00  0.00000000000E+00  0.13829363819E+04  0.13829363819E+04  0.25500000920E-02 0.  1.
        2   -1    0    0  501    0  0.00000000000E+00  0.00000000000E+00 -0.12805862775E+04  0.12805862775E+04  0.25500000920E-02 0. -1.
    10030    2    1    2    0    0  0.00000000000E+00  0.00000000000E+00  0.10235010440E+03  0.26635226594E+04  0.26615554499E+04 0.  0.
        1    1    3    3  502    0  0.25162592008E+03  0.12655916411E+04  0.37688688475E+03  0.13442773261E+04  0.50400001928E-02 0.  1.
       -1    1    3    3    0  502 -0.25162592008E+03 -0.12655916411E+04 -0.27453678035E+03  0.13192453333E+04  0.50400001928E-02 0. -1.
</event>
<event>
 5   0  0.9855352E-06  0.2659009E+04  0.7818609E-02  0.8348429E-01
        1   -1    0    0  501    0  0.00000000000E+00  0.00000000000E+00  0.12402876792E+04  0.12402876792E+04  0.50400001928E-02 0.  1.
       -1   -1    0    0    0  501  0.00000000000E+00  0.00000000000E+00 -0.14251394193E+04  0.14251394193E+04  0.50400001928E-02 0. -1.
    10030    2    1    2    0    0  0.00000000000E+00  0.00000000000E+00 -0.18485174007E+03  0.26654270986E+04  0.26590094870E+04 0.  0.
        2    1    3    3  502    0 -0.96235886112E+03  0.30834613808E+03 -0.95843861622E+03  0.13927729533E+04  0.25500000920E-02 0. -1.
       -2    1    3    3    0  502  0.96235886112E+03 -0.30834613808E+03  0.77358687614E+03  0.12726541452E+04  0.25500000920E-02 0.  1.
</event>
<event>
 5   0  0.1000421E-05  0.2587240E+04  0.7818609E-02  0.8372548E-01
        1   -1    0    0  501    0  0.00000000000E+00  0.00000000000E+00  0.18255234705E+04  0.18255234705E+04  0.50400001928E-02 0.  1.
       -1   -1    0    0    0  501  0.00000000000E+00  0.00000000000E+00 -0.91669759382E+03  0.91669759384E+03  0.50400001928E-02 0. -1.
    10030    2    1    2    0    0  0.00000000000E+00  0.00000000000E+00  0.90882587672E+03  0.27422210644E+04  0.25872402076E+04 0.  0.
        3    1    3    3  502    0 -0.59747008406E+03  0.10525917081E+04 -0.29595875510E+02  0.12107005126E+04  0.10100000352E+00 0. -1.
       -3    1    3    3    0  502  0.59747008406E+03 -0.10525917081E+04  0.93842175223E+03  0.15315205518E+04  0.10100000352E+00 0.  1.
</event>
<event>
 5   0  0.9855352E-06  0.2583288E+04  0.7818609E-02  0.8373900E-01
        1   -1    0    0  501    0  0.00000000000E+00  0.00000000000E+00  0.29435214525E+04  0.29435214525E+04  0.50400001928E-02 0.  1.
       -1   -1    0    0    0  501  0.00000000000E+00  0.00000000000E+00 -0.56678535509E+03  0.56678535512E+03  0.50400001928E-02 0. -1.
    10030    2    1    2    0    0  0.00000000000E+00  0.00000000000E+00  0.23767360974E+04  0.35103068076E+04  0.25832884870E+04 0.  0.
        2    1    3    3  502    0  0.62265781961E+03 -0.24778430980E+03  0.26888047007E+04  0.27710594622E+04  0.25500000920E-02 0.  1.
       -2    1    3    3    0  502 -0.62265781961E+03  0.24778430980E+03 -0.31206860331E+03  0.73924734541E+03  0.25500000920E-02 0. -1.
</event>
<event>
 5   0  0.1000421E-05  0.2586042E+04  0.7818609E-02  0.8372958E-01
       -1   -1    0    0    0  501  0.00000000000E+00  0.00000000000E+00  0.93332652280E+03  0.93332652282E+03  0.50400001928E-02 0.  1.
        1   -1    0    0  501    0  0.00000000000E+00  0.00000000000E+00 -0.17913373961E+04  0.17913373961E+04  0.50400001928E-02 0. -1.
    10030    2    1    2    0    0  0.00000000000E+00  0.00000000000E+00 -0.85801087329E+03  0.27246639189E+04  0.25860415334E+04 0.  0.
        3    1    3    3  502    0  0.32925208502E+03 -0.37485522819E+03 -0.16858360156E+04  0.17581144613E+04  0.10100000352E+00 0. -1.
       -3    1    3    3    0  502 -0.32925208502E+03  0.37485522819E+03  0.82782514227E+03  0.96654945758E+03  0.10100000352E+00 0.  1.
</event>
<event>
 5   0  0.2528460E-05  0.2609781E+04  0.7818609E-02  0.8364886E-01
        2   -1    0    0  501    0  0.00000000000E+00  0.00000000000E+00  0.19592460186E+04  0.19592460186E+04  0.25500000920E-02 0. -1.
       -2   -1    0    0    0  501  0.00000000000E+00  0.00000000000E+00 -0.86907914991E+03  0.86907914991E+03  0.25500000920E-02 0.  1.
    10030    2    1    2    0    0  0.00000000000E+00  0.00000000000E+00  0.10901668687E+04  0.28283251685E+04  0.26097814961E+04 0.  0.
        5    1    3    3  502    0  0.39459054711E+03  0.82716316513E+03  0.15517475341E+04  0.18021773223E+04  0.46999998093E+01 0. -1.
       -5    1    3    3    0  502 -0.39459054711E+03 -0.82716316513E+03 -0.46158066537E+03  0.10261478462E+04  0.46999998093E+01 0.  1.
</event>
<event>
 5   0  0.2555801E-05  0.2620194E+04  0.7818609E-02  0.8361374E-01
        2   -1    0    0  501    0  0.00000000000E+00  0.00000000000E+00  0.21816544526E+04  0.21816544526E+04  0.25500000920E-02 0.  1.
       -2   -1    0    0    0  501  0.00000000000E+00  0.00000000000E+00 -0.78672159972E+03  0.78672159972E+03  0.25500000920E-02 0. -1.
    10030    2    1    2    0    0  0.00000000000E+00  0.00000000000E+00  0.13949328528E+04  0.29683760523E+04  0.26201944057E+04 0.  0.
        1    1    3    3  502    0  0.11286441451E+03 -0.44519708952E+03 -0.69252988311E+03  0.83098523669E+03  0.50400001928E-02 0. -1.
       -1    1    3    3    0  502 -0.11286441451E+03  0.44519708952E+03  0.20874627359E+04  0.21373908156E+04  0.50400001928E-02 0.  1.
</event>
<event>
 5   0  0.1025153E-05  0.2598163E+04  0.7818609E-02  0.8368825E-01
        1   -1    0    0  501    0  0.00000000000E+00  0.00000000000E+00  0.21014763198E+04  0.21014763198E+04  0.50400001928E-02 0.  1.
       -1   -1    0    0    0  501  0.00000000000E+00  0.00000000000E+00 -0.80306073016E+03  0.80306073017E+03  0.50400001928E-02 0. -1.
    10030    2    1    2    0    0  0.00000000000E+00  0.00000000000E+00  0.12984155897E+04  0.29045370500E+04  0.25981632804E+04 0.  0.
        1    1    3    3  502    0  0.10527645918E+04 -0.49826028904E+03  0.60042560943E+01  0.11647371602E+04  0.50400001928E-02 0. -1.
       -1    1    3    3    0  502 -0.10527645918E+04  0.49826028904E+03  0.12924113336E+04  0.17397998898E+04  0.50400001928E-02 0.  1.
</event>
<event>
 5   0  0.2662024E-05  0.2178621E+04  0.7818609E-02  0.8527379E-01
        2   -1    0    0  501    0  0.00000000000E+00  0.00000000000E+00  0.95661637861E+03  0.95661637861E+03  0.25500000920E-02 0.  1.
       -2   -1    0    0    0  501  0.00000000000E+00  0.00000000000E+00 -0.12404112669E+04  0.12404112669E+04  0.25500000920E-02 0. -1.
    10030    2    1    2    0    0  0.00000000000E+00  0.00000000000E+00 -0.28379488827E+03  0.21970276455E+04  0.21786213385E+04 0.  0.
        2    1    3    3  502    0 -0.10858944145E+04  0.13467371818E+02 -0.22776188101E+03  0.11096051207E+04  0.25500000920E-02 0. -1.
       -2    1    3    3    0  502  0.10858944145E+04 -0.13467371818E+02 -0.56033007263E+02  0.10874225248E+04  0.25500000920E-02 0.  1.
</event>
<event>
 5   0  0.2528460E-05  0.2586953E+04  0.7818609E-02  0.8372647E-01
       -2   -1    0    0    0  501  0.00000000000E+00  0.00000000000E+00  0.17147591211E+04  0.17147591211E+04  0.25500000920E-02 0. -1.
        2   -1    0    0  501    0  0.00000000000E+00  0.00000000000E+00 -0.97569471390E+03  0.97569471391E+03  0.25500000920E-02 0.  1.
    10030    2    1    2    0    0  0.00000000000E+00  0.00000000000E+00  0.73906440724E+03  0.26904538351E+04  0.25869529645E+04 0.  0.
        5    1    3    3  502    0  0.87165115451E+03 -0.82328566788E+03  0.87421440091E+03  0.14838625054E+04  0.46999998093E+01 0. -1.
       -5    1    3    3    0  502 -0.87165115451E+03  0.82328566788E+03 -0.13514999367E+03  0.12065913297E+04  0.46999998093E+01 0.  1.
</event>
<event>
 5   0  0.9855352E-06  0.2308916E+04  0.7818609E-02  0.8474414E-01
        1   -1    0    0  501    0  0.00000000000E+00  0.00000000000E+00  0.12961582749E+04  0.12961582749E+04  0.50400001928E-02 0.  1.
       -1   -1    0    0    0  501  0.00000000000E+00  0.00000000000E+00 -0.10282489325E+04  0.10282489325E+04  0.50400001928E-02 0. -1.
    10030    2    1    2    0    0  0.00000000000E+00  0.00000000000E+00  0.26790934241E+03  0.23244072074E+04  0.23089160769E+04 0.  0.
        2    1    3    3  502    0 -0.54172116530E+03  0.85843254205E+03 -0.41964857761E+03  0.10983957296E+04  0.25500000920E-02 0. -1.
       -2    1    3    3    0  502  0.54172116530E+03 -0.85843254205E+03  0.68755792002E+03  0.12260114778E+04  0.25500000920E-02 0.  1.
</event>
<event>
 5   0  0.2662024E-05  0.2258835E+04  0.7818609E-02  0.8494331E-01
        2   -1    0    0  501    0  0.00000000000E+00  0.00000000000E+00  0.11994105545E+04  0.11994105546E+04  0.25500000920E-02 0. -1.
       -2   -1    0    0    0  501  0.00000000000E+00  0.00000000000E+00 -0.10635087429E+04  0.10635087429E+04  0.25500000920E-02 0.  1.
    10030    2    1    2    0    0  0.00000000000E+00  0.00000000000E+00  0.13590181162E+03  0.22629192975E+04  0.22588347537E+04 0.  0.
        2    1    3    3  502    0 -0.78397348373E+03 -0.15692719371E+03  0.86710449707E+03  0.11794535922E+04  0.25500000920E-02 0. -1.
       -2    1    3    3    0  502  0.78397348373E+03  0.15692719371E+03 -0.73120268545E+03  0.10834657053E+04  0.25500000920E-02 0.  1.
</event>
<event>
 5   0  0.2484618E-05  0.2521372E+04  0.7818609E-02  0.8395411E-01
        2   -1    0    0  501    0  0.00000000000E+00  0.00000000000E+00  0.15512881860E+04  0.15512881860E+04  0.25500000920E-02 0.  1.
       -2   -1    0    0    0  501  0.00000000000E+00  0.00000000000E+00 -0.10245226059E+04  0.10245226059E+04  0.25500000920E-02 0. -1.
    10030    2    1    2    0    0  0.00000000000E+00  0.00000000000E+00  0.52676558007E+03  0.25758107919E+04  0.25213724951E+04 0.  0.
        3    1    3    3  502    0  0.36234860300E+03  0.12068203850E+04  0.30447376603E+03  0.12963086963E+04  0.10100000352E+00 0.  1.
       -3    1    3    3    0  502 -0.36234860300E+03 -0.12068203850E+04  0.22229181404E+03  0.12795020956E+04  0.10100000352E+00 0. -1.
</event>
<event>
 5   0  0.1034714E-05  0.2558455E+04  0.7818609E-02  0.8382452E-01
        1   -1    0    0  501    0  0.00000000000E+00  0.00000000000E+00  0.24040649974E+04  0.24040649974E+04  0.50400001928E-02 0.  1.
       -1   -1    0    0    0  501  0.00000000000E+00  0.00000000000E+00 -0.68069009575E+03  0.68069009577E+03  0.50400001928E-02 0. -1.
    10030    2    1    2    0    0  0.00000000000E+00  0.00000000000E+00  0.17233749016E+04  0.30847550931E+04  0.25584551849E+04 0.  0.
        5    1    3    3  502    0 -0.53913965930E+03 -0.10073558764E+04  0.16804915335E+03  0.11548593169E+04  0.46999998093E+01 0. -1.
       -5    1    3    3    0  502  0.53913965930E+03  0.10073558764E+04  0.15553257483E+04  0.19298957762E+04  0.46999998093E+01 0.  1.
</event>
<event>
 5   0  0.1034714E-05  0.2526655E+04  0.7818609E-02  0.8393551E-01
       -1   -1    0    0    0  501  0.00000000000E+00  0.00000000000E+00  0.12185355875E+04  0.12185355875E+04  0.50400001928E-02 0. -1.
        1   -1    0    0  501    0  0.00000000000E+00  0.00000000000E+00 -0.13097658256E+04  0.13097658256E+04  0.50400001928E-02 0.  1.
    10030    2    1    2    0    0  0.00000000000E+00  0.00000000000E+00 -0.91230238103E+02  0.25283014131E+04  0.25266549189E+04 0.  0.
        5    1    3    3  502    0  0.19367373515E+03  0.22026351934E+03 -0.12752155431E+04  0.13085191267E+04  0.46999998093E+01 0.  1.
       -5    1    3    3    0  502 -0.19367373515E+03 -0.22026351934E+03  0.11839853050E+04  0.12197822864E+04  0.46999998093E+01 0. -1.
</event>
<event>
 5   0  0.2555801E-05  0.2887693E+04  0.7818609E-02  0.8276549E-01
        2   -1    0    0  501    0  0.00000000000E+00  0.00000000000E+00  0.10104510862E+04  0.10104510862E+04  0.25500000920E-02 0. -1.
       -2   -1    0    0    0  501  0.00000000000E+00  0.00000000000E+00 -0.20631302065E+04  0.20631302065E+04  0.25500000920E-02 0.  1.
    10030    2    1    2    0    0  0.00000000000E+00  0.00000000000E+00 -0.10526791202E+04  0.30735812927E+04  0.28876926139E+04 0.  0.
        1    1    3    3  502    0 -0.83433384571E+03 -0.40109959530E+03 -0.17056810311E+04  0.19407064774E+04  0.50400001928E-02 0.  1.
       -1    1    3    3    0  502  0.83433384571E+03  0.40109959530E+03  0.65300191091E+03  0.11328748153E+04  0.50400001928E-02 0. -1.
</event>
<event>
 5   0  0.1005492E-05  0.2580747E+04  0.7818609E-02  0.8374770E-01
       -1   -1    0    0    0  501  0.00000000000E+00  0.00000000000E+00  0.98439215119E+03  0.98439215120E+03  0.50400001928E-02 0. -1.
        1   -1    0    0  501    0  0.00000000000E+00  0.00000000000E+00 -0.16914642045E+04  0.16914642045E+04  0.50400001928E-02 0.  1.
    10030    2    1    2    0    0  0.00000000000E+00  0.00000000000E+00 -0.70707205335E+03  0.26758563557E+04  0.25807472460E+04 0.  0.
        4    1    3    3  502    0 -0.91914402720E+03 -0.72861600527E+03 -0.91127777735E+03  0.14853066439E+04  0.12699999809E+01 0.  1.
       -4    1    3    3    0  502  0.91914402720E+03  0.72861600527E+03  0.20420572399E+03  0.11905497119E+04  0.12699999809E+01 0. -1.
</event>
<event>
 5   0  0.9855352E-06  0.2087234E+04  0.7818609E-02  0.8566888E-01
        1   -1    0    0  501    0  0.00000000000E+00  0.00000000000E+00  0.22701688246E+04  0.22701688246E+04  0.50400001928E-02 0.  1.
       -1   -1    0    0    0  501  0.00000000000E+00  0.00000000000E+00 -0.47976004919E+03  0.47976004922E+03  0.50400001928E-02 0. -1.
    10030    2    1    2    0    0  0.00000000000E+00  0.00000000000E+00  0.17904087754E+04  0.27499288738E+04  0.20872338700E+04 0.  0.
        2    1    3    3  502    0 -0.27366826734E+03  0.64229954404E+03 -0.12676509843E+03  0.70958608710E+03  0.25500000920E-02 0. -1.
       -2    1    3    3    0  502  0.27366826734E+03 -0.64229954404E+03  0.19171738738E+04  0.20403427867E+04  0.25500000920E-02 0.  1.
</event>
<event>
 5   0  0.2517854E-05  0.2602381E+04  0.7818609E-02  0.8367393E-01
       -2   -1    0    0    0  501  0.00000000000E+00  0.00000000000E+00  0.20695367168E+04  0.20695367168E+04  0.25500000920E-02 0.  1.
        2   -1    0    0  501    0  0.00000000000E+00  0.00000000000E+00 -0.81810448881E+03  0.81810448881E+03  0.25500000920E-02 0. -1.
    10030    2    1    2    0    0  0.00000000000E+00  0.00000000000E+00  0.12514322279E+04  0.28876412056E+04  0.26023814307E+04 0.  0.
        4    1    3    3  502    0  0.83843499357E+03 -0.82306612954E+03  0.52393729495E+01  0.11749213403E+04  0.12699999809E+01 0. -1.
       -4    1    3    3    0  502 -0.83843499357E+03  0.82306612954E+03  0.12461928550E+04  0.17127198652E+04  0.12699999809E+01 0.  1.
</event>
<event>
 5   0  0.2662024E-05  0.2620639E+04  0.7818609E-02  0.8361224E-01
        2   -1    0    0  501    0  0.00000000000E+00  0.00000000000E+00  0.21073984632E+04  0.21073984632E+04  0.25500000920E-02 0. -1.
       -2   -1    0    0    0  501  0.00000000000E+00  0.00000000000E+00 -0.81471897003E+03  0.81471897003E+03  0.25500000920E-02 0.  1.
    10030    2    1    2    0    0  0.00000000000E+00  0.00000000000E+00  0.12926794932E+04  0.29221174333E+04  0.26206392391E+04 0.  0.
        2    1    3    3  502    0  0.27944038805E+03  0.55714083438E+03 -0.63883493260E+03  0.89252614019E+03  0.25500000920E-02 0.  1.
       -2    1    3    3    0  502 -0.27944038805E+03 -0.55714083438E+03  0.19315144258E+04  0.20295912931E+04  0.25500000920E-02 0. -1.
</event>
<event>
 5   0  0.2528460E-05  0.2601948E+04  0.7818609E-02  0.8367540E-01
        2   -1    0    0  501    0  0.00000000000E+00  0.00000000000E+00  0.19085067087E+04  0.19085067087E+04  0.25500000920E-02 0.  1.
       -2   -1    0    0    0  501  0.00000000000E+00  0.00000000000E+00 -0.88683664927E+03  0.88683664928E+03  0.25500000920E-02 0. -1.
    10030    2    1    2    0    0  0.00000000000E+00  0.00000000000E+00  0.10216700594E+04  0.27953433579E+04  0.26019482659E+04 0.  0.
        5    1    3    3  502    0 -0.17263328484E+03 -0.68017950118E+03  0.16877332998E+04  0.18278162342E+04  0.46999998093E+01 0.  1.
       -5    1    3    3    0  502  0.17263328484E+03  0.68017950118E+03 -0.66606324042E+03  0.96752712370E+03  0.46999998093E+01 0. -1.
</event>
<event>
 5   0  0.9855352E-06  0.2595785E+04  0.7818609E-02  0.8369634E-01
       -1   -1    0    0    0  501  0.00000000000E+00  0.00000000000E+00  0.16246194288E+04  0.16246194289E+04  0.50400001928E-02 0. -1.
        1   -1    0    0  501    0  0.00000000000E+00  0.00000000000E+00 -0.10368732642E+04  0.10368732642E+04  0.50400001928E-02 0.  1.
    10030    2    1    2    0    0  0.00000000000E+00  0.00000000000E+00  0.58774616464E+03  0.26614926931E+04  0.25957846215E+04 0.  0.
        2    1    3    3  502    0 -0.41643384748E+03  0.85502104667E+03 -0.61168605402E+03  0.11307687510E+04  0.25500000920E-02 0.  1.
       -2    1    3    3    0  502  0.41643384748E+03 -0.85502104667E+03  0.11994322187E+04  0.15307239420E+04  0.25500000920E-02 0. -1.
</event>
<event>
 5   0  0.2517854E-05  0.2593840E+04  0.7818609E-02  0.8370297E-01
       -2   -1    0    0    0  501  0.00000000000E+00  0.00000000000E+00  0.69173022828E+03  0.69173022829E+03  0.25500000920E-02 0.  1.
        2   -1    0    0  501    0  0.00000000000E+00  0.00000000000E+00 -0.24315861852E+04  0.24315861852E+04  0.25500000920E-02 0. -1.
    10030    2    1    2    0    0  0.00000000000E+00  0.00000000000E+00 -0.17398559569E+04  0.31233164134E+04  0.25938401392E+04 0.  0.
        4    1    3    3  502    0 -0.26974747913E+03 -0.73111589304E+03  0.37836806486E+03  0.86628988044E+03  0.12699999809E+01 0.  1.
       -4    1    3    3    0  502  0.26974747913E+03  0.73111589304E+03 -0.21182240217E+04  0.22570265330E+04  0.12699999809E+01 0. -1.
</event>
<event>
 5   0  0.2484618E-05  0.2570939E+04  0.7818609E-02  0.8378140E-01
       -2   -1    0    0    0  501  0.00000000000E+00  0.00000000000E+00  0.21520421607E+04  0.21520421607E+04  0.25500000920E-02 0. -1.
        2   -1    0    0  501    0  0.00000000000E+00  0.00000000000E+00 -0.76784337343E+03  0.76784337343E+03  0.25500000920E-02 0.  1.
    10030    2    1    2    0    0  0.00000000000E+00  0.00000000000E+00  0.13841987872E+04  0.29198855341E+04  0.25709385931E+04 0.  0.
        3    1    3    3  502    0  0.12591965588E+04  0.24803318317E+03  0.60914565011E+03  0.14206177765E+04  0.10100000352E+00 0. -1.
       -3    1    3    3    0  502 -0.12591965588E+04 -0.24803318317E+03  0.77505313713E+03  0.14992677576E+04  0.10100000352E+00 0.  1.
</event>
<event>
 5   0  0.1000421E-05  0.2536486E+04  0.7818609E-02  0.8390101E-01
       -1   -1    0    0    0  501  0.00000000000E+00  0.00000000000E+00  0.19283377331E+04  0.19283377332E+04  0.50400001928E-02 0. -1.
        1   -1    0    0  501    0  0.00000000000E+00  0.00000000000E+00 -0.83410683581E+03  0.83410683582E+03  0.50400001928E-02 0.  1.
    10030    2    1    2    0    0  0.00000000000E+00  0.00000000000E+00  0.10942308973E+04  0.27624445690E+04  0.25364855095E+04 0.  0.
        3    1    3    3  502    0  0.11113692938E+04  0.43421526036E+03  0.78993099935E+02  0.11957945139E+04  0.10100000352E+00 0.  1.
       -3    1    3    3    0  502 -0.11113692938E+04 -0.43421526036E+03  0.10152377974E+04  0.15666500550E+04  0.10100000352E+00 0. -1.
</event>
<event>
 5   0  0.2484618E-05  0.2604984E+04  0.7818609E-02  0.8366510E-01
       -2   -1    0    0    0  501  0.00000000000E+00  0.00000000000E+00  0.14794093562E+04  0.14794093562E+04  0.25500000920E-02 0. -1.
        2   -1    0    0  501    0  0.00000000000E+00  0.00000000000E+00 -0.11467319460E+04  0.11467319460E+04  0.25500000920E-02 0.  1.
    10030    2    1    2    0    0  0.00000000000E+00  0.00000000000E+00  0.33267741022E+03  0.26261413022E+04  0.26049844299E+04 0.  0.
        3    1    3    3  502    0 -0.12009380881E+04 -0.16127779448E+03 -0.31526830266E+03  0.12520610733E+04  0.10100000352E+00 0.  1.
       -3    1    3    3    0  502  0.12009380881E+04  0.16127779448E+03  0.64794571288E+03  0.13740802289E+04  0.10100000352E+00 0. -1.
</event>
<event>
 5   0  0.9855352E-06  0.2527970E+04  0.7818609E-02  0.8393088E-01
       -1   -1    0    0    0  501  0.00000000000E+00  0.00000000000E+00  0.11900923504E+04  0.11900923504E+04  0.50400001928E-02 0.  1.
        1   -1    0    0  501    0  0.00000000000E+00  0.00000000000E+00 -0.13424659387E+04  0.13424659388E+04  0.50400001928E-02 0. -1.
    10030    2    1    2    0    0  0.00000000000E+00  0.00000000000E+00 -0.15237358835E+03  0.25325582892E+04  0.25279702881E+04 0.  0.
        2    1    3    3  502    0  0.11812791436E+04 -0.17717265430E+03 -0.49027444739E+03  0.12911930910E+04  0.25500000920E-02 0. -1.
       -2    1    3    3    0  502 -0.11812791436E+04  0.17717265430E+03  0.33790085904E+03  0.12413651981E+04  0.25500000920E-02 0.  1.
</event>
<event>
 5   0  0.1025153E-05  0.2649950E+04  0.7818609E-02  0.8351429E-01
       -1   -1    0    0    0  501  0.00000000000E+00  0.00000000000E+00  0.14502493474E+04  0.14502493474E+04  0.50400001928E-02 0.  1.
        1   -1    0    0  501    0  0.00000000000E+00  0.00000000000E+00 -0.12105223892E+04  0.12105223892E+04  0.50400001928E-02 0. -1.
    10030    2    1    2    0    0  0.00000000000E+00  0.00000000000E+00  0.23972695824E+03  0.26607717366E+04  0.26499504183E+04 0.  0.
        1    1    3    3  502    0 -0.13041287761E+04  0.16616716319E+03  0.28544874891E+03  0.13453045674E+04  0.50400001928E-02 0.  1.
       -1    1    3    3    0  502  0.13041287761E+04 -0.16616716319E+03 -0.45721790673E+02  0.13154671691E+04  0.50400001928E-02 0. -1.
</event>
<event>
 5   0  0.2517854E-05  0.2597407E+04  0.7818609E-02  0.8369082E-01
        2   -1    0    0  501    0  0.00000000000E+00  0.00000000000E+00  0.20750742410E+04  0.20750742410E+04  0.25500000920E-02 0. -1.
       -2   -1    0    0    0  501  0.00000000000E+00  0.00000000000E+00 -0.81280532072E+03  0.81280532073E+03  0.25500000920E-02 0.  1.
    10030    2    1    2    0    0  0.00000000000E+00  0.00000000000E+00  0.12622689203E+04  0.28878795617E+04  0.25974074644E+04 0.  0.
        4    1    3    3  502    0 -0.44285709210E+03  0.97949135802E+03  0.14414026662E+04  0.17981014942E+04  0.12699999809E+01 0. -1.
       -4    1    3    3    0  502  0.44285709210E+03 -0.97949135802E+03 -0.17913374598E+03  0.10897780675E+04  0.12699999809E+01 0.  1.
</event>
<event>
 5   0  0.2517854E-05  0.2588105E+04  0.7818609E-02  0.8372253E-01
       -2   -1    0    0    0  501  0.00000000000E+00  0.00000000000E+00  0.73419158705E+03  0.73419158706E+03  0.25500000920E-02 0.  1.
        2   -1    0    0  501    0  0.00000000000E+00  0.00000000000E+00 -0.22808378403E+04  0.22808378403E+04  0.25500000920E-02 0. -1.
    10030    2    1    2    0    0  0.00000000000E+00  0.00000000000E+00 -0.15466462532E+04  0.30150294273E+04  0.25881050626E+04 0.  0.
        4    1    3    3  502    0 -0.55589173189E+03 -0.60848444410E+03 -0.19355394250E+04  0.21037070649E+04  0.12699999809E+01 0. -1.
       -4    1    3    3    0  502  0.55589173189E+03  0.60848444410E+03  0.38889317178E+03  0.91132236242E+03  0.12699999809E+01 0.  1.
</event>
<event>
 5   0  0.2517854E-05  0.2663106E+04  0.7818609E-02  0.8347076E-01
        2   -1    0    0  501    0  0.00000000000E+00  0.00000000000E+00  0.23667401859E+04  0.23667401859E+04  0.25500000920E-02 0. -1.
       -2   -1    0    0    0  501  0.00000000000E+00  0.00000000000E+00 -0.74914599039E+03  0.74914599040E+03  0.25500000920E-02 0.  1.
    10030    2    1    2    0    0  0.00000000000E+00  0.00000000000E+00  0.16175941955E+04  0.31158861763E+04  0.26631063971E+04 0.  0.
        4    1    3    3  502    0 -0.48701166014E+03  0.29017456570E+03  0.22184887447E+04  0.22897763120E+04  0.12699999809E+01 0. -1.
       -4    1    3    3    0  502  0.48701166014E+03 -0.29017456570E+03 -0.60089454922E+03  0.82610986429E+03  0.12699999809E+01 0.  1.
</event>
<event>
 5   0  0.1025153E-05  0.2706885E+04  0.7818609E-02  0.8332775E-01
        1   -1    0    0  501    0  0.00000000000E+00  0.00000000000E+00  0.12544442040E+04  0.12544442040E+04  0.50400001928E-02 0.  1.
       -1   -1    0    0    0  501  0.00000000000E+00  0.00000000000E+00 -0.14602531216E+04  0.14602531216E+04  0.50400001928E-02 0. -1.
    10030    2    1    2    0    0  0.00000000000E+00  0.00000000000E+00 -0.20580891758E+03  0.27146973255E+04  0.27068846039E+04 0.  0.
        1    1    3    3  502    0 -0.11989714663E+04  0.50543877255E+03 -0.47654538459E+03  0.13856754430E+04  0.50400001928E-02 0. -1.
       -1    1    3    3    0  502  0.11989714663E+04 -0.50543877255E+03  0.27073646701E+03  0.13290218826E+04  0.50400001928E-02 0.  1.
</event>
<event>
 5   0  0.2484618E-05  0.2633411E+04  0.7818609E-02  0.8356940E-01
       -2   -1    0    0    0  501  0.00000000000E+00  0.00000000000E+00  0.11122498477E+04  0.11122498477E+04  0.25500000920E-02 0.  1.
        2   -1    0    0  501    0  0.00000000000E+00  0.00000000000E+00 -0.15587450920E+04  0.15587450920E+04  0.25500000920E-02 0. -1.
    10030    2    1    2    0    0  0.00000000000E+00  0.00000000000E+00 -0.44649524439E+03  0.26709949397E+04  0.26334114689E+04 0.  0.
        3    1    3    3  502    0  0.54822956869E+03 -0.88081187274E+03  0.59908148277E+03  0.11980333252E+04  0.10100000352E+00 0.  1.
       -3    1    3    3    0  502 -0.54822956869E+03  0.88081187274E+03 -0.10455767272E+04  0.14729616145E+04  0.10100000352E+00 0. -1.
</event>
<event>
 5   0  0.2555801E-05  0.2548592E+04  0.7818609E-02  0.8385876E-01
        2   -1    0    0  501    0  0.00000000000E+00  0.00000000000E+00  0.22079512669E+04  0.22079512669E+04  0.25500000920E-02 0. -1.
       -2   -1    0    0    0  501  0.00000000000E+00  0.00000000000E+00 -0.73544685180E+03  0.73544685180E+03  0.25500000920E-02 0.  1.
    10030    2    1    2    0    0  0.00000000000E+00  0.00000000000E+00  0.14725044151E+04  0.29433981187E+04  0.25485924022E+04 0.  0.
        1    1    3    3  502    0  0.48445702512E+03 -0.64669212255E+03  0.18742480684E+04  0.20410083617E+04  0.50400001928E-02 0. -1.
       -1    1    3    3    0  502 -0.48445702512E+03  0.64669212255E+03 -0.40174365331E+03  0.90238975701E+03  0.50400001928E-02 0.  1.
</event>
<event>
 5   0  0.9855352E-06  0.2484237E+04  0.7818609E-02  0.8408623E-01
       -1   -1    0    0    0  501  0.00000000000E+00  0.00000000000E+00  0.11702675868E+04  0.11702675868E+04  0.50400001928E-02 0.  1.
        1   -1    0    0  501    0  0.00000000000E+00  0.00000000000E+00 -0.13183803997E+04  0.13183803997E+04  0.50400001928E-02 0. -1.
    10030    2    1    2    0    0  0.00000000000E+00  0.00000000000E+00 -0.14811281289E+03  0.24886479865E+04  0.24842365820E+04 0.  0.
        2    1    3    3  502    0  0.44613030668E+03  0.85455319646E+03 -0.85875090248E+03  0.12910253788E+04  0.25500000920E-02 0. -1.
       -2    1    3    3    0  502 -0.44613030668E+03 -0.85455319646E+03  0.71063808958E+03  0.11976226077E+04  0.25500000920E-02 0.  1.
</event>
<event>
 5   0  0.1025153E-05  0.2619411E+04  0.7818609E-02  0.8361638E-01
        1   -1    0    0  501    0  0.00000000000E+00  0.00000000000E+00  0.19037558661E+04  0.19037558662E+04  0.50400001928E-02 0.  1.
       -1   -1    0    0    0  501  0.00000000000E+00  0.00000000000E+00 -0.90102313617E+03  0.90102313618E+03  0.50400001928E-02 0. -1.
    10030    2    1    2    0    0  0.00000000000E+00  0.00000000000E+00  0.10027327300E+04  0.28047790023E+04  0.26194106826E+04 0.  0.
        1    1    3    3  502    0 -0.27464225409E+03  0.61330137463E+03  0.17050921152E+04  0.18327318585E+04  0.50400001928E-02 0.  1.
       -1    1    3    3    0  502  0.27464225409E+03 -0.61330137463E+03 -0.70235938520E+03  0.97204714385E+03  0.50400001928E-02 0. -1.
</event>
<event>
 5   0  0.9855352E-06  0.2669722E+04  0.7818609E-02  0.8344896E-01
       -1   -1    0    0    0  501  0.00000000000E+00  0.00000000000E+00  0.12525909753E+04  0.12525909753E+04  0.50400001928E-02 0. -1.
        1   -1    0    0  501    0  0.00000000000E+00  0.00000000000E+00 -0.14225350148E+04  0.14225350148E+04  0.50400001928E-02 0.  1.
    10030    2    1    2    0    0  0.00000000000E+00  0.00000000000E+00 -0.16994403951E+03  0.26751259901E+04  0.26697224737E+04 0.  0.
        2    1    3    3  502    0 -0.60737479064E+03  0.59204151551E+03 -0.11178042065E+04  0.14031762314E+04  0.25500000920E-02 0.  1.
       -2    1    3    3    0  502  0.60737479064E+03 -0.59204151551E+03  0.94786016700E+03  0.12719497587E+04  0.25500000920E-02 0. -1.
</event>
<event>
 5   0  0.2484618E-05  0.2597214E+04  0.7818609E-02  0.8369148E-01
       -2   -1    0    0    0  501  0.00000000000E+00  0.00000000000E+00  0.86359363728E+03  0.86359363728E+03  0.25500000920E-02 0. -1.
        2   -1    0    0  501    0  0.00000000000E+00  0.00000000000E+00 -0.19527467042E+04  0.19527467042E+04  0.25500000920E-02 0.  1.
    10030    2    1    2    0    0  0.00000000000E+00  0.00000000000E+00 -0.10891530669E+04  0.28163403414E+04  0.25972136061E+04 0.  0.
        3    1    3    3  502    0  0.86773501145E+03 -0.39621960489E+03 -0.15000692657E+04  0.17776844032E+04  0.10100000352E+00 0.  1.
       -3    1    3    3    0  502 -0.86773501145E+03  0.39621960489E+03  0.41091619880E+03  0.10386559382E+04  0.10100000352E+00 0. -1.
</event>
<event>
 5   0  0.9855352E-06  0.2578798E+04  0.7818609E-02  0.8375439E-01
        1   -1    0    0  501    0  0.00000000000E+00  0.00000000000E+00  0.18284784142E+04  0.18284784142E+04  0.50400001928E-02 0. -1.
       -1   -1    0    0    0  501  0.00000000000E+00  0.00000000000E+00 -0.90925320955E+03  0.90925320956E+03  0.50400001928E-02 0.  1.
    10030    2    1    2    0    0  0.00000000000E+00  0.00000000000E+00  0.91922520470E+03  0.27377316238E+04  0.25787980664E+04 0.  0.
        2    1    3    3  502    0 -0.10601880113E+04  0.72114677445E+03  0.60400445850E+03  0.14173470554E+04  0.25500000920E-02 0. -1.
       -2    1    3    3    0  502  0.10601880113E+04 -0.72114677445E+03  0.31522074620E+03  0.13203845684E+04  0.25500000920E-02 0.  1.
</event>
<event>
 5   0  0.2517854E-05  0.2180221E+04  0.7818609E-02  0.8526706E-01
        2   -1    0    0  501    0  0.00000000000E+00  0.00000000000E+00  0.13796606661E+04  0.13796606661E+04  0.25500000920E-02 0.  1.
       -2   -1    0    0    0  501  0.00000000000E+00  0.00000000000E+00 -0.86132823314E+03  0.86132823314E+03  0.25500000920E-02 0. -1.
    10030    2    1    2    0    0  0.00000000000E+00  0.00000000000E+00  0.51833243293E+03  0.22409888992E+04  0.21802207997E+04 0.  0.
        4    1    3    3  502    0 -0.55574359725E+03 -0.63095122550E+03 -0.45399408792E+03  0.95554311237E+03  0.12699999809E+01 0. -1.
       -4    1    3    3    0  502  0.55574359725E+03  0.63095122550E+03  0.97232652085E+03  0.12854457868E+04  0.12699999809E+01 0.  1.
</event>
<event>
 5   0  0.1000421E-05  0.2601535E+04  0.7818609E-02  0.8367680E-01
       -1   -1    0    0    0  501  0.00000000000E+00  0.00000000000E+00  0.81306044733E+03  0.81306044734E+03  0.50400001928E-02 0. -1.
        1   -1    0    0  501    0  0.00000000000E+00  0.00000000000E+00 -0.20810207691E+04  0.20810207691E+04  0.50400001928E-02 0.  1.
    10030    2    1    2    0    0  0.00000000000E+00  0.00000000000E+00 -0.12679603218E+04  0.28940812165E+04  0.26015346836E+04 0.  0.
        3    1    3    3  502    0 -0.10111628538E+04  0.75793097701E+03 -0.97701588301E+03  0.15973320659E+04  0.10100000352E+00 0.  1.
       -3    1    3    3    0  502  0.10111628538E+04 -0.75793097701E+03 -0.29094443878E+03  0.12967491506E+04  0.10100000352E+00 0. -1.
</event>
<event>
 5   0  0.1025153E-05  0.2616165E+04  0.7818609E-02  0.8362731E-01
       -1   -1    0    0    0  501  0.00000000000E+00  0.00000000000E+00  0.10328524549E+04  0.10328524549E+04  0.50400001928E-02 0. -1.
        1   -1    0    0  501    0  0.00000000000E+00  0.00000000000E+00 -0.16566551078E+04  0.16566551078E+04  0.50400001928E-02 0.  1.
    10030    2    1    2    0    0  0.00000000000E+00  0.00000000000E+00 -0.62380265294E+03  0.26895075627E+04  0.26161653580E+04 0.  0.
        1    1    3    3  502    0 -0.15699370230E+02 -0.66847412008E+03 -0.14676862451E+04  0.16128257915E+04  0.50400001928E-02 0.  1.
       -1    1    3    3    0  502  0.15699370230E+02  0.66847412008E+03  0.84388359218E+03  0.10766817713E+04  0.50400001928E-02 0. -1.
</event>
<event>
 5   0  0.2517854E-05  0.2587734E+04  0.7818609E-02  0.8372380E-01
       -2   -1    0    0    0  501  0.00000000000E+00  0.00000000000E+00  0.14999202145E+04  0.14999202145E+04  0.25500000920E-02 0. -1.
        2   -1    0    0  501    0  0.00000000000E+00  0.00000000000E+00 -0.11161202489E+04  0.11161202489E+04  0.25500000920E-02 0.  1.
    10030    2    1    2    0    0  0.00000000000E+00  0.00000000000E+00  0.38379996565E+03  0.26160404634E+04  0.25877336209E+04 0.  0.
        4    1    3    3  502    0 -0.31640217013E+03 -0.94045439172E+03 -0.64755975269E+03  0.11848628791E+04  0.12699999809E+01 0.  1.
       -4    1    3    3    0  502  0.31640217013E+03  0.94045439172E+03  0.10313597183E+04  0.14311775843E+04  0.12699999809E+01 0. -1.
</event>
<event>
 5   0  0.2528460E-05  0.2573436E+04  0.7818609E-02  0.8377281E-01
        2   -1    0    0  501    0  0.00000000000E+00  0.00000000000E+00  0.29475487871E+04  0.29475487871E+04  0.25500000920E-02 0.  1.
       -2   -1    0    0    0  501  0.00000000000E+00  0.00000000000E+00 -0.56170154104E+03  0.56170154104E+03  0.25500000920E-02 0. -1.
    10030    2    1    2    0    0  0.00000000000E+00  0.00000000000E+00  0.23858472461E+04  0.35092503282E+04  0.25734355994E+04 0.  0.
        5    1    3    3  502    0 -0.40393424958E+03  0.11145219068E+04  0.18751528110E+04  0.22184548933E+04  0.46999998093E+01 0. -1.
       -5    1    3    3    0  502  0.40393424958E+03 -0.11145219068E+04  0.51069443507E+03  0.12907954349E+04  0.46999998093E+01 0.  1.
</event>
<event>
 5   0  0.9855352E-06  0.2556537E+04  0.7818609E-02  0.8383116E-01
       -1   -1    0    0    0  501  0.00000000000E+00  0.00000000000E+00  0.14218707874E+04  0.14218707875E+04  0.50400001928E-02 0.  1.
        1   -1    0    0  501    0  0.00000000000E+00  0.00000000000E+00 -0.11491693527E+04  0.11491693527E+04  0.50400001928E-02 0. -1.
    10030    2    1    2    0    0  0.00000000000E+00  0.00000000000E+00  0.27270143475E+03  0.25710401401E+04  0.25565369799E+04 0.  0.
        2    1    3    3  502    0 -0.40225947234E+03  0.69507283109E+03 -0.86379163823E+03  0.11794383909E+04  0.25500000920E-02 0. -1.
       -2    1    3    3    0  502  0.40225947234E+03 -0.69507283109E+03  0.11364930730E+04  0.13916017493E+04  0.25500000920E-02 0.  1.
</event>
<event>
 5   0  0.9855352E-06  0.2534659E+04  0.7818609E-02  0.8390741E-01
        1   -1    0    0  501    0  0.00000000000E+00  0.00000000000E+00  0.20028261500E+04  0.20028261500E+04  0.50400001928E-02 0.  1.
       -1   -1    0    0    0  501  0.00000000000E+00  0.00000000000E+00 -0.80192885390E+03  0.80192885392E+03  0.50400001928E-02 0. -1.
    10030    2    1    2    0    0  0.00000000000E+00  0.00000000000E+00  0.12008972961E+04  0.28047550039E+04  0.25346590138E+04 0.  0.
        2    1    3    3  502    0  0.51136870665E+03 -0.11142255278E+04  0.24509331234E+03  0.12502268645E+04  0.25500000920E-02 0. -1.
       -2    1    3    3    0  502 -0.51136870665E+03  0.11142255278E+04  0.95580398374E+03  0.15545281394E+04  0.25500000920E-02 0.  1.
</event>
<event>
 5   0  0.1025153E-05  0.2580283E+04  0.7818609E-02  0.8374930E-01
        1   -1    0    0  501    0  0.00000000000E+00  0.00000000000E+00  0.18062088822E+04  0.18062088822E+04  0.50400001928E-02 0. -1.
       -1   -1    0    0    0  501  0.00000000000E+00  0.00000000000E+00 -0.92152396052E+03  0.92152396054E+03  0.50400001928E-02 0.  1.
    10030    2    1    2    0    0  0.00000000000E+00  0.00000000000E+00  0.88468492169E+03  0.27277328428E+04  0.25802827463E+04 0.  0.
        1    1    3    3  502    0 -0.50272411943E+03  0.66752818354E+02 -0.81173503056E+03  0.95713177718E+03  0.50400001928E-02 0.  1.
       -1    1    3    3    0  502  0.50272411943E+03 -0.66752818354E+02  0.16964199522E+04  0.17706010656E+04  0.50400001928E-02 0. -1.
</event>
<event>
 5   0  0.1034714E-05  0.2569994E+04  0.7818609E-02  0.8378465E-01
        1   -1    0    0  501    0  0.00000000000E+00  0.00000000000E+00  0.70585613600E+03  0.70585613602E+03  0.50400001928E-02 0.  1.
       -1   -1    0    0    0  501  0.00000000000E+00  0.00000000000E+00 -0.23393118183E+04  0.23393118183E+04  0.50400001928E-02 0. -1.
    10030    2    1    2    0    0  0.00000000000E+00  0.00000000000E+00 -0.16334556823E+04  0.30451679543E+04  0.25699942420E+04 0.  0.
        5    1    3    3  502    0 -0.46612325460E+03 -0.11931514476E+04 -0.69639121468E+03  0.14580343204E+04  0.46999998093E+01 0. -1.
       -5    1    3    3    0  502  0.46612325460E+03  0.11931514476E+04 -0.93706446758E+03  0.15871336339E+04  0.46999998093E+01 0.  1.
</event>
<event>
 5   0  0.1000421E-05  0.2572251E+04  0.7818609E-02  0.8377688E-01
        1   -1    0    0  501    0  0.00000000000E+00  0.00000000000E+00  0.18696829720E+04  0.18696829720E+04  0.50400001928E-02 0.  1.
       -1   -1    0    0    0  501  0.00000000000E+00  0.00000000000E+00 -0.88470583488E+03  0.88470583490E+03  0.50400001928E-02 0. -1.
    10030    2    1    2    0    0  0.00000000000E+00  0.00000000000E+00  0.98497713708E+03  0.27543888069E+04  0.25722514921E+04 0.  0.
        3    1    3    3  502    0 -0.23115900152E+03  0.10436170884E+04  0.12583587228E+04  0.16510717115E+04  0.10100000352E+00 0.  1.
       -3    1    3    3    0  502  0.23115900152E+03 -0.10436170884E+04 -0.27338158569E+03  0.11033170953E+04  0.10100000352E+00 0. -1.
</event>
<event>
 5   0  0.2555801E-05  0.2615792E+04  0.7818609E-02  0.8362857E-01
       -2   -1    0    0    0  501  0.00000000000E+00  0.00000000000E+00  0.93549796884E+03  0.93549796885E+03  0.25500000920E-02 0.  1.
        2   -1    0    0  501    0  0.00000000000E+00  0.00000000000E+00 -0.18285365418E+04  0.18285365418E+04  0.25500000920E-02 0. -1.
    10030    2    1    2    0    0  0.00000000000E+00  0.00000000000E+00 -0.89303857299E+03  0.27640345107E+04  0.26157922095E+04 0.  0.
        1    1    3    3  502    0 -0.12243653747E+04 -0.34741370648E+02  0.38071352466E+02  0.12254496977E+04  0.50400001928E-02 0.  1.
       -1    1    3    3    0  502  0.12243653747E+04  0.34741370648E+02 -0.93110992546E+03  0.15385848130E+04  0.50400001928E-02 0. -1.
</event>
<event>
 5   0  0.1034714E-05  0.2567564E+04  0.7818609E-02  0.8379303E-01
        1   -1    0    0  501    0  0.00000000000E+00  0.00000000000E+00  0.19539035974E+04  0.19539035974E+04  0.50400001928E-02 0. -1.
       -1   -1    0    0    0  501  0.00000000000E+00  0.00000000000E+00 -0.84348913062E+03  0.84348913063E+03  0.50400001928E-02 0.  1.
    10030    2    1    2    0    0  0.00000000000E+00  0.00000000000E+00  0.11104144668E+04  0.27973927280E+04  0.25675641739E+04 0.  0.
        5    1    3    3  502    0  0.26978012833E+03  0.12404766928E+04  0.34702594073E+03  0.13160595870E+04  0.46999998093E+01 0.  1.
       -5    1    3    3    0  502 -0.26978012833E+03 -0.12404766928E+04  0.76338852605E+03  0.14813331410E+04  0.46999998093E+01 0. -1.
</event>
<event>
 5   0  0.1025153E-05  0.2595554E+04  0.7818609E-02  0.8369713E-01
       -1   -1    0    0    0  501  0.00000000000E+00  0.00000000000E+00  0.88832314025E+03  0.88832314026E+03  0.50400001928E-02 0. -1.
        1   -1    0    0  501    0  0.00000000000E+00  0.00000000000E+00 -0.18959598715E+04  0.18959598715E+04  0.50400001928E-02 0.  1.
    10030    2    1    2    0    0  0.00000000000E+00  0.00000000000E+00 -0.10076367312E+04  0.27842830118E+04  0.25955539115E+04 0.  0.
        1    1    3    3  502    0  0.91767752762E+03 -0.63862182036E+03  0.20307810577E+03  0.11363144772E+04  0.50400001928E-02 0. -1.
       -1    1    3    3    0  502 -0.91767752762E+03  0.63862182036E+03 -0.12107148370E+04  0.16479685345E+04  0.50400001928E-02 0.  1.
</event>
<event>
 5   0  0.1025153E-05  0.2572279E+04  0.7818609E-02  0.8377679E-01
        1   -1    0    0  501    0  0.00000000000E+00  0.00000000000E+00  0.15612066883E+04  0.15612066883E+04  0.50400001928E-02 0. -1.
       -1   -1    0    0    0  501  0.00000000000E+00  0.00000000000E+00 -0.10595357305E+04  0.10595357305E+04  0.50400001928E-02 0.  1.
    10030    2    1    2    0    0  0.00000000000E+00  0.00000000000E+00  0.50167095786E+03  0.26207424188E+04  0.25722785766E+04 0.  0.
        1    1    3    3  502    0 -0.43142899462E+03  0.78396337264E+03 -0.69037975352E+03  0.11302007570E+04  0.50400001928E-02 0.  1.
       -1    1    3    3    0  502  0.43142899462E+03 -0.78396337264E+03  0.11920507114E+04  0.14905416618E+04  0.50400001928E-02 0. -1.
</event>
<event>
 5   0  0.1005492E-05  0.2618581E+04  0.7818609E-02  0.8361917E-01
       -1   -1    0    0    0  501  0.00000000000E+00  0.00000000000E+00  0.11494704184E+04  0.11494704184E+04  0.50400001928E-02 0. -1.
        1   -1    0    0  501    0  0.00000000000E+00  0.00000000000E+00 -0.14913312429E+04  0.14913312429E+04  0.50400001928E-02 0.  1.
    10030    2    1    2    0    0  0.00000000000E+00  0.00000000000E+00 -0.34186082450E+03  0.26408016612E+04  0.26185806443E+04 0.  0.
        4    1    3    3  502    0  0.88335889701E+03  0.86702284718E+03  0.25952650095E+03  0.12646767081E+04  0.12699999809E+01 0. -1.
       -4    1    3    3    0  502 -0.88335889701E+03 -0.86702284718E+03 -0.60138732545E+03  0.13761249531E+04  0.12699999809E+01 0.  1.
</event>
<event>
 5   0  0.1000421E-05  0.2547469E+04  0.7818609E-02  0.8386267E-01
       -1   -1    0    0    0  501  0.00000000000E+00  0.00000000000E+00  0.61634140895E+03  0.61634140897E+03  0.50400001928E-02 0.  1.
        1   -1    0    0  501    0  0.00000000000E+00  0.00000000000E+00 -0.26323060236E+04  0.26323060236E+04  0.50400001928E-02 0. -1.
    10030    2    1    2    0    0  0.00000000000E+00  0.00000000000E+00 -0.20159646147E+04  0.32486474326E+04  0.25474687071E+04 0.  0.
        3    1    3    3  502    0 -0.75296186625E+03  0.59751335465E+03  0.57763761978E+02  0.96296959630E+03  0.10100000352E+00 0.  1.
       -3    1    3    3    0  502  0.75296186625E+03 -0.59751335465E+03 -0.20737283766E+04  0.22856778363E+04  0.10100000352E+00 0. -1.
</event>
<event>
 5   0  0.2555801E-05  0.2599195E+04  0.7818609E-02  0.8368475E-01
        2   -1    0    0  501    0  0.00000000000E+00  0.00000000000E+00  0.17515358688E+04  0.17515358688E+04  0.25500000920E-02 0. -1.
       -2   -1    0    0    0  501  0.00000000000E+00  0.00000000000E+00 -0.96426972930E+03  0.96426972931E+03  0.25500000920E-02 0.  1.
    10030    2    1    2    0    0  0.00000000000E+00  0.00000000000E+00  0.78726613948E+03  0.27158055981E+04  0.25991945045E+04 0.  0.
        1    1    3    3  502    0 -0.32728728229E+03 -0.36532908703E+03  0.16511092467E+04  0.17224238885E+04  0.50400001928E-02 0. -1.
       -1    1    3    3    0  502  0.32728728229E+03  0.36532908703E+03 -0.86384310726E+03  0.99338170959E+03  0.50400001928E-02 0.  1.
</event>
<event>
 5   0  0.2484618E-05  0.2563252E+04  0.7818609E-02  0.8380792E-01
       -2   -1    0    0    0  501  0.00000000000E+00  0.00000000000E+00  0.16778953164E+04  0.16778953164E+04  0.25500000920E-02 0.  1.
        2   -1    0    0  501    0  0.00000000000E+00  0.00000000000E+00 -0.97894369310E+03  0.97894369310E+03  0.25500000920E-02 0. -1.
    10030    2    1    2    0    0  0.00000000000E+00  0.00000000000E+00  0.69895162328E+03  0.26568390095E+04  0.25632518703E+04 0.  0.
        3    1    3    3  502    0 -0.11514620105E+04 -0.40722637994E+03  0.75207324233E+03  0.14343333846E+04  0.10100000352E+00 0.  1.
       -3    1    3    3    0  502  0.11514620105E+04  0.40722637994E+03 -0.53121619053E+02  0.12225056249E+04  0.10100000352E+00 0. -1.
</event>
<event>
 5   0  0.1000421E-05  0.2608902E+04  0.7818609E-02  0.8365184E-01
       -1   -1    0    0    0  501  0.00000000000E+00  0.00000000000E+00  0.11218068590E+04  0.11218068590E+04  0.50400001928E-02 0. -1.
        1   -1    0    0  501    0  0.00000000000E+00  0.00000000000E+00 -0.15168318640E+04  0.15168318640E+04  0.50400001928E-02 0.  1.
    10030    2    1    2    0    0  0.00000000000E+00  0.00000000000E+00 -0.39502500498E+03  0.26386387230E+04  0.26089019828E+04 0.  0.
        3    1    3    3  502    0  0.75615262463E+03 -0.74958505915E+03 -0.95972556895E+03  0.14334286625E+04  0.10100000352E+00 0.  1.
       -3    1    3    3    0  502 -0.75615262463E+03  0.74958505915E+03  0.56470056397E+03  0.12052100604E+04  0.10100000352E+00 0. -1.
</event>
<event>
 5   0  0.8605000E-06  0.2609355E+04  0.7818609E-02  0.8365030E-01
       -4   -1    0    0    0  501  0.00000000000E+00  0.00000000000E+00  0.15835209574E+04  0.15835214667E+04  0.12699999809E+01 0. -1.
        4   -1    0    0  501    0  0.00000000000E+00  0.00000000000E+00 -0.10749349476E+04  0.10749356978E+04  0.12699999809E+01 0.  1.
    10030    2    1    2    0    0  0.00000000000E+00  0.00000000000E+00  0.50858600980E+03  0.26584571645E+04  0.26093552395E+04 0.  0.
        1    1    3    3  502    0 -0.80827073263E+03 -0.19945650971E+03  0.12777353755E+04  0.15250220215E+04  0.50400001928E-02 0. -1.
       -1    1    3    3    0  502  0.80827073263E+03  0.19945650971E+03 -0.76914936565E+03  0.11334351429E+04  0.50400001928E-02 0.  1.
</event>
<event>
 5   0  0.1005492E-05  0.2588180E+04  0.7818609E-02  0.8372227E-01
        1   -1    0    0  501    0  0.00000000000E+00  0.00000000000E+00  0.83676983486E+03  0.83676983487E+03  0.50400001928E-02 0. -1.
       -1   -1    0    0    0  501  0.00000000000E+00  0.00000000000E+00 -0.20013499931E+04  0.20013499931E+04  0.50400001928E-02 0.  1.
    10030    2    1    2    0    0  0.00000000000E+00  0.00000000000E+00 -0.11645801582E+04  0.28381198279E+04  0.25881802899E+04 0.  0.
        4    1    3    3  502    0 -0.11491736134E+04  0.13769651789E+03 -0.12170773202E+04  0.16795353944E+04  0.12699999809E+01 0.  1.
       -4    1    3    3    0  502  0.11491736134E+04 -0.13769651789E+03  0.52497162039E+02  0.11585844335E+04  0.12699999809E+01 0. -1.
</event>
<event>
 5   0  0.9855352E-06  0.2613072E+04  0.7818609E-02  0.8363775E-01
       -1   -1    0    0    0  501  0.00000000000E+00  0.00000000000E+00  0.15302235751E+04  0.15302235751E+04  0.50400001928E-02 0. -1.
        1   -1    0    0  501    0  0.00000000000E+00  0.00000000000E+00 -0.11155467589E+04  0.11155467589E+04  0.50400001928E-02 0.  1.
    10030    2    1    2    0    0  0.00000000000E+00  0.00000000000E+00  0.41467681619E+03  0.26457703340E+04  0.26130717170E+04 0.  0.
        2    1    3    3  502    0  0.35063102477E+03 -0.45942410856E+03  0.13937619902E+04  0.15088356810E+04  0.25500000920E-02 0. -1.
       -2    1    3    3    0  502 -0.35063102477E+03  0.45942410856E+03 -0.97908517401E+03  0.11369346529E+04  0.25500000920E-02 0.  1.
</event>
<event>
 5   0  0.1025153E-05  0.2620738E+04  0.7818609E-02  0.8361191E-01
        1   -1    0    0  501    0  0.00000000000E+00  0.00000000000E+00  0.19289037435E+04  0.19289037435E+04  0.50400001928E-02 0. -1.
       -1   -1    0    0    0  501  0.00000000000E+00  0.00000000000E+00 -0.89017775875E+03  0.89017775876E+03  0.50400001928E-02 0.  1.
    10030    2    1    2    0    0  0.00000000000E+00  0.00000000000E+00  0.10387259848E+04  0.28190815023E+04  0.26207382252E+04 0.  0.
        1    1    3    3  502    0 -0.12540482966E+04  0.33027027729E+03  0.72161306197E+03  0.14840623294E+04  0.50400001928E-02 0. -1.
       -1    1    3    3    0  502  0.12540482966E+04 -0.33027027729E+03  0.31711292279E+03  0.13350191729E+04  0.50400001928E-02 0.  1.
</event>
<event>
 5   0  0.1034714E-05  0.2584699E+04  0.7818609E-02  0.8373417E-01
       -1   -1    0    0    0  501  0.00000000000E+00  0.00000000000E+00  0.10201109300E+04  0.10201109301E+04  0.50400001928E-02 0. -1.
        1   -1    0    0  501    0  0.00000000000E+00  0.00000000000E+00 -0.16372411055E+04  0.16372411055E+04  0.50400001928E-02 0.  1.
    10030    2    1    2    0    0  0.00000000000E+00  0.00000000000E+00 -0.61713017548E+03  0.26573520356E+04  0.25846992451E+04 0.  0.
        5    1    3    3  502    0  0.37595424863E+03 -0.10047435520E+04 -0.10494416136E+04  0.15007334849E+04  0.46999998093E+01 0.  1.
       -5    1    3    3    0  502 -0.37595424863E+03  0.10047435520E+04  0.43231143812E+03  0.11566185507E+04  0.46999998093E+01 0. -1.
</event>
<event>
 5   0  0.2528460E-05  0.2570335E+04  0.7818609E-02  0.8378348E-01
       -2   -1    0    0    0  501  0.00000000000E+00  0.00000000000E+00  0.14042295358E+04  0.14042295358E+04  0.25500000920E-02 0. -1.
        2   -1    0    0  501    0  0.00000000000E+00  0.00000000000E+00 -0.11762003923E+04  0.11762003923E+04  0.25500000920E-02 0.  1.
    10030    2    1    2    0    0  0.00000000000E+00  0.00000000000E+00  0.22802914352E+03  0.25804299281E+04  0.25703348660E+04 0.  0.
        5    1    3    3  502    0 -0.93497736535E+03  0.63565164229E+03 -0.49944803942E+03  0.12360040931E+04  0.46999998093E+01 0.  1.
       -5    1    3    3    0  502  0.93497736535E+03 -0.63565164229E+03  0.72747718295E+03  0.13444258350E+04  0.46999998093E+01 0. -1.
</event>
<event>
 5   0  0.2517854E-05  0.2190555E+04  0.7818609E-02  0.8522369E-01
       -2   -1    0    0    0  501  0.00000000000E+00  0.00000000000E+00  0.56201996740E+03  0.56201996740E+03  0.25500000920E-02 0.  1.
        2   -1    0    0  501    0  0.00000000000E+00  0.00000000000E+00 -0.21345029083E+04  0.21345029083E+04  0.25500000920E-02 0. -1.
    10030    2    1    2    0    0  0.00000000000E+00  0.00000000000E+00 -0.15724829409E+04  0.26965228757E+04  0.21905554135E+04 0.  0.
        4    1    3    3  502    0  0.59475953125E+03 -0.66651289544E+03 -0.60960992077E+01  0.89331803694E+03  0.12699999809E+01 0.  1.
       -4    1    3    3    0  502 -0.59475953125E+03  0.66651289544E+03 -0.15663868417E+04  0.18032048388E+04  0.12699999809E+01 0. -1.
</event>
<event>
 5   0  0.1034714E-05  0.2569364E+04  0.7818609E-02  0.8378683E-01
       -1   -1    0    0    0  501  0.00000000000E+00  0.00000000000E+00  0.11469483522E+04  0.11469483523E+04  0.50400001928E-02 0.  1.
        1   -1    0    0  501    0  0.00000000000E+00  0.00000000000E+00 -0.14389555380E+04  0.14389555380E+04  0.50400001928E-02 0. -1.
    10030    2    1    2    0    0  0.00000000000E+00  0.00000000000E+00 -0.29200718575E+03  0.25859038903E+04  0.25693638771E+04 0.  0.
        5    1    3    3  502    0  0.85244596191E+03 -0.37684898565E+03 -0.10358367333E+04  0.13934342841E+04  0.46999998093E+01 0. -1.
       -5    1    3    3    0  502 -0.85244596191E+03  0.37684898565E+03  0.74382954753E+03  0.11924696062E+04  0.46999998093E+01 0.  1.
</event>
<event>
 5   0  0.8605000E-06  0.2654207E+04  0.7818609E-02  0.8350018E-01
       -3   -1    0    0    0  501  0.00000000000E+00  0.00000000000E+00  0.13531903376E+04  0.13531903414E+04  0.10100000352E+00 0.  1.
        3   -1    0    0  501    0  0.00000000000E+00  0.00000000000E+00 -0.13015191527E+04  0.13015191567E+04  0.10100000352E+00 0. -1.
    10030    2    1    2    0    0  0.00000000000E+00  0.00000000000E+00  0.51671184889E+02  0.26547094981E+04  0.26542065872E+04 0.  0.
        4    1    3    3  502    0 -0.38792858655E+03 -0.12132717403E+04 -0.34663882950E+03  0.13201049182E+04  0.12699999809E+01 0. -1.
       -4    1    3    3    0  502  0.38792858655E+03  0.12132717403E+04  0.39831001439E+03  0.13346045798E+04  0.12699999809E+01 0.  1.
</event>
<event>
 5   0  0.2484618E-05  0.2500737E+04  0.7818609E-02  0.8402723E-01
       -2   -1    0    0    0  501  0.00000000000E+00  0.00000000000E+00  0.57592633965E+03  0.57592633966E+03  0.25500000920E-02 0.  1.
        2   -1    0    0  501    0  0.00000000000E+00  0.00000000000E+00 -0.27146193920E+04  0.27146193920E+04  0.25500000920E-02 0. -1.
    10030    2    1    2    0    0  0.00000000000E+00  0.00000000000E+00 -0.21386930523E+04  0.32905457316E+04  0.25007365395E+04 0.  0.
        3    1    3    3  502    0 -0.56781749587E+03 -0.16496497028E+03  0.38033259786E+03  0.70305266178E+03  0.10100000352E+00 0.  1.
       -3    1    3    3    0  502  0.56781749587E+03  0.16496497028E+03 -0.25190256502E+04  0.25874930699E+04  0.10100000352E+00 0. -1.
</event>
<event>
 5   0  0.2517854E-05  0.2618987E+04  0.7818609E-02  0.8361780E-01
       -2   -1    0    0    0  501  0.00000000000E+00  0.00000000000E+00  0.70666829528E+03  0.70666829529E+03  0.25500000920E-02 0. -1.
        2   -1    0    0  501    0  0.00000000000E+00  0.00000000000E+00 -0.24265597769E+04  0.24265597769E+04  0.25500000920E-02 0.  1.
    10030    2    1    2    0    0  0.00000000000E+00  0.00000000000E+00 -0.17198914817E+04  0.31332280722E+04  0.26189867208E+04 0.  0.
        4    1    3    3  502    0  0.59578360194E+03  0.11691054171E+02 -0.22549531139E+04  0.23323614514E+04  0.12699999809E+01 0.  1.
       -4    1    3    3    0  502 -0.59578360194E+03 -0.11691054171E+02  0.53506163228E+03  0.80086662081E+03  0.12699999809E+01 0. -1.
</event>
<event>
 5   0  0.2517854E-05  0.2578996E+04  0.7818609E-02  0.8375371E-01
       -2   -1    0    0    0  501  0.00000000000E+00  0.00000000000E+00  0.83417096301E+03  0.83417096302E+03  0.25500000920E-02 0.  1.
        2   -1    0    0  501    0  0.00000000000E+00  0.00000000000E+00 -0.19933627746E+04  0.19933627746E+04  0.25500000920E-02 0. -1.
    10030    2    1    2    0    0  0.00000000000E+00  0.00000000000E+00 -0.11591918116E+04  0.28275337376E+04  0.25789961965E+04 0.  0.
        4    1    3    3  502    0  0.25153153098E+03  0.58502073684E+03  0.64975027325E+03  0.90977711782E+03  0.12699999809E+01 0.  1.
       -4    1    3    3    0  502 -0.25153153098E+03 -0.58502073684E+03 -0.18089420849E+04  0.19177566198E+04  0.12699999809E+01 0. -1.
</event>
<event>
 5   0  0.1005492E-05  0.2444493E+04  0.7818609E-02  0.8423031E-01
       -1   -1    0    0    0  501  0.00000000000E+00  0.00000000000E+00  0.75133400939E+03  0.75133400941E+03  0.50400001928E-02 0. -1.
        1   -1    0    0  501    0  0.00000000000E+00  0.00000000000E+00 -0.19883119151E+04  0.19883119151E+04  0.50400001928E-02 0.  1.
    10030    2    1    2    0    0  0.00000000000E+00  0.00000000000E+00 -0.12369779057E+04  0.27396459245E+04  0.24444928825E+04 0.  0.
        4    1    3    3  502    0 -0.48815575696E+03  0.99354215674E+03 -0.11991833413E+04  0.16320123649E+04  0.12699999809E+01 0.  1.
       -4    1    3    3    0  502  0.48815575696E+03 -0.99354215674E+03 -0.37794564367E+02  0.11076335596E+04  0.12699999809E+01 0. -1.
</event>
<event>
 5   0  0.1000421E-05  0.2555108E+04  0.7818609E-02  0.8383612E-01
       -1   -1    0    0    0  501  0.00000000000E+00  0.00000000000E+00  0.55474507259E+03  0.55474507262E+03  0.50400001928E-02 0.  1.
        1   -1    0    0  501    0  0.00000000000E+00  0.00000000000E+00 -0.29421511450E+04  0.29421511450E+04  0.50400001928E-02 0. -1.
    10030    2    1    2    0    0  0.00000000000E+00  0.00000000000E+00 -0.23874060724E+04  0.34968962176E+04  0.25551077085E+04 0.  0.
        3    1    3    3  502    0  0.95318340690E+03 -0.38550150092E+02 -0.23566822130E+04  0.25424389441E+04  0.10100000352E+00 0.  1.
       -3    1    3    3    0  502 -0.95318340690E+03  0.38550150092E+02 -0.30723859439E+02  0.95445727354E+03  0.10100000352E+00 0. -1.
</event>
<event>
 5   0  0.1000421E-05  0.2732752E+04  0.7818609E-02  0.8324456E-01
        1   -1    0    0  501    0  0.00000000000E+00  0.00000000000E+00  0.11697799208E+04  0.11697799209E+04  0.50400001928E-02 0.  1.
       -1   -1    0    0    0  501  0.00000000000E+00  0.00000000000E+00 -0.15960120910E+04  0.15960120910E+04  0.50400001928E-02 0. -1.
    10030    2    1    2    0    0  0.00000000000E+00  0.00000000000E+00 -0.42623217012E+03  0.27657920118E+04  0.27327516517E+04 0.  0.
        3    1    3    3  502    0  0.41174594224E+02  0.20869843927E+03 -0.15791505472E+04  0.15934135831E+04  0.10100000352E+00 0. -1.
       -3    1    3    3    0  502 -0.41174594224E+02 -0.20869843927E+03  0.11529183771E+04  0.11723784287E+04  0.10100000352E+00 0.  1.
</event>
<event>
 5   0  0.2555801E-05  0.2606276E+04  0.7818609E-02  0.8366072E-01
        2   -1    0    0  501    0  0.00000000000E+00  0.00000000000E+00  0.10128889449E+04  0.10128889449E+04  0.25500000920E-02 0.  1.
       -2   -1    0    0    0  501  0.00000000000E+00  0.00000000000E+00 -0.16765598680E+04  0.16765598680E+04  0.25500000920E-02 0. -1.
    10030    2    1    2    0    0  0.00000000000E+00  0.00000000000E+00 -0.66367092304E+03  0.26894488129E+04  0.26062762369E+04 0.  0.
        1    1    3    3  502    0  0.11388009847E+04  0.31383232547E+03 -0.89967853892E+03  0.14848501220E+04  0.50400001928E-02 0.  1.
       -1    1    3    3    0  502 -0.11388009847E+04 -0.31383232547E+03  0.23600761588E+03  0.12045986909E+04  0.50400001928E-02 0. -1.
</event>
<event>
 5   0  0.1005492E-05  0.2635455E+04  0.7818609E-02  0.8356257E-01
        1   -1    0    0  501    0  0.00000000000E+00  0.00000000000E+00  0.18666948196E+04  0.18666948196E+04  0.50400001928E-02 0.  1.
       -1   -1    0    0    0  501  0.00000000000E+00  0.00000000000E+00 -0.93020363374E+03  0.93020363375E+03  0.50400001928E-02 0. -1.
    10030    2    1    2    0    0  0.00000000000E+00  0.00000000000E+00  0.93649118584E+03  0.27968984533E+04  0.26354554098E+04 0.  0.
        4    1    3    3  502    0  0.90331852318E+03  0.88242735728E+03  0.86779524618E+03  0.15322312480E+04  0.12699999809E+01 0.  1.
       -4    1    3    3    0  502 -0.90331852318E+03 -0.88242735728E+03  0.68695939659E+02  0.12646672053E+04  0.12699999809E+01 0. -1.
</event>
<event>
 5   0  0.2484618E-05  0.2541049E+04  0.7818609E-02  0.8388506E-01
       -2   -1    0    0    0  501  0.00000000000E+00  0.00000000000E+00  0.83455319719E+03  0.83455319719E+03  0.25500000920E-02 0.  1.
        2   -1    0    0  501    0  0.00000000000E+00  0.00000000000E+00 -0.19342469391E+04  0.19342469391E+04  0.25500000920E-02 0. -1.
    10030    2    1    2    0    0  0.00000000000E+00  0.00000000000E+00 -0.10996937419E+04  0.27688001363E+04  0.25410485766E+04 0.  0.
        3    1    3    3  502    0  0.10632009217E+04  0.23251373177E+03 -0.12641758446E+04  0.16681125296E+04  0.10100000352E+00 0. -1.
       -3    1    3    3    0  502 -0.10632009217E+04 -0.23251373177E+03  0.16448210262E+03  0.11006876067E+04  0.10100000352E+00 0.  1.
</event>
<event>
 5   0  0.1034714E-05  0.2559127E+04  0.7818609E-02  0.8382219E-01
        1   -1    0    0  501    0  0.00000000000E+00  0.00000000000E+00  0.11747994915E+04  0.11747994915E+04  0.50400001928E-02 0.  1.
       -1   -1    0    0    0  501  0.00000000000E+00  0.00000000000E+00 -0.13936703861E+04  0.13936703861E+04  0.50400001928E-02 0. -1.
    10030    2    1    2    0    0  0.00000000000E+00  0.00000000000E+00 -0.21887089464E+03  0.25684698776E+04  0.25591273989E+04 0.  0.
        5    1    3    3  502    0  0.10528476496E+04 -0.61177023494E+03  0.28507736840E+03  0.12506167237E+04  0.46999998093E+01 0.  1.
       -5    1    3    3    0  502 -0.10528476496E+04  0.61177023494E+03 -0.50394826305E+03  0.13178531539E+04  0.46999998093E+01 0. -1.
</event>
<event>
 5   0  0.2484618E-05  0.2596994E+04  0.7818609E-02  0.8369223E-01
       -2   -1    0    0    0  501  0.00000000000E+00  0.00000000000E+00  0.90780713391E+03  0.90780713392E+03  0.25500000920E-02 0. -1.
        2   -1    0    0  501    0  0.00000000000E+00  0.00000000000E+00 -0.18573261561E+04  0.18573261561E+04  0.25500000920E-02 0.  1.
    10030    2    1    2    0    0  0.00000000000E+00  0.00000000000E+00 -0.94951902215E+03  0.27651332900E+04  0.25969935961E+04 0.  0.
        3    1    3    3  502    0  0.31142625758E+03  0.50587837672E+03  0.75463700430E+03  0.96040421928E+03  0.10100000352E+00 0. -1.
       -3    1    3    3    0  502 -0.31142625758E+03 -0.50587837672E+03 -0.17041560265E+04  0.18047290707E+04  0.10100000352E+00 0.  1.
</event>
<event>
 5   0  0.2555801E-05  0.2606004E+04  0.7818609E-02  0.8366165E-01
        2   -1    0    0  501    0  0.00000000000E+00  0.00000000000E+00  0.14530975840E+04  0.14530975840E+04  0.25500000920E-02 0.  1.
       -2   -1    0    0    0  501  0.00000000000E+00  0.00000000000E+00 -0.11684103645E+04  0.11684103645E+04  0.25500000920E-02 0. -1.
    10030    2    1    2    0    0  0.00000000000E+00  0.00000000000E+00  0.28468721953E+03  0.26215079485E+04  0.26060040504E+04 0.  0.
        1    1    3    3  502    0  0.31022584059E+03 -0.48434160010E+03  0.13184817980E+04  0.14384787484E+04  0.50400001928E-02 0.  1.
       -1    1    3    3    0  502 -0.31022584059E+03  0.48434160010E+03 -0.10337945785E+04  0.11830292001E+04  0.50400001928E-02 0. -1.
</event>
<event>
 5   0  0.1034714E-05  0.2422362E+04  0.7818609E-02  0.8431179E-01
       -1   -1    0    0    0  501  0.00000000000E+00  0.00000000000E+00  0.97328344597E+03  0.97328344598E+03  0.50400001928E-02 0. -1.
        1   -1    0    0  501    0  0.00000000000E+00  0.00000000000E+00 -0.15072273796E+04  0.15072273796E+04  0.50400001928E-02 0.  1.
    10030    2    1    2    0    0  0.00000000000E+00  0.00000000000E+00 -0.53394393359E+03  0.24805108256E+04  0.24223620356E+04 0.  0.
        5    1    3    3  502    0  0.56723070607E+03 -0.19524698542E+03 -0.13444010547E+04  0.14721780956E+04  0.46999998093E+01 0.  1.
       -5    1    3    3    0  502 -0.56723070607E+03  0.19524698542E+03  0.81045712110E+03  0.10083327300E+04  0.46999998093E+01 0. -1.
</event>
<event>
 5   0  0.9855352E-06  0.2601414E+04  0.7818609E-02  0.8367721E-01
        1   -1    0    0  501    0  0.00000000000E+00  0.00000000000E+00  0.13206229403E+04  0.13206229403E+04  0.50400001928E-02 0. -1.
       -1   -1    0    0    0  501  0.00000000000E+00  0.00000000000E+00 -0.12810914501E+04  0.12810914501E+04  0.50400001928E-02 0.  1.
    10030    2    1    2    0    0  0.00000000000E+00  0.00000000000E+00  0.39531490216E+02  0.26017143904E+04  0.26014140444E+04 0.  0.
        2    1    3    3  502    0  0.96787698099E+03  0.98879004786E+02 -0.84362753207E+03  0.12877384520E+04  0.25500000920E-02 0.  1.
       -2    1    3    3    0  502 -0.96787698099E+03 -0.98879004786E+02  0.88315902229E+03  0.13139759384E+04  0.25500000920E-02 0. -1.
</event>
<event>
 5   0  0.2662024E-05  0.2634331E+04  0.7818609E-02  0.8356632E-01
        2   -1    0    0  501    0  0.00000000000E+00  0.00000000000E+00  0.16902340152E+04  0.16902340152E+04  0.25500000920E-02 0.  1.
       -2   -1    0    0    0  501  0.00000000000E+00  0.00000000000E+00 -0.10264405306E+04  0.10264405307E+04  0.25500000920E-02 0. -1.
    10030    2    1    2    0    0  0.00000000000E+00  0.00000000000E+00  0.66379348457E+03  0.27166745459E+04  0.26343308065E+04 0.  0.
        2    1    3    3  502    0  0.81114784554E+03  0.11567174896E+03 -0.73164167964E+03  0.10984718149E+04  0.25500000920E-02 0. -1.
       -2    1    3    3    0  502 -0.81114784554E+03 -0.11567174896E+03  0.13954351642E+04  0.16182027309E+04  0.25500000920E-02 0.  1.
</event>
<event>
 5   0  0.2662024E-05  0.2593073E+04  0.7818609E-02  0.8370558E-01
       -2   -1    0    0    0  501  0.00000000000E+00  0.00000000000E+00  0.95732138561E+03  0.95732138561E+03  0.25500000920E-02 0. -1.
        2   -1    0    0  501    0  0.00000000000E+00  0.00000000000E+00 -0.17559487542E+04  0.17559487542E+04  0.25500000920E-02 0.  1.
    10030    2    1    2    0    0  0.00000000000E+00  0.00000000000E+00 -0.79862736855E+03  0.27132701398E+04  0.25930733074E+04 0.  0.
        2    1    3    3  502    0  0.66102717187E+03 -0.67736770777E+03 -0.13265167235E+04  0.16295491865E+04  0.25500000920E-02 0.  1.
       -2    1    3    3    0  502 -0.66102717187E+03  0.67736770777E+03  0.52788935496E+03  0.10837209533E+04  0.25500000920E-02 0. -1.
</event>
<event>
 5   0  0.1000421E-05  0.2592043E+04  0.7818609E-02  0.8370909E-01
       -1   -1    0    0    0  501  0.00000000000E+00  0.00000000000E+00  0.13033621231E+04  0.13033621231E+04  0.50400001928E-02 0. -1.
        1   -1    0    0  501    0  0.00000000000E+00  0.00000000000E+00 -0.12887218221E+04  0.12887218221E+04  0.50400001928E-02 0.  1.
    10030    2    1    2    0    0  0.00000000000E+00  0.00000000000E+00  0.14640300946E+02  0.25920839452E+04  0.25920426001E+04 0.  0.
        3    1    3    3  502    0 -0.35900796355E+02  0.89414448281E+03 -0.93018505740E+03  0.12907468669E+04  0.10100000352E+00 0.  1.
       -3    1    3    3    0  502  0.35900796355E+02 -0.89414448281E+03  0.94482535834E+03  0.13013370783E+04  0.10100000352E+00 0. -1.
</event>
<event>
 5   0  0.9855352E-06  0.2580651E+04  0.7818609E-02  0.8374803E-01
       -1   -1    0    0    0  501  0.00000000000E+00  0.00000000000E+00  0.13265451539E+04  0.13265451539E+04  0.50400001928E-02 0.  1.
        1   -1    0    0  501    0  0.00000000000E+00  0.00000000000E+00 -0.12550946895E+04  0.12550946895E+04  0.50400001928E-02 0. -1.
    10030    2    1    2    0    0  0.00000000000E+00  0.00000000000E+00  0.71450464396E+02  0.25816398434E+04  0.25806509086E+04 0.  0.
        2    1    3    3  502    0 -0.10640377815E+04  0.71817298237E+03 -0.94674038258E+02  0.12872109410E+04  0.25500000920E-02 0.  1.
       -2    1    3    3    0  502  0.10640377815E+04 -0.71817298237E+03  0.16612450265E+03  0.12944289024E+04  0.25500000920E-02 0. -1.
</event>
<event>
 5   0  0.2555801E-05  0.2631657E+04  0.7818609E-02  0.8357527E-01
        2   -1    0    0  501    0  0.00000000000E+00  0.00000000000E+00  0.19935727121E+04  0.19935727121E+04  0.25500000920E-02 0. -1.
       -2   -1    0    0    0  501  0.00000000000E+00  0.00000000000E+00 -0.86849342562E+03  0.86849342563E+03  0.25500000920E-02 0.  1.
    10030    2    1    2    0    0  0.00000000000E+00  0.00000000000E+00  0.11250792865E+04  0.28620661377E+04  0.26316571159E+04 0.  0.
        1    1    3    3  502    0  0.38459234221E+03 -0.10495230941E+04  0.13175823866E+04  0.17278406583E+04  0.50400001928E-02 0. -1.
       -1    1    3    3    0  502 -0.38459234221E+03  0.10495230941E+04 -0.19250310016E+03  0.11342254795E+04  0.50400001928E-02 0.  1.
</event>
<event>
 5   0  0.1005492E-05  0.2593262E+04  0.7818609E-02  0.8370494E-01
        1   -1    0    0  501    0  0.00000000000E+00  0.00000000000E+00  0.12592559682E+04  0.12592559683E+04  0.50400001928E-02 0.  1.
       -1   -1    0    0    0  501  0.00000000000E+00  0.00000000000E+00 -0.13351151443E+04  0.13351151443E+04  0.50400001928E-02 0. -1.
    10030    2    1    2    0    0  0.00000000000E+00  0.00000000000E+00 -0.75859176014E+02  0.25943711125E+04  0.25932618176E+04 0.  0.
        4    1    3    3  502    0  0.11770810977E+04  0.43886117600E+03  0.28334803056E+03  0.12877914278E+04  0.12699999809E+01 0.  1.
       -4    1    3    3    0  502 -0.11770810977E+04 -0.43886117600E+03 -0.35920720658E+03  0.13065796847E+04  0.12699999809E+01 0. -1.
</event>
<event>
 5   0  0.2555801E-05  0.2597079E+04  0.7818609E-02  0.8369194E-01
        2   -1    0    0  501    0  0.00000000000E+00  0.00000000000E+00  0.11375046911E+04  0.11375046911E+04  0.25500000920E-02 0.  1.
       -2   -1    0    0    0  501  0.00000000000E+00  0.00000000000E+00 -0.14823715437E+04  0.14823715437E+04  0.25500000920E-02 0. -1.
    10030    2    1    2    0    0  0.00000000000E+00  0.00000000000E+00 -0.34486685255E+03  0.26198762348E+04  0.25970788089E+04 0.  0.
        1    1    3    3  502    0  0.90966608968E+03 -0.58775502460E+03 -0.89514125274E+03  0.14050716089E+04  0.50400001928E-02 0. -1.
       -1    1    3    3    0  502 -0.90966608968E+03  0.58775502460E+03  0.55027440018E+03  0.12148046259E+04  0.50400001928E-02 0.  1.
</event>
<event>
 5   0  0.1025153E-05  0.2702353E+04  0.7818609E-02  0.8334242E-01
        1   -1    0    0  501    0  0.00000000000E+00  0.00000000000E+00  0.18894734839E+04  0.18894734839E+04  0.50400001928E-02 0. -1.
       -1   -1    0    0    0  501  0.00000000000E+00  0.00000000000E+00 -0.96623615206E+03  0.96623615207E+03  0.50400001928E-02 0.  1.
    10030    2    1    2    0    0  0.00000000000E+00  0.00000000000E+00  0.92323733185E+03  0.28557096360E+04  0.27023527442E+04 0.  0.
        1    1    3    3  502    0 -0.29750999501E+03  0.12599949253E+04  0.52917260569E+02  0.12957235991E+04  0.50400001928E-02 0.  1.
       -1    1    3    3    0  502  0.29750999501E+03 -0.12599949253E+04  0.87032007128E+03  0.15599860369E+04  0.50400001928E-02 0. -1.
</event>
<event>
 5   0  0.2517854E-05  0.2331179E+04  0.7818609E-02  0.8465728E-01
       -2   -1    0    0    0  501  0.00000000000E+00  0.00000000000E+00  0.87531290101E+03  0.87531290101E+03  0.25500000920E-02 0.  1.
        2   -1    0    0  501    0  0.00000000000E+00  0.00000000000E+00 -0.15521300383E+04  0.15521300383E+04  0.25500000920E-02 0. -1.
    10030    2    1    2    0    0  0.00000000000E+00  0.00000000000E+00 -0.67681713734E+03  0.24274429394E+04  0.23311794840E+04 0.  0.
        4    1    3    3  502    0 -0.26982990771E+03 -0.95378886122E+03  0.30016567013E+03  0.10356748589E+04  0.12699999809E+01 0.  1.
       -4    1    3    3    0  502  0.26982990771E+03  0.95378886122E+03 -0.97698280747E+03  0.13917680805E+04  0.12699999809E+01 0. -1.
</event>
<event>
 5   0  0.8605000E-06  0.2449003E+04  0.7818609E-02  0.8421382E-01
       -3   -1    0    0    0  501  0.00000000000E+00  0.00000000000E+00  0.90931866132E+03  0.90931866693E+03  0.10100000352E+00 0.  1.
        3   -1    0    0  501    0  0.00000000000E+00  0.00000000000E+00 -0.16489315646E+04  0.16489315677E+04  0.10100000352E+00 0. -1.
    10030    2    1    2    0    0  0.00000000000E+00  0.00000000000E+00 -0.73961290328E+03  0.25582502346E+04  0.24490032700E+04 0.  0.
        2    1    3    3  502    0  0.34517469928E+03  0.99849146174E+03  0.27690126591E+03  0.10921561625E+04  0.25500000920E-02 0.  1.
       -2    1    3    3    0  502 -0.34517469928E+03 -0.99849146174E+03 -0.10165141692E+04  0.14660940721E+04  0.25500000920E-02 0. -1.
</event>
<event>
 5   0  0.2484618E-05  0.2615654E+04  0.7818609E-02  0.8362903E-01
        2   -1    0    0  501    0  0.00000000000E+00  0.00000000000E+00  0.13764923874E+04  0.13764923874E+04  0.25500000920E-02 0. -1.
       -2   -1    0    0    0  501  0.00000000000E+00  0.00000000000E+00 -0.12425866551E+04  0.12425866551E+04  0.25500000920E-02 0.  1.
    10030    2    1    2    0    0  0.00000000000E+00  0.00000000000E+00  0.13390573227E+03  0.26190790426E+04  0.26156537015E+04 0.  0.
        3    1    3    3  502    0 -0.45486658200E+03  0.45295195626E+03 -0.10739874062E+04  0.12512066340E+04  0.10100000352E+00 0.  1.
       -3    1    3    3    0  502  0.45486658200E+03 -0.45295195626E+03  0.12078931384E+04  0.13678724086E+04  0.10100000352E+00 0. -1.
</event>
<event>
 5   0  0.2662024E-05  0.2581092E+04  0.7818609E-02  0.8374652E-01
        2   -1    0    0  501    0  0.00000000000E+00  0.00000000000E+00  0.11015586992E+04  0.11015586992E+04  0.25500000920E-02 0. -1.
       -2   -1    0    0    0  501  0.00000000000E+00  0.00000000000E+00 -0.15119568066E+04  0.15119568066E+04  0.25500000920E-02 0.  1.
    10030    2    1    2    0    0  0.00000000000E+00  0.00000000000E+00 -0.41039810737E+03  0.26135155059E+04  0.25810921512E+04 0.  0.
        2    1    3    3  502    0  0.55607003692E+02 -0.10981538886E+04 -0.88931561406E+03  0.14141839920E+04  0.25500000920E-02 0.  1.
       -2    1    3    3    0  502 -0.55607003692E+02  0.10981538886E+04  0.47891750669E+03  0.11993315138E+04  0.25500000920E-02 0. -1.
</event>
<event>
 5   0  0.2555801E-05  0.1962366E+04  0.7818609E-02  0.8624421E-01
       -2   -1    0    0    0  501  0.00000000000E+00  0.00000000000E+00  0.41356524261E+03  0.41356524261E+03  0.25500000920E-02 0.  1.
        2   -1    0    0  501    0  0.00000000000E+00  0.00000000000E+00 -0.23278547160E+04  0.23278547160E+04  0.25500000920E-02 0. -1.
    10030    2    1    2    0    0  0.00000000000E+00  0.00000000000E+00 -0.19142894734E+04  0.27414199586E+04  0.19623657155E+04 0.  0.
        1    1    3    3  502    0 -0.67895766008E+03  0.44099895658E+03 -0.18277929735E+03  0.82998304528E+03  0.50400001928E-02 0.  1.
       -1    1    3    3    0  502  0.67895766008E+03 -0.44099895658E+03 -0.17315101760E+04  0.19114369133E+04  0.50400001928E-02 0. -1.
</event>
<event>
 5   0  0.1005492E-05  0.2488809E+04  0.7818609E-02  0.8406983E-01
       -1   -1    0    0    0  501  0.00000000000E+00  0.00000000000E+00  0.12655851776E+04  0.12655851777E+04  0.50400001928E-02 0.  1.
        1   -1    0    0  501    0  0.00000000000E+00  0.00000000000E+00 -0.12235787523E+04  0.12235787523E+04  0.50400001928E-02 0. -1.
    10030    2    1    2    0    0  0.00000000000E+00  0.00000000000E+00  0.42006425370E+02  0.24891639299E+04  0.24888094604E+04 0.  0.
        4    1    3    3  502    0 -0.36946730837E+03  0.11800070257E+04 -0.11908403102E+03  0.12422178923E+04  0.12699999809E+01 0.  1.
       -4    1    3    3    0  502  0.36946730837E+03 -0.11800070257E+04  0.16109045639E+03  0.12469460376E+04  0.12699999809E+01 0. -1.
</event>
<event>
 5   0  0.2662024E-05  0.2241509E+04  0.7818609E-02  0.8501347E-01
        2   -1    0    0  501    0  0.00000000000E+00  0.00000000000E+00  0.74829388298E+03  0.74829388298E+03  0.25500000920E-02 0. -1.
       -2   -1    0    0    0  501  0.00000000000E+00  0.00000000000E+00 -0.16786061384E+04  0.16786061384E+04  0.25500000920E-02 0.  1.
    10030    2    1    2    0    0  0.00000000000E+00  0.00000000000E+00 -0.93031225545E+03  0.24269000214E+04  0.22415090500E+04 0.  0.
        2    1    3    3  502    0  0.23026406100E+02  0.93361189958E+03  0.20571179003E+03  0.95628381508E+03  0.25500000920E-02 0. -1.
       -2    1    3    3    0  502 -0.23026406100E+02 -0.93361189958E+03 -0.11360240455E+04  0.14706162063E+04  0.25500000920E-02 0.  1.
</event>
<event>
 5   0  0.1000421E-05  0.2310407E+04  0.7818609E-02  0.8473829E-01
        1   -1    0    0  501    0  0.00000000000E+00  0.00000000000E+00  0.17571248487E+04  0.17571248487E+04  0.50400001928E-02 0. -1.
       -1   -1    0    0    0  501  0.00000000000E+00  0.00000000000E+00 -0.75947631377E+03  0.75947631379E+03  0.50400001928E-02 0.  1.
    10030    2    1    2    0    0  0.00000000000E+00  0.00000000000E+00  0.99764853494E+03  0.25166011625E+04  0.23104066334E+04 0.  0.
        3    1    3    3  502    0 -0.68017899241E+03  0.27288747305E+03  0.14714810857E+04  0.16438879616E+04  0.10100000352E+00 0. -1.
       -3    1    3    3    0  502  0.68017899241E+03 -0.27288747305E+03 -0.47383255073E+03  0.87271320089E+03  0.10100000352E+00 0.  1.
</event>
<event>
 5   0  0.1005492E-05  0.2644146E+04  0.7818609E-02  0.8353359E-01
        1   -1    0    0  501    0  0.00000000000E+00  0.00000000000E+00  0.18775415913E+04  0.18775415913E+04  0.50400001928E-02 0.  1.
       -1   -1    0    0    0  501  0.00000000000E+00  0.00000000000E+00 -0.93093906472E+03  0.93093906473E+03  0.50400001928E-02 0. -1.
    10030    2    1    2    0    0  0.00000000000E+00  0.00000000000E+00  0.94660252659E+03  0.28084806560E+04  0.26441458455E+04 0.  0.
        4    1    3    3  502    0  0.12179007767E+04  0.15058488998E+03  0.99572067384E+03  0.15803225570E+04  0.12699999809E+01 0. -1.
       -4    1    3    3    0  502 -0.12179007767E+04 -0.15058488998E+03 -0.49118147248E+02  0.12281580990E+04  0.12699999809E+01 0.  1.
</event>
<event>
 5   0  0.9855352E-06  0.2606948E+04  0.7818609E-02  0.8365845E-01
        1   -1    0    0  501    0  0.00000000000E+00  0.00000000000E+00  0.17420671001E+04  0.17420671001E+04  0.50400001928E-02 0. -1.
       -1   -1    0    0    0  501  0.00000000000E+00  0.00000000000E+00 -0.97530348155E+03  0.97530348156E+03  0.50400001928E-02 0.  1.
    10030    2    1    2    0    0  0.00000000000E+00  0.00000000000E+00  0.76676361857E+03  0.27173705817E+04  0.26069477232E+04 0.  0.
        2    1    3    3  502    0 -0.97431601585E+03 -0.42033346561E+03 -0.40569851171E+03  0.11360295786E+04  0.25500000920E-02 0.  1.
       -2    1    3    3    0  502  0.97431601585E+03  0.42033346561E+03  0.11724621303E+04  0.15813410031E+04  0.25500000920E-02 0. -1.
</event>
<event>
 5   0  0.1034714E-05  0.2420682E+04  0.7818609E-02  0.8431801E-01
       -1   -1    0    0    0  501  0.00000000000E+00  0.00000000000E+00  0.88744857215E+03  0.88744857216E+03  0.50400001928E-02 0.  1.
        1   -1    0    0  501    0  0.00000000000E+00  0.00000000000E+00 -0.16507159285E+04  0.16507159285E+04  0.50400001928E-02 0. -1.
    10030    2    1    2    0    0  0.00000000000E+00  0.00000000000E+00 -0.76326735636E+03  0.25381645007E+04  0.24206821302E+04 0.  0.
        5    1    3    3  502    0 -0.13086952922E+03  0.59854588190E+03  0.71282529140E+03  0.93996063347E+03  0.46999998093E+01 0.  1.
       -5    1    3    3    0  502  0.13086952922E+03 -0.59854588190E+03 -0.14760926478E+04  0.15982038672E+04  0.46999998093E+01 0. -1.
</event>
<event>
 5   0  0.2484618E-05  0.2613110E+04  0.7818609E-02  0.8363762E-01
        2   -1    0    0  501    0  0.00000000000E+00  0.00000000000E+00  0.13144793291E+04  0.13144793291E+04  0.25500000920E-02 0. -1.
       -2   -1    0    0    0  501  0.00000000000E+00  0.00000000000E+00 -0.12986781776E+04  0.12986781776E+04  0.25500000920E-02 0.  1.
    10030    2    1    2    0    0  0.00000000000E+00  0.00000000000E+00  0.15801151536E+02  0.26131575067E+04  0.26131097334E+04 0.  0.
        3    1    3    3  502    0  0.98415620051E+03  0.56173082678E+02  0.86545153969E+03  0.13117641632E+04  0.10100000352E+00 0. -1.
       -3    1    3    3    0  502 -0.98415620051E+03 -0.56173082678E+02 -0.84965038815E+03  0.13013933435E+04  0.10100000352E+00 0.  1.
</event>
<event>
 5   0  0.2517854E-05  0.2665110E+04  0.7818609E-02  0.8346415E-01
       -2   -1    0    0    0  501  0.00000000000E+00  0.00000000000E+00  0.95183833740E+03  0.95183833741E+03  0.25500000920E-02 0. -1.
        2   -1    0    0  501    0  0.00000000000E+00  0.00000000000E+00 -0.18655506424E+04  0.18655506424E+04  0.25500000920E-02 0.  1.
    10030    2    1    2    0    0  0.00000000000E+00  0.00000000000E+00 -0.91371230502E+03  0.28173889798E+04  0.26651098453E+04 0.  0.
        4    1    3    3  502    0  0.22424056453E+03  0.98532634582E+03  0.46142457765E+03  0.11108852741E+04  0.12699999809E+01 0. -1.
       -4    1    3    3    0  502 -0.22424056453E+03 -0.98532634582E+03 -0.13751368827E+04  0.17065037057E+04  0.12699999809E+01 0.  1.
</event>
<event>
 5   0  0.2528460E-05  0.2617216E+04  0.7818609E-02  0.8362377E-01
       -2   -1    0    0    0  501  0.00000000000E+00  0.00000000000E+00  0.92581580969E+03  0.92581580969E+03  0.25500000920E-02 0. -1.
        2   -1    0    0  501    0  0.00000000000E+00  0.00000000000E+00 -0.18496707334E+04  0.18496707334E+04  0.25500000920E-02 0.  1.
    10030    2    1    2    0    0  0.00000000000E+00  0.00000000000E+00 -0.92385492367E+03  0.27754865431E+04  0.26172156256E+04 0.  0.
        5    1    3    3  502    0  0.63495965448E+03 -0.25761600403E+03  0.72034184194E+03  0.99421035380E+03  0.46999998093E+01 0. -1.
       -5    1    3    3    0  502 -0.63495965448E+03  0.25761600403E+03 -0.16441967656E+04  0.17812761893E+04  0.46999998093E+01 0.  1.
</event>
<event>
 5   0  0.9855352E-06  0.3113148E+04  0.7818609E-02  0.8212139E-01
       -1   -1    0    0    0  501  0.00000000000E+00  0.00000000000E+00  0.12073522131E+04  0.12073522131E+04  0.50400001928E-02 0. -1.
        1   -1    0    0  501    0  0.00000000000E+00  0.00000000000E+00 -0.20068066227E+04  0.20068066227E+04  0.50400001928E-02 0.  1.
    10030    2    1    2    0    0  0.00000000000E+00  0.00000000000E+00 -0.79945440962E+03  0.32141588358E+04  0.31131478713E+04 0.  0.
        2    1    3    3  502    0 -0.12941104995E+03  0.22650586680E+03  0.11846226202E+04  0.12130057213E+04  0.25500000920E-02 0. -1.
       -2    1    3    3    0  502  0.12941104995E+03 -0.22650586680E+03 -0.19840770298E+04  0.20011531145E+04  0.25500000920E-02 0.  1.
</event>
<event>
 5   0  0.9855352E-06  0.2553786E+04  0.7818609E-02  0.8384071E-01
       -1   -1    0    0    0  501  0.00000000000E+00  0.00000000000E+00  0.22789509558E+04  0.22789509558E+04  0.50400001928E-02 0. -1.
        1   -1    0    0  501    0  0.00000000000E+00  0.00000000000E+00 -0.71544111447E+03  0.71544111449E+03  0.50400001928E-02 0.  1.
    10030    2    1    2    0    0  0.00000000000E+00  0.00000000000E+00  0.15635098413E+04  0.29943920703E+04  0.25537855914E+04 0.  0.
        2    1    3    3  502    0 -0.45524711108E+03 -0.11641591887E+04  0.47613424676E+03  0.13376174228E+04  0.25500000920E-02 0.  1.
       -2    1    3    3    0  502  0.45524711108E+03  0.11641591887E+04  0.10873755946E+04  0.16567746475E+04  0.25500000920E-02 0. -1.
</event>
<event>
 5   0  0.8605000E-06  0.2385122E+04  0.7818609E-02  0.8445095E-01
       -3   -1    0    0    0  501  0.00000000000E+00  0.00000000000E+00  0.23494631807E+04  0.23494631829E+04  0.10100000352E+00 0.  1.
        3   -1    0    0  501    0  0.00000000000E+00  0.00000000000E+00 -0.60533064054E+03  0.60533064896E+03  0.10100000352E+00 0. -1.
    10030    2    1    2    0    0  0.00000000000E+00  0.00000000000E+00  0.17441325401E+04  0.29547938318E+04  0.23851222759E+04 0.  0.
        1    1    3    3  502    0  0.11278617635E+04 -0.38461146927E+03  0.93022504076E+03  0.15117264192E+04  0.50400001928E-02 0.  1.
       -1    1    3    3    0  502 -0.11278617635E+04  0.38461146927E+03  0.81390749938E+03  0.14430674127E+04  0.50400001928E-02 0. -1.
</event>
<event>
 5   0  0.8605000E-06  0.2566959E+04  0.7818609E-02  0.8379512E-01
       -3   -1    0    0    0  501  0.00000000000E+00  0.00000000000E+00  0.16085038854E+04  0.16085038886E+04  0.10100000352E+00 0. -1.
        3   -1    0    0  501    0  0.00000000000E+00  0.00000000000E+00 -0.10241316342E+04  0.10241316392E+04  0.10100000352E+00 0.  1.
    10030    2    1    2    0    0  0.00000000000E+00  0.00000000000E+00  0.58437225126E+03  0.26326355278E+04  0.25669590752E+04 0.  0.
        2    1    3    3  502    0  0.39746478399E+03  0.11193234217E+04  0.79089542252E+03  0.14270174302E+04  0.25500000920E-02 0. -1.
       -2    1    3    3    0  502 -0.39746478399E+03 -0.11193234217E+04 -0.20652317126E+03  0.12056180975E+04  0.25500000920E-02 0.  1.
</event>
<event>
 5   0  0.1005492E-05  0.2624490E+04  0.7818609E-02  0.8359930E-01
        1   -1    0    0  501    0  0.00000000000E+00  0.00000000000E+00  0.10058491864E+04  0.10058491864E+04  0.50400001928E-02 0.  1.
       -1   -1    0    0    0  501  0.00000000000E+00  0.00000000000E+00 -0.17119727124E+04  0.17119727124E+04  0.50400001928E-02 0. -1.
    10030    2    1    2    0    0  0.00000000000E+00  0.00000000000E+00 -0.70612352603E+03  0.27178218988E+04  0.26244895579E+04 0.  0.
        4    1    3    3  502    0 -0.15363037167E+03  0.32017183461E+03  0.95514151637E+03  0.10190236621E+04  0.12699999809E+01 0.  1.
       -4    1    3    3    0  502  0.15363037167E+03 -0.32017183461E+03 -0.16612650424E+04  0.16987982366E+04  0.12699999809E+01 0. -1.
</event>
<event>
 5   0  0.1025153E-05  0.2600080E+04  0.7818609E-02  0.8368174E-01
        1   -1    0    0  501    0  0.00000000000E+00  0.00000000000E+00  0.10494500166E+04  0.10494500166E+04  0.50400001928E-02 0.  1.
       -1   -1    0    0    0  501  0.00000000000E+00  0.00000000000E+00 -0.16104658022E+04  0.16104658023E+04  0.50400001928E-02 0. -1.
    10030    2    1    2    0    0  0.00000000000E+00  0.00000000000E+00 -0.56101578564E+03  0.26599158189E+04  0.26000795087E+04 0.  0.
        1    1    3    3  502    0 -0.14149334685E+02  0.95884583845E+02 -0.16067645168E+04  0.16096851461E+04  0.50400001928E-02 0. -1.
       -1    1    3    3    0  502  0.14149334685E+02 -0.95884583845E+02  0.10457487312E+04  0.10502306727E+04  0.50400001928E-02 0.  1.
</event>
<event>
 5   0  0.2517854E-05  0.2654724E+04  0.7818609E-02  0.8349847E-01
       -2   -1    0    0    0  501  0.00000000000E+00  0.00000000000E+00  0.11599808753E+04  0.11599808753E+04  0.25500000920E-02 0.  1.
        2   -1    0    0  501    0  0.00000000000E+00  0.00000000000E+00 -0.15188956869E+04  0.15188956869E+04  0.25500000920E-02 0. -1.
    10030    2    1    2    0    0  0.00000000000E+00  0.00000000000E+00 -0.35891481160E+03  0.26788765623E+04  0.26547240523E+04 0.  0.
        4    1    3    3  502    0 -0.92454055998E+03 -0.20349922695E+03 -0.11183530320E+04  0.14652311420E+04  0.12699999809E+01 0. -1.
       -4    1    3    3    0  502  0.92454055998E+03  0.20349922695E+03  0.75943822045E+03  0.12136454202E+04  0.12699999809E+01 0.  1.
</event>
<event>
 5   0  0.2528460E-05  0.2227528E+04  0.7818609E-02  0.8507057E-01
        2   -1    0    0  501    0  0.00000000000E+00  0.00000000000E+00  0.11011833178E+04  0.11011833178E+04  0.25500000920E-02 0. -1.
       -2   -1    0    0    0  501  0.00000000000E+00  0.00000000000E+00 -0.11264886141E+04  0.11264886141E+04  0.25500000920E-02 0.  1.
    10030    2    1    2    0    0  0.00000000000E+00  0.00000000000E+00 -0.25305296311E+02  0.22276719319E+04  0.22275281992E+04 0.  0.
        5    1    3    3  502    0 -0.66310101607E+03 -0.95836946435E+02  0.87710173198E+03  0.11037287783E+04  0.46999998093E+01 0. -1.
       -5    1    3    3    0  502  0.66310101607E+03  0.95836946435E+02 -0.90240702829E+03  0.11239431536E+04  0.46999998093E+01 0.  1.
</event>
<event>
 5   0  0.1034714E-05  0.2624020E+04  0.7818609E-02  0.8360088E-01
        1   -1    0    0  501    0  0.00000000000E+00  0.00000000000E+00  0.64003434448E+03  0.64003434450E+03  0.50400001928E-02 0. -1.
       -1   -1    0    0    0  501  0.00000000000E+00  0.00000000000E+00 -0.26894968511E+04  0.26894968511E+04  0.50400001928E-02 0.  1.
    10030    2    1    2    0    0  0.00000000000E+00  0.00000000000E+00 -0.20494625067E+04  0.33295311956E+04  0.26240200869E+04 0.  0.
        5    1    3    3  502    0 -0.58497660486E+03 -0.11742489187E+04 -0.10463434722E+04  0.16780688017E+04  0.46999998093E+01 0. -1.
       -5    1    3    3    0  502  0.58497660486E+03  0.11742489187E+04 -0.10031190345E+04  0.16514623940E+04  0.46999998093E+01 0.  1.
</event>
<event>
 5   0  0.2555801E-05  0.2588290E+04  0.7818609E-02  0.8372190E-01
       -2   -1    0    0    0  501  0.00000000000E+00  0.00000000000E+00  0.69496554366E+03  0.69496554366E+03  0.25500000920E-02 0.  1.
        2   -1    0    0  501    0  0.00000000000E+00  0.00000000000E+00 -0.24099200274E+04  0.24099200274E+04  0.25500000920E-02 0. -1.
    10030    2    1    2    0    0  0.00000000000E+00  0.00000000000E+00 -0.17149544837E+04  0.31048855711E+04  0.25882900780E+04 0.  0.
        1    1    3    3  502    0 -0.56251306760E+03  0.39312783421E+03 -0.21736630550E+04  0.22794257000E+04  0.50400001928E-02 0. -1.
       -1    1    3    3    0  502  0.56251306760E+03 -0.39312783421E+03  0.45870857128E+03  0.82545987101E+03  0.50400001928E-02 0.  1.
</event>
<event>
 5   0  0.2662024E-05  0.2603482E+04  0.7818609E-02  0.8367019E-01
       -2   -1    0    0    0  501  0.00000000000E+00  0.00000000000E+00  0.10233898692E+04  0.10233898692E+04  0.25500000920E-02 0.  1.
        2   -1    0    0  501    0  0.00000000000E+00  0.00000000000E+00 -0.16558006371E+04  0.16558006371E+04  0.25500000920E-02 0. -1.
    10030    2    1    2    0    0  0.00000000000E+00  0.00000000000E+00 -0.63241076787E+03  0.26791905064E+04  0.26034819742E+04 0.  0.
        2    1    3    3  502    0 -0.65519534388E+03 -0.13288927582E+03  0.83323064592E+03  0.10682760915E+04  0.25500000920E-02 0.  1.
       -2    1    3    3    0  502  0.65519534388E+03  0.13288927582E+03 -0.14656414138E+04  0.16109144149E+04  0.25500000920E-02 0. -1.
</event>
<event>
 5   0  0.2662024E-05  0.2605305E+04  0.7818609E-02  0.8366401E-01
       -2   -1    0    0    0  501  0.00000000000E+00  0.00000000000E+00  0.82974182441E+03  0.82974182442E+03  0.25500000920E-02 0. -1.
        2   -1    0    0  501    0  0.00000000000E+00  0.00000000000E+00 -0.20450984589E+04  0.20450984589E+04  0.25500000920E-02 0.  1.
    10030    2    1    2    0    0  0.00000000000E+00  0.00000000000E+00 -0.12153566345E+04  0.28748402833E+04  0.26053051463E+04 0.  0.
        2    1    3    3  502    0 -0.75226636665E+03 -0.61051165334E+03  0.35319994281E+03  0.10312028728E+04  0.25500000920E-02 0.  1.
       -2    1    3    3    0  502  0.75226636665E+03  0.61051165334E+03 -0.15685565773E+04  0.18436374105E+04  0.25500000920E-02 0. -1.
</event>
<event>
 5   0  0.1005492E-05  0.2606278E+04  0.7818609E-02  0.8366072E-01
        1   -1    0    0  501    0  0.00000000000E+00  0.00000000000E+00  0.12545041428E+04  0.12545041428E+04  0.50400001928E-02 0.  1.
       -1   -1    0    0    0  501  0.00000000000E+00  0.00000000000E+00 -0.13536593874E+04  0.13536593875E+04  0.50400001928E-02 0. -1.
    10030    2    1    2    0    0  0.00000000000E+00  0.00000000000E+00 -0.99155244698E+02  0.26081635302E+04  0.26062780431E+04 0.  0.
        4    1    3    3  502    0 -0.88646641633E+03 -0.86786151857E+03 -0.44881908765E+03  0.13192598338E+04  0.12699999809E+01 0. -1.
       -4    1    3    3    0  502  0.88646641633E+03  0.86786151857E+03  0.34966384295E+03  0.12889036964E+04  0.12699999809E+01 0.  1.
</event>
<event>
 5   0  0.1025153E-05  0.2628985E+04  0.7818609E-02  0.8358422E-01
       -1   -1    0    0    0  501  0.00000000000E+00  0.00000000000E+00  0.10206151075E+04  0.10206151075E+04  0.50400001928E-02 0. -1.
        1   -1    0    0  501    0  0.00000000000E+00  0.00000000000E+00 -0.16929887410E+04  0.16929887411E+04  0.50400001928E-02 0.  1.
    10030    2    1    2    0    0  0.00000000000E+00  0.00000000000E+00 -0.67237363357E+03  0.27136038485E+04  0.26289845081E+04 0.  0.
        1    1    3    3  502    0  0.76366776801E+03 -0.31580753091E+02 -0.14400500164E+04  0.16303158754E+04  0.50400001928E-02 0.  1.
       -1    1    3    3    0  502 -0.76366776801E+03  0.31580753091E+02  0.76767638286E+03  0.10832879731E+04  0.50400001928E-02 0. -1.
</event>
<event>
 5   0  0.2528460E-05  0.2587910E+04  0.7818609E-02  0.8372319E-01
        2   -1    0    0  501    0  0.00000000000E+00  0.00000000000E+00  0.18315656473E+04  0.18315656473E+04  0.25500000920E-02 0.  1.
       -2   -1    0    0    0  501  0.00000000000E+00  0.00000000000E+00 -0.91414677437E+03  0.91414677438E+03  0.25500000920E-02 0. -1.
    10030    2    1    2    0    0  0.00000000000E+00  0.00000000000E+00  0.91741887290E+03  0.27457124217E+04  0.25879102214E+04 0.  0.
        5    1    3    3  502    0  0.56523282076E+03 -0.62193512094E+03 -0.58515700256E+03  0.10240714057E+04  0.46999998093E+01 0. -1.
       -5    1    3    3    0  502 -0.56523282076E+03  0.62193512094E+03  0.15025758755E+04  0.17216410160E+04  0.46999998093E+01 0.  1.
</event>
<event>
 5   0  0.1034714E-05  0.2609388E+04  0.7818609E-02  0.8365019E-01
        1   -1    0    0  501    0  0.00000000000E+00  0.00000000000E+00  0.19638586978E+04  0.19638586978E+04  0.50400001928E-02 0.  1.
       -1   -1    0    0    0  501  0.00000000000E+00  0.00000000000E+00 -0.86677666284E+03  0.86677666285E+03  0.50400001928E-02 0. -1.
    10030    2    1    2    0    0  0.00000000000E+00  0.00000000000E+00  0.10970820350E+04  0.28306353607E+04  0.26093883486E+04 0.  0.
        5    1    3    3  502    0  0.41576196539E+03 -0.69475261601E+03 -0.56127038334E+03  0.98518310102E+03  0.46999998093E+01 0. -1.
       -5    1    3    3    0  502 -0.41576196539E+03  0.69475261601E+03  0.16583524183E+04  0.18454522597E+04  0.46999998093E+01 0.  1.
</event>
<event>
 5   0  0.2662024E-05  0.2607764E+04  0.7818609E-02  0.8365569E-01
       -2   -1    0    0    0  501  0.00000000000E+00  0.00000000000E+00  0.12296182107E+04  0.12296182107E+04  0.25500000920E-02 0.  1.
        2   -1    0    0  501    0  0.00000000000E+00  0.00000000000E+00 -0.13826305648E+04  0.13826305648E+04  0.25500000920E-02 0. -1.
    10030    2    1    2    0    0  0.00000000000E+00  0.00000000000E+00 -0.15301235411E+03  0.26122487756E+04  0.26077635792E+04 0.  0.
        2    1    3    3  502    0 -0.10682621906E+04  0.64675345539E+03 -0.45216261585E+03  0.13281284467E+04  0.25500000920E-02 0.  1.
       -2    1    3    3    0  502  0.10682621906E+04 -0.64675345539E+03  0.29915026174E+03  0.12841203288E+04  0.25500000920E-02 0. -1.
</event>
<event>
 5   0  0.2517854E-05  0.2612434E+04  0.7818609E-02  0.8363990E-01
        2   -1    0    0  501    0  0.00000000000E+00  0.00000000000E+00  0.26375306900E+04  0.26375306900E+04  0.25500000920E-02 0.  1.
       -2   -1    0    0    0  501  0.00000000000E+00  0.00000000000E+00 -0.64689398296E+03  0.64689398297E+03  0.25500000920E-02 0. -1.
    10030    2    1    2    0    0  0.00000000000E+00  0.00000000000E+00  0.19906367070E+04  0.32844246730E+04  0.26124339098E+04 0.  0.
        4    1    3    3  502    0 -0.36054565881E+03 -0.31105552319E+03  0.25245190720E+04  0.25690361750E+04  0.12699999809E+01 0.  1.
       -4    1    3    3    0  502  0.36054565881E+03  0.31105552319E+03 -0.53388236494E+03  0.71538849801E+03  0.12699999809E+01 0. -1.
</event>
<event>
 5   0  0.1005492E-05  0.2632015E+04  0.7818609E-02  0.8357407E-01
        1   -1    0    0  501    0  0.00000000000E+00  0.00000000000E+00  0.16309295628E+04  0.16309295628E+04  0.50400001928E-02 0.  1.
       -1   -1    0    0    0  501  0.00000000000E+00  0.00000000000E+00 -0.10618947268E+04  0.10618947268E+04  0.50400001928E-02 0. -1.
    10030    2    1    2    0    0  0.00000000000E+00  0.00000000000E+00  0.56903483600E+03  0.26928242897E+04  0.26320148196E+04 0.  0.
        4    1    3    3  502    0 -0.94847172895E+03 -0.76716231846E+03  0.78962121808E+03  0.14531482803E+04  0.12699999809E+01 0.  1.
       -4    1    3    3    0  502  0.94847172895E+03  0.76716231846E+03 -0.22058638207E+03  0.12396760094E+04  0.12699999809E+01 0. -1.
</event>
<event>
 5   0  0.2528460E-05  0.2552207E+04  0.7818609E-02  0.8384619E-01
        2   -1    0    0  501    0  0.00000000000E+00  0.00000000000E+00  0.20279865111E+04  0.20279865111E+04  0.25500000920E-02 0.  1.
       -2   -1    0    0    0  501  0.00000000000E+00  0.00000000000E+00 -0.80298364737E+03  0.80298364737E+03  0.25500000920E-02 0. -1.
    10030    2    1    2    0    0  0.00000000000E+00  0.00000000000E+00  0.12250028637E+04  0.28309701585E+04  0.25522068925E+04 0.  0.
        5    1    3    3  502    0 -0.25513367400E+03 -0.15436808841E+03  0.19887870964E+04  0.20110243417E+04  0.46999998093E+01 0.  1.
       -5    1    3    3    0  502  0.25513367400E+03  0.15436808841E+03 -0.76378423265E+03  0.81994581673E+03  0.46999998093E+01 0. -1.
</event>
<event>
 5   0  0.2484618E-05  0.2595038E+04  0.7818609E-02  0.8369889E-01
        2   -1    0    0  501    0  0.00000000000E+00  0.00000000000E+00  0.13737905970E+04  0.13737905970E+04  0.25500000920E-02 0. -1.
       -2   -1    0    0    0  501  0.00000000000E+00  0.00000000000E+00 -0.12254816889E+04  0.12254816889E+04  0.25500000920E-02 0.  1.
    10030    2    1    2    0    0  0.00000000000E+00  0.00000000000E+00  0.14830890806E+03  0.25992722859E+04  0.25950377423E+04 0.  0.
        3    1    3    3  502    0 -0.49971624807E+03 -0.11009514451E+04  0.54582072158E+03  0.13265484097E+04  0.10100000352E+00 0. -1.
       -3    1    3    3    0  502  0.49971624807E+03  0.11009514451E+04 -0.39751181352E+03  0.12727238762E+04  0.10100000352E+00 0.  1.
</event>
<event>
 5   0  0.2517854E-05  0.2614249E+04  0.7818609E-02  0.8363377E-01
        2   -1    0    0  501    0  0.00000000000E+00  0.00000000000E+00  0.10196171735E+04  0.10196171735E+04  0.25500000920E-02 0.  1.
       -2   -1    0    0    0  501  0.00000000000E+00  0.00000000000E+00 -0.16757021979E+04  0.16757021979E+04  0.25500000920E-02 0. -1.
    10030    2    1    2    0    0  0.00000000000E+00  0.00000000000E+00 -0.65608502446E+03  0.26953193714E+04  0.26142492143E+04 0.  0.
        4    1    3    3  502    0  0.38431133991E+03  0.29167962775E+03 -0.15805407803E+04  0.16525383452E+04  0.12699999809E+01 0. -1.
       -4    1    3    3    0  502 -0.38431133991E+03 -0.29167962775E+03  0.92445575582E+03  0.10427810262E+04  0.12699999809E+01 0.  1.
</event>
<event>
 5   0  0.9855352E-06  0.2606833E+04  0.7818609E-02  0.8365884E-01
        1   -1    0    0  501    0  0.00000000000E+00  0.00000000000E+00  0.11511643477E+04  0.11511643477E+04  0.50400001928E-02 0. -1.
       -1   -1    0    0    0  501  0.00000000000E+00  0.00000000000E+00 -0.14758048678E+04  0.14758048678E+04  0.50400001928E-02 0.  1.
    10030    2    1    2    0    0  0.00000000000E+00  0.00000000000E+00 -0.32464052011E+03  0.26269692156E+04  0.26068325210E+04 0.  0.
        2    1    3    3  502    0  0.92379188503E+03  0.12283269070E+03  0.75598981571E+03  0.11999999659E+04  0.25500000920E-02 0. -1.
       -2    1    3    3    0  502 -0.92379188503E+03 -0.12283269070E+03 -0.10806303358E+04  0.14269692497E+04  0.25500000920E-02 0.  1.
</event>
<event>
 5   0  0.2528460E-05  0.2610153E+04  0.7818609E-02  0.8364761E-01
       -2   -1    0    0    0  501  0.00000000000E+00  0.00000000000E+00  0.10578339155E+04  0.10578339155E+04  0.25500000920E-02 0. -1.
        2   -1    0    0  501    0  0.00000000000E+00  0.00000000000E+00 -0.16101055083E+04  0.16101055083E+04  0.25500000920E-02 0.  1.
    10030    2    1    2    0    0  0.00000000000E+00  0.00000000000E+00 -0.55227159280E+03  0.26679394237E+04  0.26101526500E+04 0.  0.
        5    1    3    3  502    0  0.42731449052E+03 -0.80750719386E+03  0.67645002986E+03  0.11367815423E+04  0.46999998093E+01 0. -1.
       -5    1    3    3    0  502 -0.42731449052E+03  0.80750719386E+03 -0.12287216227E+04  0.15311578815E+04  0.46999998093E+01 0.  1.
</event>
<event>
 5   0  0.1000421E-05  0.2588224E+04  0.7818609E-02  0.8372212E-01
        1   -1    0    0  501    0  0.00000000000E+00  0.00000000000E+00  0.14601834675E+04  0.14601834675E+04  0.50400001928E-02 0. -1.
       -1   -1    0    0    0  501  0.00000000000E+00  0.00000000000E+00 -0.11469286485E+04  0.11469286486E+04  0.50400001928E-02 0.  1.
    10030    2    1    2    0    0  0.00000000000E+00  0.00000000000E+00  0.31325481899E+03  0.26071121161E+04  0.25882242956E+04 0.  0.
        3    1    3    3  502    0  0.66179979936E+03  0.12397856955E+03  0.12698514910E+04  0.14373143287E+04  0.10100000352E+00 0. -1.
       -3    1    3    3    0  502 -0.66179979936E+03 -0.12397856955E+03 -0.95659667204E+03  0.11697977874E+04  0.10100000352E+00 0.  1.
</event>
<event>
 5   0  0.2517854E-05  0.2669166E+04  0.7818609E-02  0.8345079E-01
       -2   -1    0    0    0  501  0.00000000000E+00  0.00000000000E+00  0.83744113369E+03  0.83744113370E+03  0.25500000920E-02 0.  1.
        2   -1    0    0  501    0  0.00000000000E+00  0.00000000000E+00 -0.21268496002E+04  0.21268496002E+04  0.25500000920E-02 0. -1.
    10030    2    1    2    0    0  0.00000000000E+00  0.00000000000E+00 -0.12894084665E+04  0.29642907339E+04  0.26691656677E+04 0.  0.
        4    1    3    3  502    0  0.18117187168E+03  0.64490547973E+03  0.63721266786E+03  0.92453659844E+03  0.12699999809E+01 0.  1.
       -4    1    3    3    0  502 -0.18117187168E+03 -0.64490547973E+03 -0.19266211344E+04  0.20397541355E+04  0.12699999809E+01 0. -1.
</event>
<event>
 5   0  0.1025153E-05  0.2936268E+04  0.7818609E-02  0.8262168E-01
        1   -1    0    0  501    0  0.00000000000E+00  0.00000000000E+00  0.20794641551E+04  0.20794641551E+04  0.50400001928E-02 0.  1.
       -1   -1    0    0    0  501  0.00000000000E+00  0.00000000000E+00 -0.10365251707E+04  0.10365251708E+04  0.50400001928E-02 0. -1.
    10030    2    1    2    0    0  0.00000000000E+00  0.00000000000E+00  0.10429389844E+04  0.31159893259E+04  0.29362676571E+04 0.  0.
        1    1    3    3  502    0  0.70571295254E+03 -0.68993985719E+03  0.16749045163E+04  0.19440557905E+04  0.50400001928E-02 0.  1.
       -1    1    3    3    0  502 -0.70571295254E+03  0.68993985719E+03 -0.63196553188E+03  0.11719335354E+04  0.50400001928E-02 0. -1.
</event>
<event>
 5   0  0.2528460E-05  0.2608196E+04  0.7818609E-02  0.8365423E-01
       -2   -1    0    0    0  501  0.00000000000E+00  0.00000000000E+00  0.12625820524E+04  0.12625820524E+04  0.25500000920E-02 0.  1.
        2   -1    0    0  501    0  0.00000000000E+00  0.00000000000E+00 -0.13469790922E+04  0.13469790922E+04  0.25500000920E-02 0. -1.
    10030    2    1    2    0    0  0.00000000000E+00  0.00000000000E+00 -0.84397039852E+02  0.26095611446E+04  0.26081960254E+04 0.  0.
        5    1    3    3  502    0 -0.41983493495E+03  0.22530223076E+03  0.11723672681E+04  0.12654997310E+04  0.46999998093E+01 0.  1.
       -5    1    3    3    0  502  0.41983493495E+03 -0.22530223076E+03 -0.12567643079E+04  0.13440614136E+04  0.46999998093E+01 0. -1.
</event>
<event>
 5   0  0.1034714E-05  0.2634515E+04  0.7818609E-02  0.8356571E-01
       -1   -1    0    0    0  501  0.00000000000E+00  0.00000000000E+00  0.94228169594E+03  0.94228169595E+03  0.50400001928E-02 0. -1.
        1   -1    0    0  501    0  0.00000000000E+00  0.00000000000E+00 -0.18414529370E+04  0.18414529370E+04  0.50400001928E-02 0.  1.
    10030    2    1    2    0    0  0.00000000000E+00  0.00000000000E+00 -0.89917124109E+03  0.27837346330E+04  0.26345150571E+04 0.  0.
        5    1    3    3  502    0 -0.12043140718E+04  0.48880759529E+03 -0.67581537556E+03  0.14649415554E+04  0.46999998093E+01 0. -1.
       -5    1    3    3    0  502  0.12043140718E+04 -0.48880759529E+03 -0.22335586553E+03  0.13187930776E+04  0.46999998093E+01 0.  1.
</event>
<event>
 5   0  0.1034714E-05  0.2579548E+04  0.7818609E-02  0.8375182E-01
        1   -1    0    0  501    0  0.00000000000E+00  0.00000000000E+00  0.27294060793E+04  0.27294060793E+04  0.50400001928E-02 0. -1.
       -1   -1    0    0    0  501  0.00000000000E+00  0.00000000000E+00 -0.60947936112E+03  0.60947936114E+03  0.50400001928E-02 0.  1.
    10030    2    1    2    0    0  0.00000000000E+00  0.00000000000E+00  0.21199267182E+04  0.33388854404E+04  0.25795477693E+04 0.  0.
        5    1    3    3  502    0  0.24709500546E+03 -0.26176721387E+03 -0.54312999141E+03  0.65160593425E+03  0.46999998093E+01 0.  1.
       -5    1    3    3    0  502 -0.24709500546E+03  0.26176721387E+03  0.26630567096E+04  0.26872795062E+04  0.46999998093E+01 0. -1.
</event>
<event>
 5   0  0.2528460E-05  0.2574270E+04  0.7818609E-02  0.8376994E-01
        2   -1    0    0  501    0  0.00000000000E+00  0.00000000000E+00  0.15099650433E+04  0.15099650433E+04  0.25500000920E-02 0.  1.
       -2   -1    0    0    0  501  0.00000000000E+00  0.00000000000E+00 -0.10971886333E+04  0.10971886333E+04  0.25500000920E-02 0. -1.
    10030    2    1    2    0    0  0.00000000000E+00  0.00000000000E+00  0.41277641000E+03  0.26071536766E+04  0.25742699798E+04 0.  0.
        5    1    3    3  502    0 -0.10896259760E+04 -0.65303350490E+03 -0.35197191743E+01  0.12703432625E+04  0.46999998093E+01 0. -1.
       -5    1    3    3    0  502  0.10896259760E+04  0.65303350490E+03  0.41629612917E+03  0.13368104141E+04  0.46999998093E+01 0.  1.
</event>
<event>
 5   0  0.1005492E-05  0.2599582E+04  0.7818609E-02  0.8368343E-01
       -1   -1    0    0    0  501  0.00000000000E+00  0.00000000000E+00  0.20565528191E+04  0.20565528191E+04  0.50400001928E-02 0. -1.
        1   -1    0    0  501    0  0.00000000000E+00  0.00000000000E+00 -0.82149936927E+03  0.82149936928E+03  0.50400001928E-02 0.  1.
    10030    2    1    2    0    0  0.00000000000E+00  0.00000000000E+00  0.12350534499E+04  0.28780521884E+04  0.25995821540E+04 0.  0.
        4    1    3    3  502    0  0.44402377948E+03  0.26294712823E+03 -0.70322599177E+03  0.87225381477E+03  0.12699999809E+01 0.  1.
       -4    1    3    3    0  502 -0.44402377948E+03 -0.26294712823E+03  0.19382794416E+04  0.20057983737E+04  0.12699999809E+01 0. -1.
</event>
<event>
 5   0  0.1005492E-05  0.2562815E+04  0.7818609E-02  0.8380943E-01
       -1   -1    0    0    0  501  0.00000000000E+00  0.00000000000E+00  0.15094592327E+04  0.15094592327E+04  0.50400001928E-02 0. -1.
        1   -1    0    0  501    0  0.00000000000E+00  0.00000000000E+00 -0.10878102270E+04  0.10878102270E+04  0.50400001928E-02 0.  1.
    10030    2    1    2    0    0  0.00000000000E+00  0.00000000000E+00  0.42164900571E+03  0.25972694597E+04  0.25628150075E+04 0.  0.
        4    1    3    3  502    0 -0.10233889265E+04  0.67820053933E+03 -0.16115598321E+03  0.12382462317E+04  0.12699999809E+01 0.  1.
       -4    1    3    3    0  502  0.10233889265E+04 -0.67820053933E+03  0.58280498892E+03  0.13590232281E+04  0.12699999809E+01 0. -1.
</event>
<event>
 5   0  0.1034714E-05  0.1989058E+04  0.7818609E-02  0.8611753E-01
        1   -1    0    0  501    0  0.00000000000E+00  0.00000000000E+00  0.10231959984E+04  0.10231959984E+04  0.50400001928E-02 0.  1.
       -1   -1    0    0    0  501  0.00000000000E+00  0.00000000000E+00 -0.96666560621E+03  0.96666560623E+03  0.50400001928E-02 0. -1.
    10030    2    1    2    0    0  0.00000000000E+00  0.00000000000E+00  0.56530392163E+02  0.19898616046E+04  0.19890584507E+04 0.  0.
        5    1    3    3  502    0 -0.96824125784E+03  0.20161255224E+03 -0.76311866484E+02  0.99195985079E+03  0.46999998093E+01 0. -1.
       -5    1    3    3    0  502  0.96824125784E+03 -0.20161255224E+03  0.13284225865E+03  0.99790175383E+03  0.46999998093E+01 0.  1.
</event>
<event>
 5   0  0.1005492E-05  0.2566820E+04  0.7818609E-02  0.8379560E-01
       -1   -1    0    0    0  501  0.00000000000E+00  0.00000000000E+00  0.12933376961E+04  0.12933376961E+04  0.50400001928E-02 0. -1.
        1   -1    0    0  501    0  0.00000000000E+00  0.00000000000E+00 -0.12735587609E+04  0.12735587609E+04  0.50400001928E-02 0.  1.
    10030    2    1    2    0    0  0.00000000000E+00  0.00000000000E+00  0.19778935276E+02  0.25668964570E+04  0.25668202537E+04 0.  0.
        4    1    3    3  502    0 -0.36005923235E+03 -0.46182600514E+03 -0.11321663413E+04  0.12746482444E+04  0.12699999809E+01 0.  1.
       -4    1    3    3    0  502  0.36005923235E+03  0.46182600514E+03  0.11519452766E+04  0.12922482126E+04  0.12699999809E+01 0. -1.
</event>
<event>
 5   0  0.1005492E-05  0.2572636E+04  0.7818609E-02  0.8377556E-01
       -1   -1    0    0    0  501  0.00000000000E+00  0.00000000000E+00  0.15587015812E+04  0.15587015812E+04  0.50400001928E-02 0. -1.
        1   -1    0    0  501    0  0.00000000000E+00  0.00000000000E+00 -0.10615335322E+04  0.10615335322E+04  0.50400001928E-02 0.  1.
    10030    2    1    2    0    0  0.00000000000E+00  0.00000000000E+00  0.49716804901E+03  0.26202351133E+04  0.25726359984E+04 0.  0.
        4    1    3    3  502    0 -0.13427847337E+03 -0.68943265468E+03  0.13461419629E+04  0.15183701429E+04  0.12699999809E+01 0. -1.
       -4    1    3    3    0  502  0.13427847337E+03  0.68943265468E+03 -0.84897391386E+03  0.11018649704E+04  0.12699999809E+01 0.  1.
</event>
<event>
 5   0  0.1005492E-05  0.2633796E+04  0.7818609E-02  0.8356811E-01
       -1   -1    0    0    0  501  0.00000000000E+00  0.00000000000E+00  0.72936620900E+03  0.72936620902E+03  0.50400001928E-02 0.  1.
        1   -1    0    0  501    0  0.00000000000E+00  0.00000000000E+00 -0.23777082938E+04  0.23777082938E+04  0.50400001928E-02 0. -1.
    10030    2    1    2    0    0  0.00000000000E+00  0.00000000000E+00 -0.16483420848E+04  0.31070745028E+04  0.26337958041E+04 0.  0.
        4    1    3    3  502    0  0.13938933545E+03  0.12177583116E+04 -0.25613400285E+03  0.12521864608E+04  0.12699999809E+01 0.  1.
       -4    1    3    3    0  502 -0.13938933545E+03 -0.12177583116E+04 -0.13922080820E+04  0.18548880421E+04  0.12699999809E+01 0. -1.
</event>
<event>
 5   0  0.1025153E-05  0.2194300E+04  0.7818609E-02  0.8520804E-01
       -1   -1    0    0    0  501  0.00000000000E+00  0.00000000000E+00  0.12901400591E+04  0.12901400591E+04  0.50400001928E-02 0.  1.
        1   -1    0    0  501    0  0.00000000000E+00  0.00000000000E+00 -0.93302899667E+03  0.93302899669E+03  0.50400001928E-02 0. -1.
    10030    2    1    2    0    0  0.00000000000E+00  0.00000000000E+00  0.35711106241E+03  0.22231690558E+04  0.21942999657E+04 0.  0.
        1    1    3    3  502    0 -0.35434975249E+03  0.28811003063E+03 -0.83214958555E+03  0.94923341155E+03  0.50400001928E-02 0. -1.
       -1    1    3    3    0  502  0.35434975249E+03 -0.28811003063E+03  0.11892606480E+04  0.12739356442E+04  0.50400001928E-02 0.  1.
</event>
<event>
 5   0  0.2662024E-05  0.2256733E+04  0.7818609E-02  0.8495179E-01
        2   -1    0    0  501    0  0.00000000000E+00  0.00000000000E+00  0.10955897715E+04  0.10955897715E+04  0.25500000920E-02 0.  1.
       -2   -1    0    0    0  501  0.00000000000E+00  0.00000000000E+00 -0.11621234225E+04  0.11621234225E+04  0.25500000920E-02 0. -1.
    10030    2    1    2    0    0  0.00000000000E+00  0.00000000000E+00 -0.66533650989E+02  0.22577131940E+04  0.22567326248E+04 0.  0.
        2    1    3    3  502    0  0.75603439391E+03 -0.50644847548E+03  0.63420555856E+03  0.11091865279E+04  0.25500000920E-02 0.  1.
       -2    1    3    3    0  502 -0.75603439391E+03  0.50644847548E+03 -0.70073920955E+03  0.11485266662E+04  0.25500000920E-02 0. -1.
</event>
<event>
 5   0  0.1025153E-05  0.2438803E+04  0.7818609E-02  0.8425117E-01
        1   -1    0    0  501    0  0.00000000000E+00  0.00000000000E+00  0.92008203353E+03  0.92008203354E+03  0.50400001928E-02 0. -1.
       -1   -1    0    0    0  501  0.00000000000E+00  0.00000000000E+00 -0.16160952652E+04  0.16160952652E+04  0.50400001928E-02 0.  1.
    10030    2    1    2    0    0  0.00000000000E+00  0.00000000000E+00 -0.69601323166E+03  0.25361772987E+04  0.24388031638E+04 0.  0.
        1    1    3    3  502    0 -0.87525775864E+03  0.84896493052E+03 -0.33649106548E+03  0.12649283910E+04  0.50400001928E-02 0.  1.
       -1    1    3    3    0  502  0.87525775864E+03 -0.84896493052E+03 -0.35952216618E+03  0.12712489077E+04  0.50400001928E-02 0. -1.
</event>
<event>
 5   0  0.1005492E-05  0.2510721E+04  0.7818609E-02  0.8399176E-01
       -1   -1    0    0    0  501  0.00000000000E+00  0.00000000000E+00  0.17153396599E+04  0.17153396599E+04  0.50400001928E-02 0. -1.
        1   -1    0    0  501    0  0.00000000000E+00  0.00000000000E+00 -0.91872736733E+03  0.91872736734E+03  0.50400001928E-02 0.  1.
    10030    2    1    2    0    0  0.00000000000E+00  0.00000000000E+00  0.79661229254E+03  0.26340670272E+04  0.25107206056E+04 0.  0.
        4    1    3    3  502    0 -0.38388022507E+01 -0.85854826143E+02 -0.91563684745E+03  0.91966202318E+03  0.12699999809E+01 0.  1.
       -4    1    3    3    0  502  0.38388022507E+01  0.85854826143E+02  0.17122491400E+04  0.17144050040E+04  0.12699999809E+01 0. -1.
</event>
<event>
 5   0  0.2528460E-05  0.2602966E+04  0.7818609E-02  0.8367194E-01
       -2   -1    0    0    0  501  0.00000000000E+00  0.00000000000E+00  0.80086737521E+03  0.80086737521E+03  0.25500000920E-02 0.  1.
        2   -1    0    0  501    0  0.00000000000E+00  0.00000000000E+00 -0.21150300873E+04  0.21150300873E+04  0.25500000920E-02 0. -1.
    10030    2    1    2    0    0  0.00000000000E+00  0.00000000000E+00 -0.13141627121E+04  0.29158974625E+04  0.26029664573E+04 0.  0.
        5    1    3    3  502    0  0.21673050485E+03 -0.10905314787E+04 -0.14148720853E+04  0.17994766254E+04  0.46999998093E+01 0. -1.
       -5    1    3    3    0  502 -0.21673050485E+03  0.10905314787E+04  0.10070937317E+03  0.11164208371E+04  0.46999998093E+01 0.  1.
</event>
<event>
 5   0  0.8605000E-06  0.2628729E+04  0.7818609E-02  0.8358507E-01
       -4   -1    0    0    0  501  0.00000000000E+00  0.00000000000E+00  0.13664722549E+04  0.13664728451E+04  0.12699999809E+01 0.  1.
        4   -1    0    0  501    0  0.00000000000E+00  0.00000000000E+00 -0.12642429666E+04  0.12642436045E+04  0.12699999809E+01 0. -1.
    10030    2    1    2    0    0  0.00000000000E+00  0.00000000000E+00  0.10222928831E+03  0.26307164496E+04  0.26287293910E+04 0.  0.
        3    1    3    3  502    0  0.67814381731E+03 -0.74539553582E+03  0.89558957131E+03  0.13481744072E+04  0.10100000352E+00 0. -1.
       -3    1    3    3    0  502 -0.67814381731E+03  0.74539553582E+03 -0.79336028300E+03  0.12825420424E+04  0.10100000352E+00 0.  1.
</event>
<event>
 5   0  0.1000421E-05  0.2608062E+04  0.7818609E-02  0.8365468E-01
       -1   -1    0    0    0  501  0.00000000000E+00  0.00000000000E+00  0.15001117751E+04  0.15001117751E+04  0.50400001928E-02 0. -1.
        1   -1    0    0  501    0  0.00000000000E+00  0.00000000000E+00 -0.11335802610E+04  0.11335802610E+04  0.50400001928E-02 0.  1.
    10030    2    1    2    0    0  0.00000000000E+00  0.00000000000E+00  0.36653151412E+03  0.26336920361E+04  0.26080621906E+04 0.  0.
        3    1    3    3  502    0  0.63923143645E+00  0.11359854262E+04  0.82989727822E+03  0.14068378726E+04  0.10100000352E+00 0. -1.
       -3    1    3    3    0  502 -0.63923143645E+00 -0.11359854262E+04 -0.46336576410E+03  0.12268541635E+04  0.10100000352E+00 0.  1.
</event>
<event>
 5   0  0.1005492E-05  0.2594041E+04  0.7818609E-02  0.8370228E-01
        1   -1    0    0  501    0  0.00000000000E+00  0.00000000000E+00  0.11331465436E+04  0.11331465436E+04  0.50400001928E-02 0.  1.
       -1   -1    0    0    0  501  0.00000000000E+00  0.00000000000E+00 -0.14845936383E+04  0.14845936383E+04  0.50400001928E-02 0. -1.
    10030    2    1    2    0    0  0.00000000000E+00  0.00000000000E+00 -0.35144709476E+03  0.26177401819E+04  0.25940409787E+04 0.  0.
        4    1    3    3  502    0  0.10816323576E+04 -0.41487362477E+03  0.41288210553E+03  0.12298463024E+04  0.12699999809E+01 0.  1.
       -4    1    3    3    0  502 -0.10816323576E+04  0.41487362477E+03 -0.76432920029E+03  0.13878938795E+04  0.12699999809E+01 0. -1.
</event>
<event>
 5   0  0.1005492E-05  0.2518793E+04  0.7818609E-02  0.8396321E-01
        1   -1    0    0  501    0  0.00000000000E+00  0.00000000000E+00  0.12033465603E+04  0.12033465603E+04  0.50400001928E-02 0.  1.
       -1   -1    0    0    0  501  0.00000000000E+00  0.00000000000E+00 -0.13180571618E+04  0.13180571619E+04  0.50400001928E-02 0. -1.
    10030    2    1    2    0    0  0.00000000000E+00  0.00000000000E+00 -0.11471060159E+03  0.25214037221E+04  0.25187930062E+04 0.  0.
        4    1    3    3  502    0  0.84704522441E+03  0.30443243627E+03 -0.93912767069E+03  0.13008178640E+04  0.12699999809E+01 0. -1.
       -4    1    3    3    0  502 -0.84704522441E+03 -0.30443243627E+03  0.82441706910E+03  0.12205858582E+04  0.12699999809E+01 0.  1.
</event>
<event>
 5   0  0.2517854E-05  0.1971310E+04  0.7818609E-02  0.8620153E-01
       -2   -1    0    0    0  501  0.00000000000E+00  0.00000000000E+00  0.58991216728E+03  0.58991216729E+03  0.25500000920E-02 0.  1.
        2   -1    0    0  501    0  0.00000000000E+00  0.00000000000E+00 -0.16468824787E+04  0.16468824787E+04  0.25500000920E-02 0. -1.
    10030    2    1    2    0    0  0.00000000000E+00  0.00000000000E+00 -0.10569703114E+04  0.22367946459E+04  0.19713102366E+04 0.  0.
        4    1    3    3  502    0  0.71037874604E+03 -0.49685561408E+03  0.37373938033E+01  0.86690198124E+03  0.12699999809E+01 0.  1.
       -4    1    3    3    0  502 -0.71037874604E+03  0.49685561408E+03 -0.10607077052E+04  0.13698926647E+04  0.12699999809E+01 0. -1.
</event>
<event>
 5   0  0.8605000E-06  0.2646065E+04  0.7818609E-02  0.8352720E-01
        3   -1    0    0  501    0  0.00000000000E+00  0.00000000000E+00  0.11620140991E+04  0.11620141035E+04  0.10100000352E+00 0.  1.
       -3   -1    0    0    0  501  0.00000000000E+00  0.00000000000E+00 -0.15063623930E+04  0.15063623964E+04  0.10100000352E+00 0. -1.
    10030    2    1    2    0    0  0.00000000000E+00  0.00000000000E+00 -0.34434829391E+03  0.26683765000E+04  0.26460645113E+04 0.  0.
        1    1    3    3  502    0 -0.10899467535E+04 -0.89800749896E+02  0.57866182302E+03  0.12372944701E+04  0.50400001928E-02 0.  1.
       -1    1    3    3    0  502  0.10899467535E+04  0.89800749896E+02 -0.92301011693E+03  0.14310820299E+04  0.50400001928E-02 0. -1.
</event>
<event>
 5   0  0.1000421E-05  0.2761625E+04  0.7818609E-02  0.8315282E-01
        1   -1    0    0  501    0  0.00000000000E+00  0.00000000000E+00  0.16531870499E+04  0.16531870499E+04  0.50400001928E-02 0. -1.
       -1   -1    0    0    0  501  0.00000000000E+00  0.00000000000E+00 -0.11533132826E+04  0.11533132826E+04  0.50400001928E-02 0.  1.
    10030    2    1    2    0    0  0.00000000000E+00  0.00000000000E+00  0.49987376734E+03  0.28065003326E+04  0.27616245823E+04 0.  0.
        3    1    3    3  502    0  0.62469720627E+03  0.71488163563E+03 -0.76902276722E+03  0.12217603608E+04  0.10100000352E+00 0.  1.
       -3    1    3    3    0  502 -0.62469720627E+03 -0.71488163563E+03  0.12688965346E+04  0.15847399718E+04  0.10100000352E+00 0. -1.
</event>
<event>
 5   0  0.2662024E-05  0.2585616E+04  0.7818609E-02  0.8373103E-01
        2   -1    0    0  501    0  0.00000000000E+00  0.00000000000E+00  0.13534330302E+04  0.13534330302E+04  0.25500000920E-02 0. -1.
       -2   -1    0    0    0  501  0.00000000000E+00  0.00000000000E+00 -0.12348988464E+04  0.12348988464E+04  0.25500000920E-02 0.  1.
    10030    2    1    2    0    0  0.00000000000E+00  0.00000000000E+00  0.11853418379E+03  0.25883318766E+04  0.25856162806E+04 0.  0.
        2    1    3    3  502    0  0.94031684518E+03 -0.88631510381E+03  0.99342312410E+02  0.12960012066E+04  0.25500000920E-02 0.  1.
       -2    1    3    3    0  502 -0.94031684518E+03  0.88631510381E+03  0.19191871379E+02  0.12923306700E+04  0.25500000920E-02 0. -1.
</event>
<event>
 5   0  0.2528460E-05  0.2599394E+04  0.7818609E-02  0.8368407E-01
        2   -1    0    0  501    0  0.00000000000E+00  0.00000000000E+00  0.16160688673E+04  0.16160688673E+04  0.25500000920E-02 0.  1.
       -2   -1    0    0    0  501  0.00000000000E+00  0.00000000000E+00 -0.10452598833E+04  0.10452598833E+04  0.25500000920E-02 0. -1.
    10030    2    1    2    0    0  0.00000000000E+00  0.00000000000E+00  0.57080898400E+03  0.26613287505E+04  0.25993937413E+04 0.  0.
        5    1    3    3  502    0 -0.72479851618E+03 -0.50980092837E+03  0.12588262762E+04  0.15394465107E+04  0.46999998093E+01 0.  1.
       -5    1    3    3    0  502  0.72479851618E+03  0.50980092837E+03 -0.68801729222E+03  0.11218822398E+04  0.46999998093E+01 0. -1.
</event>
<event>
 5   0  0.2484618E-05  0.2605788E+04  0.7818609E-02  0.8366238E-01
       -2   -1    0    0    0  501  0.00000000000E+00  0.00000000000E+00  0.15949388559E+04  0.15949388559E+04  0.25500000920E-02 0. -1.
        2   -1    0    0  501    0  0.00000000000E+00  0.00000000000E+00 -0.10643247293E+04  0.10643247293E+04  0.25500000920E-02 0.  1.
    10030    2    1    2    0    0  0.00000000000E+00  0.00000000000E+00  0.53061412666E+03  0.26592635852E+04  0.26057880697E+04 0.  0.
        3    1    3    3  502    0  0.29604852042E+03 -0.78023938259E+03 -0.75578335374E+03  0.11258892968E+04  0.10100000352E+00 0.  1.
       -3    1    3    3    0  502 -0.29604852042E+03  0.78023938259E+03  0.12863974804E+04  0.15333742884E+04  0.10100000352E+00 0. -1.
</event>
<event>
 5   0  0.9855352E-06  0.2005005E+04  0.7818609E-02  0.8604284E-01
       -1   -1    0    0    0  501  0.00000000000E+00  0.00000000000E+00  0.55392600391E+03  0.55392600394E+03  0.50400001928E-02 0. -1.
        1   -1    0    0  501    0  0.00000000000E+00  0.00000000000E+00 -0.18143426275E+04  0.18143426275E+04  0.50400001928E-02 0.  1.
    10030    2    1    2    0    0  0.00000000000E+00  0.00000000000E+00 -0.12604166236E+04  0.23682686315E+04  0.20050052982E+04 0.  0.
        2    1    3    3  502    0 -0.41636192214E+03 -0.13303411916E+03 -0.16958616876E+04  0.17512858677E+04  0.25500000920E-02 0.  1.
       -2    1    3    3    0  502  0.41636192214E+03  0.13303411916E+03  0.43544506395E+03  0.61698276377E+03  0.25500000920E-02 0. -1.
</event>
<event>
 5   0  0.2484618E-05  0.2619365E+04  0.7818609E-02  0.8361653E-01
        2   -1    0    0  501    0  0.00000000000E+00  0.00000000000E+00  0.10114719981E+04  0.10114719981E+04  0.25500000920E-02 0. -1.
       -2   -1    0    0    0  501  0.00000000000E+00  0.00000000000E+00 -0.16958133703E+04  0.16958133703E+04  0.25500000920E-02 0.  1.
    10030    2    1    2    0    0  0.00000000000E+00  0.00000000000E+00 -0.68434137218E+03  0.27072853684E+04  0.26193646085E+04 0.  0.
        3    1    3    3  502    0 -0.34934079447E+03  0.53212617082E+03 -0.15251724999E+04  0.16526791633E+04  0.10100000352E+00 0.  1.
       -3    1    3    3    0  502  0.34934079447E+03 -0.53212617082E+03  0.84083112770E+03  0.10546062051E+04  0.10100000352E+00 0. -1.
</event>
<event>
 5   0  0.1034714E-05  0.2607389E+04  0.7818609E-02  0.8365696E-01
        1   -1    0    0  501    0  0.00000000000E+00  0.00000000000E+00  0.12458581304E+04  0.12458581304E+04  0.50400001928E-02 0.  1.
       -1   -1    0    0    0  501  0.00000000000E+00  0.00000000000E+00 -0.13642162420E+04  0.13642162421E+04  0.50400001928E-02 0. -1.
    10030    2    1    2    0    0  0.00000000000E+00  0.00000000000E+00 -0.11835811164E+03  0.26100743725E+04  0.26073894199E+04 0.  0.
        5    1    3    3  502    0  0.52915160992E+03 -0.95278272602E+02  0.11296964139E+04  0.12511256743E+04  0.46999998093E+01 0.  1.
       -5    1    3    3    0  502 -0.52915160992E+03  0.95278272602E+02 -0.12480545255E+04  0.13589486981E+04  0.46999998093E+01 0. -1.
</event>
<event>
 5   0  0.1000421E-05  0.2491904E+04  0.7818609E-02  0.8405875E-01
        1   -1    0    0  501    0  0.00000000000E+00  0.00000000000E+00  0.20977118578E+04  0.20977118578E+04  0.50400001928E-02 0. -1.
       -1   -1    0    0    0  501  0.00000000000E+00  0.00000000000E+00 -0.74004274509E+03  0.74004274510E+03  0.50400001928E-02 0.  1.
    10030    2    1    2    0    0  0.00000000000E+00  0.00000000000E+00  0.13576691127E+04  0.28377546029E+04  0.24919040444E+04 0.  0.
        3    1    3    3  502    0 -0.65125459750E+03 -0.94883739046E+03  0.13510393992E+03  0.11587398453E+04  0.10100000352E+00 0.  1.
       -3    1    3    3    0  502  0.65125459750E+03  0.94883739046E+03  0.12225651728E+04  0.16790147576E+04  0.10100000352E+00 0. -1.
</event>
<event>
 5   0  0.1005492E-05  0.2610125E+04  0.7818609E-02  0.8364770E-01
       -1   -1    0    0    0  501  0.00000000000E+00  0.00000000000E+00  0.69021896833E+03  0.69021896835E+03  0.50400001928E-02 0.  1.
        1   -1    0    0  501    0  0.00000000000E+00  0.00000000000E+00 -0.24676061118E+04  0.24676061118E+04  0.50400001928E-02 0. -1.
    10030    2    1    2    0    0  0.00000000000E+00  0.00000000000E+00 -0.17773871434E+04  0.31578250801E+04  0.26101253186E+04 0.  0.
        4    1    3    3  502    0 -0.16787206801E+03  0.85383901159E+03  0.28800224170E+03  0.91660732763E+03  0.12699999809E+01 0.  1.
       -4    1    3    3    0  502  0.16787206801E+03 -0.85383901159E+03 -0.20653893852E+04  0.22412177525E+04  0.12699999809E+01 0. -1.
</event>
<event>
 5   0  0.2517854E-05  0.2633834E+04  0.7818609E-02  0.8356799E-01
       -2   -1    0    0    0  501  0.00000000000E+00  0.00000000000E+00  0.96938619968E+03  0.96938619969E+03  0.25500000920E-02 0. -1.
        2   -1    0    0  501    0  0.00000000000E+00  0.00000000000E+00 -0.17890395208E+04  0.17890395208E+04  0.25500000920E-02 0.  1.
    10030    2    1    2    0    0  0.00000000000E+00  0.00000000000E+00 -0.81965332110E+03  0.27584257205E+04  0.26338338764E+04 0.  0.
        4    1    3    3  502    0 -0.71098697007E+03  0.10004313084E+04 -0.90980162069E+03  0.15277780848E+04  0.12699999809E+01 0.  1.
       -4    1    3    3    0  502  0.71098697007E+03 -0.10004313084E+04  0.90148299596E+02  0.12306476357E+04  0.12699999809E+01 0. -1.
</event>
<event>
 5   0  0.1005492E-05  0.2576434E+04  0.7818609E-02  0.8376250E-01
        1   -1    0    0  501    0  0.00000000000E+00  0.00000000000E+00  0.52454292561E+03  0.52454292563E+03  0.50400001928E-02 0.  1.
       -1   -1    0    0    0  501  0.00000000000E+00  0.00000000000E+00 -0.31637116340E+04  0.31637116340E+04  0.50400001928E-02 0. -1.
    10030    2    1    2    0    0  0.00000000000E+00  0.00000000000E+00 -0.26391687084E+04  0.36882545596E+04  0.25764336252E+04 0.  0.
        4    1    3    3  502    0 -0.82232395693E+03 -0.50356801391E+03 -0.96728838745E+02  0.96910036421E+03  0.12699999809E+01 0.  1.
       -4    1    3    3    0  502  0.82232395693E+03  0.50356801391E+03 -0.25424398696E+04  0.27191541954E+04  0.12699999809E+01 0. -1.
</event>
<event>
 5   0  0.2528460E-05  0.2634555E+04  0.7818609E-02  0.8356557E-01
        2   -1    0    0  501    0  0.00000000000E+00  0.00000000000E+00  0.87414855497E+03  0.87414855497E+03  0.25500000920E-02 0. -1.
       -2   -1    0    0    0  501  0.00000000000E+00  0.00000000000E+00 -0.19850404241E+04  0.19850404241E+04  0.25500000920E-02 0.  1.
    10030    2    1    2    0    0  0.00000000000E+00  0.00000000000E+00 -0.11108918691E+04  0.28591889790E+04  0.26345551566E+04 0.  0.
        5    1    3    3  502    0 -0.84577393888E+03  0.72250330614E+03 -0.13211948103E+04  0.17271138931E+04  0.46999998093E+01 0.  1.
       -5    1    3    3    0  502  0.84577393888E+03 -0.72250330614E+03  0.21030294120E+03  0.11320750859E+04  0.46999998093E+01 0. -1.
</event>
<event>
 5   0  0.1000421E-05  0.2582366E+04  0.7818609E-02  0.8374216E-01
        1   -1    0    0  501    0  0.00000000000E+00  0.00000000000E+00  0.10740364347E+04  0.10740364347E+04  0.50400001928E-02 0. -1.
       -1   -1    0    0    0  501  0.00000000000E+00  0.00000000000E+00 -0.15522320821E+04  0.15522320822E+04  0.50400001928E-02 0.  1.
    10030    2    1    2    0    0  0.00000000000E+00  0.00000000000E+00 -0.47819564748E+03  0.26262685168E+04  0.25823662105E+04 0.  0.
        3    1    3    3  502    0  0.80319739837E+03  0.40056599596E+03  0.70489294291E+03  0.11412507389E+04  0.10100000352E+00 0. -1.
       -3    1    3    3    0  502 -0.80319739837E+03 -0.40056599596E+03 -0.11830885904E+04  0.14850177779E+04  0.10100000352E+00 0.  1.
</event>
<event>
 5   0  0.2662024E-05  0.2569229E+04  0.7818609E-02  0.8378729E-01
        2   -1    0    0  501    0  0.00000000000E+00  0.00000000000E+00  0.12561488351E+04  0.12561488351E+04  0.25500000920E-02 0. -1.
       -2   -1    0    0    0  501  0.00000000000E+00  0.00000000000E+00 -0.13137248195E+04  0.13137248195E+04  0.25500000920E-02 0.  1.
    10030    2    1    2    0    0  0.00000000000E+00  0.00000000000E+00 -0.57575984368E+02  0.25698736546E+04  0.25692286015E+04 0.  0.
        2    1    3    3  502    0  0.12036870334E+04 -0.21889108031E+03  0.36304767362E+03  0.12761580595E+04  0.25500000920E-02 0. -1.
       -2    1    3    3    0  502 -0.12036870334E+04  0.21889108031E+03 -0.42062365799E+03  0.12937155951E+04  0.25500000920E-02 0.  1.
</event>
<event>
 5   0  0.2517854E-05  0.2606442E+04  0.7818609E-02  0.8366016E-01
        2   -1    0    0  501    0  0.00000000000E+00  0.00000000000E+00  0.19549325394E+04  0.19549325394E+04  0.25500000920E-02 0.  1.
       -2   -1    0    0    0  501  0.00000000000E+00  0.00000000000E+00 -0.86876905150E+03  0.86876905150E+03  0.25500000920E-02 0. -1.
    10030    2    1    2    0    0  0.00000000000E+00  0.00000000000E+00  0.10861634879E+04  0.28237015909E+04  0.26064419333E+04 0.  0.
        4    1    3    3  502    0 -0.50260960520E+03  0.11895352789E+04  0.35303807550E+03  0.13387487033E+04  0.12699999809E+01 0. -1.
       -4    1    3    3    0  502  0.50260960520E+03 -0.11895352789E+04  0.73312541235E+03  0.14849528875E+04  0.12699999809E+01 0.  1.
</event>
<event>
 5   0  0.2662024E-05  0.2514723E+04  0.7818609E-02  0.8397759E-01
       -2   -1    0    0    0  501  0.00000000000E+00  0.00000000000E+00  0.65477220575E+03  0.65477220576E+03  0.25500000920E-02 0.  1.
        2   -1    0    0  501    0  0.00000000000E+00  0.00000000000E+00 -0.24145164125E+04  0.24145164125E+04  0.25500000920E-02 0. -1.
    10030    2    1    2    0    0  0.00000000000E+00  0.00000000000E+00 -0.17597442068E+04  0.30692886183E+04  0.25147232351E+04 0.  0.
        2    1    3    3  502    0 -0.11441507070E+04 -0.41077360806E+03 -0.48789000375E+03  0.13099055130E+04  0.25500000920E-02 0.  1.
       -2    1    3    3    0  502  0.11441507070E+04  0.41077360806E+03 -0.12718542030E+04  0.17593831052E+04  0.25500000920E-02 0. -1.
</event>
<event>
 5   0  0.1005492E-05  0.2558079E+04  0.7818609E-02  0.8382582E-01
       -1   -1    0    0    0  501  0.00000000000E+00  0.00000000000E+00  0.14224037154E+04  0.14224037154E+04  0.50400001928E-02 0.  1.
        1   -1    0    0  501    0  0.00000000000E+00  0.00000000000E+00 -0.11501249429E+04  0.11501249429E+04  0.50400001928E-02 0. -1.
    10030    2    1    2    0    0  0.00000000000E+00  0.00000000000E+00  0.27227877255E+03  0.25725286583E+04  0.25580789604E+04 0.  0.
        4    1    3    3  502    0  0.38300142890E+03 -0.12203041149E+04  0.14659773367E+03  0.12873712501E+04  0.12699999809E+01 0.  1.
       -4    1    3    3    0  502 -0.38300142890E+03  0.12203041149E+04  0.12568103889E+03  0.12851574081E+04  0.12699999809E+01 0. -1.
</event>
<event>
 5   0  0.2528460E-05  0.2596758E+04  0.7818609E-02  0.8369303E-01
       -2   -1    0    0    0  501  0.00000000000E+00  0.00000000000E+00  0.15336624427E+04  0.15336624427E+04  0.25500000920E-02 0. -1.
        2   -1    0    0  501    0  0.00000000000E+00  0.00000000000E+00 -0.10991907826E+04  0.10991907826E+04  0.25500000920E-02 0.  1.
    10030    2    1    2    0    0  0.00000000000E+00  0.00000000000E+00  0.43447166011E+03  0.26328532254E+04  0.25967576866E+04 0.  0.
        5    1    3    3  502    0 -0.33719689463E+03  0.88980061515E+03  0.11128711598E+04  0.14642237496E+04  0.46999998093E+01 0. -1.
       -5    1    3    3    0  502  0.33719689463E+03 -0.88980061515E+03 -0.67839949973E+03  0.11686294758E+04  0.46999998093E+01 0.  1.
</event>
<event>
 5   0  0.9855352E-06  0.2628159E+04  0.7818609E-02  0.8358699E-01
        1   -1    0    0  501    0  0.00000000000E+00  0.00000000000E+00  0.96517853845E+03  0.96517853847E+03  0.50400001928E-02 0. -1.
       -1   -1    0    0    0  501  0.00000000000E+00  0.00000000000E+00 -0.17891044473E+04  0.17891044473E+04  0.50400001928E-02 0.  1.
    10030    2    1    2    0    0  0.00000000000E+00  0.00000000000E+00 -0.82392590884E+03  0.27542829858E+04  0.26281592156E+04 0.  0.
        2    1    3    3  502    0  0.55899758234E+03  0.65200876175E+03  0.63035799000E+03  0.10653379361E+04  0.25500000920E-02 0. -1.
       -2    1    3    3    0  502 -0.55899758234E+03 -0.65200876175E+03 -0.14542838988E+04  0.16889450497E+04  0.25500000920E-02 0.  1.
</event>
<event>
 5   0  0.1025153E-05  0.2591346E+04  0.7818609E-02  0.8371147E-01
        1   -1    0    0  501    0  0.00000000000E+00  0.00000000000E+00  0.15611345439E+04  0.15611345439E+04  0.50400001928E-02 0. -1.
       -1   -1    0    0    0  501  0.00000000000E+00  0.00000000000E+00 -0.10753513975E+04  0.10753513975E+04  0.50400001928E-02 0.  1.
    10030    2    1    2    0    0  0.00000000000E+00  0.00000000000E+00  0.48578314644E+03  0.26364859414E+04  0.25913457611E+04 0.  0.
        1    1    3    3  502    0 -0.34334820717E+03 -0.91713553283E+03  0.11060464143E+04  0.14772827243E+04  0.50400001928E-02 0. -1.
       -1    1    3    3    0  502  0.34334820717E+03  0.91713553283E+03 -0.62026326787E+03  0.11592032171E+04  0.50400001928E-02 0.  1.
</event>
<event>
 5   0  0.1034714E-05  0.2575297E+04  0.7818609E-02  0.8376641E-01
        1   -1    0    0  501    0  0.00000000000E+00  0.00000000000E+00  0.15187611026E+04  0.15187611026E+04  0.50400001928E-02 0. -1.
       -1   -1    0    0    0  501  0.00000000000E+00  0.00000000000E+00 -0.10917048098E+04  0.10917048098E+04  0.50400001928E-02 0.  1.
    10030    2    1    2    0    0  0.00000000000E+00  0.00000000000E+00  0.42705629278E+03  0.26104659124E+04  0.25752971096E+04 0.  0.
        5    1    3    3  502    0  0.49590001135E+03 -0.11561611054E+04  0.49185272186E+03  0.13507651583E+04  0.46999998093E+01 0. -1.
       -5    1    3    3    0  502 -0.49590001135E+03  0.11561611054E+04 -0.64796429079E+02  0.12597007542E+04  0.46999998093E+01 0.  1.
</event>
<event>
 5   0  0.1005492E-05  0.2055899E+04  0.7818609E-02  0.8580923E-01
       -1   -1    0    0    0  501  0.00000000000E+00  0.00000000000E+00  0.10494724355E+04  0.10494724356E+04  0.50400001928E-02 0.  1.
        1   -1    0    0  501    0  0.00000000000E+00  0.00000000000E+00 -0.10068679326E+04  0.10068679326E+04  0.50400001928E-02 0. -1.
    10030    2    1    2    0    0  0.00000000000E+00  0.00000000000E+00  0.42604502966E+02  0.20563403681E+04  0.20558989678E+04 0.  0.
        4    1    3    3  502    0  0.14648439906E+03  0.28157782926E+02 -0.99598444288E+03  0.10070934233E+04  0.12699999809E+01 0. -1.
       -4    1    3    3    0  502 -0.14648439906E+03 -0.28157782926E+02  0.10385889459E+04  0.10492469448E+04  0.12699999809E+01 0.  1.
</event>
<event>
 5   0  0.2555801E-05  0.2755628E+04  0.7818609E-02  0.8317178E-01
       -2   -1    0    0    0  501  0.00000000000E+00  0.00000000000E+00  0.11174428767E+04  0.11174428768E+04  0.25500000920E-02 0.  1.
        2   -1    0    0  501    0  0.00000000000E+00  0.00000000000E+00 -0.16988537149E+04  0.16988537149E+04  0.25500000920E-02 0. -1.
    10030    2    1    2    0    0  0.00000000000E+00  0.00000000000E+00 -0.58141083820E+03  0.28162965917E+04  0.27556284092E+04 0.  0.
        1    1    3    3  502    0  0.11155046694E+04  0.45476604159E+03 -0.97416538808E+03  0.15492453077E+04  0.50400001928E-02 0. -1.
       -1    1    3    3    0  502 -0.11155046694E+04 -0.45476604159E+03  0.39275454988E+03  0.12670512840E+04  0.50400001928E-02 0.  1.
</event>
<event>
 5   0  0.1025153E-05  0.2632037E+04  0.7818609E-02  0.8357400E-01
        1   -1    0    0  501    0  0.00000000000E+00  0.00000000000E+00  0.14013399763E+04  0.14013399763E+04  0.50400001928E-02 0.  1.
       -1   -1    0    0    0  501  0.00000000000E+00  0.00000000000E+00 -0.12358920926E+04  0.12358920926E+04  0.50400001928E-02 0. -1.
    10030    2    1    2    0    0  0.00000000000E+00  0.00000000000E+00  0.16544788368E+03  0.26372320689E+04  0.26320372306E+04 0.  0.
        1    1    3    3  502    0  0.51660493934E+03 -0.12094385527E+04  0.34851828374E+02  0.13156127569E+04  0.50400001928E-02 0. -1.
       -1    1    3    3    0  502 -0.51660493934E+03  0.12094385527E+04  0.13059605530E+03  0.13216193120E+04  0.50400001928E-02 0.  1.
</event>
<event>
 5   0  0.2484618E-05  0.2557858E+04  0.7818609E-02  0.8382658E-01
        2   -1    0    0  501    0  0.00000000000E+00  0.00000000000E+00  0.14556344358E+04  0.14556344358E+04  0.25500000920E-02 0. -1.
       -2   -1    0    0    0  501  0.00000000000E+00  0.00000000000E+00 -0.11236745947E+04  0.11236745947E+04  0.25500000920E-02 0.  1.
    10030    2    1    2    0    0  0.00000000000E+00  0.00000000000E+00  0.33195984111E+03  0.25793090306E+04  0.25578580373E+04 0.  0.
        3    1    3    3  502    0 -0.35985903969E+03  0.10913823893E+04 -0.40001625503E+03  0.12168101999E+04  0.10100000352E+00 0. -1.
       -3    1    3    3    0  502  0.35985903969E+03 -0.10913823893E+04  0.73197609615E+03  0.13624988307E+04  0.10100000352E+00 0.  1.
</event>
<event>
 5   0  0.2555801E-05  0.2623230E+04  0.7818609E-02  0.8360353E-01
        2   -1    0    0  501    0  0.00000000000E+00  0.00000000000E+00  0.13855309131E+04  0.13855309131E+04  0.25500000920E-02 0.  1.
       -2   -1    0    0    0  501  0.00000000000E+00  0.00000000000E+00 -0.12416422555E+04  0.12416422555E+04  0.25500000920E-02 0. -1.
    10030    2    1    2    0    0  0.00000000000E+00  0.00000000000E+00  0.14388865755E+03  0.26271731686E+04  0.26232298626E+04 0.  0.
        1    1    3    3  502    0 -0.79360420155E+03 -0.10051273447E+04  0.35564585249E+03  0.13291247421E+04  0.50400001928E-02 0. -1.
       -1    1    3    3    0  502  0.79360420155E+03  0.10051273447E+04 -0.21175719494E+03  0.12980484264E+04  0.50400001928E-02 0.  1.
</event>
<event>
 5   0  0.2555801E-05  0.2605186E+04  0.7818609E-02  0.8366442E-01
        2   -1    0    0  501    0  0.00000000000E+00  0.00000000000E+00  0.13540834674E+04  0.13540834674E+04  0.25500000920E-02 0. -1.
       -2   -1    0    0    0  501  0.00000000000E+00  0.00000000000E+00 -0.12530608561E+04  0.12530608561E+04  0.25500000920E-02 0.  1.
    10030    2    1    2    0    0  0.00000000000E+00  0.00000000000E+00  0.10102261125E+03  0.26071443235E+04  0.26051863572E+04 0.  0.
        1    1    3    3  502    0 -0.23067043850E+03 -0.12677632710E+04  0.24122322201E+03  0.13109619390E+04  0.50400001928E-02 0. -1.
       -1    1    3    3    0  502  0.23067043850E+03  0.12677632710E+04 -0.14020061076E+03  0.12961823845E+04  0.50400001928E-02 0.  1.
</event>
<event>
 5   0  0.2528460E-05  0.2566417E+04  0.7818609E-02  0.8379699E-01
        2   -1    0    0  501    0  0.00000000000E+00  0.00000000000E+00  0.13661187637E+04  0.13661187637E+04  0.25500000920E-02 0. -1.
       -2   -1    0    0    0  501  0.00000000000E+00  0.00000000000E+00 -0.12053302504E+04  0.12053302504E+04  0.25500000920E-02 0.  1.
    10030    2    1    2    0    0  0.00000000000E+00  0.00000000000E+00  0.16078851336E+03  0.25714490141E+04  0.25664171691E+04 0.  0.
        5    1    3    3  502    0 -0.49553751768E+03  0.39035585569E+03 -0.10392343663E+04  0.12157159551E+04  0.46999998093E+01 0.  1.
       -5    1    3    3    0  502  0.49553751768E+03 -0.39035585569E+03  0.12000228796E+04  0.13557330590E+04  0.46999998093E+01 0. -1.
</event>
<event>
 5   0  0.1034714E-05  0.2606421E+04  0.7818609E-02  0.8366024E-01
       -1   -1    0    0    0  501  0.00000000000E+00  0.00000000000E+00  0.21018752392E+04  0.21018752392E+04  0.50400001928E-02 0.  1.
        1   -1    0    0  501    0  0.00000000000E+00  0.00000000000E+00 -0.80801993006E+03  0.80801993008E+03  0.50400001928E-02 0. -1.
    10030    2    1    2    0    0  0.00000000000E+00  0.00000000000E+00  0.12938553092E+04  0.29098951693E+04  0.26064205983E+04 0.  0.
        5    1    3    3  502    0 -0.15556665360E+03 -0.73335827800E+03 -0.54317137779E+03  0.92578214677E+03  0.46999998093E+01 0. -1.
       -5    1    3    3    0  502  0.15556665360E+03  0.73335827800E+03  0.18370266869E+04  0.19841130225E+04  0.46999998093E+01 0.  1.
</event>
<event>
 5   0  0.2484618E-05  0.2566638E+04  0.7818609E-02  0.8379623E-01
       -2   -1    0    0    0  501  0.00000000000E+00  0.00000000000E+00  0.14547284235E+04  0.14547284235E+04  0.25500000920E-02 0. -1.
        2   -1    0    0  501    0  0.00000000000E+00  0.00000000000E+00 -0.11321067208E+04  0.11321067208E+04  0.25500000920E-02 0.  1.
    10030    2    1    2    0    0  0.00000000000E+00  0.00000000000E+00  0.32262170270E+03  0.25868351443E+04  0.25666381320E+04 0.  0.
        3    1    3    3  502    0 -0.56748700939E+03  0.33711476127E+03 -0.94790385136E+03  0.11550799062E+04  0.10100000352E+00 0.  1.
       -3    1    3    3    0  502  0.56748700939E+03 -0.33711476127E+03  0.12705255541E+04  0.14317552381E+04  0.10100000352E+00 0. -1.
</event>
<event>
 5   0  0.9855352E-06  0.2321531E+04  0.7818609E-02  0.8469480E-01
        1   -1    0    0  501    0  0.00000000000E+00  0.00000000000E+00  0.15944381967E+04  0.15944381967E+04  0.50400001928E-02 0.  1.
       -1   -1    0    0    0  501  0.00000000000E+00  0.00000000000E+00 -0.84504819800E+03  0.84504819802E+03  0.50400001928E-02 0. -1.
    10030    2    1    2    0    0  0.00000000000E+00  0.00000000000E+00  0.74938999868E+03  0.24394863947E+04  0.23215314988E+04 0.  0.
        2    1    3    3  502    0  0.61424205679E+03  0.73851279393E+03  0.10594829204E+04  0.14301043703E+04  0.25500000920E-02 0.  1.
       -2    1    3    3    0  502 -0.61424205679E+03 -0.73851279393E+03 -0.31009292177E+03  0.10093820244E+04  0.25500000920E-02 0. -1.
</event>
<event>
 5   0  0.1025153E-05  0.2625110E+04  0.7818609E-02  0.8359722E-01
       -1   -1    0    0    0  501  0.00000000000E+00  0.00000000000E+00  0.19447581380E+04  0.19447581380E+04  0.50400001928E-02 0.  1.
        1   -1    0    0  501    0  0.00000000000E+00  0.00000000000E+00 -0.88586860216E+03  0.88586860217E+03  0.50400001928E-02 0. -1.
    10030    2    1    2    0    0  0.00000000000E+00  0.00000000000E+00  0.10588895359E+04  0.28306267402E+04  0.26251096536E+04 0.  0.
        1    1    3    3  502    0  0.27748990365E+03 -0.12336721068E+04  0.14996570055E+03  0.12733566763E+04  0.50400001928E-02 0. -1.
       -1    1    3    3    0  502 -0.27748990365E+03  0.12336721068E+04  0.90892383532E+03  0.15572700639E+04  0.50400001928E-02 0.  1.
</event>
<event>
 5   0  0.1000421E-05  0.2591981E+04  0.7818609E-02  0.8370930E-01
       -1   -1    0    0    0  501  0.00000000000E+00  0.00000000000E+00  0.66830792168E+03  0.66830792170E+03  0.50400001928E-02 0. -1.
        1   -1    0    0  501    0  0.00000000000E+00  0.00000000000E+00 -0.25131997153E+04  0.25131997153E+04  0.50400001928E-02 0.  1.
    10030    2    1    2    0    0  0.00000000000E+00  0.00000000000E+00 -0.18448917937E+04  0.31815076370E+04  0.25919809248E+04 0.  0.
        3    1    3    3  502    0  0.12906620713E+04  0.94200714448E+02 -0.83644682426E+03  0.15408846994E+04  0.10100000352E+00 0.  1.
       -3    1    3    3    0  502 -0.12906620713E+04 -0.94200714448E+02 -0.10084449694E+04  0.16406229376E+04  0.10100000352E+00 0. -1.
</event>
<event>
 5   0  0.1000421E-05  0.2637222E+04  0.7818609E-02  0.8355666E-01
       -1   -1    0    0    0  501  0.00000000000E+00  0.00000000000E+00  0.11028500557E+04  0.11028500557E+04  0.50400001928E-02 0.  1.
        1   -1    0    0  501    0  0.00000000000E+00  0.00000000000E+00 -0.15765835895E+04  0.15765835895E+04  0.50400001928E-02 0. -1.
    10030    2    1    2    0    0  0.00000000000E+00  0.00000000000E+00 -0.47373353376E+03  0.26794336452E+04  0.26372222504E+04 0.  0.
        3    1    3    3  502    0  0.41892235395E+03 -0.12391102182E+04 -0.67326999238E+02  0.13097415801E+04  0.10100000352E+00 0. -1.
       -3    1    3    3    0  502 -0.41892235395E+03  0.12391102182E+04 -0.40640653452E+03  0.13696920651E+04  0.10100000352E+00 0.  1.
</event>
<event>
 5   0  0.2662024E-05  0.2569097E+04  0.7818609E-02  0.8378775E-01
       -2   -1    0    0    0  501  0.00000000000E+00  0.00000000000E+00  0.15622807497E+04  0.15622807497E+04  0.25500000920E-02 0. -1.
        2   -1    0    0  501    0  0.00000000000E+00  0.00000000000E+00 -0.10561893484E+04  0.10561893484E+04  0.25500000920E-02 0.  1.
    10030    2    1    2    0    0  0.00000000000E+00  0.00000000000E+00  0.50609140136E+03  0.26184700981E+04  0.25690965626E+04 0.  0.
        2    1    3    3  502    0  0.86729250648E+03  0.88214576944E+02  0.12146208269E+04  0.14950859028E+04  0.25500000920E-02 0. -1.
       -2    1    3    3    0  502 -0.86729250648E+03 -0.88214576944E+02 -0.70852942558E+03  0.11233841953E+04  0.25500000920E-02 0.  1.
</event>
<event>
 5   0  0.1034714E-05  0.2535244E+04  0.7818609E-02  0.8390536E-01
       -1   -1    0    0    0  501  0.00000000000E+00  0.00000000000E+00  0.17469672358E+04  0.17469672358E+04  0.50400001928E-02 0.  1.
        1   -1    0    0  501    0  0.00000000000E+00  0.00000000000E+00 -0.91980303821E+03  0.91980303822E+03  0.50400001928E-02 0. -1.
    10030    2    1    2    0    0  0.00000000000E+00  0.00000000000E+00  0.82716419760E+03  0.26667702740E+04  0.25352441864E+04 0.  0.
        5    1    3    3  502    0 -0.31323381788E+03 -0.64803579023E+03  0.15111602487E+04  0.16738259161E+04  0.46999998093E+01 0.  1.
       -5    1    3    3    0  502  0.31323381788E+03  0.64803579023E+03 -0.68399605110E+03  0.99294435796E+03  0.46999998093E+01 0. -1.
</event>
<event>
 5   0  0.2528460E-05  0.2505172E+04  0.7818609E-02  0.8401145E-01
        2   -1    0    0  501    0  0.00000000000E+00  0.00000000000E+00  0.13381393415E+04  0.13381393415E+04  0.25500000920E-02 0. -1.
       -2   -1    0    0    0  501  0.00000000000E+00  0.00000000000E+00 -0.11725028014E+04  0.11725028015E+04  0.25500000920E-02 0.  1.
    10030    2    1    2    0    0  0.00000000000E+00  0.00000000000E+00  0.16563654000E+03  0.25106421429E+04  0.25051723506E+04 0.  0.
        5    1    3    3  502    0 -0.18201773639E+03  0.12338673450E+04  0.19879022624E+03  0.12629721792E+04  0.46999998093E+01 0.  1.
       -5    1    3    3    0  502  0.18201773639E+03 -0.12338673450E+04 -0.33153686236E+02  0.12476699637E+04  0.46999998093E+01 0. -1.
</event>
<event>
 5   0  0.9855352E-06  0.2603915E+04  0.7818609E-02  0.8366872E-01
        1   -1    0    0  501    0  0.00000000000E+00  0.00000000000E+00  0.20778717219E+04  0.20778717219E+04  0.50400001928E-02 0. -1.
       -1   -1    0    0    0  501  0.00000000000E+00  0.00000000000E+00 -0.81578362288E+03  0.81578362290E+03  0.50400001928E-02 0.  1.
    10030    2    1    2    0    0  0.00000000000E+00  0.00000000000E+00  0.12620880990E+04  0.28936553448E+04  0.26039152991E+04 0.  0.
        2    1    3    3  502    0 -0.38130499651E+03 -0.94945001628E+03  0.15257688986E+04  0.18370681984E+04  0.25500000920E-02 0. -1.
       -2    1    3    3    0  502  0.38130499651E+03  0.94945001628E+03 -0.26368079958E+03  0.10565871464E+04  0.25500000920E-02 0.  1.
</event>
<event>
 5   0  0.9855352E-06  0.2573507E+04  0.7818609E-02  0.8377256E-01
       -1   -1    0    0    0  501  0.00000000000E+00  0.00000000000E+00  0.80656071013E+03  0.80656071014E+03  0.50400001928E-02 0.  1.
        1   -1    0    0  501    0  0.00000000000E+00  0.00000000000E+00 -0.20528333520E+04  0.20528333520E+04  0.50400001928E-02 0. -1.
    10030    2    1    2    0    0  0.00000000000E+00  0.00000000000E+00 -0.12462726419E+04  0.28593940621E+04  0.25735071216E+04 0.  0.
        2    1    3    3  502    0  0.87665524606E+03  0.78830342905E+03 -0.50318753132E+02  0.11800333443E+04  0.25500000920E-02 0.  1.
       -2    1    3    3    0  502 -0.87665524606E+03 -0.78830342905E+03 -0.11959538887E+04  0.16793607179E+04  0.25500000920E-02 0. -1.
</event>
<event>
 5   0  0.1025153E-05  0.2467469E+04  0.7818609E-02  0.8414667E-01
        1   -1    0    0  501    0  0.00000000000E+00  0.00000000000E+00  0.14379112119E+04  0.14379112119E+04  0.50400001928E-02 0. -1.
       -1   -1    0    0    0  501  0.00000000000E+00  0.00000000000E+00 -0.10585500683E+04  0.10585500683E+04  0.50400001928E-02 0.  1.
    10030    2    1    2    0    0  0.00000000000E+00  0.00000000000E+00  0.37936114364E+03  0.24964612802E+04  0.24674691582E+04 0.  0.
        1    1    3    3  502    0  0.10456395196E+04 -0.11565597042E+03  0.84173950661E+03  0.13473172253E+04  0.50400001928E-02 0. -1.
       -1    1    3    3    0  502 -0.10456395196E+04  0.11565597042E+03 -0.46237836297E+03  0.11491440550E+04  0.50400001928E-02 0.  1.
</event>
<event>
 5   0  0.9855352E-06  0.2616105E+04  0.7818609E-02  0.8362751E-01
        1   -1    0    0  501    0  0.00000000000E+00  0.00000000000E+00  0.12335187215E+04  0.12335187216E+04  0.50400001928E-02 0.  1.
       -1   -1    0    0    0  501  0.00000000000E+00  0.00000000000E+00 -0.13870901979E+04  0.13870901979E+04  0.50400001928E-02 0. -1.
    10030    2    1    2    0    0  0.00000000000E+00  0.00000000000E+00 -0.15357147632E+03  0.26206089194E+04  0.26161052942E+04 0.  0.
        2    1    3    3  502    0 -0.11975525148E+04 -0.18123719639E+03  0.41805127964E+03  0.12813062941E+04  0.25500000920E-02 0.  1.
       -2    1    3    3    0  502  0.11975525148E+04  0.18123719639E+03 -0.57162275596E+03  0.13393026253E+04  0.25500000920E-02 0. -1.
</event>
<event>
 5   0  0.2555801E-05  0.2551208E+04  0.7818609E-02  0.8384966E-01
        2   -1    0    0  501    0  0.00000000000E+00  0.00000000000E+00  0.22543660220E+04  0.22543660220E+04  0.25500000920E-02 0. -1.
       -2   -1    0    0    0  501  0.00000000000E+00  0.00000000000E+00 -0.72178413654E+03  0.72178413655E+03  0.25500000920E-02 0.  1.
    10030    2    1    2    0    0  0.00000000000E+00  0.00000000000E+00  0.15325818854E+04  0.29761501585E+04  0.25512080532E+04 0.  0.
        1    1    3    3  502    0 -0.68224744727E+02  0.64296194153E+03  0.20490409944E+04  0.21486329772E+04  0.50400001928E-02 0. -1.
       -1    1    3    3    0  502  0.68224744727E+02 -0.64296194153E+03 -0.51645910898E+03  0.82751718129E+03  0.50400001928E-02 0.  1.
</event>
<event>
 5   0  0.2555801E-05  0.2496003E+04  0.7818609E-02  0.8404411E-01
       -2   -1    0    0    0  501  0.00000000000E+00  0.00000000000E+00  0.11651257031E+04  0.11651257031E+04  0.25500000920E-02 0.  1.
        2   -1    0    0  501    0  0.00000000000E+00  0.00000000000E+00 -0.13367722079E+04  0.13367722079E+04  0.25500000920E-02 0. -1.
    10030    2    1    2    0    0  0.00000000000E+00  0.00000000000E+00 -0.17164650483E+03  0.25018979110E+04  0.24960029316E+04 0.  0.
        1    1    3    3  502    0  0.25431557141E+03  0.11408498083E+04 -0.52422673074E+03  0.12810262918E+04  0.50400001928E-02 0.  1.
       -1    1    3    3    0  502 -0.25431557141E+03 -0.11408498083E+04  0.35258022591E+03  0.12208716192E+04  0.50400001928E-02 0. -1.
</event>
<event>
 5   0  0.8605000E-06  0.2753392E+04  0.7818609E-02  0.8317886E-01
        3   -1    0    0  501    0  0.00000000000E+00  0.00000000000E+00  0.11532055195E+04  0.11532055239E+04  0.10100000352E+00 0. -1.
       -3   -1    0    0    0  501  0.00000000000E+00  0.00000000000E+00 -0.16434990807E+04  0.16434990838E+04  0.10100000352E+00 0.  1.
    10030    2    1    2    0    0  0.00000000000E+00  0.00000000000E+00 -0.49029356120E+03  0.27967046077E+04  0.27533922507E+04 0.  0.
        1    1    3    3  502    0 -0.54545772097E+03 -0.82687175200E+03  0.72595281704E+03  0.12281076957E+04  0.50400001928E-02 0. -1.
       -1    1    3    3    0  502  0.54545772097E+03  0.82687175200E+03 -0.12162463782E+04  0.15685969120E+04  0.50400001928E-02 0.  1.
</event>
<event>
 5   0  0.1005492E-05  0.2648685E+04  0.7818609E-02  0.8351849E-01
       -1   -1    0    0    0  501  0.00000000000E+00  0.00000000000E+00  0.10002394419E+04  0.10002394419E+04  0.50400001928E-02 0. -1.
        1   -1    0    0  501    0  0.00000000000E+00  0.00000000000E+00 -0.17534636460E+04  0.17534636460E+04  0.50400001928E-02 0.  1.
    10030    2    1    2    0    0  0.00000000000E+00  0.00000000000E+00 -0.75322420410E+03  0.27537030880E+04  0.26486853333E+04 0.  0.
        4    1    3    3  502    0 -0.34729132799E+03  0.10313593233E+04 -0.11612327833E+04  0.15914699212E+04  0.12699999809E+01 0.  1.
       -4    1    3    3    0  502  0.34729132799E+03 -0.10313593233E+04  0.40800857916E+03  0.11622331667E+04  0.12699999809E+01 0. -1.
</event>
<event>
 5   0  0.2528460E-05  0.2545488E+04  0.7818609E-02  0.8386957E-01
        2   -1    0    0  501    0  0.00000000000E+00  0.00000000000E+00  0.18562237314E+04  0.18562237314E+04  0.25500000920E-02 0.  1.
       -2   -1    0    0    0  501  0.00000000000E+00  0.00000000000E+00 -0.87267346869E+03  0.87267346869E+03  0.25500000920E-02 0. -1.
    10030    2    1    2    0    0  0.00000000000E+00  0.00000000000E+00  0.98355026267E+03  0.27288972000E+04  0.25454879315E+04 0.  0.
        5    1    3    3  502    0  0.99397270482E+03  0.26028822772E+03 -0.31342381098E+03  0.10742384627E+04  0.46999998093E+01 0. -1.
       -5    1    3    3    0  502 -0.99397270482E+03 -0.26028822772E+03  0.12969740736E+04  0.16546587374E+04  0.46999998093E+01 0.  1.
</event>
<event>
 5   0  0.1034714E-05  0.2581564E+04  0.7818609E-02  0.8374491E-01
       -1   -1    0    0    0  501  0.00000000000E+00  0.00000000000E+00  0.98492825354E+03  0.98492825356E+03  0.50400001928E-02 0. -1.
        1   -1    0    0  501    0  0.00000000000E+00  0.00000000000E+00 -0.16916136510E+04  0.16916136510E+04  0.50400001928E-02 0.  1.
    10030    2    1    2    0    0  0.00000000000E+00  0.00000000000E+00 -0.70668539741E+03  0.26765419045E+04  0.25815639283E+04 0.  0.
        5    1    3    3  502    0 -0.68830372543E+03 -0.47772755381E+03 -0.13713585415E+04  0.16070569291E+04  0.46999998093E+01 0.  1.
       -5    1    3    3    0  502  0.68830372543E+03  0.47772755381E+03  0.66467314409E+03  0.10694849754E+04  0.46999998093E+01 0. -1.
</event>
<event>
 5   0  0.9855352E-06  0.2617480E+04  0.7818609E-02  0.8362288E-01
        1   -1    0    0  501    0  0.00000000000E+00  0.00000000000E+00  0.17324006362E+04  0.17324006362E+04  0.50400001928E-02 0. -1.
       -1   -1    0    0    0  501  0.00000000000E+00  0.00000000000E+00 -0.98868605055E+03  0.98868605057E+03  0.50400001928E-02 0.  1.
    10030    2    1    2    0    0  0.00000000000E+00  0.00000000000E+00  0.74371458561E+03  0.27210866867E+04  0.26174799659E+04 0.  0.
        2    1    3    3  502    0  0.13054815761E+04 -0.35283129521E+02  0.46051667601E+03  0.13847753080E+04  0.25500000920E-02 0.  1.
       -2    1    3    3    0  502 -0.13054815761E+04  0.35283129521E+02  0.28319790960E+03  0.13363113787E+04  0.25500000920E-02 0. -1.
</event>
<event>
 5   0  0.2528460E-05  0.2891036E+04  0.7818609E-02  0.8275549E-01
       -2   -1    0    0    0  501  0.00000000000E+00  0.00000000000E+00  0.80437117212E+03  0.80437117212E+03  0.25500000920E-02 0. -1.
        2   -1    0    0  501    0  0.00000000000E+00  0.00000000000E+00 -0.25977099477E+04  0.25977099477E+04  0.25500000920E-02 0.  1.
    10030    2    1    2    0    0  0.00000000000E+00  0.00000000000E+00 -0.17933387756E+04  0.34020811198E+04  0.28910364892E+04 0.  0.
        5    1    3    3  502    0  0.44233276360E+03 -0.67532272834E+03  0.51436497188E+03  0.95724211956E+03  0.46999998093E+01 0. -1.
       -5    1    3    3    0  502 -0.44233276360E+03  0.67532272834E+03 -0.23077037475E+04  0.24448390003E+04  0.46999998093E+01 0.  1.
</event>
<event>
 5   0  0.2555801E-05  0.2379925E+04  0.7818609E-02  0.8447058E-01
       -2   -1    0    0    0  501  0.00000000000E+00  0.00000000000E+00  0.92889988863E+03  0.92889988864E+03  0.25500000920E-02 0.  1.
        2   -1    0    0  501    0  0.00000000000E+00  0.00000000000E+00 -0.15243957394E+04  0.15243957394E+04  0.25500000920E-02 0. -1.
    10030    2    1    2    0    0  0.00000000000E+00  0.00000000000E+00 -0.59549585080E+03  0.24532956281E+04  0.23799252363E+04 0.  0.
        1    1    3    3  502    0  0.10545719821E+04  0.19976876297E+03  0.23188288492E+03  0.10980889292E+04  0.50400001928E-02 0.  1.
       -1    1    3    3    0  502 -0.10545719821E+04 -0.19976876297E+03 -0.82737873572E+03  0.13552066988E+04  0.50400001928E-02 0. -1.
</event>
<event>
 5   0  0.9855352E-06  0.2628414E+04  0.7818609E-02  0.8358613E-01
        1   -1    0    0  501    0  0.00000000000E+00  0.00000000000E+00  0.24448751370E+04  0.24448751370E+04  0.50400001928E-02 0. -1.
       -1   -1    0    0    0  501  0.00000000000E+00  0.00000000000E+00 -0.70643295787E+03  0.70643295789E+03  0.50400001928E-02 0.  1.
    10030    2    1    2    0    0  0.00000000000E+00  0.00000000000E+00  0.17384421791E+04  0.31513080949E+04  0.26284142555E+04 0.  0.
        2    1    3    3  502    0  0.36355354611E+03  0.12626493986E+04  0.90061612377E+03  0.15929733479E+04  0.25500000920E-02 0. -1.
       -2    1    3    3    0  502 -0.36355354611E+03 -0.12626493986E+04  0.83782605534E+03  0.15583347470E+04  0.25500000920E-02 0.  1.
</event>
<event>
 5   0  0.1034714E-05  0.2594976E+04  0.7818609E-02  0.8369910E-01
       -1   -1    0    0    0  501  0.00000000000E+00  0.00000000000E+00  0.81510145494E+03  0.81510145495E+03  0.50400001928E-02 0. -1.
        1   -1    0    0  501    0  0.00000000000E+00  0.00000000000E+00 -0.20653560316E+04  0.20653560316E+04  0.50400001928E-02 0.  1.
    10030    2    1    2    0    0  0.00000000000E+00  0.00000000000E+00 -0.12502545766E+04  0.28804574865E+04  0.25949756888E+04 0.  0.
        5    1    3    3  502    0  0.38011132223E+03  0.31577243957E+03 -0.19567989722E+04  0.20182371413E+04  0.46999998093E+01 0.  1.
       -5    1    3    3    0  502 -0.38011132223E+03 -0.31577243957E+03  0.70654439555E+03  0.86222034525E+03  0.46999998093E+01 0. -1.
</event>
<event>
 5   0  0.1000421E-05  0.2560267E+04  0.7818609E-02  0.8381824E-01
       -1   -1    0    0    0  501  0.00000000000E+00  0.00000000000E+00  0.11036991962E+04  0.11036991962E+04  0.50400001928E-02 0. -1.
        1   -1    0    0  501    0  0.00000000000E+00  0.00000000000E+00 -0.14847717387E+04  0.14847717387E+04  0.50400001928E-02 0.  1.
    10030    2    1    2    0    0  0.00000000000E+00  0.00000000000E+00 -0.38107254258E+03  0.25884709349E+04  0.25602666850E+04 0.  0.
        3    1    3    3  502    0  0.70193346991E+03 -0.21745406461E+03 -0.12502936385E+04  0.14502520675E+04  0.10100000352E+00 0.  1.
       -3    1    3    3    0  502 -0.70193346991E+03  0.21745406461E+03  0.86922109595E+03  0.11382188675E+04  0.10100000352E+00 0. -1.
</event>
<event>
 5   0  0.1000421E-05  0.2538160E+04  0.7818609E-02  0.8389515E-01
       -1   -1    0    0    0  501  0.00000000000E+00  0.00000000000E+00  0.10372161598E+04  0.10372161598E+04  0.50400001928E-02 0. -1.
        1   -1    0    0  501    0  0.00000000000E+00  0.00000000000E+00 -0.15527761118E+04  0.15527761118E+04  0.50400001928E-02 0.  1.
    10030    2    1    2    0    0  0.00000000000E+00  0.00000000000E+00 -0.51555995201E+03  0.25899922715E+04  0.25381603382E+04 0.  0.
        3    1    3    3  502    0  0.50122861805E+03  0.12489821563E+03 -0.14406477302E+04  0.15304560054E+04  0.10100000352E+00 0.  1.
       -3    1    3    3    0  502 -0.50122861805E+03 -0.12489821563E+03  0.92508777815E+03  0.10595362662E+04  0.10100000352E+00 0. -1.
</event>
<event>
 5   0  0.1034714E-05  0.2587178E+04  0.7818609E-02  0.8372570E-01
       -1   -1    0    0    0  501  0.00000000000E+00  0.00000000000E+00  0.16062547592E+04  0.16062547592E+04  0.50400001928E-02 0. -1.
        1   -1    0    0  501    0  0.00000000000E+00  0.00000000000E+00 -0.10417850886E+04  0.10417850887E+04  0.50400001928E-02 0.  1.
    10030    2    1    2    0    0  0.00000000000E+00  0.00000000000E+00  0.56446967052E+03  0.26480398478E+04  0.25871778112E+04 0.  0.
        5    1    3    3  502    0 -0.72452946609E+03 -0.88625812296E+03  0.89886375263E+03  0.14554636868E+04  0.46999998093E+01 0. -1.
       -5    1    3    3    0  502  0.72452946609E+03  0.88625812296E+03 -0.33439408212E+03  0.11925761610E+04  0.46999998093E+01 0.  1.
</event>
<event>
 5   0  0.1005492E-05  0.2633277E+04  0.7818609E-02  0.8356985E-01
       -1   -1    0    0    0  501  0.00000000000E+00  0.00000000000E+00  0.11266578801E+04  0.11266578801E+04  0.50400001928E-02 0. -1.
        1   -1    0    0  501    0  0.00000000000E+00  0.00000000000E+00 -0.15386542474E+04  0.15386542474E+04  0.50400001928E-02 0.  1.
    10030    2    1    2    0    0  0.00000000000E+00  0.00000000000E+00 -0.41199636732E+03  0.26653121276E+04  0.26332769947E+04 0.  0.
        4    1    3    3  502    0 -0.28502170303E+03 -0.12071138678E+04  0.24116143513E+03  0.12635354018E+04  0.12699999809E+01 0. -1.
       -4    1    3    3    0  502  0.28502170303E+03  0.12071138678E+04 -0.65315780244E+03  0.14017767257E+04  0.12699999809E+01 0.  1.
</event>
<event>
 5   0  0.1034714E-05  0.2271497E+04  0.7818609E-02  0.8489245E-01
       -1   -1    0    0    0  501  0.00000000000E+00  0.00000000000E+00  0.80868647458E+03  0.80868647460E+03  0.50400001928E-02 0. -1.
        1   -1    0    0  501    0  0.00000000000E+00  0.00000000000E+00 -0.15950857000E+04  0.15950857000E+04  0.50400001928E-02 0.  1.
    10030    2    1    2    0    0  0.00000000000E+00  0.00000000000E+00 -0.78639922541E+03  0.24037721746E+04  0.22714966268E+04 0.  0.
        5    1    3    3  502    0  0.81968627211E+03  0.95034287594E+02  0.43261872003E+03  0.93171784754E+03  0.46999998093E+01 0. -1.
       -5    1    3    3    0  502 -0.81968627211E+03 -0.95034287594E+02 -0.12190179454E+04  0.14720543271E+04  0.46999998093E+01 0.  1.
</event>
<event>
 5   0  0.2517854E-05  0.2632998E+04  0.7818609E-02  0.8357078E-01
       -2   -1    0    0    0  501  0.00000000000E+00  0.00000000000E+00  0.10068420495E+04  0.10068420495E+04  0.25500000920E-02 0. -1.
        2   -1    0    0  501    0  0.00000000000E+00  0.00000000000E+00 -0.17213911899E+04  0.17213911899E+04  0.25500000920E-02 0.  1.
    10030    2    1    2    0    0  0.00000000000E+00  0.00000000000E+00 -0.71454914042E+03  0.27282332393E+04  0.26329975568E+04 0.  0.
        4    1    3    3  502    0 -0.96970790789E+02  0.49786293782E+03 -0.16160811466E+04  0.16938095301E+04  0.12699999809E+01 0.  1.
       -4    1    3    3    0  502  0.96970790789E+02 -0.49786293782E+03  0.90153200616E+03  0.10344237092E+04  0.12699999809E+01 0. -1.
</event>
<event>
 5   0  0.1034714E-05  0.2591308E+04  0.7818609E-02  0.8371160E-01
        1   -1    0    0  501    0  0.00000000000E+00  0.00000000000E+00  0.13763487714E+04  0.13763487714E+04  0.50400001928E-02 0.  1.
       -1   -1    0    0    0  501  0.00000000000E+00  0.00000000000E+00 -0.12196904998E+04  0.12196904998E+04  0.50400001928E-02 0. -1.
    10030    2    1    2    0    0  0.00000000000E+00  0.00000000000E+00  0.15665827157E+03  0.25960392712E+04  0.25913081799E+04 0.  0.
        5    1    3    3  502    0  0.33768810189E+03  0.35830490572E+03 -0.11223086752E+04  0.12255670166E+04  0.46999998093E+01 0. -1.
       -5    1    3    3    0  502 -0.33768810189E+03 -0.35830490572E+03  0.12789669468E+04  0.13704722546E+04  0.46999998093E+01 0.  1.
</event>
<event>
 5   0  0.2484618E-05  0.2077539E+04  0.7818609E-02  0.8571203E-01
        2   -1    0    0  501    0  0.00000000000E+00  0.00000000000E+00  0.12939895856E+04  0.12939895856E+04  0.25500000920E-02 0. -1.
       -2   -1    0    0    0  501  0.00000000000E+00  0.00000000000E+00 -0.83388745148E+03  0.83388745149E+03  0.25500000920E-02 0.  1.
    10030    2    1    2    0    0  0.00000000000E+00  0.00000000000E+00  0.46010213413E+03  0.21278770371E+04  0.20775386185E+04 0.  0.
        3    1    3    3  502    0 -0.85326398280E+03 -0.23036151858E+02  0.83638438455E+03  0.11950434877E+04  0.10100000352E+00 0. -1.
       -3    1    3    3    0  502  0.85326398280E+03  0.23036151858E+02 -0.37628225042E+03  0.93283354937E+03  0.10100000352E+00 0.  1.
</event>
<event>
 5   0  0.2484618E-05  0.2626137E+04  0.7818609E-02  0.8359377E-01
        2   -1    0    0  501    0  0.00000000000E+00  0.00000000000E+00  0.12608019523E+04  0.12608019523E+04  0.25500000920E-02 0.  1.
       -2   -1    0    0    0  501  0.00000000000E+00  0.00000000000E+00 -0.13675017245E+04  0.13675017245E+04  0.25500000920E-02 0. -1.
    10030    2    1    2    0    0  0.00000000000E+00  0.00000000000E+00 -0.10669977222E+03  0.26283036768E+04  0.26261369682E+04 0.  0.
        3    1    3    3  502    0 -0.82908688814E+03  0.72293582208E+03  0.66426859211E+03  0.12850190830E+04  0.10100000352E+00 0.  1.
       -3    1    3    3    0  502  0.82908688814E+03 -0.72293582208E+03 -0.77096836433E+03  0.13432845938E+04  0.10100000352E+00 0. -1.
</event>
<event>
 5   0  0.9855352E-06  0.2579800E+04  0.7818609E-02  0.8375095E-01
        1   -1    0    0  501    0  0.00000000000E+00  0.00000000000E+00  0.16031099638E+04  0.16031099638E+04  0.50400001928E-02 0. -1.
       -1   -1    0    0    0  501  0.00000000000E+00  0.00000000000E+00 -0.10378836081E+04  0.10378836081E+04  0.50400001928E-02 0.  1.
    10030    2    1    2    0    0  0.00000000000E+00  0.00000000000E+00  0.56522635567E+03  0.26409935719E+04  0.25797996460E+04 0.  0.
        2    1    3    3  502    0 -0.96469819548E+03  0.53638677252E+03 -0.40066799733E+03  0.11742607130E+04  0.25500000920E-02 0.  1.
       -2    1    3    3    0  502  0.96469819548E+03 -0.53638677252E+03  0.96589435300E+03  0.14667328589E+04  0.25500000920E-02 0. -1.
</event>
<event>
 5   0  0.2528460E-05  0.2602079E+04  0.7818609E-02  0.8367495E-01
        2   -1    0    0  501    0  0.00000000000E+00  0.00000000000E+00  0.14737641661E+04  0.14737641661E+04  0.25500000920E-02 0. -1.
       -2   -1    0    0    0  501  0.00000000000E+00  0.00000000000E+00 -0.11485581029E+04  0.11485581029E+04  0.25500000920E-02 0.  1.
    10030    2    1    2    0    0  0.00000000000E+00  0.00000000000E+00  0.32520606321E+03  0.26223222689E+04  0.26020789955E+04 0.  0.
        5    1    3    3  502    0 -0.80436775840E+03 -0.83998578949E+03 -0.42511317671E+03  0.12382757852E+04  0.46999998093E+01 0.  1.
       -5    1    3    3    0  502  0.80436775840E+03  0.83998578949E+03  0.75031923992E+03  0.13840464837E+04  0.46999998093E+01 0. -1.
</event>
<event>
 5   0  0.1034714E-05  0.2606327E+04  0.7818609E-02  0.8366055E-01
       -1   -1    0    0    0  501  0.00000000000E+00  0.00000000000E+00  0.12683478420E+04  0.12683478420E+04  0.50400001928E-02 0.  1.
        1   -1    0    0  501    0  0.00000000000E+00  0.00000000000E+00 -0.13389353240E+04  0.13389353240E+04  0.50400001928E-02 0. -1.
    10030    2    1    2    0    0  0.00000000000E+00  0.00000000000E+00 -0.70587481983E+02  0.26072831660E+04  0.26063274766E+04 0.  0.
        5    1    3    3  502    0 -0.31654019176E+03 -0.11106928776E+04  0.56856431060E+03  0.12872932171E+04  0.46999998093E+01 0.  1.
       -5    1    3    3    0  502  0.31654019176E+03  0.11106928776E+04 -0.63915179259E+03  0.13199899490E+04  0.46999998093E+01 0. -1.
</event>
<event>
 5   0  0.9855352E-06  0.2622768E+04  0.7818609E-02  0.8360508E-01
        1   -1    0    0  501    0  0.00000000000E+00  0.00000000000E+00  0.20262879518E+04  0.20262879518E+04  0.50400001928E-02 0.  1.
       -1   -1    0    0    0  501  0.00000000000E+00  0.00000000000E+00 -0.84870882713E+03  0.84870882715E+03  0.50400001928E-02 0. -1.
    10030    2    1    2    0    0  0.00000000000E+00  0.00000000000E+00  0.11775791246E+04  0.28749967789E+04  0.26227683626E+04 0.  0.
        2    1    3    3  502    0 -0.38983161034E+03  0.11440315796E+04  0.11466000405E+04  0.16659737670E+04  0.25500000920E-02 0. -1.
       -2    1    3    3    0  502  0.38983161034E+03 -0.11440315796E+04  0.30979084174E+02  0.12090230119E+04  0.25500000920E-02 0.  1.
</event>
<event>
 5   0  0.2528460E-05  0.2619349E+04  0.7818609E-02  0.8361658E-01
        2   -1    0    0  501    0  0.00000000000E+00  0.00000000000E+00  0.11818960823E+04  0.11818960823E+04  0.25500000920E-02 0. -1.
       -2   -1    0    0    0  501  0.00000000000E+00  0.00000000000E+00 -0.14512676369E+04  0.14512676369E+04  0.25500000920E-02 0.  1.
    10030    2    1    2    0    0  0.00000000000E+00  0.00000000000E+00 -0.26937155467E+03  0.26331637192E+04  0.26193491821E+04 0.  0.
        5    1    3    3  502    0  0.36152824966E+03 -0.10898540787E+04  0.49850988085E+03  0.12518062068E+04  0.46999998093E+01 0. -1.
       -5    1    3    3    0  502 -0.36152824966E+03  0.10898540787E+04 -0.76788143553E+03  0.13813575124E+04  0.46999998093E+01 0.  1.
</event>
<event>
 5   0  0.2555801E-05  0.2593790E+04  0.7818609E-02  0.8370314E-01
        2   -1    0    0  501    0  0.00000000000E+00  0.00000000000E+00  0.22513404374E+04  0.22513404374E+04  0.25500000920E-02 0.  1.
       -2   -1    0    0    0  501  0.00000000000E+00  0.00000000000E+00 -0.74708222377E+03  0.74708222377E+03  0.25500000920E-02 0. -1.
    10030    2    1    2    0    0  0.00000000000E+00  0.00000000000E+00  0.15042582136E+04  0.29984226612E+04  0.25937898299E+04 0.  0.
        1    1    3    3  502    0  0.85136733611E+03 -0.97565346840E+03  0.66868548546E+03  0.14573490693E+04  0.50400001928E-02 0. -1.
       -1    1    3    3    0  502 -0.85136733611E+03  0.97565346840E+03  0.83557272819E+03  0.15410735919E+04  0.50400001928E-02 0.  1.
</event>
<event>
 5   0  0.9855352E-06  0.2581827E+04  0.7818609E-02  0.8374400E-01
       -1   -1    0    0    0  501  0.00000000000E+00  0.00000000000E+00  0.13004475882E+04  0.13004475882E+04  0.50400001928E-02 0. -1.
        1   -1    0    0  501    0  0.00000000000E+00  0.00000000000E+00 -0.12814493346E+04  0.12814493346E+04  0.50400001928E-02 0.  1.
    10030    2    1    2    0    0  0.00000000000E+00  0.00000000000E+00  0.18998253579E+02  0.25818969228E+04  0.25818270248E+04 0.  0.
        2    1    3    3  502    0  0.90968058535E+03  0.88557964561E+03  0.24335930215E+03  0.12926692640E+04  0.25500000920E-02 0. -1.
       -2    1    3    3    0  502 -0.90968058535E+03 -0.88557964561E+03 -0.22436104857E+03  0.12892276588E+04  0.25500000920E-02 0.  1.
</event>
<event>
 5   0  0.2555801E-05  0.2626242E+04  0.7818609E-02  0.8359342E-01
       -2   -1    0    0    0  501  0.00000000000E+00  0.00000000000E+00  0.10141764840E+04  0.10141764840E+04  0.25500000920E-02 0. -1.
        2   -1    0    0  501    0  0.00000000000E+00  0.00000000000E+00 -0.17001838645E+04  0.17001838645E+04  0.25500000920E-02 0.  1.
    10030    2    1    2    0    0  0.00000000000E+00  0.00000000000E+00 -0.68600738057E+03  0.27143603485E+04  0.26262417968E+04 0.  0.
        1    1    3    3  502    0  0.65954003706E+03 -0.79278066429E+03  0.49716262330E+03  0.11448427474E+04  0.50400001928E-02 0. -1.
       -1    1    3    3    0  502 -0.65954003706E+03  0.79278066429E+03 -0.11831700039E+04  0.15695176011E+04  0.50400001928E-02 0.  1.
</event>
<event>
 5   0  0.1005492E-05  0.2622004E+04  0.7818609E-02  0.8360765E-01
       -1   -1    0    0    0  501  0.00000000000E+00  0.00000000000E+00  0.11186381180E+04  0.11186381180E+04  0.50400001928E-02 0. -1.
        1   -1    0    0  501    0  0.00000000000E+00  0.00000000000E+00 -0.15364452260E+04  0.15364452260E+04  0.50400001928E-02 0.  1.
    10030    2    1    2    0    0  0.00000000000E+00  0.00000000000E+00 -0.41780710805E+03  0.26550833440E+04  0.26220039634E+04 0.  0.
        4    1    3    3  502    0 -0.10817795731E+04  0.24703275645E+03  0.49808258820E+03  0.12162894824E+04  0.12699999809E+01 0.  1.
       -4    1    3    3    0  502  0.10817795731E+04 -0.24703275645E+03 -0.91588969625E+03  0.14387938616E+04  0.12699999809E+01 0. -1.
</event>
<event>
 5   0  0.2484618E-05  0.2614356E+04  0.7818609E-02  0.8363341E-01
       -2   -1    0    0    0  501  0.00000000000E+00  0.00000000000E+00  0.14932294775E+04  0.14932294775E+04  0.25500000920E-02 0.  1.
        2   -1    0    0  501    0  0.00000000000E+00  0.00000000000E+00 -0.11443080653E+04  0.11443080653E+04  0.25500000920E-02 0. -1.
    10030    2    1    2    0    0  0.00000000000E+00  0.00000000000E+00  0.34892141219E+03  0.26375375428E+04  0.26143561612E+04 0.  0.
        3    1    3    3  502    0 -0.81783531292E+03  0.59450095620E+03 -0.66139548419E+03  0.12081928582E+04  0.10100000352E+00 0. -1.
       -3    1    3    3    0  502  0.81783531292E+03 -0.59450095620E+03  0.10103168964E+04  0.14293446846E+04  0.10100000352E+00 0.  1.
</event>
<event>
 5   0  0.1005492E-05  0.2506096E+04  0.7818609E-02  0.8400817E-01
       -1   -1    0    0    0  501  0.00000000000E+00  0.00000000000E+00  0.14405931217E+04  0.14405931217E+04  0.50400001928E-02 0.  1.
        1   -1    0    0  501    0  0.00000000000E+00  0.00000000000E+00 -0.10899188847E+04  0.10899188847E+04  0.50400001928E-02 0. -1.
    10030    2    1    2    0    0  0.00000000000E+00  0.00000000000E+00  0.35067423700E+03  0.25305120064E+04  0.25060962859E+04 0.  0.
        4    1    3    3  502    0  0.98710758432E+02 -0.11461113123E+04  0.67698009560E+03  0.13347728708E+04  0.12699999809E+01 0.  1.
       -4    1    3    3    0  502 -0.98710758432E+02  0.11461113123E+04 -0.32630585860E+03  0.11957391355E+04  0.12699999809E+01 0. -1.
</event>
<event>
 5   0  0.2484618E-05  0.2572393E+04  0.7818609E-02  0.8377640E-01
       -2   -1    0    0    0  501  0.00000000000E+00  0.00000000000E+00  0.12895601820E+04  0.12895601820E+04  0.25500000920E-02 0.  1.
        2   -1    0    0  501    0  0.00000000000E+00  0.00000000000E+00 -0.12828412295E+04  0.12828412295E+04  0.25500000920E-02 0. -1.
    10030    2    1    2    0    0  0.00000000000E+00  0.00000000000E+00  0.67189525071E+01  0.25724014115E+04  0.25723926367E+04 0.  0.
        3    1    3    3  502    0 -0.75390852444E+03 -0.95791568451E+03 -0.40691066117E+03  0.12851291057E+04  0.10100000352E+00 0. -1.
       -3    1    3    3    0  502  0.75390852444E+03  0.95791568451E+03  0.41362961367E+03  0.12872723058E+04  0.10100000352E+00 0.  1.
</event>
<event>
 5   0  0.2517854E-05  0.2549548E+04  0.7818609E-02  0.8385543E-01
        2   -1    0    0  501    0  0.00000000000E+00  0.00000000000E+00  0.18106020789E+04  0.18106020790E+04  0.25500000920E-02 0. -1.
       -2   -1    0    0    0  501  0.00000000000E+00  0.00000000000E+00 -0.89751827055E+03  0.89751827055E+03  0.25500000920E-02 0.  1.
    10030    2    1    2    0    0  0.00000000000E+00  0.00000000000E+00  0.91308380840E+03  0.27081203495E+04  0.25495477611E+04 0.  0.
        4    1    3    3  502    0 -0.73480489133E+03 -0.10406775151E+04  0.40787853011E+03  0.13376525808E+04  0.12699999809E+01 0. -1.
       -4    1    3    3    0  502  0.73480489133E+03  0.10406775151E+04  0.50520527830E+03  0.13704677687E+04  0.12699999809E+01 0.  1.
</event>
<event>
 5   0  0.2662024E-05  0.2678293E+04  0.7818609E-02  0.8342083E-01
       -2   -1    0    0    0  501  0.00000000000E+00  0.00000000000E+00  0.93557036659E+03  0.93557036659E+03  0.25500000920E-02 0. -1.
        2   -1    0    0  501    0  0.00000000000E+00  0.00000000000E+00 -0.19168122061E+04  0.19168122061E+04  0.25500000920E-02 0.  1.
    10030    2    1    2    0    0  0.00000000000E+00  0.00000000000E+00 -0.98124183952E+03  0.28523825727E+04  0.26782925145E+04 0.  0.
        2    1    3    3  502    0 -0.13126142503E+04 -0.16222730502E+03 -0.71411583779E+03  0.15030752803E+04  0.25500000920E-02 0.  1.
       -2    1    3    3    0  502  0.13126142503E+04  0.16222730502E+03 -0.26712600174E+03  0.13493072924E+04  0.25500000920E-02 0. -1.
</event>
<event>
 5   0  0.2662024E-05  0.2622061E+04  0.7818609E-02  0.8360746E-01
        2   -1    0    0  501    0  0.00000000000E+00  0.00000000000E+00  0.13407254536E+04  0.13407254536E+04  0.25500000920E-02 0.  1.
       -2   -1    0    0    0  501  0.00000000000E+00  0.00000000000E+00 -0.12819935841E+04  0.12819935841E+04  0.25500000920E-02 0. -1.
    10030    2    1    2    0    0  0.00000000000E+00  0.00000000000E+00  0.58731869476E+02  0.26227190377E+04  0.26220613491E+04 0.  0.
        2    1    3    3  502    0  0.20210431550E+03  0.77140913022E+03  0.10702437056E+04  0.13346684195E+04  0.25500000920E-02 0.  1.
       -2    1    3    3    0  502 -0.20210431550E+03 -0.77140913022E+03 -0.10115118361E+04  0.12880506182E+04  0.25500000920E-02 0. -1.
</event>
<event>
 5   0  0.1005492E-05  0.2585288E+04  0.7818609E-02  0.8373216E-01
        1   -1    0    0  501    0  0.00000000000E+00  0.00000000000E+00  0.11898150655E+04  0.11898150655E+04  0.50400001928E-02 0.  1.
       -1   -1    0    0    0  501  0.00000000000E+00  0.00000000000E+00 -0.14043593716E+04  0.14043593716E+04  0.50400001928E-02 0. -1.
    10030    2    1    2    0    0  0.00000000000E+00  0.00000000000E+00 -0.21454430613E+03  0.25941744371E+04  0.25852875567E+04 0.  0.
        4    1    3    3  502    0 -0.77066815290E+03  0.64081232164E+03  0.71184050258E+03  0.12293446821E+04  0.12699999809E+01 0.  1.
       -4    1    3    3    0  502  0.77066815290E+03 -0.64081232164E+03 -0.92638480871E+03  0.13648297550E+04  0.12699999809E+01 0. -1.
</event>
<event>
 5   0  0.2662024E-05  0.2741622E+04  0.7818609E-02  0.8321625E-01
        2   -1    0    0  501    0  0.00000000000E+00  0.00000000000E+00  0.20909342275E+04  0.20909342275E+04  0.25500000920E-02 0.  1.
       -2   -1    0    0    0  501  0.00000000000E+00  0.00000000000E+00 -0.89870004601E+03  0.89870004602E+03  0.25500000920E-02 0. -1.
    10030    2    1    2    0    0  0.00000000000E+00  0.00000000000E+00  0.11922341815E+04  0.29896342735E+04  0.27416219188E+04 0.  0.
        2    1    3    3  502    0  0.43400084275E+02 -0.95863176142E+03 -0.47134668608E+03  0.10691239965E+04  0.25500000920E-02 0. -1.
       -2    1    3    3    0  502 -0.43400084275E+02  0.95863176142E+03  0.16635808675E+04  0.19205102770E+04  0.25500000920E-02 0.  1.
</event>
<event>
 5   0  0.2528460E-05  0.2583043E+04  0.7818609E-02  0.8373984E-01
       -2   -1    0    0    0  501  0.00000000000E+00  0.00000000000E+00  0.10833780703E+04  0.10833780703E+04  0.25500000920E-02 0.  1.
        2   -1    0    0  501    0  0.00000000000E+00  0.00000000000E+00 -0.15396537860E+04  0.15396537860E+04  0.25500000920E-02 0. -1.
    10030    2    1    2    0    0  0.00000000000E+00  0.00000000000E+00 -0.45627571572E+03  0.26230318562E+04  0.25830425064E+04 0.  0.
        5    1    3    3  502    0  0.36500836023E+03 -0.43567629257E+03 -0.14058162752E+04  0.15163727854E+04  0.46999998093E+01 0. -1.
       -5    1    3    3    0  502 -0.36500836023E+03  0.43567629257E+03  0.94954055943E+03  0.11066590708E+04  0.46999998093E+01 0.  1.
</event>
<event>
 5   0  0.2528460E-05  0.2647431E+04  0.7818609E-02  0.8352266E-01
       -2   -1    0    0    0  501  0.00000000000E+00  0.00000000000E+00  0.13007322393E+04  0.13007322393E+04  0.25500000920E-02 0. -1.
        2   -1    0    0  501    0  0.00000000000E+00  0.00000000000E+00 -0.13471053385E+04  0.13471053385E+04  0.25500000920E-02 0.  1.
    10030    2    1    2    0    0  0.00000000000E+00  0.00000000000E+00 -0.46373099158E+02  0.26478375777E+04  0.26474314673E+04 0.  0.
        5    1    3    3  502    0 -0.79554212290E+03 -0.10482261327E+04  0.12013916236E+03  0.13214086434E+04  0.46999998093E+01 0. -1.
       -5    1    3    3    0  502  0.79554212290E+03  0.10482261327E+04 -0.16651226151E+03  0.13264289343E+04  0.46999998093E+01 0.  1.
</event>
<event>
 5   0  0.2484618E-05  0.2566546E+04  0.7818609E-02  0.8379654E-01
       -2   -1    0    0    0  501  0.00000000000E+00  0.00000000000E+00  0.11638461026E+04  0.11638461026E+04  0.25500000920E-02 0.  1.
        2   -1    0    0  501    0  0.00000000000E+00  0.00000000000E+00 -0.14149548390E+04  0.14149548390E+04  0.25500000920E-02 0. -1.
    10030    2    1    2    0    0  0.00000000000E+00  0.00000000000E+00 -0.25110873635E+03  0.25788009416E+04  0.25665460641E+04 0.  0.
        3    1    3    3  502    0  0.71020845720E+03 -0.78767042925E+03 -0.85147823180E+03  0.13600867425E+04  0.10100000352E+00 0. -1.
       -3    1    3    3    0  502 -0.71020845720E+03  0.78767042925E+03  0.60036949546E+03  0.12187141991E+04  0.10100000352E+00 0.  1.
</event>
<event>
 5   0  0.1034714E-05  0.2580931E+04  0.7818609E-02  0.8374707E-01
        1   -1    0    0  501    0  0.00000000000E+00  0.00000000000E+00  0.13206292519E+04  0.13206292519E+04  0.50400001928E-02 0.  1.
       -1   -1    0    0    0  501  0.00000000000E+00  0.00000000000E+00 -0.12609911392E+04  0.12609911393E+04  0.50400001928E-02 0. -1.
    10030    2    1    2    0    0  0.00000000000E+00  0.00000000000E+00  0.59638112635E+02  0.25816203912E+04  0.25809314481E+04 0.  0.
        5    1    3    3  502    0  0.72564735898E+03 -0.10616103638E+04  0.13801003327E+03  0.12933095195E+04  0.46999998093E+01 0. -1.
       -5    1    3    3    0  502 -0.72564735898E+03  0.10616103638E+04 -0.78371920633E+02  0.12883108716E+04  0.46999998093E+01 0.  1.
</event>
<event>
 5   0  0.1025153E-05  0.2570947E+04  0.7818609E-02  0.8378137E-01
        1   -1    0    0  501    0  0.00000000000E+00  0.00000000000E+00  0.15153720408E+04  0.15153720409E+04  0.50400001928E-02 0.  1.
       -1   -1    0    0    0  501  0.00000000000E+00  0.00000000000E+00 -0.10904530383E+04  0.10904530383E+04  0.50400001928E-02 0. -1.
    10030    2    1    2    0    0  0.00000000000E+00  0.00000000000E+00  0.42491900251E+03  0.26058250792E+04  0.25709469432E+04 0.  0.
        1    1    3    3  502    0 -0.28339522854E+03  0.40692852419E+03 -0.98960545654E+03  0.11068977545E+04  0.50400001928E-02 0. -1.
       -1    1    3    3    0  502  0.28339522854E+03 -0.40692852419E+03  0.14145244590E+04  0.14989273247E+04  0.50400001928E-02 0.  1.
</event>
<event>
 5   0  0.2484618E-05  0.2543270E+04  0.7818609E-02  0.8387730E-01
       -2   -1    0    0    0  501  0.00000000000E+00  0.00000000000E+00  0.60865440858E+03  0.60865440859E+03  0.25500000920E-02 0. -1.
        2   -1    0    0  501    0  0.00000000000E+00  0.00000000000E+00 -0.26567718747E+04  0.26567718747E+04  0.25500000920E-02 0.  1.
    10030    2    1    2    0    0  0.00000000000E+00  0.00000000000E+00 -0.20481174662E+04  0.32654262833E+04  0.25432702681E+04 0.  0.
        3    1    3    3  502    0  0.11402838267E+04 -0.51248445069E+03 -0.13228860662E+04  0.18201414978E+04  0.10100000352E+00 0.  1.
       -3    1    3    3    0  502 -0.11402838267E+04  0.51248445069E+03 -0.72523139993E+03  0.14452847855E+04  0.10100000352E+00 0. -1.
</event>
<event>
 5   0  0.9855352E-06  0.2060934E+04  0.7818609E-02  0.8578650E-01
       -1   -1    0    0    0  501  0.00000000000E+00  0.00000000000E+00  0.80688461795E+03  0.80688461797E+03  0.50400001928E-02 0.  1.
        1   -1    0    0  501    0  0.00000000000E+00  0.00000000000E+00 -0.13160021270E+04  0.13160021270E+04  0.50400001928E-02 0. -1.
    10030    2    1    2    0    0  0.00000000000E+00  0.00000000000E+00 -0.50911750900E+03  0.21228867449E+04  0.20609336461E+04 0.  0.
        2    1    3    3  502    0 -0.11224797560E+03 -0.10169148849E+04 -0.38132898281E+03  0.10918458153E+04  0.25500000920E-02 0. -1.
       -2    1    3    3    0  502  0.11224797560E+03  0.10169148849E+04 -0.12778852619E+03  0.10310409297E+04  0.25500000920E-02 0.  1.
</event>
<event>
 5   0  0.2517854E-05  0.2588610E+04  0.7818609E-02  0.8372080E-01
       -2   -1    0    0    0  501  0.00000000000E+00  0.00000000000E+00  0.59169094243E+03  0.59169094244E+03  0.25500000920E-02 0. -1.
        2   -1    0    0  501    0  0.00000000000E+00  0.00000000000E+00 -0.28312512307E+04  0.28312512307E+04  0.25500000920E-02 0.  1.
    10030    2    1    2    0    0  0.00000000000E+00  0.00000000000E+00 -0.22395602882E+04  0.34229421731E+04  0.25886102132E+04 0.  0.
        4    1    3    3  502    0  0.20380692290E+02 -0.38981836283E+03 -0.27515598146E+04  0.27791107849E+04  0.12699999809E+01 0.  1.
       -4    1    3    3    0  502 -0.20380692290E+02  0.38981836283E+03  0.51199952632E+03  0.64383138823E+03  0.12699999809E+01 0. -1.
</event>
<event>
 5   0  0.1005492E-05  0.2358566E+04  0.7818609E-02  0.8455181E-01
       -1   -1    0    0    0  501  0.00000000000E+00  0.00000000000E+00  0.24085041221E+04  0.24085041221E+04  0.50400001928E-02 0. -1.
        1   -1    0    0  501    0  0.00000000000E+00  0.00000000000E+00 -0.57741586169E+03  0.57741586172E+03  0.50400001928E-02 0.  1.
    10030    2    1    2    0    0  0.00000000000E+00  0.00000000000E+00  0.18310882604E+04  0.29859199838E+04  0.23585660755E+04 0.  0.
        4    1    3    3  502    0  0.51516980886E+03 -0.90828614812E+03  0.16093285895E+04  0.19184169986E+04  0.12699999809E+01 0. -1.
       -4    1    3    3    0  502 -0.51516980886E+03  0.90828614812E+03  0.22175967093E+03  0.10675029852E+04  0.12699999809E+01 0.  1.
</event>
<event>
 5   0  0.2517854E-05  0.2573115E+04  0.7818609E-02  0.8377391E-01
       -2   -1    0    0    0  501  0.00000000000E+00  0.00000000000E+00  0.88789641647E+03  0.88789641647E+03  0.25500000920E-02 0. -1.
        2   -1    0    0  501    0  0.00000000000E+00  0.00000000000E+00 -0.18642149566E+04  0.18642149566E+04  0.25500000920E-02 0.  1.
    10030    2    1    2    0    0  0.00000000000E+00  0.00000000000E+00 -0.97631854010E+03  0.27521113730E+04  0.25731146725E+04 0.  0.
        4    1    3    3  502    0 -0.96601558746E+03  0.48440720771E+03 -0.12348588932E+04  0.16409492853E+04  0.12699999809E+01 0.  1.
       -4    1    3    3    0  502  0.96601558746E+03 -0.48440720771E+03  0.25854035306E+03  0.11111620877E+04  0.12699999809E+01 0. -1.
</event>
<event>
 5   0  0.2555801E-05  0.2579609E+04  0.7818609E-02  0.8375161E-01
        2   -1    0    0  501    0  0.00000000000E+00  0.00000000000E+00  0.17010110096E+04  0.17010110096E+04  0.25500000920E-02 0.  1.
       -2   -1    0    0    0  501  0.00000000000E+00  0.00000000000E+00 -0.97800434442E+03  0.97800434442E+03  0.25500000920E-02 0. -1.
    10030    2    1    2    0    0  0.00000000000E+00  0.00000000000E+00  0.72300666518E+03  0.26790153540E+04  0.25796093947E+04 0.  0.
        1    1    3    3  502    0  0.63766706387E+03 -0.34307716776E+03 -0.74699622232E+03  0.10403482992E+04  0.50400001928E-02 0. -1.
       -1    1    3    3    0  502 -0.63766706387E+03  0.34307716776E+03  0.14700028875E+04  0.16386670549E+04  0.50400001928E-02 0.  1.
</event>
<event>
 5   0  0.2662024E-05  0.2605796E+04  0.7818609E-02  0.8366235E-01
        2   -1    0    0  501    0  0.00000000000E+00  0.00000000000E+00  0.12810350247E+04  0.12810350247E+04  0.25500000920E-02 0. -1.
       -2   -1    0    0    0  501  0.00000000000E+00  0.00000000000E+00 -0.13251340507E+04  0.13251340507E+04  0.25500000920E-02 0.  1.
    10030    2    1    2    0    0  0.00000000000E+00  0.00000000000E+00 -0.44099026006E+02  0.26061690754E+04  0.26057959486E+04 0.  0.
        2    1    3    3  502    0 -0.10667166785E+04 -0.57969261775E+03 -0.49499683785E+03  0.13110872865E+04  0.25500000920E-02 0.  1.
       -2    1    3    3    0  502  0.10667166785E+04  0.57969261775E+03  0.45089781184E+03  0.12950817889E+04  0.25500000920E-02 0. -1.
</event>
<event>
 5   0  0.1000421E-05  0.1884085E+04  0.7818609E-02  0.8662819E-01
       -1   -1    0    0    0  501  0.00000000000E+00  0.00000000000E+00  0.77127846468E+03  0.77127846470E+03  0.50400001928E-02 0. -1.
        1   -1    0    0  501    0  0.00000000000E+00  0.00000000000E+00 -0.11506145050E+04  0.11506145050E+04  0.50400001928E-02 0.  1.
    10030    2    1    2    0    0  0.00000000000E+00  0.00000000000E+00 -0.37933604032E+03  0.19218929697E+04  0.18840851243E+04 0.  0.
        3    1    3    3  502    0  0.21154361844E+03 -0.79379035560E+02 -0.11225650881E+04  0.11450782161E+04  0.10100000352E+00 0.  1.
       -3    1    3    3    0  502 -0.21154361844E+03  0.79379035560E+02  0.74322904776E+03  0.77681475361E+03  0.10100000352E+00 0. -1.
</event>
<event>
 5   0  0.1025153E-05  0.2601192E+04  0.7818609E-02  0.8367796E-01
        1   -1    0    0  501    0  0.00000000000E+00  0.00000000000E+00  0.10580100404E+04  0.10580100404E+04  0.50400001928E-02 0.  1.
       -1   -1    0    0    0  501  0.00000000000E+00  0.00000000000E+00 -0.15988038602E+04  0.15988038602E+04  0.50400001928E-02 0. -1.
    10030    2    1    2    0    0  0.00000000000E+00  0.00000000000E+00 -0.54079381979E+03  0.26568139006E+04  0.26011924471E+04 0.  0.
        1    1    3    3  502    0 -0.12263366731E+04 -0.17240728487E+03 -0.67629179927E+03  0.14110267558E+04  0.50400001928E-02 0.  1.
       -1    1    3    3    0  502  0.12263366731E+04  0.17240728487E+03  0.13549797948E+03  0.12457871448E+04  0.50400001928E-02 0. -1.
</event>
<event>
 5   0  0.9855352E-06  0.2588750E+04  0.7818609E-02  0.8372033E-01
       -1   -1    0    0    0  501  0.00000000000E+00  0.00000000000E+00  0.78756094930E+03  0.78756094932E+03  0.50400001928E-02 0.  1.
        1   -1    0    0  501    0  0.00000000000E+00  0.00000000000E+00 -0.21273361667E+04  0.21273361667E+04  0.50400001928E-02 0. -1.
    10030    2    1    2    0    0  0.00000000000E+00  0.00000000000E+00 -0.13397752174E+04  0.29148971160E+04  0.25887501934E+04 0.  0.
        2    1    3    3  502    0  0.89948679596E+03 -0.67474063944E+03 -0.13917980099E+04  0.17892604972E+04  0.25500000920E-02 0. -1.
       -2    1    3    3    0  502 -0.89948679596E+03  0.67474063944E+03  0.52022792501E+02  0.11256366188E+04  0.25500000920E-02 0.  1.
</event>
<event>
 5   0  0.2662024E-05  0.2637113E+04  0.7818609E-02  0.8355703E-01
        2   -1    0    0  501    0  0.00000000000E+00  0.00000000000E+00  0.83362804466E+03  0.83362804466E+03  0.25500000920E-02 0.  1.
       -2   -1    0    0    0  501  0.00000000000E+00  0.00000000000E+00 -0.20855712301E+04  0.20855712301E+04  0.25500000920E-02 0. -1.
    10030    2    1    2    0    0  0.00000000000E+00  0.00000000000E+00 -0.12519431855E+04  0.29191992748E+04  0.26371125623E+04 0.  0.
        2    1    3    3  502    0 -0.87673671476E+03  0.70098547117E+03 -0.13917364892E+04  0.17880096066E+04  0.25500000920E-02 0. -1.
       -2    1    3    3    0  502  0.87673671476E+03 -0.70098547117E+03  0.13979330370E+03  0.11311896683E+04  0.25500000920E-02 0.  1.
</event>
<event>
 5   0  0.2528460E-05  0.2618219E+04  0.7818609E-02  0.8362039E-01
        2   -1    0    0  501    0  0.00000000000E+00  0.00000000000E+00  0.21137104111E+04  0.21137104112E+04  0.25500000920E-02 0.  1.
       -2   -1    0    0    0  501  0.00000000000E+00  0.00000000000E+00 -0.81078661769E+03  0.81078661770E+03  0.25500000920E-02 0. -1.
    10030    2    1    2    0    0  0.00000000000E+00  0.00000000000E+00  0.13029237935E+04  0.29244970288E+04  0.26182193300E+04 0.  0.
        5    1    3    3  502    0  0.42041253413E+03  0.69710726970E+03  0.17965922942E+04  0.19724277441E+04  0.46999998093E+01 0.  1.
       -5    1    3    3    0  502 -0.42041253413E+03 -0.69710726970E+03 -0.49366850071E+03  0.95206928473E+03  0.46999998093E+01 0. -1.
</event>
<event>
 5   0  0.1025153E-05  0.2715323E+04  0.7818609E-02  0.8330050E-01
       -1   -1    0    0    0  501  0.00000000000E+00  0.00000000000E+00  0.91238304914E+03  0.91238304916E+03  0.50400001928E-02 0. -1.
        1   -1    0    0  501    0  0.00000000000E+00  0.00000000000E+00 -0.20202526206E+04  0.20202526206E+04  0.50400001928E-02 0.  1.
    10030    2    1    2    0    0  0.00000000000E+00  0.00000000000E+00 -0.11078695715E+04  0.29326356698E+04  0.27153226299E+04 0.  0.
        1    1    3    3  502    0  0.10229229624E+04 -0.26773664314E+03 -0.14736694638E+04  0.18137684487E+04  0.50400001928E-02 0.  1.
       -1    1    3    3    0  502 -0.10229229624E+04  0.26773664314E+03  0.36579989234E+03  0.11188672210E+04  0.50400001928E-02 0. -1.
</event>
<event>
 5   0  0.2555801E-05  0.2642110E+04  0.7818609E-02  0.8354036E-01
       -2   -1    0    0    0  501  0.00000000000E+00  0.00000000000E+00  0.10754710236E+04  0.10754710236E+04  0.25500000920E-02 0.  1.
        2   -1    0    0  501    0  0.00000000000E+00  0.00000000000E+00 -0.16227182464E+04  0.16227182464E+04  0.25500000920E-02 0. -1.
    10030    2    1    2    0    0  0.00000000000E+00  0.00000000000E+00 -0.54724722279E+03  0.26981892700E+04  0.26421101063E+04 0.  0.
        1    1    3    3  502    0 -0.11178941443E+04  0.20727880235E+03 -0.96060885700E+03  0.14884291034E+04  0.50400001928E-02 0. -1.
       -1    1    3    3    0  502  0.11178941443E+04 -0.20727880235E+03  0.41336163421E+03  0.12097601665E+04  0.50400001928E-02 0.  1.
</event>
<event>
 5   0  0.1025153E-05  0.2593637E+04  0.7818609E-02  0.8370366E-01
        1   -1    0    0  501    0  0.00000000000E+00  0.00000000000E+00  0.24151963583E+04  0.24151963583E+04  0.50400001928E-02 0.  1.
       -1   -1    0    0    0  501  0.00000000000E+00  0.00000000000E+00 -0.69631539878E+03  0.69631539880E+03  0.50400001928E-02 0. -1.
    10030    2    1    2    0    0  0.00000000000E+00  0.00000000000E+00  0.17188809595E+04  0.31115117571E+04  0.25936371492E+04 0.  0.
        1    1    3    3  502    0 -0.11926173875E+04 -0.39867327246E+03  0.12396847819E+04  0.17658128354E+04  0.50400001928E-02 0.  1.
       -1    1    3    3    0  502  0.11926173875E+04  0.39867327246E+03  0.47919617769E+03  0.13456989217E+04  0.50400001928E-02 0. -1.
</event>
<event>
 5   0  0.2528460E-05  0.2724969E+04  0.7818609E-02  0.8326949E-01
       -2   -1    0    0    0  501  0.00000000000E+00  0.00000000000E+00  0.92652830718E+03  0.92652830719E+03  0.25500000920E-02 0. -1.
        2   -1    0    0  501    0  0.00000000000E+00  0.00000000000E+00 -0.20035695402E+04  0.20035695402E+04  0.25500000920E-02 0.  1.
    10030    2    1    2    0    0  0.00000000000E+00  0.00000000000E+00 -0.10770412330E+04  0.29300978474E+04  0.27249689132E+04 0.  0.
        5    1    3    3  502    0  0.59187724398E+03 -0.11188795465E+04  0.35426601818E+01  0.12657980692E+04  0.46999998093E+01 0. -1.
       -5    1    3    3    0  502 -0.59187724398E+03  0.11188795465E+04 -0.10805838932E+04  0.16642997782E+04  0.46999998093E+01 0.  1.
</event>
<event>
 5   0  0.2555801E-05  0.2598056E+04  0.7818609E-02  0.8368862E-01
        2   -1    0    0  501    0  0.00000000000E+00  0.00000000000E+00  0.12979717120E+04  0.12979717120E+04  0.25500000920E-02 0.  1.
       -2   -1    0    0    0  501  0.00000000000E+00  0.00000000000E+00 -0.13000855424E+04  0.13000855424E+04  0.25500000920E-02 0. -1.
    10030    2    1    2    0    0  0.00000000000E+00  0.00000000000E+00 -0.21138304424E+01  0.25980572544E+04  0.25980563944E+04 0.  0.
        1    1    3    3  502    0 -0.83239952535E+03 -0.41603803763E+03  0.90530845392E+03  0.12982911905E+04  0.50400001928E-02 0.  1.
       -1    1    3    3    0  502  0.83239952535E+03  0.41603803763E+03 -0.90742228437E+03  0.12997660639E+04  0.50400001928E-02 0. -1.
</event>
<event>
 5   0  0.2528460E-05  0.1962910E+04  0.7818609E-02  0.8624160E-01
       -2   -1    0    0    0  501  0.00000000000E+00  0.00000000000E+00  0.10217682014E+04  0.10217682014E+04  0.25500000920E-02 0.  1.
        2   -1    0    0  501    0  0.00000000000E+00  0.00000000000E+00 -0.94273237313E+03  0.94273237313E+03  0.25500000920E-02 0. -1.
    10030    2    1    2    0    0  0.00000000000E+00  0.00000000000E+00  0.79035828297E+02  0.19645005746E+04  0.19629100451E+04 0.  0.
        5    1    3    3  502    0 -0.12032855574E+03  0.96159183609E+03 -0.11583044601E+03  0.97600030880E+03  0.46999998093E+01 0.  1.
       -5    1    3    3    0  502  0.12032855574E+03 -0.96159183609E+03  0.19486627431E+03  0.98850026576E+03  0.46999998093E+01 0. -1.
</event>
<event>
 5   0  0.2528460E-05  0.2630919E+04  0.7818609E-02  0.8357774E-01
       -2   -1    0    0    0  501  0.00000000000E+00  0.00000000000E+00  0.17979753603E+04  0.17979753603E+04  0.25500000920E-02 0.  1.
        2   -1    0    0  501    0  0.00000000000E+00  0.00000000000E+00 -0.96243465219E+03  0.96243465220E+03  0.25500000920E-02 0. -1.
    10030    2    1    2    0    0  0.00000000000E+00  0.00000000000E+00  0.83554070812E+03  0.27604100125E+04  0.26309190718E+04 0.  0.
        5    1    3    3  502    0  0.13136589033E+04  0.55505316850E+02  0.46014563036E+03  0.13930314589E+04  0.46999998093E+01 0.  1.
       -5    1    3    3    0  502 -0.13136589033E+04 -0.55505316850E+02  0.37539507775E+03  0.13673785536E+04  0.46999998093E+01 0. -1.
</event>
<event>
 5   0  0.9855352E-06  0.2582305E+04  0.7818609E-02  0.8374237E-01
       -1   -1    0    0    0  501  0.00000000000E+00  0.00000000000E+00  0.10603738526E+04  0.10603738526E+04  0.50400001928E-02 0.  1.
        1   -1    0    0  501    0  0.00000000000E+00  0.00000000000E+00 -0.15721573314E+04  0.15721573314E+04  0.50400001928E-02 0. -1.
    10030    2    1    2    0    0  0.00000000000E+00  0.00000000000E+00 -0.51178347884E+03  0.26325311840E+04  0.25823048049E+04 0.  0.
        2    1    3    3  502    0  0.79908294326E+03  0.97281652289E+03  0.36335027108E+02  0.12594545532E+04  0.25500000920E-02 0. -1.
       -2    1    3    3    0  502 -0.79908294326E+03 -0.97281652289E+03 -0.54811850595E+03  0.13730766308E+04  0.25500000920E-02 0.  1.
</event>
<event>
 5   0  0.2484618E-05  0.2631649E+04  0.7818609E-02  0.8357529E-01
        2   -1    0    0  501    0  0.00000000000E+00  0.00000000000E+00  0.18311895057E+04  0.18311895057E+04  0.25500000920E-02 0.  1.
       -2   -1    0    0    0  501  0.00000000000E+00  0.00000000000E+00 -0.94550276081E+03  0.94550276081E+03  0.25500000920E-02 0. -1.
    10030    2    1    2    0    0  0.00000000000E+00  0.00000000000E+00  0.88568674493E+03  0.27766922666E+04  0.26316494700E+04 0.  0.
        3    1    3    3  502    0  0.64499817853E+03 -0.11428348652E+04  0.34108881337E+03  0.13558892905E+04  0.10100000352E+00 0. -1.
       -3    1    3    3    0  502 -0.64499817853E+03  0.11428348652E+04  0.54459793156E+03  0.14208029760E+04  0.10100000352E+00 0.  1.
</event>
<event>
 5   0  0.9855352E-06  0.2619563E+04  0.7818609E-02  0.8361586E-01
        1   -1    0    0  501    0  0.00000000000E+00  0.00000000000E+00  0.12665218764E+04  0.12665218764E+04  0.50400001928E-02 0. -1.
       -1   -1    0    0    0  501  0.00000000000E+00  0.00000000000E+00 -0.13545184592E+04  0.13545184592E+04  0.50400001928E-02 0.  1.
    10030    2    1    2    0    0  0.00000000000E+00  0.00000000000E+00 -0.87996582735E+02  0.26210403356E+04  0.26195627578E+04 0.  0.
        2    1    3    3  502    0 -0.76293095615E+03 -0.98615609179E+03  0.35742593672E+03  0.12970430916E+04  0.25500000920E-02 0. -1.
       -2    1    3    3    0  502  0.76293095615E+03  0.98615609179E+03 -0.44542251945E+03  0.13239972440E+04  0.25500000920E-02 0.  1.
</event>
<event>
 5   0  0.2517854E-05  0.2525946E+04  0.7818609E-02  0.8393800E-01
       -2   -1    0    0    0  501  0.00000000000E+00  0.00000000000E+00  0.73078138339E+03  0.73078138339E+03  0.25500000920E-02 0. -1.
        2   -1    0    0  501    0  0.00000000000E+00  0.00000000000E+00 -0.21827332183E+04  0.21827332183E+04  0.25500000920E-02 0.  1.
    10030    2    1    2    0    0  0.00000000000E+00  0.00000000000E+00 -0.14519518349E+04  0.29135146017E+04  0.25259460017E+04 0.  0.
        4    1    3    3  502    0  0.12051232674E+04 -0.37257376972E+03 -0.65333803711E+03  0.14205581675E+04  0.12699999809E+01 0. -1.
       -4    1    3    3    0  502 -0.12051232674E+04  0.37257376972E+03 -0.79861379783E+03  0.14929564342E+04  0.12699999809E+01 0.  1.
</event>
<event>
 5   0  0.1000421E-05  0.2284769E+04  0.7818609E-02  0.8483951E-01
        1   -1    0    0  501    0  0.00000000000E+00  0.00000000000E+00  0.11505505033E+04  0.11505505033E+04  0.50400001928E-02 0.  1.
       -1   -1    0    0    0  501  0.00000000000E+00  0.00000000000E+00 -0.11342762448E+04  0.11342762448E+04  0.50400001928E-02 0. -1.
    10030    2    1    2    0    0  0.00000000000E+00  0.00000000000E+00  0.16274258413E+02  0.22848267481E+04  0.22847687886E+04 0.  0.
        3    1    3    3  502    0 -0.75899743260E+03  0.84586659364E+03 -0.10794637896E+03  0.11415865398E+04  0.10100000352E+00 0.  1.
       -3    1    3    3    0  502  0.75899743260E+03 -0.84586659364E+03  0.12422063737E+03  0.11432402083E+04  0.10100000352E+00 0. -1.
</event>
<event>
 5   0  0.2484618E-05  0.2606638E+04  0.7818609E-02  0.8365950E-01
       -2   -1    0    0    0  501  0.00000000000E+00  0.00000000000E+00  0.12241402577E+04  0.12241402577E+04  0.25500000920E-02 0. -1.
        2   -1    0    0  501    0  0.00000000000E+00  0.00000000000E+00 -0.13876190579E+04  0.13876190579E+04  0.25500000920E-02 0.  1.
    10030    2    1    2    0    0  0.00000000000E+00  0.00000000000E+00 -0.16347880021E+03  0.26117593156E+04  0.26066379504E+04 0.  0.
        3    1    3    3  502    0 -0.58816138956E+03  0.87332316372E+03 -0.85137171150E+03  0.13540535328E+04  0.10100000352E+00 0.  1.
       -3    1    3    3    0  502  0.58816138956E+03 -0.87332316372E+03  0.68789291129E+03  0.12577057828E+04  0.10100000352E+00 0. -1.
</event>
<event>
 5   0  0.1005492E-05  0.2648229E+04  0.7818609E-02  0.8352001E-01
       -1   -1    0    0    0  501  0.00000000000E+00  0.00000000000E+00  0.93346452151E+03  0.93346452152E+03  0.50400001928E-02 0. -1.
        1   -1    0    0  501    0  0.00000000000E+00  0.00000000000E+00 -0.18782498636E+04  0.18782498636E+04  0.50400001928E-02 0.  1.
    10030    2    1    2    0    0  0.00000000000E+00  0.00000000000E+00 -0.94478534212E+03  0.28117143852E+04  0.26482293029E+04 0.  0.
        4    1    3    3  502    0  0.19231190769E+03 -0.15902098147E+03  0.90827211647E+03  0.94192961141E+03  0.12699999809E+01 0. -1.
       -4    1    3    3    0  502 -0.19231190769E+03  0.15902098147E+03 -0.18530574586E+04  0.18697847737E+04  0.12699999809E+01 0.  1.
</event>
<event>
 5   0  0.2555801E-05  0.2606138E+04  0.7818609E-02  0.8366119E-01
       -2   -1    0    0    0  501  0.00000000000E+00  0.00000000000E+00  0.85324479438E+03  0.85324479439E+03  0.25500000920E-02 0. -1.
        2   -1    0    0  501    0  0.00000000000E+00  0.00000000000E+00 -0.19900373306E+04  0.19900373306E+04  0.25500000920E-02 0.  1.
    10030    2    1    2    0    0  0.00000000000E+00  0.00000000000E+00 -0.11367925363E+04  0.28432821250E+04  0.26061381337E+04 0.  0.
        1    1    3    3  502    0  0.66805321716E+03 -0.15613118665E+03 -0.17770471934E+04  0.19048802524E+04  0.50400001928E-02 0.  1.
       -1    1    3    3    0  502 -0.66805321716E+03  0.15613118665E+03  0.64025465718E+03  0.93840187259E+03  0.50400001928E-02 0. -1.
</event>
<event>
 5   0  0.1034714E-05  0.2636611E+04  0.7818609E-02  0.8355870E-01
        1   -1    0    0  501    0  0.00000000000E+00  0.00000000000E+00  0.13989772258E+04  0.13989772258E+04  0.50400001928E-02 0. -1.
       -1   -1    0    0    0  501  0.00000000000E+00  0.00000000000E+00 -0.12422861079E+04  0.12422861079E+04  0.50400001928E-02 0.  1.
    10030    2    1    2    0    0  0.00000000000E+00  0.00000000000E+00  0.15669111790E+03  0.26412633336E+04  0.26366114411E+04 0.  0.
        5    1    3    3  502    0  0.36347017895E+02  0.39881976498E+03  0.13365590131E+04  0.13952743085E+04  0.46999998093E+01 0. -1.
       -5    1    3    3    0  502 -0.36347017895E+02 -0.39881976498E+03 -0.11798678952E+04  0.12459890251E+04  0.46999998093E+01 0.  1.
</event>
<event>
 5   0  0.1005492E-05  0.2500708E+04  0.7818609E-02  0.8402733E-01
        1   -1    0    0  501    0  0.00000000000E+00  0.00000000000E+00  0.18735514431E+04  0.18735514431E+04  0.50400001928E-02 0.  1.
       -1   -1    0    0    0  501  0.00000000000E+00  0.00000000000E+00 -0.83445011708E+03  0.83445011710E+03  0.50400001928E-02 0. -1.
    10030    2    1    2    0    0  0.00000000000E+00  0.00000000000E+00  0.10391013260E+04  0.27080015602E+04  0.25007080766E+04 0.  0.
        4    1    3    3  502    0  0.42102047637E+03 -0.10832262148E+04  0.20071981899E+02  0.11623432244E+04  0.12699999809E+01 0. -1.
       -4    1    3    3    0  502 -0.42102047637E+03  0.10832262148E+04  0.10190293441E+04  0.15456583358E+04  0.12699999809E+01 0.  1.
</event>
<event>
 5   0  0.2484618E-05  0.2597837E+04  0.7818609E-02  0.8368936E-01
        2   -1    0    0  501    0  0.00000000000E+00  0.00000000000E+00  0.78474444521E+03  0.78474444522E+03  0.25500000920E-02 0.  1.
       -2   -1    0    0    0  501  0.00000000000E+00  0.00000000000E+00 -0.21499848611E+04  0.21499848611E+04  0.25500000920E-02 0. -1.
    10030    2    1    2    0    0  0.00000000000E+00  0.00000000000E+00 -0.13652404159E+04  0.29347293063E+04  0.25978365438E+04 0.  0.
        3    1    3    3  502    0 -0.69415439114E+03 -0.39350764313E+02 -0.19220775048E+04  0.20439620217E+04  0.10100000352E+00 0. -1.
       -3    1    3    3    0  502  0.69415439114E+03  0.39350764313E+02  0.55683708898E+03  0.89076728457E+03  0.10100000352E+00 0.  1.
</event>
<event>
 5   0  0.1034714E-05  0.2579597E+04  0.7818609E-02  0.8375165E-01
        1   -1    0    0  501    0  0.00000000000E+00  0.00000000000E+00  0.14750724915E+04  0.14750724915E+04  0.50400001928E-02 0.  1.
       -1   -1    0    0    0  501  0.00000000000E+00  0.00000000000E+00 -0.11277954972E+04  0.11277954972E+04  0.50400001928E-02 0. -1.
    10030    2    1    2    0    0  0.00000000000E+00  0.00000000000E+00  0.34727699430E+03  0.26028679888E+04  0.25795969561E+04 0.  0.
        5    1    3    3  502    0  0.85657196088E+03  0.76672950589E+03  0.76369452621E+03  0.13801598019E+04  0.46999998093E+01 0.  1.
       -5    1    3    3    0  502 -0.85657196088E+03 -0.76672950589E+03 -0.41641753191E+03  0.12227081869E+04  0.46999998093E+01 0. -1.
</event>
<event>
 5   0  0.1000421E-05  0.2600638E+04  0.7818609E-02  0.8367985E-01
        1   -1    0    0  501    0  0.00000000000E+00  0.00000000000E+00  0.21585826862E+04  0.21585826862E+04  0.50400001928E-02 0.  1.
       -1   -1    0    0    0  501  0.00000000000E+00  0.00000000000E+00 -0.78330531552E+03  0.78330531554E+03  0.50400001928E-02 0. -1.
    10030    2    1    2    0    0  0.00000000000E+00  0.00000000000E+00  0.13752773707E+04  0.29418880017E+04  0.26006378388E+04 0.  0.
        3    1    3    3  502    0 -0.48319993238E+03  0.49702713128E+03  0.19321383183E+04  0.20527241985E+04  0.10100000352E+00 0.  1.
       -3    1    3    3    0  502  0.48319993238E+03 -0.49702713128E+03 -0.55686094760E+03  0.88916380327E+03  0.10100000352E+00 0. -1.
</event>
<event>
 5   0  0.9855352E-06  0.2575736E+04  0.7818609E-02  0.8376490E-01
        1   -1    0    0  501    0  0.00000000000E+00  0.00000000000E+00  0.17335830734E+04  0.17335830734E+04  0.50400001928E-02 0.  1.
       -1   -1    0    0    0  501  0.00000000000E+00  0.00000000000E+00 -0.95674918180E+03  0.95674918181E+03  0.50400001928E-02 0. -1.
    10030    2    1    2    0    0  0.00000000000E+00  0.00000000000E+00  0.77683389157E+03  0.26903322552E+04  0.25757361566E+04 0.  0.
        2    1    3    3  502    0 -0.64119389726E+03  0.11162743367E+04  0.34924954414E+03  0.13338565338E+04  0.25500000920E-02 0. -1.
       -2    1    3    3    0  502  0.64119389726E+03 -0.11162743367E+04  0.42758434743E+03  0.13564757214E+04  0.25500000920E-02 0.  1.
</event>
<event>
 5   0  0.2662024E-05  0.2628425E+04  0.7818609E-02  0.8358610E-01
        2   -1    0    0  501    0  0.00000000000E+00  0.00000000000E+00  0.16448932241E+04  0.16448932241E+04  0.25500000920E-02 0. -1.
       -2   -1    0    0    0  501  0.00000000000E+00  0.00000000000E+00 -0.10500097689E+04  0.10500097689E+04  0.25500000920E-02 0.  1.
    10030    2    1    2    0    0  0.00000000000E+00  0.00000000000E+00  0.59488345521E+03  0.26949029931E+04  0.26284245884E+04 0.  0.
        2    1    3    3  502    0  0.18021375401E+03  0.11893743036E+04  0.84003898605E+03  0.14672265432E+04  0.25500000920E-02 0. -1.
       -2    1    3    3    0  502 -0.18021375401E+03 -0.11893743036E+04 -0.24515553083E+03  0.12276764498E+04  0.25500000920E-02 0.  1.
</event>
<event>
 5   0  0.9855352E-06  0.2907033E+04  0.7818609E-02  0.8270788E-01
       -1   -1    0    0    0  501  0.00000000000E+00  0.00000000000E+00  0.94856712829E+03  0.94856712830E+03  0.50400001928E-02 0. -1.
        1   -1    0    0  501    0  0.00000000000E+00  0.00000000000E+00 -0.22272650048E+04  0.22272650049E+04  0.50400001928E-02 0.  1.
    10030    2    1    2    0    0  0.00000000000E+00  0.00000000000E+00 -0.12786978766E+04  0.31758321332E+04  0.29070331058E+04 0.  0.
        2    1    3    3  502    0 -0.10561847091E+04 -0.51854415215E+03 -0.15716615962E+04  0.19632968065E+04  0.25500000920E-02 0.  1.
       -2    1    3    3    0  502  0.10561847091E+04  0.51854415215E+03  0.29296371961E+03  0.12125353267E+04  0.25500000920E-02 0. -1.
</event>
<event>
 5   0  0.9855352E-06  0.2547514E+04  0.7818609E-02  0.8386251E-01
       -1   -1    0    0    0  501  0.00000000000E+00  0.00000000000E+00  0.10581062864E+04  0.10581062864E+04  0.50400001928E-02 0.  1.
        1   -1    0    0  501    0  0.00000000000E+00  0.00000000000E+00 -0.15333593685E+04  0.15333593686E+04  0.50400001928E-02 0. -1.
    10030    2    1    2    0    0  0.00000000000E+00  0.00000000000E+00 -0.47525308212E+03  0.25914656550E+04  0.25475142294E+04 0.  0.
        2    1    3    3  502    0 -0.11103860556E+04 -0.47681717748E+03 -0.64724651000E+03  0.13708536968E+04  0.25500000920E-02 0. -1.
       -2    1    3    3    0  502  0.11103860556E+04  0.47681717748E+03  0.17199342788E+03  0.12206119582E+04  0.25500000920E-02 0.  1.
</event>
<event>
 5   0  0.1000421E-05  0.2548865E+04  0.7818609E-02  0.8385781E-01
        1   -1    0    0  501    0  0.00000000000E+00  0.00000000000E+00  0.11729161410E+04  0.11729161410E+04  0.50400001928E-02 0. -1.
       -1   -1    0    0    0  501  0.00000000000E+00  0.00000000000E+00 -0.13847355725E+04  0.13847355725E+04  0.50400001928E-02 0.  1.
    10030    2    1    2    0    0  0.00000000000E+00  0.00000000000E+00 -0.21181943151E+03  0.25576517135E+04  0.25488653978E+04 0.  0.
        3    1    3    3  502    0  0.23663700437E+03  0.60413165027E+03  0.99477921868E+03  0.11876690729E+04  0.10100000352E+00 0. -1.
       -3    1    3    3    0  502 -0.23663700437E+03 -0.60413165027E+03 -0.12065986502E+04  0.13699826406E+04  0.10100000352E+00 0.  1.
</event>
<event>
 5   0  0.2555801E-05  0.2588710E+04  0.7818609E-02  0.8372046E-01
       -2   -1    0    0    0  501  0.00000000000E+00  0.00000000000E+00  0.11350965954E+04  0.11350965954E+04  0.25500000920E-02 0.  1.
        2   -1    0    0  501    0  0.00000000000E+00  0.00000000000E+00 -0.14759584681E+04  0.14759584681E+04  0.25500000920E-02 0. -1.
    10030    2    1    2    0    0  0.00000000000E+00  0.00000000000E+00 -0.34086187266E+03  0.26110550635E+04  0.25887104373E+04 0.  0.
        1    1    3    3  502    0 -0.14505750569E+03 -0.46904595403E+03 -0.13783950024E+04  0.14632219823E+04  0.50400001928E-02 0. -1.
       -1    1    3    3    0  502  0.14505750569E+03  0.46904595403E+03  0.10375331297E+04  0.11478330812E+04  0.50400001928E-02 0.  1.
</event>
<event>
 5   0  0.2517854E-05  0.2539116E+04  0.7818609E-02  0.8389181E-01
       -2   -1    0    0    0  501  0.00000000000E+00  0.00000000000E+00  0.13397094579E+04  0.13397094579E+04  0.25500000920E-02 0.  1.
        2   -1    0    0  501    0  0.00000000000E+00  0.00000000000E+00 -0.12030803661E+04  0.12030803661E+04  0.25500000920E-02 0. -1.
    10030    2    1    2    0    0  0.00000000000E+00  0.00000000000E+00  0.13662909176E+03  0.25427898240E+04  0.25391164960E+04 0.  0.
        4    1    3    3  502    0 -0.23624559250E+03  0.27379142810E+03 -0.11504106181E+04  0.12059104151E+04  0.12699999809E+01 0. -1.
       -4    1    3    3    0  502  0.23624559250E+03 -0.27379142810E+03  0.12870397099E+04  0.13368794089E+04  0.12699999809E+01 0.  1.
</event>
<event>
 5   0  0.1025153E-05  0.2641640E+04  0.7818609E-02  0.8354193E-01
        1   -1    0    0  501    0  0.00000000000E+00  0.00000000000E+00  0.12009006607E+04  0.12009006607E+04  0.50400001928E-02 0. -1.
       -1   -1    0    0    0  501  0.00000000000E+00  0.00000000000E+00 -0.14527137543E+04  0.14527137543E+04  0.50400001928E-02 0.  1.
    10030    2    1    2    0    0  0.00000000000E+00  0.00000000000E+00 -0.25181309360E+03  0.26536144150E+04  0.26416395722E+04 0.  0.
        1    1    3    3  502    0  0.54194950009E+03 -0.63469534349E+03  0.90246136424E+03  0.12292208726E+04  0.50400001928E-02 0. -1.
       -1    1    3    3    0  502 -0.54194950009E+03  0.63469534349E+03 -0.11542744578E+04  0.14243935424E+04  0.50400001928E-02 0.  1.
</event>
<event>
 5   0  0.2555801E-05  0.2627236E+04  0.7818609E-02  0.8359008E-01
       -2   -1    0    0    0  501  0.00000000000E+00  0.00000000000E+00  0.11679018838E+04  0.11679018838E+04  0.25500000920E-02 0.  1.
        2   -1    0    0  501    0  0.00000000000E+00  0.00000000000E+00 -0.14775152928E+04  0.14775152928E+04  0.25500000920E-02 0. -1.
    10030    2    1    2    0    0  0.00000000000E+00  0.00000000000E+00 -0.30961340902E+03  0.26454171766E+04  0.26272364902E+04 0.  0.
        1    1    3    3  502    0 -0.38775870462E+02  0.13032599178E+04 -0.31592308131E+03  0.13415652704E+04  0.50400001928E-02 0. -1.
       -1    1    3    3    0  502  0.38775870462E+02 -0.13032599178E+04  0.63096722928E+01  0.13038519062E+04  0.50400001928E-02 0.  1.
</event>
<event>
 5   0  0.2517854E-05  0.2640344E+04  0.7818609E-02  0.8354625E-01
       -2   -1    0    0    0  501  0.00000000000E+00  0.00000000000E+00  0.89608555126E+03  0.89608555126E+03  0.25500000920E-02 0.  1.
        2   -1    0    0  501    0  0.00000000000E+00  0.00000000000E+00 -0.19449642047E+04  0.19449642047E+04  0.25500000920E-02 0. -1.
    10030    2    1    2    0    0  0.00000000000E+00  0.00000000000E+00 -0.10488786534E+04  0.28410497560E+04  0.26403441606E+04 0.  0.
        4    1    3    3  502    0  0.58076904640E+03 -0.37845668189E+03  0.68450095627E+03  0.97419983441E+03  0.12699999809E+01 0.  1.
       -4    1    3    3    0  502 -0.58076904640E+03  0.37845668189E+03 -0.17333796097E+04  0.18668499216E+04  0.12699999809E+01 0. -1.
</event>
<event>
 5   0  0.2528460E-05  0.2596407E+04  0.7818609E-02  0.8369423E-01
        2   -1    0    0  501    0  0.00000000000E+00  0.00000000000E+00  0.29341916560E+04  0.29341916560E+04  0.25500000920E-02 0. -1.
       -2   -1    0    0    0  501  0.00000000000E+00  0.00000000000E+00 -0.57437712123E+03  0.57437712123E+03  0.25500000920E-02 0.  1.
    10030    2    1    2    0    0  0.00000000000E+00  0.00000000000E+00  0.23598145348E+04  0.35085687773E+04  0.25964071765E+04 0.  0.
        5    1    3    3  502    0 -0.10212626941E+04 -0.12256772467E+03  0.10962496694E+03  0.10344274072E+04  0.46999998093E+01 0.  1.
       -5    1    3    3    0  502  0.10212626941E+04  0.12256772467E+03  0.22501895679E+04  0.24741413700E+04  0.46999998093E+01 0. -1.
</event>
<event>
 5   0  0.2555801E-05  0.2535118E+04  0.7818609E-02  0.8390580E-01
        2   -1    0    0  501    0  0.00000000000E+00  0.00000000000E+00  0.20127835035E+04  0.20127835035E+04  0.25500000920E-02 0.  1.
       -2   -1    0    0    0  501  0.00000000000E+00  0.00000000000E+00 -0.79825093915E+03  0.79825093915E+03  0.25500000920E-02 0. -1.
    10030    2    1    2    0    0  0.00000000000E+00  0.00000000000E+00  0.12145325643E+04  0.28110344426E+04  0.25351183972E+04 0.  0.
        1    1    3    3  502    0 -0.48686627736E+03  0.65718085378E+03  0.16810544295E+04  0.18694569911E+04  0.50400001928E-02 0.  1.
       -1    1    3    3    0  502  0.48686627736E+03 -0.65718085378E+03 -0.46652186514E+03  0.94157745155E+03  0.50400001928E-02 0. -1.
</event>
<event>
 5   0  0.2528460E-05  0.2563775E+04  0.7818609E-02  0.8380611E-01
       -2   -1    0    0    0  501  0.00000000000E+00  0.00000000000E+00  0.86576649741E+03  0.86576649742E+03  0.25500000920E-02 0. -1.
        2   -1    0    0  501    0  0.00000000000E+00  0.00000000000E+00 -0.18980126147E+04  0.18980126147E+04  0.25500000920E-02 0.  1.
    10030    2    1    2    0    0  0.00000000000E+00  0.00000000000E+00 -0.10322461173E+04  0.27637791121E+04  0.25637751332E+04 0.  0.
        5    1    3    3  502    0 -0.29212847300E+03  0.76003756874E+03  0.55117230698E+03  0.98326453847E+03  0.46999998093E+01 0. -1.
       -5    1    3    3    0  502  0.29212847300E+03 -0.76003756874E+03 -0.15834184242E+04  0.17805145736E+04  0.46999998093E+01 0.  1.
</event>
<event>
 5   0  0.2555801E-05  0.2592144E+04  0.7818609E-02  0.8370875E-01
        2   -1    0    0  501    0  0.00000000000E+00  0.00000000000E+00  0.18734161107E+04  0.18734161107E+04  0.25500000920E-02 0.  1.
       -2   -1    0    0    0  501  0.00000000000E+00  0.00000000000E+00 -0.89665225776E+03  0.89665225776E+03  0.25500000920E-02 0. -1.
    10030    2    1    2    0    0  0.00000000000E+00  0.00000000000E+00  0.97676385293E+03  0.27700683685E+04  0.25921441205E+04 0.  0.
        1    1    3    3  502    0 -0.10691440670E+04 -0.24371933181E+03 -0.24993498876E+03  0.11246935793E+04  0.50400001928E-02 0. -1.
       -1    1    3    3    0  502  0.10691440670E+04  0.24371933181E+03  0.12266988417E+04  0.16453747892E+04  0.50400001928E-02 0.  1.
</event>
<event>
 5   0  0.1005492E-05  0.2620640E+04  0.7818609E-02  0.8361224E-01
       -1   -1    0    0    0  501  0.00000000000E+00  0.00000000000E+00  0.90692288318E+03  0.90692288320E+03  0.50400001928E-02 0.  1.
        1   -1    0    0  501    0  0.00000000000E+00  0.00000000000E+00 -0.18931476668E+04  0.18931476668E+04  0.50400001928E-02 0. -1.
    10030    2    1    2    0    0  0.00000000000E+00  0.00000000000E+00 -0.98622478364E+03  0.28000705500E+04  0.26206403342E+04 0.  0.
        4    1    3    3  502    0 -0.11311268114E+04  0.52998258932E+03 -0.70279841831E+02  0.12511076203E+04  0.12699999809E+01 0.  1.
       -4    1    3    3    0  502  0.11311268114E+04 -0.52998258932E+03 -0.91594494181E+03  0.15489629298E+04  0.12699999809E+01 0. -1.
</event>
<event>
 5   0  0.1000421E-05  0.2622624E+04  0.7818609E-02  0.8360557E-01
        1   -1    0    0  501    0  0.00000000000E+00  0.00000000000E+00  0.16264374298E+04  0.16264374298E+04  0.50400001928E-02 0.  1.
       -1   -1    0    0    0  501  0.00000000000E+00  0.00000000000E+00 -0.10572429498E+04  0.10572429498E+04  0.50400001928E-02 0. -1.
    10030    2    1    2    0    0  0.00000000000E+00  0.00000000000E+00  0.56919448007E+03  0.26836803796E+04  0.26226242628E+04 0.  0.
        3    1    3    3  502    0  0.76637536089E+02 -0.61852408516E+03  0.14651872450E+04  0.15922371145E+04  0.10100000352E+00 0.  1.
       -3    1    3    3    0  502 -0.76637536089E+02  0.61852408516E+03 -0.89599276491E+03  0.10914432651E+04  0.10100000352E+00 0. -1.
</event>
<event>
 5   0  0.2555801E-05  0.2626884E+04  0.7818609E-02  0.8359126E-01
       -2   -1    0    0    0  501  0.00000000000E+00  0.00000000000E+00  0.93559698012E+03  0.93559698012E+03  0.25500000920E-02 0. -1.
        2   -1    0    0  501    0  0.00000000000E+00  0.00000000000E+00 -0.18438807985E+04  0.18438807985E+04  0.25500000920E-02 0.  1.
    10030    2    1    2    0    0  0.00000000000E+00  0.00000000000E+00 -0.90828381834E+03  0.27794777786E+04  0.26268835579E+04 0.  0.
        1    1    3    3  502    0 -0.41419097043E+03  0.11198071577E+03 -0.17676377472E+04  0.18189659277E+04  0.50400001928E-02 0.  1.
       -1    1    3    3    0  502  0.41419097043E+03 -0.11198071577E+03  0.85935392885E+03  0.96051185091E+03  0.50400001928E-02 0. -1.
</event>
<event>
 5   0  0.9855352E-06  0.2373423E+04  0.7818609E-02  0.8449521E-01
       -1   -1    0    0    0  501  0.00000000000E+00  0.00000000000E+00  0.69986108222E+03  0.69986108224E+03  0.50400001928E-02 0.  1.
        1   -1    0    0  501    0  0.00000000000E+00  0.00000000000E+00 -0.20122344486E+04  0.20122344486E+04  0.50400001928E-02 0. -1.
    10030    2    1    2    0    0  0.00000000000E+00  0.00000000000E+00 -0.13123733664E+04  0.27120955309E+04  0.23734233326E+04 0.  0.
        2    1    3    3  502    0 -0.61032974650E+03  0.10101830503E+04 -0.79758726129E+03  0.14244710015E+04  0.25500000920E-02 0. -1.
       -2    1    3    3    0  502  0.61032974650E+03 -0.10101830503E+04 -0.51478610513E+03  0.12876245294E+04  0.25500000920E-02 0.  1.
</event>
<event>
 5   0  0.2662024E-05  0.2596922E+04  0.7818609E-02  0.8369247E-01
        2   -1    0    0  501    0  0.00000000000E+00  0.00000000000E+00  0.24364404977E+04  0.24364404977E+04  0.25500000920E-02 0.  1.
       -2   -1    0    0    0  501  0.00000000000E+00  0.00000000000E+00 -0.69199364797E+03  0.69199364798E+03  0.25500000920E-02 0. -1.
    10030    2    1    2    0    0  0.00000000000E+00  0.00000000000E+00  0.17444468497E+04  0.31284341457E+04  0.25969222923E+04 0.  0.
        2    1    3    3  502    0  0.54311616514E+02 -0.23511560917E+03 -0.66474477776E+03  0.70718789648E+03  0.25500000920E-02 0. -1.
       -2    1    3    3    0  502 -0.54311616514E+02  0.23511560917E+03  0.24091916275E+04  0.24212462492E+04  0.25500000920E-02 0.  1.
</event>
<event>
 5   0  0.1005492E-05  0.2548351E+04  0.7818609E-02  0.8385960E-01
        1   -1    0    0  501    0  0.00000000000E+00  0.00000000000E+00  0.15658967833E+04  0.15658967833E+04  0.50400001928E-02 0. -1.
       -1   -1    0    0    0  501  0.00000000000E+00  0.00000000000E+00 -0.10368010904E+04  0.10368010904E+04  0.50400001928E-02 0.  1.
    10030    2    1    2    0    0  0.00000000000E+00  0.00000000000E+00  0.52909569289E+03  0.26026978737E+04  0.25483512257E+04 0.  0.
        4    1    3    3  502    0  0.21987434152E+03  0.11022707458E+03 -0.10123252404E+04  0.10417767224E+04  0.12699999809E+01 0.  1.
       -4    1    3    3    0  502 -0.21987434152E+03 -0.11022707458E+03  0.15414209333E+04  0.15609211513E+04  0.12699999809E+01 0. -1.
</event>
<event>
 5   0  0.2528460E-05  0.2627695E+04  0.7818609E-02  0.8358854E-01
        2   -1    0    0  501    0  0.00000000000E+00  0.00000000000E+00  0.10325144419E+04  0.10325144419E+04  0.25500000920E-02 0. -1.
       -2   -1    0    0    0  501  0.00000000000E+00  0.00000000000E+00 -0.16718368154E+04  0.16718368154E+04  0.25500000920E-02 0.  1.
    10030    2    1    2    0    0  0.00000000000E+00  0.00000000000E+00 -0.63932237349E+03  0.27043512572E+04  0.26276953068E+04 0.  0.
        5    1    3    3  502    0  0.22700288619E+02 -0.86880240363E+03 -0.13337174919E+04  0.15919036899E+04  0.46999998093E+01 0.  1.
       -5    1    3    3    0  502 -0.22700288619E+02  0.86880240363E+03  0.69439511841E+03  0.11124475674E+04  0.46999998093E+01 0. -1.
</event>
<event>
 5   0  0.1005492E-05  0.2557281E+04  0.7818609E-02  0.8382858E-01
       -1   -1    0    0    0  501  0.00000000000E+00  0.00000000000E+00  0.14164591299E+04  0.14164591299E+04  0.50400001928E-02 0. -1.
        1   -1    0    0  501    0  0.00000000000E+00  0.00000000000E+00 -0.11542316925E+04  0.11542316925E+04  0.50400001928E-02 0.  1.
    10030    2    1    2    0    0  0.00000000000E+00  0.00000000000E+00  0.26222743739E+03  0.25706908224E+04  0.25572813837E+04 0.  0.
        4    1    3    3  502    0  0.52197874966E+03  0.16836313598E+03  0.12922081649E+04  0.14037847111E+04  0.12699999809E+01 0. -1.
       -4    1    3    3    0  502 -0.52197874966E+03 -0.16836313598E+03 -0.10299807275E+04  0.11669061113E+04  0.12699999809E+01 0.  1.
</event>
<event>
 5   0  0.2555801E-05  0.2576446E+04  0.7818609E-02  0.8376246E-01
        2   -1    0    0  501    0  0.00000000000E+00  0.00000000000E+00  0.10155939580E+04  0.10155939580E+04  0.25500000920E-02 0.  1.
       -2   -1    0    0    0  501  0.00000000000E+00  0.00000000000E+00 -0.16340375972E+04  0.16340375972E+04  0.25500000920E-02 0. -1.
    10030    2    1    2    0    0  0.00000000000E+00  0.00000000000E+00 -0.61844363921E+03  0.26496315552E+04  0.25764461654E+04 0.  0.
        1    1    3    3  502    0 -0.75191331817E+03 -0.10285985409E+04 -0.11374328091E+03  0.12791896381E+04  0.50400001928E-02 0.  1.
       -1    1    3    3    0  502  0.75191331817E+03  0.10285985409E+04 -0.50470035830E+03  0.13704419171E+04  0.50400001928E-02 0. -1.
</event>
<event>
 5   0  0.9855352E-06  0.2607076E+04  0.7818609E-02  0.8365802E-01
       -1   -1    0    0    0  501  0.00000000000E+00  0.00000000000E+00  0.87157627153E+03  0.87157627155E+03  0.50400001928E-02 0. -1.
        1   -1    0    0  501    0  0.00000000000E+00  0.00000000000E+00 -0.19495839133E+04  0.19495839133E+04  0.50400001928E-02 0.  1.
    10030    2    1    2    0    0  0.00000000000E+00  0.00000000000E+00 -0.10780076418E+04  0.28211601849E+04  0.26070758165E+04 0.  0.
        2    1    3    3  502    0  0.63862272412E+03 -0.40114770505E+03  0.61153232160E+03  0.97094296711E+03  0.25500000920E-02 0. -1.
       -2    1    3    3    0  502 -0.63862272412E+03  0.40114770505E+03 -0.16895399634E+04  0.18502172178E+04  0.25500000920E-02 0.  1.
</event>
<event>
 5   0  0.9855352E-06  0.2603387E+04  0.7818609E-02  0.8367052E-01
       -1   -1    0    0    0  501  0.00000000000E+00  0.00000000000E+00  0.13990171357E+04  0.13990171357E+04  0.50400001928E-02 0.  1.
        1   -1    0    0  501    0  0.00000000000E+00  0.00000000000E+00 -0.12111401275E+04  0.12111401275E+04  0.50400001928E-02 0. -1.
    10030    2    1    2    0    0  0.00000000000E+00  0.00000000000E+00  0.18787700822E+03  0.26101572632E+04  0.26033868649E+04 0.  0.
        2    1    3    3  502    0 -0.26341527958E+03 -0.24813067985E+03  0.13475699378E+04  0.13953140080E+04  0.25500000920E-02 0.  1.
       -2    1    3    3    0  502  0.26341527958E+03  0.24813067985E+03 -0.11596929295E+04  0.12148432552E+04  0.25500000920E-02 0. -1.
</event>
<event>
 5   0  0.1000421E-05  0.2603291E+04  0.7818609E-02  0.8367084E-01
       -1   -1    0    0    0  501  0.00000000000E+00  0.00000000000E+00  0.12336265421E+04  0.12336265421E+04  0.50400001928E-02 0.  1.
        1   -1    0    0  501    0  0.00000000000E+00  0.00000000000E+00 -0.13734144202E+04  0.13734144203E+04  0.50400001928E-02 0. -1.
    10030    2    1    2    0    0  0.00000000000E+00  0.00000000000E+00 -0.13978787813E+03  0.26070409624E+04  0.26032905963E+04 0.  0.
        3    1    3    3  502    0 -0.12062744747E+04  0.39906101730E+03  0.21323702006E+03  0.12883391793E+04  0.10100000352E+00 0. -1.
       -3    1    3    3    0  502  0.12062744747E+04 -0.39906101730E+03 -0.35302489819E+03  0.13187017831E+04  0.10100000352E+00 0.  1.
</event>
<event>
 5   0  0.1034714E-05  0.2538175E+04  0.7818609E-02  0.8389510E-01
        1   -1    0    0  501    0  0.00000000000E+00  0.00000000000E+00  0.19278393511E+04  0.19278393511E+04  0.50400001928E-02 0.  1.
       -1   -1    0    0    0  501  0.00000000000E+00  0.00000000000E+00 -0.83543456806E+03  0.83543456808E+03  0.50400001928E-02 0. -1.
    10030    2    1    2    0    0  0.00000000000E+00  0.00000000000E+00  0.10924047830E+04  0.27632739192E+04  0.25381754357E+04 0.  0.
        5    1    3    3  502    0 -0.58473641299E+03  0.36459467526E+03  0.17064137050E+04  0.18403031741E+04  0.46999998093E+01 0.  1.
       -5    1    3    3    0  502  0.58473641299E+03 -0.36459467526E+03 -0.61400892202E+03  0.92297074505E+03  0.46999998093E+01 0. -1.
</event>
<event>
 5   0  0.1005492E-05  0.2614032E+04  0.7818609E-02  0.8363450E-01
       -1   -1    0    0    0  501  0.00000000000E+00  0.00000000000E+00  0.92482015440E+03  0.92482015441E+03  0.50400001928E-02 0. -1.
        1   -1    0    0  501    0  0.00000000000E+00  0.00000000000E+00 -0.18471598219E+04  0.18471598219E+04  0.50400001928E-02 0.  1.
    10030    2    1    2    0    0  0.00000000000E+00  0.00000000000E+00 -0.92233966749E+03  0.27719799763E+04  0.26140318527E+04 0.  0.
        4    1    3    3  502    0  0.80961903896E+03  0.12542546964E+03  0.61873177378E+03  0.10266670139E+04  0.12699999809E+01 0. -1.
       -4    1    3    3    0  502 -0.80961903896E+03 -0.12542546964E+03 -0.15410714413E+04  0.17453129624E+04  0.12699999809E+01 0.  1.
</event>
<event>
 5   0  0.2517854E-05  0.2707872E+04  0.7818609E-02  0.8332455E-01
        2   -1    0    0  501    0  0.00000000000E+00  0.00000000000E+00  0.20822814930E+04  0.20822814930E+04  0.25500000920E-02 0. -1.
       -2   -1    0    0    0  501  0.00000000000E+00  0.00000000000E+00 -0.88035314848E+03  0.88035314848E+03  0.25500000920E-02 0.  1.
    10030    2    1    2    0    0  0.00000000000E+00  0.00000000000E+00  0.12019283446E+04  0.29626346415E+04  0.27078722779E+04 0.  0.
        4    1    3    3  502    0  0.88569538208E+03 -0.12649031906E+03 -0.51085440776E+03  0.10302572249E+04  0.12699999809E+01 0.  1.
       -4    1    3    3    0  502 -0.88569538208E+03  0.12649031906E+03  0.17127827523E+04  0.19323774166E+04  0.12699999809E+01 0. -1.
</event>
<event>
 5   0  0.2555801E-05  0.2618517E+04  0.7818609E-02  0.8361939E-01
       -2   -1    0    0    0  501  0.00000000000E+00  0.00000000000E+00  0.70946287807E+03  0.70946287808E+03  0.25500000920E-02 0. -1.
        2   -1    0    0  501    0  0.00000000000E+00  0.00000000000E+00 -0.24161339224E+04  0.24161339224E+04  0.25500000920E-02 0.  1.
    10030    2    1    2    0    0  0.00000000000E+00  0.00000000000E+00 -0.17066710444E+04  0.31255968005E+04  0.26185166231E+04 0.  0.
        1    1    3    3  502    0 -0.12629199097E+04  0.12718516172E+03 -0.47022248613E+03  0.13536070147E+04  0.50400001928E-02 0. -1.
       -1    1    3    3    0  502  0.12629199097E+04 -0.12718516172E+03 -0.12364485582E+04  0.17719897858E+04  0.50400001928E-02 0.  1.
</event>
<event>
 5   0  0.2528460E-05  0.2598682E+04  0.7818609E-02  0.8368649E-01
        2   -1    0    0  501    0  0.00000000000E+00  0.00000000000E+00  0.10145235199E+04  0.10145235199E+04  0.25500000920E-02 0.  1.
       -2   -1    0    0    0  501  0.00000000000E+00  0.00000000000E+00 -0.16641181461E+04  0.16641181461E+04  0.25500000920E-02 0. -1.
    10030    2    1    2    0    0  0.00000000000E+00  0.00000000000E+00 -0.64959462624E+03  0.26786416661E+04  0.25986819730E+04 0.  0.
        5    1    3    3  502    0 -0.34041858823E+03 -0.15793416368E+03 -0.16070332948E+04  0.16502745578E+04  0.46999998093E+01 0. -1.
       -5    1    3    3    0  502  0.34041858823E+03  0.15793416368E+03  0.95743866861E+03  0.10283671083E+04  0.46999998093E+01 0.  1.
</event>
<event>
 5   0  0.2662024E-05  0.2605871E+04  0.7818609E-02  0.8366210E-01
        2   -1    0    0  501    0  0.00000000000E+00  0.00000000000E+00  0.11536070754E+04  0.11536070754E+04  0.25500000920E-02 0.  1.
       -2   -1    0    0    0  501  0.00000000000E+00  0.00000000000E+00 -0.14715934703E+04  0.14715934703E+04  0.25500000920E-02 0. -1.
    10030    2    1    2    0    0  0.00000000000E+00  0.00000000000E+00 -0.31798639495E+03  0.26252005457E+04  0.26058707869E+04 0.  0.
        2    1    3    3  502    0 -0.67531189926E+03  0.84594033006E+03 -0.88961729359E+03  0.14010996154E+04  0.25500000920E-02 0. -1.
       -2    1    3    3    0  502  0.67531189926E+03 -0.84594033006E+03  0.57163089865E+03  0.12241009303E+04  0.25500000920E-02 0.  1.
</event>
<event>
 5   0  0.9855352E-06  0.2599583E+04  0.7818609E-02  0.8368343E-01
       -1   -1    0    0    0  501  0.00000000000E+00  0.00000000000E+00  0.10598406169E+04  0.10598406169E+04  0.50400001928E-02 0. -1.
        1   -1    0    0  501    0  0.00000000000E+00  0.00000000000E+00 -0.15940683571E+04  0.15940683571E+04  0.50400001928E-02 0.  1.
    10030    2    1    2    0    0  0.00000000000E+00  0.00000000000E+00 -0.53422774024E+03  0.26539089740E+04  0.25995833443E+04 0.  0.
        2    1    3    3  502    0  0.68904604459E+01 -0.45239562924E+03 -0.15110807387E+04  0.15773630789E+04  0.25500000920E-02 0.  1.
       -2    1    3    3    0  502 -0.68904604459E+01  0.45239562924E+03  0.97685299844E+03  0.10765458952E+04  0.25500000920E-02 0. -1.
</event>
<event>
 5   0  0.1025153E-05  0.2592479E+04  0.7818609E-02  0.8370761E-01
        1   -1    0    0  501    0  0.00000000000E+00  0.00000000000E+00  0.86227861235E+03  0.86227861237E+03  0.50400001928E-02 0.  1.
       -1   -1    0    0    0  501  0.00000000000E+00  0.00000000000E+00 -0.19486003715E+04  0.19486003715E+04  0.50400001928E-02 0. -1.
    10030    2    1    2    0    0  0.00000000000E+00  0.00000000000E+00 -0.10863217592E+04  0.28108789839E+04  0.25924786783E+04 0.  0.
        1    1    3    3  502    0  0.95831482778E+01 -0.11957426233E+04 -0.10856558213E+04  0.16150977742E+04  0.50400001928E-02 0. -1.
       -1    1    3    3    0  502 -0.95831482778E+01  0.11957426233E+04 -0.66593789390E+00  0.11957812097E+04  0.50400001928E-02 0.  1.
</event>
<event>
 5   0  0.2528460E-05  0.2599704E+04  0.7818609E-02  0.8368302E-01
       -2   -1    0    0    0  501  0.00000000000E+00  0.00000000000E+00  0.10569425635E+04  0.10569425635E+04  0.25500000920E-02 0.  1.
        2   -1    0    0  501    0  0.00000000000E+00  0.00000000000E+00 -0.15985872473E+04  0.15985872473E+04  0.25500000920E-02 0. -1.
    10030    2    1    2    0    0  0.00000000000E+00  0.00000000000E+00 -0.54164468390E+03  0.26555298108E+04  0.25997037548E+04 0.  0.
        5    1    3    3  502    0  0.50089968505E+03 -0.71183738825E+03  0.71529950714E+03  0.11266270176E+04  0.46999998093E+01 0.  1.
       -5    1    3    3    0  502 -0.50089968505E+03  0.71183738825E+03 -0.12569441910E+04  0.15289027932E+04  0.46999998093E+01 0. -1.
</event>
<event>
 5   0  0.2555801E-05  0.2483198E+04  0.7818609E-02  0.8408996E-01
        2   -1    0    0  501    0  0.00000000000E+00  0.00000000000E+00  0.17195217611E+04  0.17195217611E+04  0.25500000920E-02 0.  1.
       -2   -1    0    0    0  501  0.00000000000E+00  0.00000000000E+00 -0.89650969049E+03  0.89650969049E+03  0.25500000920E-02 0. -1.
    10030    2    1    2    0    0  0.00000000000E+00  0.00000000000E+00  0.82301207060E+03  0.26160314516E+04  0.24831978752E+04 0.  0.
        1    1    3    3  502    0 -0.63250210751E+03 -0.91631802781E+03  0.99032374467E+03  0.14901136746E+04  0.50400001928E-02 0.  1.
       -1    1    3    3    0  502  0.63250210751E+03  0.91631802781E+03 -0.16731167407E+03  0.11259177769E+04  0.50400001928E-02 0. -1.
</event>
<event>
 5   0  0.1034714E-05  0.2590897E+04  0.7818609E-02  0.8371300E-01
       -1   -1    0    0    0  501  0.00000000000E+00  0.00000000000E+00  0.99104856463E+03  0.99104856464E+03  0.50400001928E-02 0. -1.
        1   -1    0    0  501    0  0.00000000000E+00  0.00000000000E+00 -0.16933448056E+04  0.16933448056E+04  0.50400001928E-02 0.  1.
    10030    2    1    2    0    0  0.00000000000E+00  0.00000000000E+00 -0.70229624095E+03  0.26843933702E+04  0.25908970949E+04 0.  0.
        5    1    3    3  502    0  0.18205080298E+03  0.11308537803E+04 -0.97812347267E+03  0.15062272024E+04  0.46999998093E+01 0.  1.
       -5    1    3    3    0  502 -0.18205080298E+03 -0.11308537803E+04  0.27582723172E+03  0.11781661679E+04  0.46999998093E+01 0. -1.
</event>
<event>
 5   0  0.1000421E-05  0.2559051E+04  0.7818609E-02  0.8382245E-01
       -1   -1    0    0    0  501  0.00000000000E+00  0.00000000000E+00  0.84039894533E+03  0.84039894534E+03  0.50400001928E-02 0.  1.
        1   -1    0    0  501    0  0.00000000000E+00  0.00000000000E+00 -0.19481053134E+04  0.19481053134E+04  0.50400001928E-02 0. -1.
    10030    2    1    2    0    0  0.00000000000E+00  0.00000000000E+00 -0.11077063681E+04  0.27885042588E+04  0.25590511139E+04 0.  0.
        3    1    3    3  502    0  0.74055546836E+03  0.88743842972E+03  0.44188652484E+02  0.11566857894E+04  0.10100000352E+00 0.  1.
       -3    1    3    3    0  502 -0.74055546836E+03 -0.88743842972E+03 -0.11518950206E+04  0.16318184694E+04  0.10100000352E+00 0. -1.
</event>
<event>
 5   0  0.2528460E-05  0.2548281E+04  0.7818609E-02  0.8385984E-01
        2   -1    0    0  501    0  0.00000000000E+00  0.00000000000E+00  0.18764280527E+04  0.18764280527E+04  0.25500000920E-02 0.  1.
       -2   -1    0    0    0  501  0.00000000000E+00  0.00000000000E+00 -0.86517237813E+03  0.86517237814E+03  0.25500000920E-02 0. -1.
    10030    2    1    2    0    0  0.00000000000E+00  0.00000000000E+00  0.10112556746E+04  0.27416004308E+04  0.25482807700E+04 0.  0.
        5    1    3    3  502    0  0.10134964436E+04 -0.88690993886E+01 -0.32505941306E+03  0.10643962675E+04  0.46999998093E+01 0.  1.
       -5    1    3    3    0  502 -0.10134964436E+04  0.88690993886E+01  0.13363150876E+04  0.16772041634E+04  0.46999998093E+01 0. -1.
</event>
<event>
 5   0  0.1000421E-05  0.2505862E+04  0.7818609E-02  0.8400900E-01
       -1   -1    0    0    0  501  0.00000000000E+00  0.00000000000E+00  0.77326215156E+03  0.77326215157E+03  0.50400001928E-02 0.  1.
        1   -1    0    0  501    0  0.00000000000E+00  0.00000000000E+00 -0.20301472788E+04  0.20301472788E+04  0.50400001928E-02 0. -1.
    10030    2    1    2    0    0  0.00000000000E+00  0.00000000000E+00 -0.12568851273E+04  0.28034094304E+04  0.25058619697E+04 0.  0.
        3    1    3    3  502    0  0.97496075191E+03  0.68668478507E+03 -0.19841583244E+03  0.12089058336E+04  0.10100000352E+00 0. -1.
       -3    1    3    3    0  502 -0.97496075191E+03 -0.68668478507E+03 -0.10584692948E+04  0.15945035968E+04  0.10100000352E+00 0.  1.
</event>
<event>
 5   0  0.2528460E-05  0.2604246E+04  0.7818609E-02  0.8366760E-01
       -2   -1    0    0    0  501  0.00000000000E+00  0.00000000000E+00  0.60759454243E+03  0.60759454244E+03  0.25500000920E-02 0.  1.
        2   -1    0    0  501    0  0.00000000000E+00  0.00000000000E+00 -0.27905520937E+04  0.27905520937E+04  0.25500000920E-02 0. -1.
    10030    2    1    2    0    0  0.00000000000E+00  0.00000000000E+00 -0.21829575512E+04  0.33981466361E+04  0.26042459350E+04 0.  0.
        5    1    3    3  502    0 -0.64702585437E+03 -0.11003745904E+04 -0.75616712081E+03  0.14836702801E+04  0.46999998093E+01 0. -1.
       -5    1    3    3    0  502  0.64702585437E+03  0.11003745904E+04 -0.14267904304E+04  0.19144763560E+04  0.46999998093E+01 0.  1.
</event>
<event>
 5   0  0.9855352E-06  0.2572169E+04  0.7818609E-02  0.8377717E-01
        1   -1    0    0  501    0  0.00000000000E+00  0.00000000000E+00  0.32046497590E+04  0.32046497590E+04  0.50400001928E-02 0. -1.
       -1   -1    0    0    0  501  0.00000000000E+00  0.00000000000E+00 -0.51612933774E+03  0.51612933776E+03  0.50400001928E-02 0.  1.
    10030    2    1    2    0    0  0.00000000000E+00  0.00000000000E+00  0.26885204213E+04  0.37207790968E+04  0.25721693240E+04 0.  0.
        2    1    3    3  502    0 -0.34359469673E+03 -0.38724858631E+03 -0.35874179713E+03  0.62985272901E+03  0.25500000920E-02 0.  1.
       -2    1    3    3    0  502  0.34359469673E+03  0.38724858631E+03  0.30472622184E+04  0.30909263678E+04  0.25500000920E-02 0. -1.
</event>
<event>
 5   0  0.2555801E-05  0.2590219E+04  0.7818609E-02  0.8371531E-01
        2   -1    0    0  501    0  0.00000000000E+00  0.00000000000E+00  0.14453430054E+04  0.14453430054E+04  0.25500000920E-02 0. -1.
       -2   -1    0    0    0  501  0.00000000000E+00  0.00000000000E+00 -0.11604921368E+04  0.11604921368E+04  0.25500000920E-02 0.  1.
    10030    2    1    2    0    0  0.00000000000E+00  0.00000000000E+00  0.28485086861E+03  0.26058351423E+04  0.25902194446E+04 0.  0.
        1    1    3    3  502    0 -0.70857982151E+03 -0.80317588490E+02  0.12300410806E+04  0.14218077713E+04  0.50400001928E-02 0. -1.
       -1    1    3    3    0  502  0.70857982151E+03  0.80317588490E+02 -0.94519021198E+03  0.11840273710E+04  0.50400001928E-02 0.  1.
</event>
<event>
 5   0  0.9855352E-06  0.2658242E+04  0.7818609E-02  0.8348683E-01
       -1   -1    0    0    0  501  0.00000000000E+00  0.00000000000E+00  0.12560523141E+04  0.12560523141E+04  0.50400001928E-02 0. -1.
        1   -1    0    0  501    0  0.00000000000E+00  0.00000000000E+00 -0.14064399990E+04  0.14064399990E+04  0.50400001928E-02 0.  1.
    10030    2    1    2    0    0  0.00000000000E+00  0.00000000000E+00 -0.15038768487E+03  0.26624923131E+04  0.26582416860E+04 0.  0.
        2    1    3    3  502    0  0.62192915478E+03 -0.11290874932E+04 -0.39963738073E+03  0.13495719607E+04  0.25500000920E-02 0.  1.
       -2    1    3    3    0  502 -0.62192915478E+03  0.11290874932E+04  0.24924969586E+03  0.13129203524E+04  0.25500000920E-02 0. -1.
</event>
<event>
 5   0  0.2517854E-05  0.2702419E+04  0.7818609E-02  0.8334220E-01
        2   -1    0    0  501    0  0.00000000000E+00  0.00000000000E+00  0.22566985921E+04  0.22566985921E+04  0.25500000920E-02 0. -1.
       -2   -1    0    0    0  501  0.00000000000E+00  0.00000000000E+00 -0.80904346192E+03  0.80904346193E+03  0.25500000920E-02 0.  1.
    10030    2    1    2    0    0  0.00000000000E+00  0.00000000000E+00  0.14476551302E+04  0.30657420541E+04  0.27024190952E+04 0.  0.
        4    1    3    3  502    0  0.86567285015E+03 -0.35314417888E+03 -0.38286001285E+03  0.10102889175E+04  0.12699999809E+01 0.  1.
       -4    1    3    3    0  502 -0.86567285015E+03  0.35314417888E+03  0.18305151431E+04  0.20554531365E+04  0.12699999809E+01 0. -1.
</event>
<event>
 5   0  0.1005492E-05  0.2737142E+04  0.7818609E-02  0.8323053E-01
       -1   -1    0    0    0  501  0.00000000000E+00  0.00000000000E+00  0.12777916503E+04  0.12777916503E+04  0.50400001928E-02 0.  1.
        1   -1    0    0  501    0  0.00000000000E+00  0.00000000000E+00 -0.14657999550E+04  0.14657999550E+04  0.50400001928E-02 0. -1.
    10030    2    1    2    0    0  0.00000000000E+00  0.00000000000E+00 -0.18800830466E+03  0.27435916053E+04  0.27371422641E+04 0.  0.
        4    1    3    3  502    0  0.15540430039E+02  0.13077966498E+04  0.30994882689E+03  0.13441143815E+04  0.12699999809E+01 0.  1.
       -4    1    3    3    0  502 -0.15540430039E+02 -0.13077966498E+04 -0.49795713154E+03  0.13994772238E+04  0.12699999809E+01 0. -1.
</event>
<event>
 5   0  0.9855352E-06  0.2297719E+04  0.7818609E-02  0.8478821E-01
        1   -1    0    0  501    0  0.00000000000E+00  0.00000000000E+00  0.10099047363E+04  0.10099047364E+04  0.50400001928E-02 0.  1.
       -1   -1    0    0    0  501  0.00000000000E+00  0.00000000000E+00 -0.13069331567E+04  0.13069331567E+04  0.50400001928E-02 0. -1.
    10030    2    1    2    0    0  0.00000000000E+00  0.00000000000E+00 -0.29702842038E+03  0.23168378931E+04  0.22977188558E+04 0.  0.
        2    1    3    3  502    0 -0.10312086222E+03  0.18818886056E+03 -0.12865458321E+04  0.13043194155E+04  0.25500000920E-02 0. -1.
       -2    1    3    3    0  502  0.10312086222E+03 -0.18818886056E+03  0.98951741171E+03  0.10125184776E+04  0.25500000920E-02 0.  1.
</event>
<event>
 5   0  0.1034714E-05  0.1892675E+04  0.7818609E-02  0.8658511E-01
       -1   -1    0    0    0  501  0.00000000000E+00  0.00000000000E+00  0.64600401633E+03  0.64600401635E+03  0.50400001928E-02 0. -1.
        1   -1    0    0  501    0  0.00000000000E+00  0.00000000000E+00 -0.13862987746E+04  0.13862987746E+04  0.50400001928E-02 0.  1.
    10030    2    1    2    0    0  0.00000000000E+00  0.00000000000E+00 -0.74029475825E+03  0.20323027909E+04  0.18926749074E+04 0.  0.
        5    1    3    3  502    0 -0.12320902386E+03  0.58750933171E+03  0.41538533727E+03  0.73001010049E+03  0.46999998093E+01 0. -1.
       -5    1    3    3    0  502  0.12320902386E+03 -0.58750933171E+03 -0.11556800955E+04  0.13022926905E+04  0.46999998093E+01 0.  1.
</event>
<event>
 5   0  0.9855352E-06  0.2667531E+04  0.7818609E-02  0.8345617E-01
        1   -1    0    0  501    0  0.00000000000E+00  0.00000000000E+00  0.23550527173E+04  0.23550527173E+04  0.50400001928E-02 0.  1.
       -1   -1    0    0    0  501  0.00000000000E+00  0.00000000000E+00 -0.75536767825E+03  0.75536767827E+03  0.50400001928E-02 0. -1.
    10030    2    1    2    0    0  0.00000000000E+00  0.00000000000E+00  0.15996850391E+04  0.31104203956E+04  0.26675312207E+04 0.  0.
        2    1    3    3  502    0 -0.93021325483E+01 -0.12404771007E+04  0.22853472838E+03  0.12613873668E+04  0.25500000920E-02 0. -1.
       -2    1    3    3    0  502  0.93021325483E+01  0.12404771007E+04  0.13711503107E+04  0.18490330288E+04  0.25500000920E-02 0.  1.
</event>
<event>
 5   0  0.1000421E-05  0.2569028E+04  0.7818609E-02  0.8378798E-01
        1   -1    0    0  501    0  0.00000000000E+00  0.00000000000E+00  0.19646461520E+04  0.19646461520E+04  0.50400001928E-02 0. -1.
       -1   -1    0    0    0  501  0.00000000000E+00  0.00000000000E+00 -0.83983390421E+03  0.83983390423E+03  0.50400001928E-02 0.  1.
    10030    2    1    2    0    0  0.00000000000E+00  0.00000000000E+00  0.11248122478E+04  0.28044800562E+04  0.25690281807E+04 0.  0.
        3    1    3    3  502    0  0.88185469485E+03  0.10631977178E+03  0.15753521020E+04  0.18085092900E+04  0.10100000352E+00 0. -1.
       -3    1    3    3    0  502 -0.88185469485E+03 -0.10631977178E+03 -0.45053985420E+03  0.99597076620E+03  0.10100000352E+00 0.  1.
</event>
<event>
 5   0  0.1034714E-05  0.2594393E+04  0.7818609E-02  0.8370108E-01
        1   -1    0    0  501    0  0.00000000000E+00  0.00000000000E+00  0.20352610107E+04  0.20352610107E+04  0.50400001928E-02 0.  1.
       -1   -1    0    0    0  501  0.00000000000E+00  0.00000000000E+00 -0.82678300918E+03  0.82678300919E+03  0.50400001928E-02 0. -1.
    10030    2    1    2    0    0  0.00000000000E+00  0.00000000000E+00  0.12084780015E+04  0.28620440199E+04  0.25943933572E+04 0.  0.
        5    1    3    3  502    0 -0.50859881309E+03 -0.11864998543E+04  0.46364506082E+03  0.13716572055E+04  0.46999998093E+01 0.  1.
       -5    1    3    3    0  502  0.50859881309E+03  0.11864998543E+04  0.74483294070E+03  0.14903868144E+04  0.46999998093E+01 0. -1.
</event>
<event>
 5   0  0.1034714E-05  0.2582737E+04  0.7818609E-02  0.8374089E-01
       -1   -1    0    0    0  501  0.00000000000E+00  0.00000000000E+00  0.81258376750E+03  0.81258376752E+03  0.50400001928E-02 0. -1.
        1   -1    0    0  501    0  0.00000000000E+00  0.00000000000E+00 -0.20522593394E+04  0.20522593394E+04  0.50400001928E-02 0.  1.
    10030    2    1    2    0    0  0.00000000000E+00  0.00000000000E+00 -0.12396755719E+04  0.28648431070E+04  0.25827370179E+04 0.  0.
        5    1    3    3  502    0  0.86800606774E+03  0.18205161217E+03  0.42132058655E+03  0.98189126169E+03  0.46999998093E+01 0. -1.
       -5    1    3    3    0  502 -0.86800606774E+03 -0.18205161217E+03 -0.16609961585E+04  0.18829518453E+04  0.46999998093E+01 0.  1.
</event>
<event>
 5   0  0.1034714E-05  0.2522604E+04  0.7818609E-02  0.8394977E-01
        1   -1    0    0  501    0  0.00000000000E+00  0.00000000000E+00  0.12036694989E+04  0.12036694989E+04  0.50400001928E-02 0. -1.
       -1   -1    0    0    0  501  0.00000000000E+00  0.00000000000E+00 -0.13216944497E+04  0.13216944497E+04  0.50400001928E-02 0.  1.
    10030    2    1    2    0    0  0.00000000000E+00  0.00000000000E+00 -0.11802495084E+03  0.25253639486E+04  0.25226044446E+04 0.  0.
        5    1    3    3  502    0  0.94428165159E+03  0.80989436302E+03 -0.26724118618E+03  0.12724137135E+04  0.46999998093E+01 0.  1.
       -5    1    3    3    0  502 -0.94428165159E+03 -0.80989436302E+03  0.14921623534E+03  0.12529502351E+04  0.46999998093E+01 0. -1.
</event>
<event>
 5   0  0.2517854E-05  0.2441672E+04  0.7818609E-02  0.8424065E-01
        2   -1    0    0  501    0  0.00000000000E+00  0.00000000000E+00  0.16522651605E+04  0.16522651605E+04  0.25500000920E-02 0. -1.
       -2   -1    0    0    0  501  0.00000000000E+00  0.00000000000E+00 -0.90205873901E+03  0.90205873901E+03  0.25500000920E-02 0.  1.
    10030    2    1    2    0    0  0.00000000000E+00  0.00000000000E+00  0.75020642145E+03  0.25543238995E+04  0.24416717447E+04 0.  0.
        4    1    3    3  502    0 -0.10851374702E+03 -0.10743270903E+04 -0.22081381086E+03  0.11021407724E+04  0.12699999809E+01 0.  1.
       -4    1    3    3    0  502  0.10851374702E+03  0.10743270903E+04  0.97102023232E+03  0.14521831271E+04  0.12699999809E+01 0. -1.
</event>
<event>
 5   0  0.1005492E-05  0.2596986E+04  0.7818609E-02  0.8369226E-01
        1   -1    0    0  501    0  0.00000000000E+00  0.00000000000E+00  0.17058177311E+04  0.17058177311E+04  0.50400001928E-02 0. -1.
       -1   -1    0    0    0  501  0.00000000000E+00  0.00000000000E+00 -0.98843188708E+03  0.98843188709E+03  0.50400001928E-02 0.  1.
    10030    2    1    2    0    0  0.00000000000E+00  0.00000000000E+00  0.71738584406E+03  0.26942496182E+04  0.25969864374E+04 0.  0.
        4    1    3    3  502    0 -0.15607272905E+03 -0.97124930689E+03  0.12380212051E+04  0.15812596340E+04  0.12699999809E+01 0. -1.
       -4    1    3    3    0  502  0.15607272905E+03  0.97124930689E+03 -0.52063536108E+03  0.11129899842E+04  0.12699999809E+01 0.  1.
</event>
<event>
 5   0  0.2484618E-05  0.2634587E+04  0.7818609E-02  0.8356547E-01
       -2   -1    0    0    0  501  0.00000000000E+00  0.00000000000E+00  0.19465400031E+04  0.19465400031E+04  0.25500000920E-02 0.  1.
        2   -1    0    0  501    0  0.00000000000E+00  0.00000000000E+00 -0.89145968264E+03  0.89145968264E+03  0.25500000920E-02 0. -1.
    10030    2    1    2    0    0  0.00000000000E+00  0.00000000000E+00  0.10550803205E+04  0.28379996858E+04  0.26345868241E+04 0.  0.
        3    1    3    3  502    0 -0.49307441341E+03 -0.99191070531E+02  0.18390392124E+04  0.19065745411E+04  0.10100000352E+00 0.  1.
       -3    1    3    3    0  502  0.49307441341E+03  0.99191070531E+02 -0.78395889196E+03  0.93142514467E+03  0.10100000352E+00 0. -1.
</event>
<event>
 5   0  0.2555801E-05  0.2567110E+04  0.7818609E-02  0.8379460E-01
        2   -1    0    0  501    0  0.00000000000E+00  0.00000000000E+00  0.15819896079E+04  0.15819896079E+04  0.25500000920E-02 0. -1.
       -2   -1    0    0    0  501  0.00000000000E+00  0.00000000000E+00 -0.10414187371E+04  0.10414187371E+04  0.25500000920E-02 0.  1.
    10030    2    1    2    0    0  0.00000000000E+00  0.00000000000E+00  0.54057087081E+03  0.26234083450E+04  0.25671101414E+04 0.  0.
        1    1    3    3  502    0 -0.11399275790E+04  0.44576221188E+03 -0.12468086261E+03  0.12303187198E+04  0.50400001928E-02 0. -1.
       -1    1    3    3    0  502  0.11399275790E+04 -0.44576221188E+03  0.66525173342E+03  0.13930896251E+04  0.50400001928E-02 0.  1.
</event>
<event>
 5   0  0.1005492E-05  0.2515170E+04  0.7818609E-02  0.8397601E-01
        1   -1    0    0  501    0  0.00000000000E+00  0.00000000000E+00  0.13421430021E+04  0.13421430021E+04  0.50400001928E-02 0. -1.
       -1   -1    0    0    0  501  0.00000000000E+00  0.00000000000E+00 -0.11783545350E+04  0.11783545350E+04  0.50400001928E-02 0.  1.
    10030    2    1    2    0    0  0.00000000000E+00  0.00000000000E+00  0.16378846711E+03  0.25204975372E+04  0.25151702075E+04 0.  0.
        4    1    3    3  502    0  0.12672335231E+03  0.76860753185E+03 -0.90746702527E+03  0.11959575080E+04  0.12699999809E+01 0.  1.
       -4    1    3    3    0  502 -0.12672335231E+03 -0.76860753185E+03  0.10712554924E+04  0.13245400292E+04  0.12699999809E+01 0. -1.
</event>
<event>
 5   0  0.2555801E-05  0.2731968E+04  0.7818609E-02  0.8324707E-01
       -2   -1    0    0    0  501  0.00000000000E+00  0.00000000000E+00  0.76082466455E+03  0.76082466456E+03  0.25500000920E-02 0.  1.
        2   -1    0    0  501    0  0.00000000000E+00  0.00000000000E+00 -0.24524857656E+04  0.24524857656E+04  0.25500000920E-02 0. -1.
    10030    2    1    2    0    0  0.00000000000E+00  0.00000000000E+00 -0.16916611010E+04  0.32133104301E+04  0.27319675400E+04 0.  0.
        1    1    3    3  502    0 -0.61248450116E+03  0.11159382486E+03  0.58425346790E+03  0.85378133072E+03  0.50400001928E-02 0.  1.
       -1    1    3    3    0  502  0.61248450116E+03 -0.11159382486E+03 -0.22759145689E+04  0.23595290994E+04  0.50400001928E-02 0. -1.
</event>
<event>
 5   0  0.2484618E-05  0.2606074E+04  0.7818609E-02  0.8366141E-01
        2   -1    0    0  501    0  0.00000000000E+00  0.00000000000E+00  0.13867240790E+04  0.13867240790E+04  0.25500000920E-02 0.  1.
       -2   -1    0    0    0  501  0.00000000000E+00  0.00000000000E+00 -0.12244001926E+04  0.12244001926E+04  0.25500000920E-02 0. -1.
    10030    2    1    2    0    0  0.00000000000E+00  0.00000000000E+00  0.16232388641E+03  0.26111242717E+04  0.26060738512E+04 0.  0.
        3    1    3    3  502    0 -0.35372412670E+03 -0.80015576181E+03 -0.88638811713E+03  0.12454131464E+04  0.10100000352E+00 0. -1.
       -3    1    3    3    0  502  0.35372412670E+03  0.80015576181E+03  0.10487120035E+04  0.13657111252E+04  0.10100000352E+00 0.  1.
</event>
<event>
 5   0  0.9855352E-06  0.2633752E+04  0.7818609E-02  0.8356826E-01
        1   -1    0    0  501    0  0.00000000000E+00  0.00000000000E+00  0.17617391657E+04  0.17617391657E+04  0.50400001928E-02 0. -1.
       -1   -1    0    0    0  501  0.00000000000E+00  0.00000000000E+00 -0.98434679031E+03  0.98434679033E+03  0.50400001928E-02 0.  1.
    10030    2    1    2    0    0  0.00000000000E+00  0.00000000000E+00  0.77739237537E+03  0.27460859560E+04  0.26337519193E+04 0.  0.
        2    1    3    3  502    0 -0.67158041789E+03  0.60225936495E+03  0.13890039261E+04  0.16562211528E+04  0.25500000920E-02 0. -1.
       -2    1    3    3    0  502  0.67158041789E+03 -0.60225936495E+03 -0.61161155068E+03  0.10898648032E+04  0.25500000920E-02 0.  1.
</event>
<event>
 5   0  0.2484618E-05  0.2863023E+04  0.7818609E-02  0.8283965E-01
        2   -1    0    0  501    0  0.00000000000E+00  0.00000000000E+00  0.27383789936E+04  0.27383789936E+04  0.25500000920E-02 0.  1.
       -2   -1    0    0    0  501  0.00000000000E+00  0.00000000000E+00 -0.74833501111E+03  0.74833501111E+03  0.25500000920E-02 0. -1.
    10030    2    1    2    0    0  0.00000000000E+00  0.00000000000E+00  0.19900439825E+04  0.34867140047E+04  0.28630227904E+04 0.  0.
        3    1    3    3  502    0  0.85393906570E+03  0.88615667588E+03  0.10446326106E+03  0.12350701054E+04  0.10100000352E+00 0. -1.
       -3    1    3    3    0  502 -0.85393906570E+03 -0.88615667588E+03  0.18855807214E+04  0.22516438993E+04  0.10100000352E+00 0.  1.
</event>
<event>
 5   0  0.1005492E-05  0.1990465E+04  0.7818609E-02  0.8611092E-01
       -1   -1    0    0    0  501  0.00000000000E+00  0.00000000000E+00  0.94651446182E+03  0.94651446183E+03  0.50400001928E-02 0. -1.
        1   -1    0    0  501    0  0.00000000000E+00  0.00000000000E+00 -0.10464582063E+04  0.10464582063E+04  0.50400001928E-02 0.  1.
    10030    2    1    2    0    0  0.00000000000E+00  0.00000000000E+00 -0.99943744473E+02  0.19929726681E+04  0.19904650974E+04 0.  0.
        4    1    3    3  502    0 -0.57381082658E+02 -0.94060387567E+03  0.27052194587E+03  0.98041418577E+03  0.12699999809E+01 0. -1.
       -4    1    3    3    0  502  0.57381082658E+02  0.94060387567E+03 -0.37046569035E+03  0.10125584824E+04  0.12699999809E+01 0.  1.
</event>
<event>
 5   0  0.9855352E-06  0.2586612E+04  0.7818609E-02  0.8372763E-01
       -1   -1    0    0    0  501  0.00000000000E+00  0.00000000000E+00  0.14843811105E+04  0.14843811105E+04  0.50400001928E-02 0. -1.
        1   -1    0    0  501    0  0.00000000000E+00  0.00000000000E+00 -0.11268268545E+04  0.11268268545E+04  0.50400001928E-02 0.  1.
    10030    2    1    2    0    0  0.00000000000E+00  0.00000000000E+00  0.35755425600E+03  0.26112079649E+04  0.25866120680E+04 0.  0.
        2    1    3    3  502    0 -0.41193588987E+03 -0.15427929920E+03  0.14065438641E+04  0.14737228101E+04  0.25500000920E-02 0. -1.
       -2    1    3    3    0  502  0.41193588987E+03  0.15427929920E+03 -0.10489896081E+04  0.11374851548E+04  0.25500000920E-02 0.  1.
</event>
<event>
 5   0  0.1025153E-05  0.2663881E+04  0.7818609E-02  0.8346820E-01
       -1   -1    0    0    0  501  0.00000000000E+00  0.00000000000E+00  0.10439720947E+04  0.10439720947E+04  0.50400001928E-02 0.  1.
        1   -1    0    0  501    0  0.00000000000E+00  0.00000000000E+00 -0.16993420820E+04  0.16993420820E+04  0.50400001928E-02 0. -1.
    10030    2    1    2    0    0  0.00000000000E+00  0.00000000000E+00 -0.65536998730E+03  0.27433141767E+04  0.26638811633E+04 0.  0.
        1    1    3    3  502    0  0.51268334614E+03 -0.14840370243E+03  0.92903029872E+03  0.10714313642E+04  0.50400001928E-02 0.  1.
       -1    1    3    3    0  502 -0.51268334614E+03  0.14840370243E+03 -0.15844002860E+04  0.16718828125E+04  0.50400001928E-02 0. -1.
</event>
<event>
 5   0  0.2555801E-05  0.2628767E+04  0.7818609E-02  0.8358495E-01
       -2   -1    0    0    0  501  0.00000000000E+00  0.00000000000E+00  0.15529355563E+04  0.15529355563E+04  0.25500000920E-02 0. -1.
        2   -1    0    0  501    0  0.00000000000E+00  0.00000000000E+00 -0.11124760499E+04  0.11124760499E+04  0.25500000920E-02 0.  1.
    10030    2    1    2    0    0  0.00000000000E+00  0.00000000000E+00  0.44045950638E+03  0.26654116062E+04  0.26287667173E+04 0.  0.
        1    1    3    3  502    0  0.59961356789E+03 -0.29344720945E+03 -0.92778847203E+03  0.11429956887E+04  0.50400001928E-02 0.  1.
       -1    1    3    3    0  502 -0.59961356789E+03  0.29344720945E+03  0.13682479784E+04  0.15224159175E+04  0.50400001928E-02 0. -1.
</event>
<event>
 5   0  0.1025153E-05  0.2393152E+04  0.7818609E-02  0.8442072E-01
        1   -1    0    0  501    0  0.00000000000E+00  0.00000000000E+00  0.12362127205E+04  0.12362127205E+04  0.50400001928E-02 0. -1.
       -1   -1    0    0    0  501  0.00000000000E+00  0.00000000000E+00 -0.11582099104E+04  0.11582099104E+04  0.50400001928E-02 0.  1.
    10030    2    1    2    0    0  0.00000000000E+00  0.00000000000E+00  0.78002810109E+02  0.23944226309E+04  0.23931517496E+04 0.  0.
        1    1    3    3  502    0 -0.89232908903E+03  0.79037936844E+03 -0.65183979975E+02  0.11938172810E+04  0.50400001928E-02 0.  1.
       -1    1    3    3    0  502  0.89232908903E+03 -0.79037936844E+03  0.14318679008E+03  0.12006053498E+04  0.50400001928E-02 0. -1.
</event>
<event>
 5   0  0.1005492E-05  0.2607056E+04  0.7818609E-02  0.8365808E-01
        1   -1    0    0  501    0  0.00000000000E+00  0.00000000000E+00  0.15346422157E+04  0.15346422157E+04  0.50400001928E-02 0. -1.
       -1   -1    0    0    0  501  0.00000000000E+00  0.00000000000E+00 -0.11072195627E+04  0.11072195627E+04  0.50400001928E-02 0.  1.
    10030    2    1    2    0    0  0.00000000000E+00  0.00000000000E+00  0.42742265299E+03  0.26418617784E+04  0.26070564880E+04 0.  0.
        4    1    3    3  502    0 -0.14529962820E+03  0.67749098101E+03  0.13325705423E+04  0.15019493582E+04  0.12699999809E+01 0. -1.
       -4    1    3    3    0  502  0.14529962820E+03 -0.67749098101E+03 -0.90514788933E+03  0.11399124202E+04  0.12699999809E+01 0.  1.
</event>
<event>
 5   0  0.2662024E-05  0.2558358E+04  0.7818609E-02  0.8382485E-01
        2   -1    0    0  501    0  0.00000000000E+00  0.00000000000E+00  0.23056517178E+04  0.23056517179E+04  0.25500000920E-02 0.  1.
       -2   -1    0    0    0  501  0.00000000000E+00  0.00000000000E+00 -0.70969059452E+03  0.70969059452E+03  0.25500000920E-02 0. -1.
    10030    2    1    2    0    0  0.00000000000E+00  0.00000000000E+00  0.15959611233E+04  0.30153423124E+04  0.25583583317E+04 0.  0.
        2    1    3    3  502    0 -0.88386350881E+03  0.87907779785E+03  0.45984311437E+03  0.13287016846E+04  0.25500000920E-02 0.  1.
       -2    1    3    3    0  502  0.88386350881E+03 -0.87907779785E+03  0.11361180090E+04  0.16866406278E+04  0.25500000920E-02 0. -1.
</event>
<event>
 5   0  0.2662024E-05  0.2580212E+04  0.7818609E-02  0.8374954E-01
        2   -1    0    0  501    0  0.00000000000E+00  0.00000000000E+00  0.23401720283E+04  0.23401720283E+04  0.25500000920E-02 0. -1.
       -2   -1    0    0    0  501  0.00000000000E+00  0.00000000000E+00 -0.71121845648E+03  0.71121845648E+03  0.25500000920E-02 0.  1.
    10030    2    1    2    0    0  0.00000000000E+00  0.00000000000E+00  0.16289535718E+04  0.30513904848E+04  0.25802120361E+04 0.  0.
        2    1    3    3  502    0 -0.20034271539E+03  0.14986704614E+03  0.23112062545E+04  0.23247089465E+04  0.25500000920E-02 0. -1.
       -2    1    3    3    0  502  0.20034271539E+03 -0.14986704614E+03 -0.68225268265E+03  0.72668153831E+03  0.25500000920E-02 0.  1.
</event>
<event>
 5   0  0.8605000E-06  0.2574983E+04  0.7818609E-02  0.8376749E-01
       -4   -1    0    0    0  501  0.00000000000E+00  0.00000000000E+00  0.15113183351E+04  0.15113188687E+04  0.12699999809E+01 0.  1.
        4   -1    0    0  501    0  0.00000000000E+00  0.00000000000E+00 -0.10968123034E+04  0.10968130387E+04  0.12699999809E+01 0. -1.
    10030    2    1    2    0    0  0.00000000000E+00  0.00000000000E+00  0.41450603166E+03  0.26081319074E+04  0.25749828729E+04 0.  0.
        2    1    3    3  502    0 -0.21334765514E+03 -0.35640319467E+02  0.14927833216E+04  0.15083731301E+04  0.25500000920E-02 0.  1.
       -2    1    3    3    0  502  0.21334765514E+03  0.35640319467E+02 -0.10782772899E+04  0.10997587773E+04  0.25500000920E-02 0. -1.
</event>
<event>
 5   0  0.2555801E-05  0.2134713E+04  0.7818609E-02  0.8546104E-01
       -2   -1    0    0    0  501  0.00000000000E+00  0.00000000000E+00  0.72076318855E+03  0.72076318855E+03  0.25500000920E-02 0. -1.
        2   -1    0    0  501    0  0.00000000000E+00  0.00000000000E+00 -0.15806157215E+04  0.15806157215E+04  0.25500000920E-02 0.  1.
    10030    2    1    2    0    0  0.00000000000E+00  0.00000000000E+00 -0.85985253291E+03  0.23013789100E+04  0.21347127463E+04 0.  0.
        1    1    3    3  502    0  0.10052694142E+03 -0.10625226377E+04 -0.41508146270E+03  0.11451430662E+04  0.50400001928E-02 0. -1.
       -1    1    3    3    0  502 -0.10052694142E+03  0.10625226377E+04 -0.44477107022E+03  0.11562358438E+04  0.50400001928E-02 0.  1.
</event>
<event>
 5   0  0.1000421E-05  0.2642837E+04  0.7818609E-02  0.8353794E-01
        1   -1    0    0  501    0  0.00000000000E+00  0.00000000000E+00  0.11130393007E+04  0.11130393007E+04  0.50400001928E-02 0.  1.
       -1   -1    0    0    0  501  0.00000000000E+00  0.00000000000E+00 -0.15688098745E+04  0.15688098745E+04  0.50400001928E-02 0. -1.
    10030    2    1    2    0    0  0.00000000000E+00  0.00000000000E+00 -0.45577057386E+03  0.26818491752E+04  0.26428371464E+04 0.  0.
        3    1    3    3  502    0 -0.43969535708E+03  0.12321825373E+04 -0.39289144954E+02  0.13088733549E+04  0.10100000352E+00 0. -1.
       -3    1    3    3    0  502  0.43969535708E+03 -0.12321825373E+04 -0.41648142891E+03  0.13729758203E+04  0.10100000352E+00 0.  1.
</event>
<event>
 5   0  0.2517854E-05  0.2595579E+04  0.7818609E-02  0.8369704E-01
       -2   -1    0    0    0  501  0.00000000000E+00  0.00000000000E+00  0.16053305681E+04  0.16053305681E+04  0.25500000920E-02 0. -1.
        2   -1    0    0  501    0  0.00000000000E+00  0.00000000000E+00 -0.10491655556E+04  0.10491655556E+04  0.25500000920E-02 0.  1.
    10030    2    1    2    0    0  0.00000000000E+00  0.00000000000E+00  0.55616501246E+03  0.26544961237E+04  0.25955789623E+04 0.  0.
        4    1    3    3  502    0  0.47954812548E+03 -0.38977685975E+03 -0.88903332856E+03  0.10827161573E+04  0.12699999809E+01 0.  1.
       -4    1    3    3    0  502 -0.47954812548E+03  0.38977685975E+03  0.14451983410E+04  0.15717799664E+04  0.12699999809E+01 0. -1.
</event>
<event>
 5   0  0.2528460E-05  0.2584913E+04  0.7818609E-02  0.8373344E-01
       -2   -1    0    0    0  501  0.00000000000E+00  0.00000000000E+00  0.10362803835E+04  0.10362803835E+04  0.25500000920E-02 0. -1.
        2   -1    0    0  501    0  0.00000000000E+00  0.00000000000E+00 -0.16119609076E+04  0.16119609076E+04  0.25500000920E-02 0.  1.
    10030    2    1    2    0    0  0.00000000000E+00  0.00000000000E+00 -0.57568052406E+03  0.26482412911E+04  0.25849127394E+04 0.  0.
        5    1    3    3  502    0 -0.17962999157E+03  0.12114437349E+04 -0.71094547526E+03  0.14160961886E+04  0.46999998093E+01 0.  1.
       -5    1    3    3    0  502  0.17962999157E+03 -0.12114437349E+04  0.13526495120E+03  0.12321451025E+04  0.46999998093E+01 0. -1.
</event>
<event>
 5   0  0.2484618E-05  0.2574034E+04  0.7818609E-02  0.8377075E-01
       -2   -1    0    0    0  501  0.00000000000E+00  0.00000000000E+00  0.80729002239E+03  0.80729002240E+03  0.25500000920E-02 0.  1.
        2   -1    0    0  501    0  0.00000000000E+00  0.00000000000E+00 -0.20518194763E+04  0.20518194763E+04  0.25500000920E-02 0. -1.
    10030    2    1    2    0    0  0.00000000000E+00  0.00000000000E+00 -0.12445294539E+04  0.28591094987E+04  0.25740344916E+04 0.  0.
        3    1    3    3  502    0  0.12872081303E+03  0.70803014335E+03 -0.18074605835E+04  0.19454535468E+04  0.10100000352E+00 0. -1.
       -3    1    3    3    0  502 -0.12872081303E+03 -0.70803014335E+03  0.56293112959E+03  0.91365595191E+03  0.10100000352E+00 0.  1.
</event>
<event>
 5   0  0.1025153E-05  0.2603716E+04  0.7818609E-02  0.8366940E-01
        1   -1    0    0  501    0  0.00000000000E+00  0.00000000000E+00  0.16893292061E+04  0.16893292061E+04  0.50400001928E-02 0.  1.
       -1   -1    0    0    0  501  0.00000000000E+00  0.00000000000E+00 -0.10032584806E+04  0.10032584807E+04  0.50400001928E-02 0. -1.
    10030    2    1    2    0    0  0.00000000000E+00  0.00000000000E+00  0.68607072549E+03  0.26925876868E+04  0.26037156932E+04 0.  0.
        1    1    3    3  502    0 -0.75218709337E+03  0.41638786586E+03  0.13539865219E+04  0.16038839671E+04  0.50400001928E-02 0.  1.
       -1    1    3    3    0  502  0.75218709337E+03 -0.41638786586E+03 -0.66791579642E+03  0.10887037197E+04  0.50400001928E-02 0. -1.
</event>
<event>
 5   0  0.9855352E-06  0.2632400E+04  0.7818609E-02  0.8357278E-01
        1   -1    0    0  501    0  0.00000000000E+00  0.00000000000E+00  0.13344991021E+04  0.13344991021E+04  0.50400001928E-02 0.  1.
       -1   -1    0    0    0  501  0.00000000000E+00  0.00000000000E+00 -0.12981522315E+04  0.12981522315E+04  0.50400001928E-02 0. -1.
    10030    2    1    2    0    0  0.00000000000E+00  0.00000000000E+00  0.36346870609E+02  0.26326513336E+04  0.26324004159E+04 0.  0.
        2    1    3    3  502    0 -0.70611041475E+03  0.10427961212E+04  0.40078972304E+03  0.13216081380E+04  0.25500000920E-02 0. -1.
       -2    1    3    3    0  502  0.70611041475E+03 -0.10427961212E+04 -0.36444285243E+03  0.13110431957E+04  0.25500000920E-02 0.  1.
</event>
<event>
 5   0  0.9855352E-06  0.2540198E+04  0.7818609E-02  0.8388803E-01
        1   -1    0    0  501    0  0.00000000000E+00  0.00000000000E+00  0.14751108519E+04  0.14751108520E+04  0.50400001928E-02 0. -1.
       -1   -1    0    0    0  501  0.00000000000E+00  0.00000000000E+00 -0.10935795510E+04  0.10935795511E+04  0.50400001928E-02 0.  1.
    10030    2    1    2    0    0  0.00000000000E+00  0.00000000000E+00  0.38153130090E+03  0.25686904030E+04  0.25401976799E+04 0.  0.
        2    1    3    3  502    0  0.10345474220E+04 -0.23510218129E+03  0.89687423479E+03  0.13892245309E+04  0.25500000920E-02 0.  1.
       -2    1    3    3    0  502 -0.10345474220E+04  0.23510218129E+03 -0.51534293389E+03  0.11794658722E+04  0.25500000920E-02 0. -1.
</event>
<event>
 5   0  0.2662024E-05  0.2622395E+04  0.7818609E-02  0.8360634E-01
        2   -1    0    0  501    0  0.00000000000E+00  0.00000000000E+00  0.13263576926E+04  0.13263576926E+04  0.25500000920E-02 0.  1.
       -2   -1    0    0    0  501  0.00000000000E+00  0.00000000000E+00 -0.12962105868E+04  0.12962105868E+04  0.25500000920E-02 0. -1.
    10030    2    1    2    0    0  0.00000000000E+00  0.00000000000E+00  0.30147105776E+02  0.26225682794E+04  0.26223949993E+04 0.  0.
        2    1    3    3  502    0 -0.41504662382E+02  0.10016778416E+04  0.86020793844E+03  0.13209991797E+04  0.25500000920E-02 0.  1.
       -2    1    3    3    0  502  0.41504662382E+02 -0.10016778416E+04 -0.83006083267E+03  0.13015690997E+04  0.25500000920E-02 0. -1.
</event>
<event>
 5   0  0.2517854E-05  0.2617097E+04  0.7818609E-02  0.8362417E-01
        2   -1    0    0  501    0  0.00000000000E+00  0.00000000000E+00  0.21422137412E+04  0.21422137412E+04  0.25500000920E-02 0. -1.
       -2   -1    0    0    0  501  0.00000000000E+00  0.00000000000E+00 -0.79931265170E+03  0.79931265170E+03  0.25500000920E-02 0.  1.
    10030    2    1    2    0    0  0.00000000000E+00  0.00000000000E+00  0.13429010895E+04  0.29415263929E+04  0.26170965179E+04 0.  0.
        4    1    3    3  502    0 -0.81253896421E+03  0.56624261216E+03 -0.28981714070E+03  0.10319136844E+04  0.12699999809E+01 0.  1.
       -4    1    3    3    0  502  0.81253896421E+03 -0.56624261216E+03  0.16327182302E+04  0.19096127085E+04  0.12699999809E+01 0. -1.
</event>
<event>
 5   0  0.2528460E-05  0.2597974E+04  0.7818609E-02  0.8368890E-01
       -2   -1    0    0    0  501  0.00000000000E+00  0.00000000000E+00  0.82089076549E+03  0.82089076549E+03  0.25500000920E-02 0. -1.
        2   -1    0    0  501    0  0.00000000000E+00  0.00000000000E+00 -0.20555314061E+04  0.20555314061E+04  0.25500000920E-02 0.  1.
    10030    2    1    2    0    0  0.00000000000E+00  0.00000000000E+00 -0.12346406406E+04  0.28764221716E+04  0.25979736330E+04 0.  0.
        5    1    3    3  502    0  0.90051977660E+03 -0.39626394080E+03  0.32175013974E+03  0.10351358468E+04  0.46999998093E+01 0.  1.
       -5    1    3    3    0  502 -0.90051977660E+03  0.39626394080E+03 -0.15563907803E+04  0.18412863248E+04  0.46999998093E+01 0. -1.
</event>
<event>
 5   0  0.1025153E-05  0.2596537E+04  0.7818609E-02  0.8369379E-01
        1   -1    0    0  501    0  0.00000000000E+00  0.00000000000E+00  0.12626507825E+04  0.12626507825E+04  0.50400001928E-02 0.  1.
       -1   -1    0    0    0  501  0.00000000000E+00  0.00000000000E+00 -0.13348907534E+04  0.13348907534E+04  0.50400001928E-02 0. -1.
    10030    2    1    2    0    0  0.00000000000E+00  0.00000000000E+00 -0.72239970868E+02  0.25975415359E+04  0.25965368122E+04 0.  0.
        1    1    3    3  502    0  0.17339297587E+03 -0.50792716027E+03  0.11464735271E+04  0.12658817767E+04  0.50400001928E-02 0.  1.
       -1    1    3    3    0  502 -0.17339297587E+03  0.50792716027E+03 -0.12187134979E+04  0.13316597592E+04  0.50400001928E-02 0. -1.
</event>
<event>
 5   0  0.1005492E-05  0.2609626E+04  0.7818609E-02  0.8364939E-01
        1   -1    0    0  501    0  0.00000000000E+00  0.00000000000E+00  0.17469736105E+04  0.17469736105E+04  0.50400001928E-02 0. -1.
       -1   -1    0    0    0  501  0.00000000000E+00  0.00000000000E+00 -0.97456335779E+03  0.97456335780E+03  0.50400001928E-02 0.  1.
    10030    2    1    2    0    0  0.00000000000E+00  0.00000000000E+00  0.77241025269E+03  0.27215369683E+04  0.26096256190E+04 0.  0.
        4    1    3    3  502    0  0.97233300212E+03 -0.72876652198E+03  0.88198956028E+03  0.15014790401E+04  0.12699999809E+01 0. -1.
       -4    1    3    3    0  502 -0.97233300212E+03  0.72876652198E+03 -0.10957930759E+03  0.12200579282E+04  0.12699999809E+01 0.  1.
</event>
<event>
 5   0  0.2662024E-05  0.2581994E+04  0.7818609E-02  0.8374343E-01
       -2   -1    0    0    0  501  0.00000000000E+00  0.00000000000E+00  0.81182100079E+03  0.81182100079E+03  0.25500000920E-02 0.  1.
        2   -1    0    0  501    0  0.00000000000E+00  0.00000000000E+00 -0.20530063350E+04  0.20530063350E+04  0.25500000920E-02 0. -1.
    10030    2    1    2    0    0  0.00000000000E+00  0.00000000000E+00 -0.12411853342E+04  0.28648273358E+04  0.25819943125E+04 0.  0.
        2    1    3    3  502    0 -0.50292614585E+03  0.69818151221E+03 -0.16884535346E+04  0.18950639753E+04  0.25500000920E-02 0. -1.
       -2    1    3    3    0  502  0.50292614585E+03 -0.69818151221E+03  0.44726820038E+03  0.96976336044E+03  0.25500000920E-02 0.  1.
</event>
<event>
 5   0  0.2555801E-05  0.2569451E+04  0.7818609E-02  0.8378653E-01
        2   -1    0    0  501    0  0.00000000000E+00  0.00000000000E+00  0.19470488922E+04  0.19470488922E+04  0.25500000920E-02 0. -1.
       -2   -1    0    0    0  501  0.00000000000E+00  0.00000000000E+00 -0.84770346045E+03  0.84770346045E+03  0.25500000920E-02 0.  1.
    10030    2    1    2    0    0  0.00000000000E+00  0.00000000000E+00  0.10993454317E+04  0.27947523526E+04  0.25694513684E+04 0.  0.
        1    1    3    3  502    0 -0.87798191030E+02  0.95417544605E+03  0.14804922038E+04  0.17635238784E+04  0.50400001928E-02 0. -1.
       -1    1    3    3    0  502  0.87798191030E+02 -0.95417544605E+03 -0.38114677206E+03  0.10312284742E+04  0.50400001928E-02 0.  1.
</event>
<event>
 5   0  0.2555801E-05  0.2330850E+04  0.7818609E-02  0.8465856E-01
        2   -1    0    0  501    0  0.00000000000E+00  0.00000000000E+00  0.12487946459E+04  0.12487946459E+04  0.25500000920E-02 0.  1.
       -2   -1    0    0    0  501  0.00000000000E+00  0.00000000000E+00 -0.10876206922E+04  0.10876206922E+04  0.25500000920E-02 0. -1.
    10030    2    1    2    0    0  0.00000000000E+00  0.00000000000E+00  0.16117395374E+03  0.23364153381E+04  0.23308495422E+04 0.  0.
        1    1    3    3  502    0 -0.59950160390E+03 -0.65033719601E+03 -0.68008889349E+03  0.11157336352E+04  0.50400001928E-02 0. -1.
       -1    1    3    3    0  502  0.59950160390E+03  0.65033719601E+03  0.84126284723E+03  0.12206817029E+04  0.50400001928E-02 0.  1.
</event>
<event>
 5   0  0.9855352E-06  0.2587507E+04  0.7818609E-02  0.8372457E-01
        1   -1    0    0  501    0  0.00000000000E+00  0.00000000000E+00  0.24510447471E+04  0.24510447471E+04  0.50400001928E-02 0.  1.
       -1   -1    0    0    0  501  0.00000000000E+00  0.00000000000E+00 -0.68289174291E+03  0.68289174293E+03  0.50400001928E-02 0. -1.
    10030    2    1    2    0    0  0.00000000000E+00  0.00000000000E+00  0.17681530042E+04  0.31339364901E+04  0.25875070778E+04 0.  0.
        2    1    3    3  502    0  0.53071454460E+03 -0.59616896256E+02  0.23113100787E+04  0.23722070698E+04  0.25500000920E-02 0.  1.
       -2    1    3    3    0  502 -0.53071454460E+03  0.59616896256E+02 -0.54315707446E+03  0.76172942028E+03  0.25500000920E-02 0. -1.
</event>
<event>
 5   0  0.2528460E-05  0.2609462E+04  0.7818609E-02  0.8364994E-01
       -2   -1    0    0    0  501  0.00000000000E+00  0.00000000000E+00  0.13213555752E+04  0.13213555752E+04  0.25500000920E-02 0.  1.
        2   -1    0    0  501    0  0.00000000000E+00  0.00000000000E+00 -0.12883158397E+04  0.12883158397E+04  0.25500000920E-02 0. -1.
    10030    2    1    2    0    0  0.00000000000E+00  0.00000000000E+00  0.33039735509E+02  0.26096714149E+04  0.26094622568E+04 0.  0.
        5    1    3    3  502    0 -0.37169555667E+03 -0.83702115748E+03  0.94586246323E+03  0.13166016460E+04  0.46999998093E+01 0.  1.
       -5    1    3    3    0  502  0.37169555667E+03  0.83702115748E+03 -0.91282272773E+03  0.12930697689E+04  0.46999998093E+01 0. -1.
</event>
<event>
 5   0  0.1005492E-05  0.2614397E+04  0.7818609E-02  0.8363327E-01
       -1   -1    0    0    0  501  0.00000000000E+00  0.00000000000E+00  0.91278592683E+03  0.91278592684E+03  0.50400001928E-02 0. -1.
        1   -1    0    0  501    0  0.00000000000E+00  0.00000000000E+00 -0.18720351275E+04  0.18720351275E+04  0.50400001928E-02 0.  1.
    10030    2    1    2    0    0  0.00000000000E+00  0.00000000000E+00 -0.95924920066E+03  0.27848210543E+04  0.26143965414E+04 0.  0.
        4    1    3    3  502    0 -0.11291912381E+04  0.51744129910E+03 -0.45703267618E+02  0.12429435835E+04  0.12699999809E+01 0. -1.
       -4    1    3    3    0  502  0.11291912381E+04 -0.51744129910E+03 -0.91354593304E+03  0.15418774708E+04  0.12699999809E+01 0.  1.
</event>
<event>
 5   0  0.1025153E-05  0.2592156E+04  0.7818609E-02  0.8370871E-01
        1   -1    0    0  501    0  0.00000000000E+00  0.00000000000E+00  0.10381577070E+04  0.10381577070E+04  0.50400001928E-02 0.  1.
       -1   -1    0    0    0  501  0.00000000000E+00  0.00000000000E+00 -0.16180760147E+04  0.16180760147E+04  0.50400001928E-02 0. -1.
    10030    2    1    2    0    0  0.00000000000E+00  0.00000000000E+00 -0.57991830771E+03  0.26562337217E+04  0.25921559252E+04 0.  0.
        1    1    3    3  502    0  0.10470250766E+04 -0.64956960961E+03 -0.70191170947E+03  0.14180557947E+04  0.50400001928E-02 0. -1.
       -1    1    3    3    0  502 -0.10470250766E+04  0.64956960961E+03  0.12199340176E+03  0.12381779270E+04  0.50400001928E-02 0.  1.
</event>
<event>
 5   0  0.1025153E-05  0.2585876E+04  0.7818609E-02  0.8373015E-01
       -1   -1    0    0    0  501  0.00000000000E+00  0.00000000000E+00  0.11818199101E+04  0.11818199101E+04  0.50400001928E-02 0. -1.
        1   -1    0    0  501    0  0.00000000000E+00  0.00000000000E+00 -0.14145036985E+04  0.14145036985E+04  0.50400001928E-02 0.  1.
    10030    2    1    2    0    0  0.00000000000E+00  0.00000000000E+00 -0.23268378841E+03  0.25963236086E+04  0.25858759706E+04 0.  0.
        1    1    3    3  502    0  0.33191717029E+03 -0.85126060373E+03  0.80216290926E+03  0.12158449557E+04  0.50400001928E-02 0. -1.
       -1    1    3    3    0  502 -0.33191717029E+03  0.85126060373E+03 -0.10348466977E+04  0.13804786529E+04  0.50400001928E-02 0.  1.
</event>
<event>
 5   0  0.9855352E-06  0.2179901E+04  0.7818609E-02  0.8526841E-01
       -1   -1    0    0    0  501  0.00000000000E+00  0.00000000000E+00  0.98291827360E+03  0.98291827361E+03  0.50400001928E-02 0.  1.
        1   -1    0    0  501    0  0.00000000000E+00  0.00000000000E+00 -0.12086375909E+04  0.12086375909E+04  0.50400001928E-02 0. -1.
    10030    2    1    2    0    0  0.00000000000E+00  0.00000000000E+00 -0.22571931732E+03  0.21915558645E+04  0.21799008916E+04 0.  0.
        2    1    3    3  502    0 -0.35329867174E+03  0.62585135361E+03 -0.93668096259E+03  0.11806274154E+04  0.25500000920E-02 0. -1.
       -2    1    3    3    0  502  0.35329867174E+03 -0.62585135361E+03  0.71096164527E+03  0.10109284492E+04  0.25500000920E-02 0.  1.
</event>
<event>
 5   0  0.1000421E-05  0.2593384E+04  0.7818609E-02  0.8370452E-01
        1   -1    0    0  501    0  0.00000000000E+00  0.00000000000E+00  0.90307844592E+03  0.90307844594E+03  0.50400001928E-02 0. -1.
       -1   -1    0    0    0  501  0.00000000000E+00  0.00000000000E+00 -0.18618655765E+04  0.18618655765E+04  0.50400001928E-02 0.  1.
    10030    2    1    2    0    0  0.00000000000E+00  0.00000000000E+00 -0.95878713056E+03  0.27649440224E+04  0.25933844076E+04 0.  0.
        3    1    3    3  502    0 -0.25024004824E+03 -0.79204388038E+03  0.58219542323E+03  0.10143496001E+04  0.10100000352E+00 0. -1.
       -3    1    3    3    0  502  0.25024004824E+03  0.79204388038E+03 -0.15409825538E+04  0.17505944223E+04  0.10100000352E+00 0.  1.
</event>
<event>
 5   0  0.2484618E-05  0.2597344E+04  0.7818609E-02  0.8369104E-01
        2   -1    0    0  501    0  0.00000000000E+00  0.00000000000E+00  0.15928703894E+04  0.15928703894E+04  0.25500000920E-02 0.  1.
       -2   -1    0    0    0  501  0.00000000000E+00  0.00000000000E+00 -0.10588110566E+04  0.10588110566E+04  0.25500000920E-02 0. -1.
    10030    2    1    2    0    0  0.00000000000E+00  0.00000000000E+00  0.53405933279E+03  0.26516814460E+04  0.25973438586E+04 0.  0.
        3    1    3    3  502    0 -0.85607836328E+03 -0.85170475748E+03  0.75480918523E+03  0.14240814844E+04  0.10100000352E+00 0.  1.
       -3    1    3    3    0  502  0.85607836328E+03  0.85170475748E+03 -0.22074985244E+03  0.12275999615E+04  0.10100000352E+00 0. -1.
</event>
<event>
 5   0  0.1000421E-05  0.2541784E+04  0.7818609E-02  0.8388249E-01
        1   -1    0    0  501    0  0.00000000000E+00  0.00000000000E+00  0.20595279581E+04  0.20595279581E+04  0.50400001928E-02 0.  1.
       -1   -1    0    0    0  501  0.00000000000E+00  0.00000000000E+00 -0.78424140337E+03  0.78424140338E+03  0.50400001928E-02 0. -1.
    10030    2    1    2    0    0  0.00000000000E+00  0.00000000000E+00  0.12752865548E+04  0.28437693615E+04  0.25417844883E+04 0.  0.
        3    1    3    3  502    0  0.75169354001E+03 -0.10247446544E+04  0.63235979436E+03  0.14195153062E+04  0.10100000352E+00 0. -1.
       -3    1    3    3    0  502 -0.75169354001E+03  0.10247446544E+04  0.64292676041E+03  0.14242540554E+04  0.10100000352E+00 0.  1.
</event>
<event>
 5   0  0.2517854E-05  0.1970896E+04  0.7818609E-02  0.8620350E-01
        2   -1    0    0  501    0  0.00000000000E+00  0.00000000000E+00  0.79618468936E+03  0.79618468937E+03  0.25500000920E-02 0. -1.
       -2   -1    0    0    0  501  0.00000000000E+00  0.00000000000E+00 -0.12197012820E+04  0.12197012820E+04  0.25500000920E-02 0.  1.
    10030    2    1    2    0    0  0.00000000000E+00  0.00000000000E+00 -0.42351659259E+03  0.20158859713E+04  0.19708957215E+04 0.  0.
        4    1    3    3  502    0  0.75392029900E+03 -0.96202159769E+02 -0.85333703129E+03  0.11427319785E+04  0.12699999809E+01 0.  1.
       -4    1    3    3    0  502 -0.75392029900E+03  0.96202159769E+02  0.42982043870E+03  0.87315399284E+03  0.12699999809E+01 0. -1.
</event>
<event>
 5   0  0.2484618E-05  0.2606595E+04  0.7818609E-02  0.8365965E-01
       -2   -1    0    0    0  501  0.00000000000E+00  0.00000000000E+00  0.13019371468E+04  0.13019371468E+04  0.25500000920E-02 0.  1.
        2   -1    0    0  501    0  0.00000000000E+00  0.00000000000E+00 -0.13046591553E+04  0.13046591553E+04  0.25500000920E-02 0. -1.
    10030    2    1    2    0    0  0.00000000000E+00  0.00000000000E+00 -0.27220085371E+01  0.26065963021E+04  0.26065948808E+04 0.  0.
        3    1    3    3  502    0 -0.52224928159E+03 -0.10110510231E+04 -0.63666893329E+03  0.13039615885E+04  0.10100000352E+00 0. -1.
       -3    1    3    3    0  502  0.52224928159E+03  0.10110510231E+04  0.63394692475E+03  0.13026347136E+04  0.10100000352E+00 0.  1.
</event>
<event>
 5   0  0.2662024E-05  0.2689105E+04  0.7818609E-02  0.8338549E-01
       -2   -1    0    0    0  501  0.00000000000E+00  0.00000000000E+00  0.14659110265E+04  0.14659110265E+04  0.25500000920E-02 0. -1.
        2   -1    0    0  501    0  0.00000000000E+00  0.00000000000E+00 -0.12332413304E+04  0.12332413304E+04  0.25500000920E-02 0.  1.
    10030    2    1    2    0    0  0.00000000000E+00  0.00000000000E+00  0.23266969616E+03  0.26991523569E+04  0.26891054755E+04 0.  0.
        2    1    3    3  502    0 -0.87025056189E+03  0.92238963286E+03 -0.33219415643E+03  0.13109125191E+04  0.25500000920E-02 0.  1.
       -2    1    3    3    0  502  0.87025056189E+03 -0.92238963286E+03  0.56486385259E+03  0.13882398378E+04  0.25500000920E-02 0. -1.
</event>
<event>
 5   0  0.1034714E-05  0.2583610E+04  0.7818609E-02  0.8373790E-01
        1   -1    0    0  501    0  0.00000000000E+00  0.00000000000E+00  0.86739578809E+03  0.86739578810E+03  0.50400001928E-02 0. -1.
       -1   -1    0    0    0  501  0.00000000000E+00  0.00000000000E+00 -0.19238739629E+04  0.19238739629E+04  0.50400001928E-02 0.  1.
    10030    2    1    2    0    0  0.00000000000E+00  0.00000000000E+00 -0.10564781748E+04  0.27912697510E+04  0.25836100110E+04 0.  0.
        5    1    3    3  502    0 -0.22634781858E+03  0.11478696526E+04  0.63408487999E+02  0.11716999619E+04  0.46999998093E+01 0. -1.
       -5    1    3    3    0  502  0.22634781858E+03 -0.11478696526E+04 -0.11198866628E+04  0.16195697891E+04  0.46999998093E+01 0.  1.
</event>
<event>
 5   0  0.1025153E-05  0.2608467E+04  0.7818609E-02  0.8365331E-01
        1   -1    0    0  501    0  0.00000000000E+00  0.00000000000E+00  0.15192774518E+04  0.15192774519E+04  0.50400001928E-02 0. -1.
       -1   -1    0    0    0  501  0.00000000000E+00  0.00000000000E+00 -0.11196279743E+04  0.11196279743E+04  0.50400001928E-02 0.  1.
    10030    2    1    2    0    0  0.00000000000E+00  0.00000000000E+00  0.39964947759E+03  0.26389054261E+04  0.26084673935E+04 0.  0.
        1    1    3    3  502    0  0.39698274260E+03 -0.38712594868E+03 -0.99444336181E+03  0.11385865790E+04  0.50400001928E-02 0.  1.
       -1    1    3    3    0  502 -0.39698274260E+03  0.38712594868E+03  0.13940928394E+04  0.15003188471E+04  0.50400001928E-02 0. -1.
</event>
<event>
 5   0  0.2555801E-05  0.2609177E+04  0.7818609E-02  0.8365091E-01
       -2   -1    0    0    0  501  0.00000000000E+00  0.00000000000E+00  0.74059515477E+03  0.74059515477E+03  0.25500000920E-02 0.  1.
        2   -1    0    0  501    0  0.00000000000E+00  0.00000000000E+00 -0.22980851676E+04  0.22980851676E+04  0.25500000920E-02 0. -1.
    10030    2    1    2    0    0  0.00000000000E+00  0.00000000000E+00 -0.15574900129E+04  0.30386803224E+04  0.26091766827E+04 0.  0.
        1    1    3    3  502    0 -0.13594461311E+03  0.41462113921E+03  0.65309368160E+03  0.78544444990E+03  0.50400001928E-02 0.  1.
       -1    1    3    3    0  502  0.13594461311E+03 -0.41462113921E+03 -0.22105836945E+04  0.22532358725E+04  0.50400001928E-02 0. -1.
</event>
<event>
 5   0  0.2517854E-05  0.2577413E+04  0.7818609E-02  0.8375914E-01
       -2   -1    0    0    0  501  0.00000000000E+00  0.00000000000E+00  0.12845357916E+04  0.12845357916E+04  0.25500000920E-02 0.  1.
        2   -1    0    0  501    0  0.00000000000E+00  0.00000000000E+00 -0.12928910849E+04  0.12928910849E+04  0.25500000920E-02 0. -1.
    10030    2    1    2    0    0  0.00000000000E+00  0.00000000000E+00 -0.83552933336E+01  0.25774268764E+04  0.25774133337E+04 0.  0.
        4    1    3    3  502    0  0.10372489405E+04  0.30726040324E+03  0.69616091044E+03  0.12864431375E+04  0.12699999809E+01 0.  1.
       -4    1    3    3    0  502 -0.10372489405E+04 -0.30726040324E+03 -0.70451620377E+03  0.12909837389E+04  0.12699999809E+01 0. -1.
</event>
<event>
 5   0  0.2528460E-05  0.2556667E+04  0.7818609E-02  0.8383071E-01
       -2   -1    0    0    0  501  0.00000000000E+00  0.00000000000E+00  0.76438553619E+03  0.76438553619E+03  0.25500000920E-02 0.  1.
        2   -1    0    0  501    0  0.00000000000E+00  0.00000000000E+00 -0.21378441364E+04  0.21378441364E+04  0.25500000920E-02 0. -1.
    10030    2    1    2    0    0  0.00000000000E+00  0.00000000000E+00 -0.13734586003E+04  0.29022296726E+04  0.25566674688E+04 0.  0.
        5    1    3    3  502    0  0.54188523026E+03  0.72385910284E+02  0.62497669710E+03  0.83035973210E+03  0.46999998093E+01 0.  1.
       -5    1    3    3    0  502 -0.54188523026E+03 -0.72385910284E+02 -0.19984352974E+04  0.20718699405E+04  0.46999998093E+01 0. -1.
</event>
<event>
 5   0  0.2484618E-05  0.2599904E+04  0.7818609E-02  0.8368234E-01
        2   -1    0    0  501    0  0.00000000000E+00  0.00000000000E+00  0.16709930811E+04  0.16709930811E+04  0.25500000920E-02 0.  1.
       -2   -1    0    0    0  501  0.00000000000E+00  0.00000000000E+00 -0.10113002459E+04  0.10113002459E+04  0.25500000920E-02 0. -1.
    10030    2    1    2    0    0  0.00000000000E+00  0.00000000000E+00  0.65969283525E+03  0.26822933270E+04  0.25999043935E+04 0.  0.
        3    1    3    3  502    0 -0.73429627972E+03  0.10689270917E+04  0.42258116034E+03  0.13639541785E+04  0.10100000352E+00 0. -1.
       -3    1    3    3    0  502  0.73429627972E+03 -0.10689270917E+04  0.23711167491E+03  0.13183391485E+04  0.10100000352E+00 0.  1.
</event>
<event>
 5   0  0.2517854E-05  0.2584585E+04  0.7818609E-02  0.8373456E-01
       -2   -1    0    0    0  501  0.00000000000E+00  0.00000000000E+00  0.86604641223E+03  0.86604641223E+03  0.25500000920E-02 0.  1.
        2   -1    0    0  501    0  0.00000000000E+00  0.00000000000E+00 -0.19283258566E+04  0.19283258566E+04  0.25500000920E-02 0. -1.
    10030    2    1    2    0    0  0.00000000000E+00  0.00000000000E+00 -0.10622794444E+04  0.27943722689E+04  0.25845848330E+04 0.  0.
        4    1    3    3  502    0  0.12013430434E+03  0.34562890187E+03  0.80886694825E+03  0.88778316145E+03  0.12699999809E+01 0.  1.
       -4    1    3    3    0  502 -0.12013430434E+03 -0.34562890187E+03 -0.18711463926E+04  0.19065891074E+04  0.12699999809E+01 0. -1.
</event>
<event>
 5   0  0.1034714E-05  0.2564350E+04  0.7818609E-02  0.8380413E-01
       -1   -1    0    0    0  501  0.00000000000E+00  0.00000000000E+00  0.21573041821E+04  0.21573041821E+04  0.50400001928E-02 0. -1.
        1   -1    0    0  501    0  0.00000000000E+00  0.00000000000E+00 -0.76204939112E+03  0.76204939114E+03  0.50400001928E-02 0.  1.
    10030    2    1    2    0    0  0.00000000000E+00  0.00000000000E+00  0.13952547909E+04  0.29193535732E+04  0.25643496941E+04 0.  0.
        5    1    3    3  502    0  0.57708780592E+03  0.80023500573E+03  0.16298573204E+04  0.19052200332E+04  0.46999998093E+01 0. -1.
       -5    1    3    3    0  502 -0.57708780592E+03 -0.80023500573E+03 -0.23460252944E+03  0.10141335400E+04  0.46999998093E+01 0.  1.
</event>
<event>
 5   0  0.9855352E-06  0.2617036E+04  0.7818609E-02  0.8362437E-01
       -1   -1    0    0    0  501  0.00000000000E+00  0.00000000000E+00  0.19085901533E+04  0.19085901533E+04  0.50400001928E-02 0.  1.
        1   -1    0    0  501    0  0.00000000000E+00  0.00000000000E+00 -0.89711228397E+03  0.89711228399E+03  0.50400001928E-02 0. -1.
    10030    2    1    2    0    0  0.00000000000E+00  0.00000000000E+00  0.10114778693E+04  0.28057024373E+04  0.26170362409E+04 0.  0.
        2    1    3    3  502    0  0.64495727612E+03 -0.23855900953E+03  0.16992515061E+04  0.18331219190E+04  0.25500000920E-02 0.  1.
       -2    1    3    3    0  502 -0.64495727612E+03  0.23855900953E+03 -0.68777363677E+03  0.97258051826E+03  0.25500000920E-02 0. -1.
</event>
<event>
 5   0  0.2517854E-05  0.2681757E+04  0.7818609E-02  0.8340949E-01
       -2   -1    0    0    0  501  0.00000000000E+00  0.00000000000E+00  0.98243514019E+03  0.98243514019E+03  0.25500000920E-02 0.  1.
        2   -1    0    0  501    0  0.00000000000E+00  0.00000000000E+00 -0.18301001951E+04  0.18301001951E+04  0.25500000920E-02 0. -1.
    10030    2    1    2    0    0  0.00000000000E+00  0.00000000000E+00 -0.84766505490E+03  0.28125353353E+04  0.26817566942E+04 0.  0.
        4    1    3    3  502    0  0.35148153308E+03  0.65215022071E+03 -0.15959729501E+04  0.17595369984E+04  0.12699999809E+01 0. -1.
       -4    1    3    3    0  502 -0.35148153308E+03 -0.65215022071E+03  0.74830789521E+03  0.10529983368E+04  0.12699999809E+01 0.  1.
</event>
<event>
 5   0  0.2484618E-05  0.2560700E+04  0.7818609E-02  0.8381675E-01
        2   -1    0    0  501    0  0.00000000000E+00  0.00000000000E+00  0.19277483907E+04  0.19277483907E+04  0.25500000920E-02 0.  1.
       -2   -1    0    0    0  501  0.00000000000E+00  0.00000000000E+00 -0.85036804105E+03  0.85036804106E+03  0.25500000920E-02 0. -1.
    10030    2    1    2    0    0  0.00000000000E+00  0.00000000000E+00  0.10773803496E+04  0.27781164317E+04  0.25606996096E+04 0.  0.
        3    1    3    3  502    0  0.45139030803E+03  0.18049747522E+03 -0.74634473665E+03  0.89070928190E+03  0.10100000352E+00 0. -1.
       -3    1    3    3    0  502 -0.45139030803E+03 -0.18049747522E+03  0.18237250862E+04  0.18874071498E+04  0.10100000352E+00 0.  1.
</event>
<event>
 5   0  0.8605000E-06  0.2584150E+04  0.7818609E-02  0.8373605E-01
        3   -1    0    0  501    0  0.00000000000E+00  0.00000000000E+00  0.12140418390E+04  0.12140418432E+04  0.10100000352E+00 0.  1.
       -3   -1    0    0    0  501  0.00000000000E+00  0.00000000000E+00 -0.13751234199E+04  0.13751234236E+04  0.10100000352E+00 0. -1.
    10030    2    1    2    0    0  0.00000000000E+00  0.00000000000E+00 -0.16108158088E+03  0.25891652668E+04  0.25841496673E+04 0.  0.
        4    1    3    3  502    0  0.69450717261E+03 -0.52803961113E+03 -0.10354329081E+04  0.13539900161E+04  0.12699999809E+01 0. -1.
       -4    1    3    3    0  502 -0.69450717261E+03  0.52803961113E+03  0.87435132717E+03  0.12351752507E+04  0.12699999809E+01 0.  1.
</event>
<event>
 5   0  0.2662024E-05  0.2595913E+04  0.7818609E-02  0.8369591E-01
       -2   -1    0    0    0  501  0.00000000000E+00  0.00000000000E+00  0.67664968966E+03  0.67664968967E+03  0.25500000920E-02 0. -1.
        2   -1    0    0  501    0  0.00000000000E+00  0.00000000000E+00 -0.24897536684E+04  0.24897536684E+04  0.25500000920E-02 0.  1.
    10030    2    1    2    0    0  0.00000000000E+00  0.00000000000E+00 -0.18131039787E+04  0.31664033581E+04  0.25959129778E+04 0.  0.
        2    1    3    3  502    0  0.34632778336E+03  0.38233196633E+02 -0.24316416396E+04  0.24564783277E+04  0.25500000920E-02 0.  1.
       -2    1    3    3    0  502 -0.34632778336E+03 -0.38233196633E+02  0.61853766087E+03  0.70992503039E+03  0.25500000920E-02 0. -1.
</event>
<event>
 5   0  0.2517854E-05  0.2601063E+04  0.7818609E-02  0.8367840E-01
        2   -1    0    0  501    0  0.00000000000E+00  0.00000000000E+00  0.21091176178E+04  0.21091176178E+04  0.25500000920E-02 0.  1.
       -2   -1    0    0    0  501  0.00000000000E+00  0.00000000000E+00 -0.80193843324E+03  0.80193843324E+03  0.25500000920E-02 0. -1.
    10030    2    1    2    0    0  0.00000000000E+00  0.00000000000E+00  0.13071791845E+04  0.29110560510E+04  0.26010632272E+04 0.  0.
        4    1    3    3  502    0  0.90440694133E+03  0.22590293103E+03 -0.36135040639E+03  0.99977986521E+03  0.12699999809E+01 0. -1.
       -4    1    3    3    0  502 -0.90440694133E+03 -0.22590293103E+03  0.16685295909E+04  0.19112761858E+04  0.12699999809E+01 0.  1.
</event>
<event>
 5   0  0.1025153E-05  0.2511511E+04  0.7818609E-02  0.8398896E-01
        1   -1    0    0  501    0  0.00000000000E+00  0.00000000000E+00  0.16060580315E+04  0.16060580316E+04  0.50400001928E-02 0. -1.
       -1   -1    0    0    0  501  0.00000000000E+00  0.00000000000E+00 -0.98185896720E+03  0.98185896722E+03  0.50400001928E-02 0.  1.
    10030    2    1    2    0    0  0.00000000000E+00  0.00000000000E+00  0.62419906434E+03  0.25879169988E+04  0.25115114813E+04 0.  0.
        1    1    3    3  502    0 -0.60674121268E+03 -0.69839577652E+03 -0.56286836715E+03  0.10829184450E+04  0.50400001928E-02 0.  1.
       -1    1    3    3    0  502  0.60674121268E+03  0.69839577652E+03  0.11870674315E+04  0.15049985537E+04  0.50400001928E-02 0. -1.
</event>
<event>
 5   0  0.2662024E-05  0.2610563E+04  0.7818609E-02  0.8364622E-01
        2   -1    0    0  501    0  0.00000000000E+00  0.00000000000E+00  0.26210651696E+04  0.26210651696E+04  0.25500000920E-02 0. -1.
       -2   -1    0    0    0  501  0.00000000000E+00  0.00000000000E+00 -0.65002573138E+03  0.65002573138E+03  0.25500000920E-02 0.  1.
    10030    2    1    2    0    0  0.00000000000E+00  0.00000000000E+00  0.19710394382E+04  0.32710909010E+04  0.26105630074E+04 0.  0.
        2    1    3    3  502    0 -0.10849275648E+04 -0.16263543944E+03  0.99285779878E+02  0.11015333736E+04  0.25500000920E-02 0.  1.
       -2    1    3    3    0  502  0.10849275648E+04  0.16263543944E+03  0.18717536584E+04  0.21695575274E+04  0.25500000920E-02 0. -1.
</event>
<event>
 5   0  0.1034714E-05  0.2617537E+04  0.7818609E-02  0.8362269E-01
        1   -1    0    0  501    0  0.00000000000E+00  0.00000000000E+00  0.12463405724E+04  0.12463405724E+04  0.50400001928E-02 0. -1.
       -1   -1    0    0    0  501  0.00000000000E+00  0.00000000000E+00 -0.13743229189E+04  0.13743229189E+04  0.50400001928E-02 0.  1.
    10030    2    1    2    0    0  0.00000000000E+00  0.00000000000E+00 -0.12798234652E+03  0.26206634913E+04  0.26175365620E+04 0.  0.
        5    1    3    3  502    0  0.14941184315E+03  0.96235064233E+03  0.81135852594E+03  0.12675832932E+04  0.46999998093E+01 0. -1.
       -5    1    3    3    0  502 -0.14941184315E+03 -0.96235064233E+03 -0.93934087246E+03  0.13530801980E+04  0.46999998093E+01 0.  1.
</event>
<event>
 5   0  0.1000421E-05  0.2638793E+04  0.7818609E-02  0.8355142E-01
        1   -1    0    0  501    0  0.00000000000E+00  0.00000000000E+00  0.21350165212E+04  0.21350165212E+04  0.50400001928E-02 0. -1.
       -1   -1    0    0    0  501  0.00000000000E+00  0.00000000000E+00 -0.81536023703E+03  0.81536023704E+03  0.50400001928E-02 0.  1.
    10030    2    1    2    0    0  0.00000000000E+00  0.00000000000E+00  0.13196562842E+04  0.29503767582E+04  0.26387933430E+04 0.  0.
        3    1    3    3  502    0  0.65379392077E+03  0.89626702374E+03 -0.13869130619E+03  0.11180234154E+04  0.10100000352E+00 0.  1.
       -3    1    3    3    0  502 -0.65379392077E+03 -0.89626702374E+03  0.14583475904E+04  0.18323533429E+04  0.10100000352E+00 0. -1.
</event>
<event>
 5   0  0.2528460E-05  0.2582936E+04  0.7818609E-02  0.8374021E-01
        2   -1    0    0  501    0  0.00000000000E+00  0.00000000000E+00  0.19651610042E+04  0.19651610042E+04  0.25500000920E-02 0.  1.
       -2   -1    0    0    0  501  0.00000000000E+00  0.00000000000E+00 -0.84872940795E+03  0.84872940795E+03  0.25500000920E-02 0. -1.
    10030    2    1    2    0    0  0.00000000000E+00  0.00000000000E+00  0.11164315963E+04  0.28138904122E+04  0.25829362638E+04 0.  0.
        5    1    3    3  502    0 -0.20000245490E+01 -0.37080274653E+03 -0.78947912960E+03  0.87223738913E+03  0.46999998093E+01 0. -1.
       -5    1    3    3    0  502  0.20000245490E+01  0.37080274653E+03  0.19059107259E+04  0.19416530231E+04  0.46999998093E+01 0.  1.
</event>
<event>
 5   0  0.1034714E-05  0.2590417E+04  0.7818609E-02  0.8371464E-01
        1   -1    0    0  501    0  0.00000000000E+00  0.00000000000E+00  0.10386923611E+04  0.10386923611E+04  0.50400001928E-02 0.  1.
       -1   -1    0    0    0  501  0.00000000000E+00  0.00000000000E+00 -0.16150734145E+04  0.16150734145E+04  0.50400001928E-02 0. -1.
    10030    2    1    2    0    0  0.00000000000E+00  0.00000000000E+00 -0.57638105334E+03  0.26537657756E+04  0.25904165058E+04 0.  0.
        5    1    3    3  502    0 -0.10637963253E+04  0.21390805793E+03  0.43629785530E+03  0.11695286177E+04  0.46999998093E+01 0.  1.
       -5    1    3    3    0  502  0.10637963253E+04 -0.21390805793E+03 -0.10126789086E+04  0.14842371580E+04  0.46999998093E+01 0. -1.
</event>
<event>
 5   0  0.2484618E-05  0.2563530E+04  0.7818609E-02  0.8380696E-01
        2   -1    0    0  501    0  0.00000000000E+00  0.00000000000E+00  0.24677232700E+04  0.24677232700E+04  0.25500000920E-02 0. -1.
       -2   -1    0    0    0  501  0.00000000000E+00  0.00000000000E+00 -0.66576413003E+03  0.66576413003E+03  0.25500000920E-02 0.  1.
    10030    2    1    2    0    0  0.00000000000E+00  0.00000000000E+00  0.18019591400E+04  0.31334874001E+04  0.25635300943E+04 0.  0.
        3    1    3    3  502    0 -0.28985637730E+02 -0.71915995801E+03  0.21973963403E+04  0.23122676962E+04  0.10100000352E+00 0. -1.
       -3    1    3    3    0  502  0.28985637730E+02  0.71915995801E+03 -0.39543720030E+03  0.82121970384E+03  0.10100000352E+00 0.  1.
</event>
<event>
 5   0  0.1025153E-05  0.2634251E+04  0.7818609E-02  0.8356659E-01
       -1   -1    0    0    0  501  0.00000000000E+00  0.00000000000E+00  0.70857742643E+03  0.70857742645E+03  0.50400001928E-02 0. -1.
        1   -1    0    0  501    0  0.00000000000E+00  0.00000000000E+00 -0.24483142854E+04  0.24483142854E+04  0.50400001928E-02 0.  1.
    10030    2    1    2    0    0  0.00000000000E+00  0.00000000000E+00 -0.17397368590E+04  0.31568917118E+04  0.26342514956E+04 0.  0.
        1    1    3    3  502    0  0.64518451712E+03  0.20039022779E+03 -0.22248581133E+04  0.23251694409E+04  0.50400001928E-02 0.  1.
       -1    1    3    3    0  502 -0.64518451712E+03 -0.20039022779E+03  0.48512125435E+03  0.83172227094E+03  0.50400001928E-02 0. -1.
</event>
<event>
 5   0  0.1034714E-05  0.2576689E+04  0.7818609E-02  0.8376163E-01
        1   -1    0    0  501    0  0.00000000000E+00  0.00000000000E+00  0.30503809416E+04  0.30503809416E+04  0.50400001928E-02 0. -1.
       -1   -1    0    0    0  501  0.00000000000E+00  0.00000000000E+00 -0.54413923055E+03  0.54413923058E+03  0.50400001928E-02 0.  1.
    10030    2    1    2    0    0  0.00000000000E+00  0.00000000000E+00  0.25062417110E+04  0.35945201722E+04  0.25766893010E+04 0.  0.
        5    1    3    3  502    0  0.70471465154E+02 -0.35161799076E+03  0.29793403777E+04  0.30008486492E+04  0.46999998093E+01 0. -1.
       -5    1    3    3    0  502 -0.70471465154E+02  0.35161799076E+03 -0.47309866668E+03  0.59367152302E+03  0.46999998093E+01 0.  1.
</event>
<event>
 5   0  0.2484618E-05  0.2455757E+04  0.7818609E-02  0.8418919E-01
       -2   -1    0    0    0  501  0.00000000000E+00  0.00000000000E+00  0.78658436329E+03  0.78658436329E+03  0.25500000920E-02 0.  1.
        2   -1    0    0  501    0  0.00000000000E+00  0.00000000000E+00 -0.19167497598E+04  0.19167497598E+04  0.25500000920E-02 0. -1.
    10030    2    1    2    0    0  0.00000000000E+00  0.00000000000E+00 -0.11301653966E+04  0.27033341231E+04  0.24557568197E+04 0.  0.
        3    1    3    3  502    0  0.56240473044E+03  0.10032697321E+04 -0.91813961952E+02  0.11538106647E+04  0.10100000352E+00 0. -1.
       -3    1    3    3    0  502 -0.56240473044E+03 -0.10032697321E+04 -0.10383514346E+04  0.15495234584E+04  0.10100000352E+00 0.  1.
</event>
<event>
 5   0  0.2528460E-05  0.2600958E+04  0.7818609E-02  0.8367876E-01
        2   -1    0    0  501    0  0.00000000000E+00  0.00000000000E+00  0.14050633788E+04  0.14050633788E+04  0.25500000920E-02 0. -1.
       -2   -1    0    0    0  501  0.00000000000E+00  0.00000000000E+00 -0.12036794211E+04  0.12036794211E+04  0.25500000920E-02 0.  1.
    10030    2    1    2    0    0  0.00000000000E+00  0.00000000000E+00  0.20138395777E+03  0.26087427999E+04  0.26009581883E+04 0.  0.
        5    1    3    3  502    0  0.71790550933E+02 -0.22587494215E+02 -0.12014848497E+04  0.12038488327E+04  0.46999998093E+01 0.  1.
       -5    1    3    3    0  502 -0.71790550933E+02  0.22587494215E+02  0.14028688074E+04  0.14048939672E+04  0.46999998093E+01 0. -1.
</event>
<event>
 5   0  0.2528460E-05  0.2608792E+04  0.7818609E-02  0.8365221E-01
       -2   -1    0    0    0  501  0.00000000000E+00  0.00000000000E+00  0.76837537013E+03  0.76837537013E+03  0.25500000920E-02 0. -1.
        2   -1    0    0  501    0  0.00000000000E+00  0.00000000000E+00 -0.22143458825E+04  0.22143458825E+04  0.25500000920E-02 0.  1.
    10030    2    1    2    0    0  0.00000000000E+00  0.00000000000E+00 -0.14459705123E+04  0.29827212526E+04  0.26087919327E+04 0.  0.
        5    1    3    3  502    0 -0.11593483165E+04 -0.56185009209E+03 -0.95635628578E+03  0.16044947742E+04  0.46999998093E+01 0.  1.
       -5    1    3    3    0  502  0.11593483165E+04  0.56185009209E+03 -0.48961422656E+03  0.13782264784E+04  0.46999998093E+01 0. -1.
</event>
<event>
 5   0  0.1005492E-05  0.2626134E+04  0.7818609E-02  0.8359378E-01
        1   -1    0    0  501    0  0.00000000000E+00  0.00000000000E+00  0.16138955939E+04  0.16138955939E+04  0.50400001928E-02 0.  1.
       -1   -1    0    0    0  501  0.00000000000E+00  0.00000000000E+00 -0.10683127243E+04  0.10683127243E+04  0.50400001928E-02 0. -1.
    10030    2    1    2    0    0  0.00000000000E+00  0.00000000000E+00  0.54558286959E+03  0.26822083182E+04  0.26261341921E+04 0.  0.
        4    1    3    3  502    0  0.19891884056E+03 -0.10072521603E+04 -0.56323269978E+03  0.11710500871E+04  0.12699999809E+01 0. -1.
       -4    1    3    3    0  502 -0.19891884056E+03  0.10072521603E+04  0.11088155694E+04  0.15111582311E+04  0.12699999809E+01 0.  1.
</event>
<event>
 5   0  0.1034714E-05  0.2512959E+04  0.7818609E-02  0.8398383E-01
       -1   -1    0    0    0  501  0.00000000000E+00  0.00000000000E+00  0.12721527499E+04  0.12721527499E+04  0.50400001928E-02 0. -1.
        1   -1    0    0  501    0  0.00000000000E+00  0.00000000000E+00 -0.12409995146E+04  0.12409995146E+04  0.50400001928E-02 0.  1.
    10030    2    1    2    0    0  0.00000000000E+00  0.00000000000E+00  0.31153235289E+02  0.25131522645E+04  0.25129591681E+04 0.  0.
        5    1    3    3  502    0  0.20955923472E+01  0.12334794024E+04 -0.22369691803E+03  0.12536100785E+04  0.46999998093E+01 0. -1.
       -5    1    3    3    0  502 -0.20955923472E+01 -0.12334794024E+04  0.25485015332E+03  0.12595421860E+04  0.46999998093E+01 0.  1.
</event>
<event>
 5   0  0.1005492E-05  0.2056468E+04  0.7818609E-02  0.8580666E-01
       -1   -1    0    0    0  501  0.00000000000E+00  0.00000000000E+00  0.64297276767E+03  0.64297276769E+03  0.50400001928E-02 0. -1.
        1   -1    0    0  501    0  0.00000000000E+00  0.00000000000E+00 -0.16443390728E+04  0.16443390728E+04  0.50400001928E-02 0.  1.
    10030    2    1    2    0    0  0.00000000000E+00  0.00000000000E+00 -0.10013663051E+04  0.22873118405E+04  0.20564680835E+04 0.  0.
        4    1    3    3  502    0 -0.64820996501E+03  0.62734220160E+03  0.48198807098E+02  0.90335991418E+03  0.12699999809E+01 0.  1.
       -4    1    3    3    0  502  0.64820996501E+03 -0.62734220160E+03 -0.10495651122E+04  0.13839519263E+04  0.12699999809E+01 0. -1.
</event>
<event>
 5   0  0.1000421E-05  0.2731652E+04  0.7818609E-02  0.8324807E-01
       -1   -1    0    0    0  501  0.00000000000E+00  0.00000000000E+00  0.15581652701E+04  0.15581652701E+04  0.50400001928E-02 0.  1.
        1   -1    0    0  501    0  0.00000000000E+00  0.00000000000E+00 -0.11972291022E+04  0.11972291022E+04  0.50400001928E-02 0. -1.
    10030    2    1    2    0    0  0.00000000000E+00  0.00000000000E+00  0.36093616793E+03  0.27553943724E+04  0.27316521063E+04 0.  0.
        3    1    3    3  502    0 -0.26951212497E+03 -0.16338941251E+03  0.15209838150E+04  0.15532947761E+04  0.10100000352E+00 0.  1.
       -3    1    3    3    0  502  0.26951212497E+03  0.16338941251E+03 -0.11600476471E+04  0.12020995963E+04  0.10100000352E+00 0. -1.
</event>
<event>
 5   0  0.1005492E-05  0.2569418E+04  0.7818609E-02  0.8378664E-01
       -1   -1    0    0    0  501  0.00000000000E+00  0.00000000000E+00  0.12134804169E+04  0.12134804169E+04  0.50400001928E-02 0.  1.
        1   -1    0    0  501    0  0.00000000000E+00  0.00000000000E+00 -0.13601184647E+04  0.13601184647E+04  0.50400001928E-02 0. -1.
    10030    2    1    2    0    0  0.00000000000E+00  0.00000000000E+00 -0.14663804779E+03  0.25735988816E+04  0.25694179275E+04 0.  0.
        4    1    3    3  502    0  0.14942464378E+03  0.37536991027E+03 -0.12948300719E+04  0.13563984746E+04  0.12699999809E+01 0. -1.
       -4    1    3    3    0  502 -0.14942464378E+03 -0.37536991027E+03  0.11481920242E+04  0.12172004071E+04  0.12699999809E+01 0.  1.
</event>
<event>
 5   0  0.2484618E-05  0.2577198E+04  0.7818609E-02  0.8375988E-01
        2   -1    0    0  501    0  0.00000000000E+00  0.00000000000E+00  0.17329263956E+04  0.17329263956E+04  0.25500000920E-02 0. -1.
       -2   -1    0    0    0  501  0.00000000000E+00  0.00000000000E+00 -0.95819852115E+03  0.95819852115E+03  0.25500000920E-02 0.  1.
    10030    2    1    2    0    0  0.00000000000E+00  0.00000000000E+00  0.77472787442E+03  0.26911249167E+04  0.25771980983E+04 0.  0.
        3    1    3    3  502    0  0.22304307137E+03  0.11702965437E+04  0.90013728598E+03  0.14931809521E+04  0.10100000352E+00 0. -1.
       -3    1    3    3    0  502 -0.22304307137E+03 -0.11702965437E+04 -0.12540941156E+03  0.11979439647E+04  0.10100000352E+00 0.  1.
</event>
<event>
 5   0  0.2528460E-05  0.2545552E+04  0.7818609E-02  0.8386935E-01
       -2   -1    0    0    0  501  0.00000000000E+00  0.00000000000E+00  0.19119882117E+04  0.19119882117E+04  0.25500000920E-02 0. -1.
        2   -1    0    0  501    0  0.00000000000E+00  0.00000000000E+00 -0.84726386831E+03  0.84726386831E+03  0.25500000920E-02 0.  1.
    10030    2    1    2    0    0  0.00000000000E+00  0.00000000000E+00  0.10647243434E+04  0.27592520800E+04  0.25455518289E+04 0.  0.
        5    1    3    3  502    0 -0.35335908131E+03 -0.15673771516E+03 -0.78208457412E+03  0.87241487996E+03  0.46999998093E+01 0.  1.
       -5    1    3    3    0  502  0.35335908131E+03  0.15673771516E+03  0.18468089175E+04  0.18868372000E+04  0.46999998093E+01 0. -1.
</event>
<event>
 5   0  0.2528460E-05  0.2526876E+04  0.7818609E-02  0.8393473E-01
        2   -1    0    0  501    0  0.00000000000E+00  0.00000000000E+00  0.12675109758E+04  0.12675109758E+04  0.25500000920E-02 0.  1.
       -2   -1    0    0    0  501  0.00000000000E+00  0.00000000000E+00 -0.12593778954E+04  0.12593778954E+04  0.25500000920E-02 0. -1.
    10030    2    1    2    0    0  0.00000000000E+00  0.00000000000E+00  0.81330803603E+01  0.25268888712E+04  0.25268757825E+04 0.  0.
        5    1    3    3  502    0  0.57399500042E+03  0.97722290763E+03  0.56247640190E+03  0.12652417415E+04  0.46999998093E+01 0.  1.
       -5    1    3    3    0  502 -0.57399500042E+03 -0.97722290763E+03 -0.55434332154E+03  0.12616471297E+04  0.46999998093E+01 0. -1.
</event>
<event>
 5   0  0.1025153E-05  0.2284947E+04  0.7818609E-02  0.8483880E-01
        1   -1    0    0  501    0  0.00000000000E+00  0.00000000000E+00  0.77705313661E+03  0.77705313662E+03  0.50400001928E-02 0.  1.
       -1   -1    0    0    0  501  0.00000000000E+00  0.00000000000E+00 -0.16797384837E+04  0.16797384837E+04  0.50400001928E-02 0. -1.
    10030    2    1    2    0    0  0.00000000000E+00  0.00000000000E+00 -0.90268534710E+03  0.24567916203E+04  0.22849473145E+04 0.  0.
        1    1    3    3  502    0 -0.93044091818E+03  0.22787638975E+03  0.21805308256E+03  0.98244343250E+03  0.50400001928E-02 0.  1.
       -1    1    3    3    0  502  0.93044091818E+03 -0.22787638975E+03 -0.11207384297E+04  0.14743481878E+04  0.50400001928E-02 0. -1.
</event>
<event>
 5   0  0.2555801E-05  0.2573325E+04  0.7818609E-02  0.8377319E-01
       -2   -1    0    0    0  501  0.00000000000E+00  0.00000000000E+00  0.10691102781E+04  0.10691102781E+04  0.25500000920E-02 0.  1.
        2   -1    0    0  501    0  0.00000000000E+00  0.00000000000E+00 -0.15484838097E+04  0.15484838097E+04  0.25500000920E-02 0. -1.
    10030    2    1    2    0    0  0.00000000000E+00  0.00000000000E+00 -0.47937353160E+03  0.26175940877E+04  0.25733246638E+04 0.  0.
        1    1    3    3  502    0  0.43579967540E+03  0.11872741795E+04  0.93849835729E+00  0.12647300958E+04  0.50400001928E-02 0. -1.
       -1    1    3    3    0  502 -0.43579967540E+03 -0.11872741795E+04 -0.48031202995E+03  0.13528639919E+04  0.50400001928E-02 0.  1.
</event>
<event>
 5   0  0.2555801E-05  0.2641831E+04  0.7818609E-02  0.8354129E-01
       -2   -1    0    0    0  501  0.00000000000E+00  0.00000000000E+00  0.11253197346E+04  0.11253197346E+04  0.25500000920E-02 0.  1.
        2   -1    0    0  501    0  0.00000000000E+00  0.00000000000E+00 -0.15505089265E+04  0.15505089265E+04  0.25500000920E-02 0. -1.
    10030    2    1    2    0    0  0.00000000000E+00  0.00000000000E+00 -0.42518919184E+03  0.26758286611E+04  0.26418314054E+04 0.  0.
        1    1    3    3  502    0  0.64718829749E+02 -0.13193284971E+04 -0.21405657990E+03  0.13381466398E+04  0.50400001928E-02 0.  1.
       -1    1    3    3    0  502 -0.64718829749E+02  0.13193284971E+04 -0.21113261194E+03  0.13376820213E+04  0.50400001928E-02 0. -1.
</event>
<event>
 5   0  0.1000421E-05  0.2482164E+04  0.7818609E-02  0.8409367E-01
       -1   -1    0    0    0  501  0.00000000000E+00  0.00000000000E+00  0.98562961172E+03  0.98562961173E+03  0.50400001928E-02 0.  1.
        1   -1    0    0  501    0  0.00000000000E+00  0.00000000000E+00 -0.15627415836E+04  0.15627415836E+04  0.50400001928E-02 0. -1.
    10030    2    1    2    0    0  0.00000000000E+00  0.00000000000E+00 -0.57711197184E+03  0.25483711953E+04  0.24821638788E+04 0.  0.
        3    1    3    3  502    0  0.66172126126E+03  0.62059825323E+03 -0.11580622336E+04  0.14710966544E+04  0.10100000352E+00 0. -1.
       -3    1    3    3    0  502 -0.66172126126E+03 -0.62059825323E+03  0.58095026179E+03  0.10772745409E+04  0.10100000352E+00 0.  1.
</event>
<event>
 5   0  0.2517854E-05  0.2582936E+04  0.7818609E-02  0.8374021E-01
       -2   -1    0    0    0  501  0.00000000000E+00  0.00000000000E+00  0.19280711797E+04  0.19280711797E+04  0.25500000920E-02 0.  1.
        2   -1    0    0  501    0  0.00000000000E+00  0.00000000000E+00 -0.86505569906E+03  0.86505569906E+03  0.25500000920E-02 0. -1.
    10030    2    1    2    0    0  0.00000000000E+00  0.00000000000E+00  0.10630154807E+04  0.27931268788E+04  0.25829355100E+04 0.  0.
        4    1    3    3  502    0 -0.12490100172E+04 -0.25898575022E+03  0.74990226613E+03  0.14796805951E+04  0.12699999809E+01 0. -1.
       -4    1    3    3    0  502  0.12490100172E+04  0.25898575022E+03  0.31311321453E+03  0.13134462836E+04  0.12699999809E+01 0.  1.
</event>
<event>
 5   0  0.9855352E-06  0.2650633E+04  0.7818609E-02  0.8351203E-01
       -1   -1    0    0    0  501  0.00000000000E+00  0.00000000000E+00  0.13566342594E+04  0.13566342594E+04  0.50400001928E-02 0.  1.
        1   -1    0    0  501    0  0.00000000000E+00  0.00000000000E+00 -0.12947220391E+04  0.12947220392E+04  0.50400001928E-02 0. -1.
    10030    2    1    2    0    0  0.00000000000E+00  0.00000000000E+00  0.61912220238E+02  0.26513562986E+04  0.26506333392E+04 0.  0.
        2    1    3    3  502    0  0.10247079380E+04 -0.64925812461E+03  0.56486362930E+03  0.13381455042E+04  0.25500000920E-02 0.  1.
       -2    1    3    3    0  502 -0.10247079380E+04  0.64925812461E+03 -0.50295140906E+03  0.13132107944E+04  0.25500000920E-02 0. -1.
</event>
<event>
 5   0  0.2662024E-05  0.2619542E+04  0.7818609E-02  0.8361593E-01
        2   -1    0    0  501    0  0.00000000000E+00  0.00000000000E+00  0.23560118140E+04  0.23560118140E+04  0.25500000920E-02 0. -1.
       -2   -1    0    0    0  501  0.00000000000E+00  0.00000000000E+00 -0.72813721602E+03  0.72813721603E+03  0.25500000920E-02 0.  1.
    10030    2    1    2    0    0  0.00000000000E+00  0.00000000000E+00  0.16278745980E+04  0.30841490300E+04  0.26195418555E+04 0.  0.
        2    1    3    3  502    0  0.98408915334E+03  0.11219795797E+03  0.18229578516E+04  0.20746554345E+04  0.25500000920E-02 0.  1.
       -2    1    3    3    0  502 -0.98408915334E+03 -0.11219795797E+03 -0.19508325359E+03  0.10094935955E+04  0.25500000920E-02 0. -1.
</event>
<event>
 5   0  0.1025153E-05  0.2675238E+04  0.7818609E-02  0.8343084E-01
       -1   -1    0    0    0  501  0.00000000000E+00  0.00000000000E+00  0.10200489194E+04  0.10200489194E+04  0.50400001928E-02 0.  1.
        1   -1    0    0  501    0  0.00000000000E+00  0.00000000000E+00 -0.17540580702E+04  0.17540580703E+04  0.50400001928E-02 0. -1.
    10030    2    1    2    0    0  0.00000000000E+00  0.00000000000E+00 -0.73400915083E+03  0.27741069897E+04  0.26752383364E+04 0.  0.
        1    1    3    3  502    0 -0.26156107170E+03  0.97127146620E+03  0.54730841432E+03  0.11451327241E+04  0.50400001928E-02 0.  1.
       -1    1    3    3    0  502  0.26156107170E+03 -0.97127146620E+03 -0.12813175651E+04  0.16289742656E+04  0.50400001928E-02 0. -1.
</event>
<event>
 5   0  0.2662024E-05  0.2586273E+04  0.7818609E-02  0.8372879E-01
       -2   -1    0    0    0  501  0.00000000000E+00  0.00000000000E+00  0.14039227632E+04  0.14039227632E+04  0.25500000920E-02 0. -1.
        2   -1    0    0  501    0  0.00000000000E+00  0.00000000000E+00 -0.11910930347E+04  0.11910930347E+04  0.25500000920E-02 0.  1.
    10030    2    1    2    0    0  0.00000000000E+00  0.00000000000E+00  0.21282972847E+03  0.25950157979E+04  0.25862734770E+04 0.  0.
        2    1    3    3  502    0  0.50260499169E+02  0.11783879987E+04 -0.42554536680E+03  0.12538792815E+04  0.25500000920E-02 0. -1.
       -2    1    3    3    0  502 -0.50260499169E+02 -0.11783879987E+04  0.63837509527E+03  0.13411365164E+04  0.25500000920E-02 0.  1.
</event>
<event>
 5   0  0.2528460E-05  0.2561712E+04  0.7818609E-02  0.8381324E-01
       -2   -1    0    0    0  501  0.00000000000E+00  0.00000000000E+00  0.93171364373E+03  0.93171364373E+03  0.25500000920E-02 0.  1.
        2   -1    0    0  501    0  0.00000000000E+00  0.00000000000E+00 -0.17608331340E+04  0.17608331340E+04  0.25500000920E-02 0. -1.
    10030    2    1    2    0    0  0.00000000000E+00  0.00000000000E+00 -0.82911949026E+03  0.26925467777E+04  0.25617121269E+04 0.  0.
        5    1    3    3  502    0 -0.27747622432E+03 -0.62241345112E+03 -0.15544671390E+04  0.16972865802E+04  0.46999998093E+01 0. -1.
       -5    1    3    3    0  502  0.27747622432E+03  0.62241345112E+03  0.72534764874E+03  0.99526019750E+03  0.46999998093E+01 0.  1.
</event>
<event>
 5   0  0.2528460E-05  0.2612444E+04  0.7818609E-02  0.8363986E-01
        2   -1    0    0  501    0  0.00000000000E+00  0.00000000000E+00  0.16052163688E+04  0.16052163688E+04  0.25500000920E-02 0.  1.
       -2   -1    0    0    0  501  0.00000000000E+00  0.00000000000E+00 -0.10629196811E+04  0.10629196811E+04  0.25500000920E-02 0. -1.
    10030    2    1    2    0    0  0.00000000000E+00  0.00000000000E+00  0.54229668767E+03  0.26681360498E+04  0.26124441206E+04 0.  0.
        5    1    3    3  502    0 -0.76729466920E+03  0.48681243327E+03 -0.68718673584E+03  0.11392871256E+04  0.46999998093E+01 0. -1.
       -5    1    3    3    0  502  0.76729466920E+03 -0.48681243327E+03  0.12294834235E+04  0.15288489243E+04  0.46999998093E+01 0.  1.
</event>
<event>
 5   0  0.2528460E-05  0.2593625E+04  0.7818609E-02  0.8370370E-01
        2   -1    0    0  501    0  0.00000000000E+00  0.00000000000E+00  0.95582832230E+03  0.95582832231E+03  0.25500000920E-02 0. -1.
       -2   -1    0    0    0  501  0.00000000000E+00  0.00000000000E+00 -0.17594399707E+04  0.17594399707E+04  0.25500000920E-02 0.  1.
    10030    2    1    2    0    0  0.00000000000E+00  0.00000000000E+00 -0.80361164835E+03  0.27152682930E+04  0.25936249192E+04 0.  0.
        5    1    3    3  502    0 -0.54738990731E+03 -0.63551932189E+03  0.63361037582E+03  0.10511920459E+04  0.46999998093E+01 0. -1.
       -5    1    3    3    0  502  0.54738990731E+03  0.63551932189E+03 -0.14372220242E+04  0.16640762470E+04  0.46999998093E+01 0.  1.
</event>
<event>
 5   0  0.1025153E-05  0.2601854E+04  0.7818609E-02  0.8367572E-01
       -1   -1    0    0    0  501  0.00000000000E+00  0.00000000000E+00  0.71518627602E+03  0.71518627604E+03  0.50400001928E-02 0.  1.
        1   -1    0    0  501    0  0.00000000000E+00  0.00000000000E+00 -0.23663925512E+04  0.23663925512E+04  0.50400001928E-02 0. -1.
    10030    2    1    2    0    0  0.00000000000E+00  0.00000000000E+00 -0.16512062752E+04  0.30815788273E+04  0.26018543206E+04 0.  0.
        1    1    3    3  502    0  0.34999704312E+03  0.52643270812E+03 -0.21722476899E+04  0.22623636649E+04  0.50400001928E-02 0. -1.
       -1    1    3    3    0  502 -0.34999704312E+03 -0.52643270812E+03  0.52104141465E+03  0.81921516232E+03  0.50400001928E-02 0.  1.
</event>
<event>
 5   0  0.1000421E-05  0.2578955E+04  0.7818609E-02  0.8375385E-01
       -1   -1    0    0    0  501  0.00000000000E+00  0.00000000000E+00  0.11532028365E+04  0.11532028365E+04  0.50400001928E-02 0.  1.
        1   -1    0    0  501    0  0.00000000000E+00  0.00000000000E+00 -0.14418562943E+04  0.14418562944E+04  0.50400001928E-02 0. -1.
    10030    2    1    2    0    0  0.00000000000E+00  0.00000000000E+00 -0.28865345788E+03  0.25950591308E+04  0.25789554230E+04 0.  0.
        3    1    3    3  502    0  0.10091413568E+04 -0.36512185987E+03  0.57503061614E+03  0.12175140534E+04  0.10100000352E+00 0.  1.
       -3    1    3    3    0  502 -0.10091413568E+04  0.36512185987E+03 -0.86368407402E+03  0.13775450774E+04  0.10100000352E+00 0. -1.
</event>
<event>
 5   0  0.1000421E-05  0.2568926E+04  0.7818609E-02  0.8378834E-01
       -1   -1    0    0    0  501  0.00000000000E+00  0.00000000000E+00  0.14921900502E+04  0.14921900503E+04  0.50400001928E-02 0. -1.
        1   -1    0    0  501    0  0.00000000000E+00  0.00000000000E+00 -0.11056536198E+04  0.11056536198E+04  0.50400001928E-02 0.  1.
    10030    2    1    2    0    0  0.00000000000E+00  0.00000000000E+00  0.38653643046E+03  0.25978436700E+04  0.25689261029E+04 0.  0.
        3    1    3    3  502    0  0.95197309081E+02  0.11629945698E+04  0.73617878594E+03  0.13797021824E+04  0.10100000352E+00 0. -1.
       -3    1    3    3    0  502 -0.95197309081E+02 -0.11629945698E+04 -0.34964235548E+03  0.12181414877E+04  0.10100000352E+00 0.  1.
</event>
<event>
 5   0  0.2555801E-05  0.2589677E+04  0.7818609E-02  0.8371716E-01
        2   -1    0    0  501    0  0.00000000000E+00  0.00000000000E+00  0.11313998603E+04  0.11313998603E+04  0.25500000920E-02 0. -1.
       -2   -1    0    0    0  501  0.00000000000E+00  0.00000000000E+00 -0.14818866760E+04  0.14818866760E+04  0.25500000920E-02 0.  1.
    10030    2    1    2    0    0  0.00000000000E+00  0.00000000000E+00 -0.35048681569E+03  0.26132865363E+04  0.25896767198E+04 0.  0.
        1    1    3    3  502    0  0.49680253415E+03  0.11765652177E+04  0.39979980340E+02  0.12777780982E+04  0.50400001928E-02 0. -1.
       -1    1    3    3    0  502 -0.49680253415E+03 -0.11765652177E+04 -0.39046679603E+03  0.13355084381E+04  0.50400001928E-02 0.  1.
</event>
<event>
 5   0  0.1034714E-05  0.2586036E+04  0.7818609E-02  0.8372960E-01
       -1   -1    0    0    0  501  0.00000000000E+00  0.00000000000E+00  0.17228030438E+04  0.17228030438E+04  0.50400001928E-02 0.  1.
        1   -1    0    0  501    0  0.00000000000E+00  0.00000000000E+00 -0.97045064870E+03  0.97045064871E+03  0.50400001928E-02 0. -1.
    10030    2    1    2    0    0  0.00000000000E+00  0.00000000000E+00  0.75235239505E+03  0.26932536925E+04  0.25860358322E+04 0.  0.
        5    1    3    3  502    0 -0.58231083889E+03  0.11352752069E+04  0.15787276756E+03  0.12856444335E+04  0.46999998093E+01 0. -1.
       -5    1    3    3    0  502  0.58231083889E+03 -0.11352752069E+04  0.59447962750E+03  0.14076092590E+04  0.46999998093E+01 0.  1.
</event>
<event>
 5   0  0.2555801E-05  0.2662823E+04  0.7818609E-02  0.8347169E-01
       -2   -1    0    0    0  501  0.00000000000E+00  0.00000000000E+00  0.75459692059E+03  0.75459692059E+03  0.25500000920E-02 0. -1.
        2   -1    0    0  501    0  0.00000000000E+00  0.00000000000E+00 -0.23491441165E+04  0.23491441165E+04  0.25500000920E-02 0.  1.
    10030    2    1    2    0    0  0.00000000000E+00  0.00000000000E+00 -0.15945471959E+04  0.31037410371E+04  0.26628232509E+04 0.  0.
        1    1    3    3  502    0  0.10092390200E+04 -0.77192298069E+03 -0.33362879555E+03  0.13136729657E+04  0.50400001928E-02 0. -1.
       -1    1    3    3    0  502 -0.10092390200E+04  0.77192298069E+03 -0.12609184004E+04  0.17900680714E+04  0.50400001928E-02 0.  1.
</event>
<event>
 5   0  0.2484618E-05  0.2617210E+04  0.7818609E-02  0.8362379E-01
       -2   -1    0    0    0  501  0.00000000000E+00  0.00000000000E+00  0.33582121751E+04  0.33582121751E+04  0.25500000920E-02 0.  1.
        2   -1    0    0  501    0  0.00000000000E+00  0.00000000000E+00 -0.50992810482E+03  0.50992810483E+03  0.25500000920E-02 0. -1.
    10030    2    1    2    0    0  0.00000000000E+00  0.00000000000E+00  0.28482840703E+04  0.38681402800E+04  0.26172097891E+04 0.  0.
        3    1    3    3  502    0 -0.93932860075E+01 -0.67986714065E+03  0.30766473530E+04  0.31508834488E+04  0.10100000352E+00 0.  1.
       -3    1    3    3    0  502  0.93932860075E+01  0.67986714065E+03 -0.22836328273E+03  0.71725683116E+03  0.10100000352E+00 0. -1.
</event>
<event>
 5   0  0.2662024E-05  0.2591892E+04  0.7818609E-02  0.8370960E-01
       -2   -1    0    0    0  501  0.00000000000E+00  0.00000000000E+00  0.92932186896E+03  0.92932186897E+03  0.25500000920E-02 0.  1.
        2   -1    0    0  501    0  0.00000000000E+00  0.00000000000E+00 -0.18072064318E+04  0.18072064318E+04  0.25500000920E-02 0. -1.
    10030    2    1    2    0    0  0.00000000000E+00  0.00000000000E+00 -0.87788456281E+03  0.27365283007E+04  0.25918923271E+04 0.  0.
        2    1    3    3  502    0 -0.56537520554E+03  0.16365870875E+03  0.78006161487E+03  0.97720490123E+03  0.25500000920E-02 0.  1.
       -2    1    3    3    0  502  0.56537520554E+03 -0.16365870875E+03 -0.16579461777E+04  0.17593233995E+04  0.25500000920E-02 0. -1.
</event>
<event>
 5   0  0.9855352E-06  0.2532028E+04  0.7818609E-02  0.8391664E-01
       -1   -1    0    0    0  501  0.00000000000E+00  0.00000000000E+00  0.62532524951E+03  0.62532524953E+03  0.50400001928E-02 0.  1.
        1   -1    0    0  501    0  0.00000000000E+00  0.00000000000E+00 -0.25631316723E+04  0.25631316723E+04  0.50400001928E-02 0. -1.
    10030    2    1    2    0    0  0.00000000000E+00  0.00000000000E+00 -0.19378064228E+04  0.31884569219E+04  0.25320276085E+04 0.  0.
        2    1    3    3  502    0  0.68461751707E+03 -0.51966507209E+03  0.20161599357E+03  0.88283743730E+03  0.25500000920E-02 0.  1.
       -2    1    3    3    0  502 -0.68461751707E+03  0.51966507209E+03 -0.21394224164E+04  0.23056194846E+04  0.25500000920E-02 0. -1.
</event>
<event>
 5   0  0.2528460E-05  0.2606589E+04  0.7818609E-02  0.8365966E-01
        2   -1    0    0  501    0  0.00000000000E+00  0.00000000000E+00  0.72101306131E+03  0.72101306132E+03  0.25500000920E-02 0. -1.
       -2   -1    0    0    0  501  0.00000000000E+00  0.00000000000E+00 -0.23558199187E+04  0.23558199187E+04  0.25500000920E-02 0.  1.
    10030    2    1    2    0    0  0.00000000000E+00  0.00000000000E+00 -0.16348068574E+04  0.30768329800E+04  0.26065892899E+04 0.  0.
        5    1    3    3  502    0 -0.74981435384E+03  0.31612376025E+03  0.38429313014E+03  0.89992171709E+03  0.46999998093E+01 0. -1.
       -5    1    3    3    0  502  0.74981435384E+03 -0.31612376025E+03 -0.20190999875E+04  0.21769112629E+04  0.46999998093E+01 0.  1.
</event>
<event>
 5   0  0.8605000E-06  0.2616761E+04  0.7818609E-02  0.8362530E-01
       -3   -1    0    0    0  501  0.00000000000E+00  0.00000000000E+00  0.13037422839E+04  0.13037422878E+04  0.10100000352E+00 0. -1.
        3   -1    0    0  501    0  0.00000000000E+00  0.00000000000E+00 -0.13130348283E+04  0.13130348322E+04  0.10100000352E+00 0.  1.
    10030    2    1    2    0    0  0.00000000000E+00  0.00000000000E+00 -0.92925444044E+01  0.26167771199E+04  0.26167606203E+04 0.  0.
        3    1    3    3  502    0 -0.31905650623E+03 -0.42789686418E+03  0.11899181842E+04  0.13041464932E+04  0.10100000352E+00 0. -1.
       -3    1    3    3    0  502  0.31905650623E+03  0.42789686418E+03 -0.11992107286E+04  0.13126306267E+04  0.10100000352E+00 0.  1.
</event>
<event>
 5   0  0.2528460E-05  0.2602726E+04  0.7818609E-02  0.8367276E-01
        2   -1    0    0  501    0  0.00000000000E+00  0.00000000000E+00  0.15930059927E+04  0.15930059927E+04  0.25500000920E-02 0. -1.
       -2   -1    0    0    0  501  0.00000000000E+00  0.00000000000E+00 -0.10631134371E+04  0.10631134371E+04  0.25500000920E-02 0.  1.
    10030    2    1    2    0    0  0.00000000000E+00  0.00000000000E+00  0.52989255563E+03  0.26561194298E+04  0.26027263216E+04 0.  0.
        5    1    3    3  502    0  0.49977053241E+03  0.81141356125E+03  0.11693323803E+04  0.15084836287E+04  0.46999998093E+01 0. -1.
       -5    1    3    3    0  502 -0.49977053241E+03 -0.81141356125E+03 -0.63943982472E+03  0.11476358011E+04  0.46999998093E+01 0.  1.
</event>
<event>
 5   0  0.2555801E-05  0.2611758E+04  0.7818609E-02  0.8364218E-01
       -2   -1    0    0    0  501  0.00000000000E+00  0.00000000000E+00  0.77247843129E+03  0.77247843129E+03  0.25500000920E-02 0.  1.
        2   -1    0    0  501    0  0.00000000000E+00  0.00000000000E+00 -0.22075951535E+04  0.22075951535E+04  0.25500000920E-02 0. -1.
    10030    2    1    2    0    0  0.00000000000E+00  0.00000000000E+00 -0.14351167222E+04  0.29800735847E+04  0.26117577537E+04 0.  0.
        1    1    3    3  502    0 -0.52179047986E+03 -0.31404069240E+03 -0.20356404120E+04  0.21247867536E+04  0.50400001928E-02 0. -1.
       -1    1    3    3    0  502  0.52179047986E+03  0.31404069240E+03  0.60052368986E+03  0.85528683110E+03  0.50400001928E-02 0.  1.
</event>
<event>
 5   0  0.2517854E-05  0.2629857E+04  0.7818609E-02  0.8358130E-01
       -2   -1    0    0    0  501  0.00000000000E+00  0.00000000000E+00  0.11554072136E+04  0.11554072136E+04  0.25500000920E-02 0.  1.
        2   -1    0    0  501    0  0.00000000000E+00  0.00000000000E+00 -0.14964739808E+04  0.14964739808E+04  0.25500000920E-02 0. -1.
    10030    2    1    2    0    0  0.00000000000E+00  0.00000000000E+00 -0.34106676726E+03  0.26518811944E+04  0.26298569029E+04 0.  0.
        4    1    3    3  502    0  0.76021701646E+03 -0.52029119354E+03 -0.11166889522E+04  0.14476286358E+04  0.12699999809E+01 0. -1.
       -4    1    3    3    0  502 -0.76021701646E+03  0.52029119354E+03  0.77562218499E+03  0.12042525586E+04  0.12699999809E+01 0.  1.
</event>
<event>
 5   0  0.9855352E-06  0.2608141E+04  0.7818609E-02  0.8365441E-01
        1   -1    0    0  501    0  0.00000000000E+00  0.00000000000E+00  0.16658516066E+04  0.16658516066E+04  0.50400001928E-02 0. -1.
       -1   -1    0    0    0  501  0.00000000000E+00  0.00000000000E+00 -0.10208594716E+04  0.10208594716E+04  0.50400001928E-02 0.  1.
    10030    2    1    2    0    0  0.00000000000E+00  0.00000000000E+00  0.64499213500E+03  0.26867110782E+04  0.26081414002E+04 0.  0.
        2    1    3    3  502    0  0.76965545733E+03 -0.57153559700E+03 -0.58820527463E+03  0.11247257029E+04  0.25500000920E-02 0.  1.
       -2    1    3    3    0  502 -0.76965545733E+03  0.57153559700E+03  0.12331974096E+04  0.15619853753E+04  0.25500000920E-02 0. -1.
</event>
<event>
 5   0  0.9855352E-06  0.2593220E+04  0.7818609E-02  0.8370508E-01
       -1   -1    0    0    0  501  0.00000000000E+00  0.00000000000E+00  0.80664356562E+03  0.80664356564E+03  0.50400001928E-02 0.  1.
        1   -1    0    0  501    0  0.00000000000E+00  0.00000000000E+00 -0.20841886193E+04  0.20841886193E+04  0.50400001928E-02 0. -1.
    10030    2    1    2    0    0  0.00000000000E+00  0.00000000000E+00 -0.12775450537E+04  0.28908321850E+04  0.25932198822E+04 0.  0.
        2    1    3    3  502    0  0.10277600300E+03 -0.23190658180E+03 -0.20562589583E+04  0.20718456682E+04  0.25500000920E-02 0. -1.
       -2    1    3    3    0  502 -0.10277600300E+03  0.23190658180E+03  0.77871390455E+03  0.81898651675E+03  0.25500000920E-02 0.  1.
</event>
<event>
 5   0  0.2528460E-05  0.2012887E+04  0.7818609E-02  0.8600619E-01
        2   -1    0    0  501    0  0.00000000000E+00  0.00000000000E+00  0.13925356869E+04  0.13925356869E+04  0.25500000920E-02 0. -1.
       -2   -1    0    0    0  501  0.00000000000E+00  0.00000000000E+00 -0.72739890737E+03  0.72739890738E+03  0.25500000920E-02 0.  1.
    10030    2    1    2    0    0  0.00000000000E+00  0.00000000000E+00  0.66513677955E+03  0.21199345943E+04  0.20128874158E+04 0.  0.
        5    1    3    3  502    0  0.87023203668E+03 -0.22196572170E+03 -0.14582884195E+03  0.90986851820E+03  0.46999998093E+01 0.  1.
       -5    1    3    3    0  502 -0.87023203668E+03  0.22196572170E+03  0.81096562150E+03  0.12100660761E+04  0.46999998093E+01 0. -1.
</event>
<event>
 5   0  0.2484618E-05  0.2484487E+04  0.7818609E-02  0.8408533E-01
       -2   -1    0    0    0  501  0.00000000000E+00  0.00000000000E+00  0.94749105827E+03  0.94749105827E+03  0.25500000920E-02 0.  1.
        2   -1    0    0  501    0  0.00000000000E+00  0.00000000000E+00 -0.16286895883E+04  0.16286895883E+04  0.25500000920E-02 0. -1.
    10030    2    1    2    0    0  0.00000000000E+00  0.00000000000E+00 -0.68119853005E+03  0.25761806466E+04  0.24844869262E+04 0.  0.
        3    1    3    3  502    0  0.10149722378E+04 -0.59729057573E+02  0.39948806172E+03  0.10923950409E+04  0.10100000352E+00 0.  1.
       -3    1    3    3    0  502 -0.10149722378E+04  0.59729057573E+02 -0.10806865918E+04  0.14837856057E+04  0.10100000352E+00 0. -1.
</event>
<event>
 5   0  0.9855352E-06  0.2639406E+04  0.7818609E-02  0.8354938E-01
       -1   -1    0    0    0  501  0.00000000000E+00  0.00000000000E+00  0.26191079488E+04  0.26191079488E+04  0.50400001928E-02 0. -1.
        1   -1    0    0  501    0  0.00000000000E+00  0.00000000000E+00 -0.66496516832E+03  0.66496516834E+03  0.50400001928E-02 0.  1.
    10030    2    1    2    0    0  0.00000000000E+00  0.00000000000E+00  0.19541427805E+04  0.32840731171E+04  0.26394056589E+04 0.  0.
        2    1    3    3  502    0 -0.69649259595E+03  0.13692563785E+02  0.23716977565E+04  0.24718898986E+04  0.25500000920E-02 0. -1.
       -2    1    3    3    0  502  0.69649259595E+03 -0.13692563785E+02 -0.41755497601E+03  0.81218321857E+03  0.25500000920E-02 0.  1.
</event>
<event>
 5   0  0.2517854E-05  0.2579372E+04  0.7818609E-02  0.8375242E-01
       -2   -1    0    0    0  501  0.00000000000E+00  0.00000000000E+00  0.10409239512E+04  0.10409239512E+04  0.25500000920E-02 0.  1.
        2   -1    0    0  501    0  0.00000000000E+00  0.00000000000E+00 -0.15978976641E+04  0.15978976641E+04  0.25500000920E-02 0. -1.
    10030    2    1    2    0    0  0.00000000000E+00  0.00000000000E+00 -0.55697371296E+03  0.26388216153E+04  0.25793719779E+04 0.  0.
        4    1    3    3  502    0  0.22106182454E+03  0.12129780164E+04  0.10852338339E+03  0.12377249032E+04  0.12699999809E+01 0.  1.
       -4    1    3    3    0  502 -0.22106182454E+03 -0.12129780164E+04 -0.66549709635E+03  0.14010967121E+04  0.12699999809E+01 0. -1.
</event>
<event>
 5   0  0.1005492E-05  0.2446756E+04  0.7818609E-02  0.8422204E-01
       -1   -1    0    0    0  501  0.00000000000E+00  0.00000000000E+00  0.89251483829E+03  0.89251483830E+03  0.50400001928E-02 0. -1.
        1   -1    0    0  501    0  0.00000000000E+00  0.00000000000E+00 -0.16768944563E+04  0.16768944563E+04  0.50400001928E-02 0.  1.
    10030    2    1    2    0    0  0.00000000000E+00  0.00000000000E+00 -0.78437961801E+03  0.25694092946E+04  0.24467555534E+04 0.  0.
        4    1    3    3  502    0  0.57636196843E+03  0.14607431205E+02 -0.15252811299E+04  0.16306105095E+04  0.12699999809E+01 0.  1.
       -4    1    3    3    0  502 -0.57636196843E+03 -0.14607431205E+02  0.74090151186E+03  0.93879878509E+03  0.12699999809E+01 0. -1.
</event>
<event>
 5   0  0.1000421E-05  0.2529844E+04  0.7818609E-02  0.8392430E-01
       -1   -1    0    0    0  501  0.00000000000E+00  0.00000000000E+00  0.63317991602E+03  0.63317991604E+03  0.50400001928E-02 0.  1.
        1   -1    0    0  501    0  0.00000000000E+00  0.00000000000E+00 -0.25269711144E+04  0.25269711144E+04  0.50400001928E-02 0. -1.
    10030    2    1    2    0    0  0.00000000000E+00  0.00000000000E+00 -0.18937911984E+04  0.31601510305E+04  0.25298437565E+04 0.  0.
        3    1    3    3  502    0 -0.38401622019E+03  0.21411438690E+03  0.53465685264E+03  0.69222206576E+03  0.10100000352E+00 0.  1.
       -3    1    3    3    0  502  0.38401622019E+03 -0.21411438690E+03 -0.24284480511E+04  0.24679289647E+04  0.10100000352E+00 0. -1.
</event>
<event>
 5   0  0.2555801E-05  0.2596334E+04  0.7818609E-02  0.8369447E-01
       -2   -1    0    0    0  501  0.00000000000E+00  0.00000000000E+00  0.10332018744E+04  0.10332018744E+04  0.25500000920E-02 0.  1.
        2   -1    0    0  501    0  0.00000000000E+00  0.00000000000E+00 -0.16310831415E+04  0.16310831415E+04  0.25500000920E-02 0. -1.
    10030    2    1    2    0    0  0.00000000000E+00  0.00000000000E+00 -0.59788126710E+03  0.26642850159E+04  0.25963344615E+04 0.  0.
        1    1    3    3  502    0  0.76059045837E+03 -0.85646819340E+03  0.32795081286E+03  0.11914643710E+04  0.50400001928E-02 0. -1.
       -1    1    3    3    0  502 -0.76059045837E+03  0.85646819340E+03 -0.92583207995E+03  0.14728206449E+04  0.50400001928E-02 0.  1.
</event>
<event>
 5   0  0.9855352E-06  0.2576309E+04  0.7818609E-02  0.8376293E-01
        1   -1    0    0  501    0  0.00000000000E+00  0.00000000000E+00  0.13341537390E+04  0.13341537391E+04  0.50400001928E-02 0.  1.
       -1   -1    0    0    0  501  0.00000000000E+00  0.00000000000E+00 -0.12437410085E+04  0.12437410085E+04  0.50400001928E-02 0. -1.
    10030    2    1    2    0    0  0.00000000000E+00  0.00000000000E+00  0.90412730513E+02  0.25778947476E+04  0.25763087680E+04 0.  0.
        2    1    3    3  502    0 -0.50348593160E+03 -0.29584836701E+03 -0.11036804844E+04  0.12486532550E+04  0.25500000920E-02 0. -1.
       -2    1    3    3    0  502  0.50348593160E+03  0.29584836701E+03  0.11940932149E+04  0.13292414926E+04  0.25500000920E-02 0.  1.
</event>
<event>
 5   0  0.2555801E-05  0.2559124E+04  0.7818609E-02  0.8382220E-01
        2   -1    0    0  501    0  0.00000000000E+00  0.00000000000E+00  0.19654078625E+04  0.19654078625E+04  0.25500000920E-02 0. -1.
       -2   -1    0    0    0  501  0.00000000000E+00  0.00000000000E+00 -0.83304770699E+03  0.83304770699E+03  0.25500000920E-02 0.  1.
    10030    2    1    2    0    0  0.00000000000E+00  0.00000000000E+00  0.11323601555E+04  0.27984555695E+04  0.25591236884E+04 0.  0.
        1    1    3    3  502    0  0.49899115954E+03 -0.79490933547E+03  0.15172325388E+04  0.17840593055E+04  0.50400001928E-02 0. -1.
       -1    1    3    3    0  502 -0.49899115954E+03  0.79490933547E+03 -0.38487238326E+03  0.10143962640E+04  0.50400001928E-02 0.  1.
</event>
<event>
 5   0  0.2484618E-05  0.2601341E+04  0.7818609E-02  0.8367746E-01
        2   -1    0    0  501    0  0.00000000000E+00  0.00000000000E+00  0.21352862986E+04  0.21352862986E+04  0.25500000920E-02 0.  1.
       -2   -1    0    0    0  501  0.00000000000E+00  0.00000000000E+00 -0.79227932526E+03  0.79227932526E+03  0.25500000920E-02 0. -1.
    10030    2    1    2    0    0  0.00000000000E+00  0.00000000000E+00  0.13430069734E+04  0.29275656239E+04  0.26013405682E+04 0.  0.
        3    1    3    3  502    0  0.11212743874E+04  0.52029786632E+03  0.11269485044E+04  0.16727160737E+04  0.10100000352E+00 0.  1.
       -3    1    3    3    0  502 -0.11212743874E+04 -0.52029786632E+03  0.21605846897E+03  0.12548495502E+04  0.10100000352E+00 0. -1.
</event>
<event>
 5   0  0.1025153E-05  0.2627595E+04  0.7818609E-02  0.8358888E-01
        1   -1    0    0  501    0  0.00000000000E+00  0.00000000000E+00  0.85323397274E+03  0.85323397275E+03  0.50400001928E-02 0.  1.
       -1   -1    0    0    0  501  0.00000000000E+00  0.00000000000E+00 -0.20229669293E+04  0.20229669293E+04  0.50400001928E-02 0. -1.
    10030    2    1    2    0    0  0.00000000000E+00  0.00000000000E+00 -0.11697329566E+04  0.28762009021E+04  0.26275951818E+04 0.  0.
        1    1    3    3  502    0 -0.10251586142E+04 -0.56908916811E+03 -0.12336051999E+04  0.17019384404E+04  0.50400001928E-02 0. -1.
       -1    1    3    3    0  502  0.10251586142E+04  0.56908916811E+03  0.63872243365E+02  0.11742624617E+04  0.50400001928E-02 0.  1.
</event>
<event>
 5   0  0.1025153E-05  0.2169246E+04  0.7818609E-02  0.8531339E-01
       -1   -1    0    0    0  501  0.00000000000E+00  0.00000000000E+00  0.10109521677E+04  0.10109521677E+04  0.50400001928E-02 0.  1.
        1   -1    0    0  501    0  0.00000000000E+00  0.00000000000E+00 -0.11636628670E+04  0.11636628670E+04  0.50400001928E-02 0. -1.
    10030    2    1    2    0    0  0.00000000000E+00  0.00000000000E+00 -0.15271069922E+03  0.21746150347E+04  0.21692464110E+04 0.  0.
        1    1    3    3  502    0 -0.85963758903E+03 -0.42976286591E+03  0.42761599469E+03  0.10519165101E+04  0.50400001928E-02 0.  1.
       -1    1    3    3    0  502  0.85963758903E+03  0.42976286591E+03 -0.58032669391E+03  0.11226985246E+04  0.50400001928E-02 0. -1.
</event>
<event>
 5   0  0.2555801E-05  0.2564193E+04  0.7818609E-02  0.8380467E-01
        2   -1    0    0  501    0  0.00000000000E+00  0.00000000000E+00  0.18873490195E+04  0.18873490195E+04  0.25500000920E-02 0. -1.
       -2   -1    0    0    0  501  0.00000000000E+00  0.00000000000E+00 -0.87094219393E+03  0.87094219393E+03  0.25500000920E-02 0.  1.
    10030    2    1    2    0    0  0.00000000000E+00  0.00000000000E+00  0.10164068256E+04  0.27582912134E+04  0.25641933591E+04 0.  0.
        1    1    3    3  502    0  0.24152508330E+03  0.11360089388E+04  0.10923775910E+04  0.15944088172E+04  0.50400001928E-02 0. -1.
       -1    1    3    3    0  502 -0.24152508330E+03 -0.11360089388E+04 -0.75970765470E+02  0.11638823962E+04  0.50400001928E-02 0.  1.
</event>
<event>
 5   0  0.9855352E-06  0.2551903E+04  0.7818609E-02  0.8384725E-01
       -1   -1    0    0    0  501  0.00000000000E+00  0.00000000000E+00  0.10571837634E+04  0.10571837634E+04  0.50400001928E-02 0. -1.
        1   -1    0    0  501    0  0.00000000000E+00  0.00000000000E+00 -0.15399902600E+04  0.15399902600E+04  0.50400001928E-02 0.  1.
    10030    2    1    2    0    0  0.00000000000E+00  0.00000000000E+00 -0.48280649663E+03  0.25971740234E+04  0.25519033671E+04 0.  0.
        2    1    3    3  502    0  0.57447167553E+02 -0.12744710430E+04 -0.21919686494E+03  0.12944589148E+04  0.25500000920E-02 0. -1.
       -2    1    3    3    0  502 -0.57447167553E+02  0.12744710430E+04 -0.26360963170E+03  0.13027151087E+04  0.25500000920E-02 0.  1.
</event>
<event>
 5   0  0.1025153E-05  0.2605407E+04  0.7818609E-02  0.8366367E-01
       -1   -1    0    0    0  501  0.00000000000E+00  0.00000000000E+00  0.11858078319E+04  0.11858078319E+04  0.50400001928E-02 0. -1.
        1   -1    0    0  501    0  0.00000000000E+00  0.00000000000E+00 -0.14311225052E+04  0.14311225052E+04  0.50400001928E-02 0.  1.
    10030    2    1    2    0    0  0.00000000000E+00  0.00000000000E+00 -0.24531467327E+03  0.26169303371E+04  0.26054068972E+04 0.  0.
        1    1    3    3  502    0  0.12417259683E+04  0.22123244479E+03  0.20468144950E+03  0.12777799775E+04  0.50400001928E-02 0. -1.
       -1    1    3    3    0  502 -0.12417259683E+04 -0.22123244479E+03 -0.44999612277E+03  0.13391503596E+04  0.50400001928E-02 0.  1.
</event>
<event>
 5   0  0.2484618E-05  0.2573610E+04  0.7818609E-02  0.8377221E-01
       -2   -1    0    0    0  501  0.00000000000E+00  0.00000000000E+00  0.14531856168E+04  0.14531856168E+04  0.25500000920E-02 0.  1.
        2   -1    0    0  501    0  0.00000000000E+00  0.00000000000E+00 -0.11394740378E+04  0.11394740378E+04  0.25500000920E-02 0. -1.
    10030    2    1    2    0    0  0.00000000000E+00  0.00000000000E+00  0.31371157899E+03  0.25926596546E+04  0.25736101356E+04 0.  0.
        3    1    3    3  502    0  0.79388406331E+03 -0.80361007446E+03 -0.46400640960E+03  0.12212055585E+04  0.10100000352E+00 0. -1.
       -3    1    3    3    0  502 -0.79388406331E+03  0.80361007446E+03  0.77771798860E+03  0.13714540961E+04  0.10100000352E+00 0.  1.
</event>
<event>
 5   0  0.1005492E-05  0.2600676E+04  0.7818609E-02  0.8367972E-01
        1   -1    0    0  501    0  0.00000000000E+00  0.00000000000E+00  0.21841969614E+04  0.21841969614E+04  0.50400001928E-02 0.  1.
       -1   -1    0    0    0  501  0.00000000000E+00  0.00000000000E+00 -0.77414192615E+03  0.77414192617E+03  0.50400001928E-02 0. -1.
    10030    2    1    2    0    0  0.00000000000E+00  0.00000000000E+00  0.14100550352E+04  0.29583388875E+04  0.26006756374E+04 0.  0.
        4    1    3    3  502    0 -0.80596354284E+03  0.90993919211E+03  0.17965468682E+03  0.12287570895E+04  0.12699999809E+01 0. -1.
       -4    1    3    3    0  502  0.80596354284E+03 -0.90993919211E+03  0.12304003484E+04  0.17295817980E+04  0.12699999809E+01 0.  1.
</event>
<event>
 5   0  0.1025153E-05  0.2636227E+04  0.7818609E-02  0.8355999E-01
        1   -1    0    0  501    0  0.00000000000E+00  0.00000000000E+00  0.14424544952E+04  0.14424544952E+04  0.50400001928E-02 0.  1.
       -1   -1    0    0    0  501  0.00000000000E+00  0.00000000000E+00 -0.12044904100E+04  0.12044904100E+04  0.50400001928E-02 0. -1.
    10030    2    1    2    0    0  0.00000000000E+00  0.00000000000E+00  0.23796408524E+03  0.26469449052E+04  0.26362265504E+04 0.  0.
        1    1    3    3  502    0 -0.89486648528E+03 -0.68759466393E+03  0.80281657251E+03  0.13849501426E+04  0.50400001928E-02 0.  1.
       -1    1    3    3    0  502  0.89486648528E+03  0.68759466393E+03 -0.56485248728E+03  0.12619947626E+04  0.50400001928E-02 0. -1.
</event>
<event>
 5   0  0.1005492E-05  0.2558435E+04  0.7818609E-02  0.8382458E-01
       -1   -1    0    0    0  501  0.00000000000E+00  0.00000000000E+00  0.10996824028E+04  0.10996824028E+04  0.50400001928E-02 0. -1.
        1   -1    0    0  501    0  0.00000000000E+00  0.00000000000E+00 -0.14880642147E+04  0.14880642147E+04  0.50400001928E-02 0.  1.
    10030    2    1    2    0    0  0.00000000000E+00  0.00000000000E+00 -0.38838181192E+03  0.25877466175E+04  0.25584354838E+04 0.  0.
        4    1    3    3  502    0 -0.96418486623E+03 -0.73491913878E+03 -0.60708062528E+03  0.13558418401E+04  0.12699999809E+01 0.  1.
       -4    1    3    3    0  502  0.96418486623E+03  0.73491913878E+03  0.21869881335E+03  0.12319047774E+04  0.12699999809E+01 0. -1.
</event>
<event>
 5   0  0.2662024E-05  0.2588400E+04  0.7818609E-02  0.8372152E-01
       -2   -1    0    0    0  501  0.00000000000E+00  0.00000000000E+00  0.11729885049E+04  0.11729885049E+04  0.25500000920E-02 0.  1.
        2   -1    0    0  501    0  0.00000000000E+00  0.00000000000E+00 -0.14279368835E+04  0.14279368835E+04  0.25500000920E-02 0. -1.
    10030    2    1    2    0    0  0.00000000000E+00  0.00000000000E+00 -0.25494837860E+03  0.26009253884E+04  0.25883999305E+04 0.  0.
        2    1    3    3  502    0  0.38355072095E+03  0.12331740074E+04 -0.21228797632E+03  0.13087763266E+04  0.25500000920E-02 0.  1.
       -2    1    3    3    0  502 -0.38355072095E+03 -0.12331740074E+04 -0.42660402282E+02  0.12921490618E+04  0.25500000920E-02 0. -1.
</event>
<event>
 5   0  0.2517854E-05  0.2572594E+04  0.7818609E-02  0.8377570E-01
        2   -1    0    0  501    0  0.00000000000E+00  0.00000000000E+00  0.19214924389E+04  0.19214924389E+04  0.25500000920E-02 0. -1.
       -2   -1    0    0    0  501  0.00000000000E+00  0.00000000000E+00 -0.86108071215E+03  0.86108071216E+03  0.25500000920E-02 0.  1.
    10030    2    1    2    0    0  0.00000000000E+00  0.00000000000E+00  0.10604117267E+04  0.27825731510E+04  0.25725940820E+04 0.  0.
        4    1    3    3  502    0 -0.14915670053E+03  0.12432537848E+04  0.84856066987E+03  0.15126085145E+04  0.12699999809E+01 0. -1.
       -4    1    3    3    0  502  0.14915670053E+03 -0.12432537848E+04  0.21185105687E+03  0.12699646365E+04  0.12699999809E+01 0.  1.
</event>
<event>
 5   0  0.2484618E-05  0.2466000E+04  0.7818609E-02  0.8415199E-01
        2   -1    0    0  501    0  0.00000000000E+00  0.00000000000E+00  0.29931488608E+04  0.29931488608E+04  0.25500000920E-02 0.  1.
       -2   -1    0    0    0  501  0.00000000000E+00  0.00000000000E+00 -0.50792280265E+03  0.50792280266E+03  0.25500000920E-02 0. -1.
    10030    2    1    2    0    0  0.00000000000E+00  0.00000000000E+00  0.24852260581E+04  0.35010716634E+04  0.24659996416E+04 0.  0.
        3    1    3    3  502    0  0.39797983390E+03  0.21524301448E+01 -0.41422463329E+03  0.57443418959E+03  0.10100000352E+00 0. -1.
       -3    1    3    3    0  502 -0.39797983390E+03 -0.21524301448E+01  0.28994506914E+04  0.29266374738E+04  0.10100000352E+00 0.  1.
</event>
<event>
 5   0  0.1000421E-05  0.2605155E+04  0.7818609E-02  0.8366452E-01
        1   -1    0    0  501    0  0.00000000000E+00  0.00000000000E+00  0.31765023612E+04  0.31765023612E+04  0.50400001928E-02 0. -1.
       -1   -1    0    0    0  501  0.00000000000E+00  0.00000000000E+00 -0.53414338606E+03  0.53414338608E+03  0.50400001928E-02 0.  1.
    10030    2    1    2    0    0  0.00000000000E+00  0.00000000000E+00  0.26423589752E+04  0.37106457473E+04  0.26051546803E+04 0.  0.
        3    1    3    3  502    0  0.99828481569E+03  0.52622964645E+03  0.39456776492E+03  0.11954806336E+04  0.10100000352E+00 0. -1.
       -3    1    3    3    0  502 -0.99828481569E+03 -0.52622964645E+03  0.22477912102E+04  0.25151651137E+04  0.10100000352E+00 0.  1.
</event>
<event>
 5   0  0.2528460E-05  0.2584288E+04  0.7818609E-02  0.8373558E-01
        2   -1    0    0  501    0  0.00000000000E+00  0.00000000000E+00  0.25554182913E+04  0.25554182913E+04  0.25500000920E-02 0. -1.
       -2   -1    0    0    0  501  0.00000000000E+00  0.00000000000E+00 -0.65337092264E+03  0.65337092264E+03  0.25500000920E-02 0.  1.
    10030    2    1    2    0    0  0.00000000000E+00  0.00000000000E+00  0.19020473687E+04  0.32087892140E+04  0.25842879149E+04 0.  0.
        5    1    3    3  502    0 -0.33869800360E+03  0.66408651090E+02  0.24971124446E+04  0.25208568182E+04  0.46999998093E+01 0. -1.
       -5    1    3    3    0  502  0.33869800360E+03 -0.66408651090E+02 -0.59506507595E+03  0.68793239580E+03  0.46999998093E+01 0.  1.
</event>
<event>
 5   0  0.2662024E-05  0.2595346E+04  0.7818609E-02  0.8369784E-01
        2   -1    0    0  501    0  0.00000000000E+00  0.00000000000E+00  0.15007609954E+04  0.15007609954E+04  0.25500000920E-02 0.  1.
       -2   -1    0    0    0  501  0.00000000000E+00  0.00000000000E+00 -0.11220675369E+04  0.11220675369E+04  0.25500000920E-02 0. -1.
    10030    2    1    2    0    0  0.00000000000E+00  0.00000000000E+00  0.37869345857E+03  0.26228285323E+04  0.25953459835E+04 0.  0.
        2    1    3    3  502    0 -0.51298737164E+03  0.69518060422E+03  0.11678575248E+04  0.14526951897E+04  0.25500000920E-02 0.  1.
       -2    1    3    3    0  502  0.51298737164E+03 -0.69518060422E+03 -0.78916406624E+03  0.11701333426E+04  0.25500000920E-02 0. -1.
</event>
<event>
 5   0  0.1000421E-05  0.2586595E+04  0.7818609E-02  0.8372769E-01
        1   -1    0    0  501    0  0.00000000000E+00  0.00000000000E+00  0.11464981539E+04  0.11464981539E+04  0.50400001928E-02 0. -1.
       -1   -1    0    0    0  501  0.00000000000E+00  0.00000000000E+00 -0.14588934886E+04  0.14588934886E+04  0.50400001928E-02 0.  1.
    10030    2    1    2    0    0  0.00000000000E+00  0.00000000000E+00 -0.31239533472E+03  0.26053916425E+04  0.25865952071E+04 0.  0.
        3    1    3    3  502    0 -0.70722785314E+03  0.41948083510E+03  0.84929649582E+03  0.11821336453E+04  0.10100000352E+00 0.  1.
       -3    1    3    3    0  502  0.70722785314E+03 -0.41948083510E+03 -0.11616918305E+04  0.14232579972E+04  0.10100000352E+00 0. -1.
</event>
<event>
 5   0  0.2528460E-05  0.2673967E+04  0.7818609E-02  0.8343501E-01
       -2   -1    0    0    0  501  0.00000000000E+00  0.00000000000E+00  0.90763130250E+03  0.90763130250E+03  0.25500000920E-02 0. -1.
        2   -1    0    0  501    0  0.00000000000E+00  0.00000000000E+00 -0.19694397338E+04  0.19694397338E+04  0.25500000920E-02 0.  1.
    10030    2    1    2    0    0  0.00000000000E+00  0.00000000000E+00 -0.10618084313E+04  0.28770710363E+04  0.26739672031E+04 0.  0.
        5    1    3    3  502    0  0.73218820073E+03 -0.11119299162E+04 -0.39905960012E+03  0.13898771004E+04  0.46999998093E+01 0.  1.
       -5    1    3    3    0  502 -0.73218820073E+03  0.11119299162E+04 -0.66274883114E+03  0.14871939359E+04  0.46999998093E+01 0. -1.
</event>
<event>
 5   0  0.8605000E-06  0.2644689E+04  0.7818609E-02  0.8353178E-01
        3   -1    0    0  501    0  0.00000000000E+00  0.00000000000E+00  0.58980676492E+03  0.58980677357E+03  0.10100000352E+00 0.  1.
       -3   -1    0    0    0  501  0.00000000000E+00  0.00000000000E+00 -0.29646914467E+04  0.29646914484E+04  0.10100000352E+00 0. -1.
    10030    2    1    2    0    0  0.00000000000E+00  0.00000000000E+00 -0.23748846818E+04  0.35544982220E+04  0.26446890854E+04 0.  0.
        2    1    3    3  502    0  0.42301629674E+03 -0.25721457892E+03 -0.28354316055E+04  0.28783284240E+04  0.25500000920E-02 0. -1.
       -2    1    3    3    0  502 -0.42301629674E+03  0.25721457892E+03  0.46054692365E+03  0.67616979806E+03  0.25500000920E-02 0.  1.
</event>
<event>
 5   0  0.2528460E-05  0.2741415E+04  0.7818609E-02  0.8321691E-01
        2   -1    0    0  501    0  0.00000000000E+00  0.00000000000E+00  0.11226467613E+04  0.11226467613E+04  0.25500000920E-02 0. -1.
       -2   -1    0    0    0  501  0.00000000000E+00  0.00000000000E+00 -0.16735802722E+04  0.16735802722E+04  0.25500000920E-02 0.  1.
    10030    2    1    2    0    0  0.00000000000E+00  0.00000000000E+00 -0.55093351091E+03  0.27962270334E+04  0.27414153077E+04 0.  0.
        5    1    3    3  502    0 -0.67398046666E+03  0.10182242597E+04 -0.91064301672E+03  0.15232606823E+04  0.46999998093E+01 0.  1.
       -5    1    3    3    0  502  0.67398046666E+03 -0.10182242597E+04  0.35970950581E+03  0.12729663511E+04  0.46999998093E+01 0. -1.
</event>
<event>
 5   0  0.2555801E-05  0.2633212E+04  0.7818609E-02  0.8357007E-01
        2   -1    0    0  501    0  0.00000000000E+00  0.00000000000E+00  0.13791662372E+04  0.13791662372E+04  0.25500000920E-02 0.  1.
       -2   -1    0    0    0  501  0.00000000000E+00  0.00000000000E+00 -0.12568832897E+04  0.12568832897E+04  0.25500000920E-02 0. -1.
    10030    2    1    2    0    0  0.00000000000E+00  0.00000000000E+00  0.12228294748E+03  0.26360495269E+04  0.26332117251E+04 0.  0.
        1    1    3    3  502    0  0.11507708814E+04  0.60714915834E+03 -0.14043907505E+03  0.13086737010E+04  0.50400001928E-02 0. -1.
       -1    1    3    3    0  502 -0.11507708814E+04 -0.60714915834E+03  0.26272202253E+03  0.13273758259E+04  0.50400001928E-02 0.  1.
</event>
<event>
 5   0  0.2517854E-05  0.2471961E+04  0.7818609E-02  0.8413043E-01
       -2   -1    0    0    0  501  0.00000000000E+00  0.00000000000E+00  0.13660757677E+04  0.13660757677E+04  0.25500000920E-02 0.  1.
        2   -1    0    0  501    0  0.00000000000E+00  0.00000000000E+00 -0.11182744485E+04  0.11182744485E+04  0.25500000920E-02 0. -1.
    10030    2    1    2    0    0  0.00000000000E+00  0.00000000000E+00  0.24780131921E+03  0.24843502163E+04  0.24719608620E+04 0.  0.
        4    1    3    3  502    0  0.49523752511E+03  0.97928749503E+03 -0.44761616563E+03  0.11851692068E+04  0.12699999809E+01 0. -1.
       -4    1    3    3    0  502 -0.49523752511E+03 -0.97928749503E+03  0.69541748484E+03  0.12991810094E+04  0.12699999809E+01 0.  1.
</event>
<event>
 5   0  0.1000421E-05  0.2590992E+04  0.7818609E-02  0.8371267E-01
        1   -1    0    0  501    0  0.00000000000E+00  0.00000000000E+00  0.18657027022E+04  0.18657027022E+04  0.50400001928E-02 0. -1.
       -1   -1    0    0    0  501  0.00000000000E+00  0.00000000000E+00 -0.89955912096E+03  0.89955912098E+03  0.50400001928E-02 0.  1.
    10030    2    1    2    0    0  0.00000000000E+00  0.00000000000E+00  0.96614358125E+03  0.27652618232E+04  0.25909919975E+04 0.  0.
        3    1    3    3  502    0  0.58642730809E+03  0.12356665245E+03  0.17088624764E+04  0.18109049336E+04  0.10100000352E+00 0. -1.
       -3    1    3    3    0  502 -0.58642730809E+03 -0.12356665245E+03 -0.74271889513E+03  0.95435688956E+03  0.10100000352E+00 0.  1.
</event>
<event>
 5   0  0.1005492E-05  0.2651246E+04  0.7818609E-02  0.8350999E-01
       -1   -1    0    0    0  501  0.00000000000E+00  0.00000000000E+00  0.11080379434E+04  0.11080379434E+04  0.50400001928E-02 0.  1.
        1   -1    0    0  501    0  0.00000000000E+00  0.00000000000E+00 -0.15859353256E+04  0.15859353256E+04  0.50400001928E-02 0. -1.
    10030    2    1    2    0    0  0.00000000000E+00  0.00000000000E+00 -0.47789738219E+03  0.26939732691E+04  0.26512461347E+04 0.  0.
        4    1    3    3  502    0  0.34199650860E+03  0.27344362963E+03  0.10324319018E+04  0.11214500770E+04  0.12699999809E+01 0.  1.
       -4    1    3    3    0  502 -0.34199650860E+03 -0.27344362963E+03 -0.15103292840E+04  0.15725231920E+04  0.12699999809E+01 0. -1.
</event>
<event>
 5   0  0.2555801E-05  0.2591135E+04  0.7818609E-02  0.8371219E-01
        2   -1    0    0  501    0  0.00000000000E+00  0.00000000000E+00  0.12293903655E+04  0.12293903655E+04  0.25500000920E-02 0.  1.
       -2   -1    0    0    0  501  0.00000000000E+00  0.00000000000E+00 -0.13653067040E+04  0.13653067040E+04  0.25500000920E-02 0. -1.
    10030    2    1    2    0    0  0.00000000000E+00  0.00000000000E+00 -0.13591633851E+03  0.25946970695E+04  0.25911348154E+04 0.  0.
        1    1    3    3  502    0  0.29844723191E+03 -0.62539665170E+03 -0.11641334608E+04  0.13547687761E+04  0.50400001928E-02 0. -1.
       -1    1    3    3    0  502 -0.29844723191E+03  0.62539665170E+03  0.10282171223E+04  0.12399282934E+04  0.50400001928E-02 0.  1.
</event>
<event>
 5   0  0.1025153E-05  0.2564379E+04  0.7818609E-02  0.8380402E-01
        1   -1    0    0  501    0  0.00000000000E+00  0.00000000000E+00  0.15291428825E+04  0.15291428825E+04  0.50400001928E-02 0.  1.
       -1   -1    0    0    0  501  0.00000000000E+00  0.00000000000E+00 -0.10751189637E+04  0.10751189637E+04  0.50400001928E-02 0. -1.
    10030    2    1    2    0    0  0.00000000000E+00  0.00000000000E+00  0.45402391888E+03  0.26042618462E+04  0.25643794658E+04 0.  0.
        1    1    3    3  502    0 -0.44009242466E+03 -0.68475546798E+03 -0.77907157113E+03  0.11267315147E+04  0.50400001928E-02 0. -1.
       -1    1    3    3    0  502  0.44009242466E+03  0.68475546798E+03  0.12330954900E+04  0.14775303316E+04  0.50400001928E-02 0.  1.
</event>
<event>
 5   0  0.2517854E-05  0.2593056E+04  0.7818609E-02  0.8370564E-01
        2   -1    0    0  501    0  0.00000000000E+00  0.00000000000E+00  0.15150758035E+04  0.15150758035E+04  0.25500000920E-02 0.  1.
       -2   -1    0    0    0  501  0.00000000000E+00  0.00000000000E+00 -0.11095056502E+04  0.11095056502E+04  0.25500000920E-02 0. -1.
    10030    2    1    2    0    0  0.00000000000E+00  0.00000000000E+00  0.40557015327E+03  0.26245814537E+04  0.25930562389E+04 0.  0.
        4    1    3    3  502    0  0.40279012228E+03 -0.12316283178E+04  0.15942318258E+03  0.13055901194E+04  0.12699999809E+01 0.  1.
       -4    1    3    3    0  502 -0.40279012228E+03  0.12316283178E+04  0.24614697070E+03  0.13189913343E+04  0.12699999809E+01 0. -1.
</event>
<event>
 5   0  0.2528460E-05  0.2597198E+04  0.7818609E-02  0.8369153E-01
        2   -1    0    0  501    0  0.00000000000E+00  0.00000000000E+00  0.15685380542E+04  0.15685380542E+04  0.25500000920E-02 0.  1.
       -2   -1    0    0    0  501  0.00000000000E+00  0.00000000000E+00 -0.10751156237E+04  0.10751156237E+04  0.25500000920E-02 0. -1.
    10030    2    1    2    0    0  0.00000000000E+00  0.00000000000E+00  0.49342243056E+03  0.26436536779E+04  0.25971983124E+04 0.  0.
        5    1    3    3  502    0 -0.64344378663E+03  0.11993270195E+03 -0.89492664575E+03  0.11087468380E+04  0.46999998093E+01 0. -1.
       -5    1    3    3    0  502  0.64344378663E+03 -0.11993270195E+03  0.13883490763E+04  0.15349068399E+04  0.46999998093E+01 0.  1.
</event>
<event>
 5   0  0.2528460E-05  0.2602016E+04  0.7818609E-02  0.8367517E-01
        2   -1    0    0  501    0  0.00000000000E+00  0.00000000000E+00  0.11055862098E+04  0.11055862098E+04  0.25500000920E-02 0. -1.
       -2   -1    0    0    0  501  0.00000000000E+00  0.00000000000E+00 -0.15309721058E+04  0.15309721058E+04  0.25500000920E-02 0.  1.
    10030    2    1    2    0    0  0.00000000000E+00  0.00000000000E+00 -0.42538589600E+03  0.26365583157E+04  0.26020158707E+04 0.  0.
        5    1    3    3  502    0 -0.53430495172E+03  0.22678012898E+03  0.96710436939E+03  0.11279290579E+04  0.46999998093E+01 0. -1.
       -5    1    3    3    0  502  0.53430495172E+03 -0.22678012898E+03 -0.13924902654E+04  0.15086292578E+04  0.46999998093E+01 0.  1.
</event>
<event>
 5   0  0.1005492E-05  0.2587569E+04  0.7818609E-02  0.8372436E-01
        1   -1    0    0  501    0  0.00000000000E+00  0.00000000000E+00  0.13710122474E+04  0.13710122474E+04  0.50400001928E-02 0.  1.
       -1   -1    0    0    0  501  0.00000000000E+00  0.00000000000E+00 -0.12209069047E+04  0.12209069047E+04  0.50400001928E-02 0. -1.
    10030    2    1    2    0    0  0.00000000000E+00  0.00000000000E+00  0.15010534269E+03  0.25919191521E+04  0.25875689898E+04 0.  0.
        4    1    3    3  502    0  0.51404037246E+03  0.46843596279E+03 -0.10177474990E+04  0.12326724384E+04  0.12699999809E+01 0. -1.
       -4    1    3    3    0  502 -0.51404037246E+03 -0.46843596279E+03  0.11678528417E+04  0.13592467137E+04  0.12699999809E+01 0.  1.
</event>
<event>
 5   0  0.1005492E-05  0.2593356E+04  0.7818609E-02  0.8370461E-01
        1   -1    0    0  501    0  0.00000000000E+00  0.00000000000E+00  0.12565132413E+04  0.12565132413E+04  0.50400001928E-02 0. -1.
       -1   -1    0    0    0  501  0.00000000000E+00  0.00000000000E+00 -0.13381268046E+04  0.13381268046E+04  0.50400001928E-02 0.  1.
    10030    2    1    2    0    0  0.00000000000E+00  0.00000000000E+00 -0.81613563299E+02  0.25946400460E+04  0.25933561642E+04 0.  0.
        4    1    3    3  502    0 -0.86544044391E+03 -0.96459592308E+03  0.32602151360E+01  0.12959339098E+04  0.12699999809E+01 0.  1.
       -4    1    3    3    0  502  0.86544044391E+03  0.96459592308E+03 -0.84873778435E+02  0.12987061361E+04  0.12699999809E+01 0. -1.
</event>
<event>
 5   0  0.1025153E-05  0.2602336E+04  0.7818609E-02  0.8367408E-01
        1   -1    0    0  501    0  0.00000000000E+00  0.00000000000E+00  0.18281831582E+04  0.18281831582E+04  0.50400001928E-02 0. -1.
       -1   -1    0    0    0  501  0.00000000000E+00  0.00000000000E+00 -0.92607709898E+03  0.92607709900E+03  0.50400001928E-02 0.  1.
    10030    2    1    2    0    0  0.00000000000E+00  0.00000000000E+00  0.90210605922E+03  0.27542602572E+04  0.26023363008E+04 0.  0.
        1    1    3    3  502    0  0.10548627699E+04  0.60959254869E+03  0.93456006483E+03  0.15354937491E+04  0.50400001928E-02 0. -1.
       -1    1    3    3    0  502 -0.10548627699E+04 -0.60959254869E+03 -0.32454005617E+02  0.12187665081E+04  0.50400001928E-02 0.  1.
</event>
<event>
 5   0  0.2528460E-05  0.2627442E+04  0.7818609E-02  0.8358939E-01
        2   -1    0    0  501    0  0.00000000000E+00  0.00000000000E+00  0.14612869801E+04  0.14612869801E+04  0.25500000920E-02 0. -1.
       -2   -1    0    0    0  501  0.00000000000E+00  0.00000000000E+00 -0.11810568795E+04  0.11810568795E+04  0.25500000920E-02 0.  1.
    10030    2    1    2    0    0  0.00000000000E+00  0.00000000000E+00  0.28023010060E+03  0.26423438595E+04  0.26274421331E+04 0.  0.
        5    1    3    3  502    0  0.32900091061E+03 -0.33598164811E+02 -0.11385007514E+04  0.11855701104E+04  0.46999998093E+01 0.  1.
       -5    1    3    3    0  502 -0.32900091061E+03  0.33598164811E+02  0.14187308520E+04  0.14567737491E+04  0.46999998093E+01 0. -1.
</event>
<event>
 5   0  0.2555801E-05  0.2626516E+04  0.7818609E-02  0.8359250E-01
        2   -1    0    0  501    0  0.00000000000E+00  0.00000000000E+00  0.20522847816E+04  0.20522847816E+04  0.25500000920E-02 0. -1.
       -2   -1    0    0    0  501  0.00000000000E+00  0.00000000000E+00 -0.84035413537E+03  0.84035413537E+03  0.25500000920E-02 0.  1.
    10030    2    1    2    0    0  0.00000000000E+00  0.00000000000E+00  0.12119306462E+04  0.28926389169E+04  0.26265155649E+04 0.  0.
        1    1    3    3  502    0  0.65131347191E+03 -0.11283582202E+04  0.78774846154E+03  0.15224812480E+04  0.50400001928E-02 0. -1.
       -1    1    3    3    0  502 -0.65131347191E+03  0.11283582202E+04  0.42418218465E+03  0.13701576689E+04  0.50400001928E-02 0.  1.
</event>
<event>
 5   0  0.2555801E-05  0.2634494E+04  0.7818609E-02  0.8356578E-01
       -2   -1    0    0    0  501  0.00000000000E+00  0.00000000000E+00  0.67501334576E+03  0.67501334577E+03  0.25500000920E-02 0. -1.
        2   -1    0    0  501    0  0.00000000000E+00  0.00000000000E+00 -0.25705267594E+04  0.25705267594E+04  0.25500000920E-02 0.  1.
    10030    2    1    2    0    0  0.00000000000E+00  0.00000000000E+00 -0.18955134136E+04  0.32455401052E+04  0.26344941588E+04 0.  0.
        1    1    3    3  502    0  0.10398035932E+04 -0.56172269003E+02  0.46071199155E+02  0.10423384247E+04  0.50400001928E-02 0. -1.
       -1    1    3    3    0  502 -0.10398035932E+04  0.56172269003E+02 -0.19415846128E+04  0.22032016805E+04  0.50400001928E-02 0.  1.
</event>
<event>
 5   0  0.2555801E-05  0.2624315E+04  0.7818609E-02  0.8359989E-01
       -2   -1    0    0    0  501  0.00000000000E+00  0.00000000000E+00  0.20427440711E+04  0.20427440711E+04  0.25500000920E-02 0. -1.
        2   -1    0    0  501    0  0.00000000000E+00  0.00000000000E+00 -0.84286489955E+03  0.84286489956E+03  0.25500000920E-02 0.  1.
    10030    2    1    2    0    0  0.00000000000E+00  0.00000000000E+00  0.11998791715E+04  0.28856089706E+04  0.26243149783E+04 0.  0.
        1    1    3    3  502    0  0.77605043850E+03  0.10097064986E+04  0.25223344858E+03  0.12982230968E+04  0.50400001928E-02 0.  1.
       -1    1    3    3    0  502 -0.77605043850E+03 -0.10097064986E+04  0.94764572295E+03  0.15873858739E+04  0.50400001928E-02 0. -1.
</event>
<event>
 5   0  0.9855352E-06  0.2616110E+04  0.7818609E-02  0.8362750E-01
        1   -1    0    0  501    0  0.00000000000E+00  0.00000000000E+00  0.20965017244E+04  0.20965017244E+04  0.50400001928E-02 0.  1.
       -1   -1    0    0    0  501  0.00000000000E+00  0.00000000000E+00 -0.81612494540E+03  0.81612494541E+03  0.50400001928E-02 0. -1.
    10030    2    1    2    0    0  0.00000000000E+00  0.00000000000E+00  0.12803767790E+04  0.29126266698E+04  0.26161095966E+04 0.  0.
        2    1    3    3  502    0  0.11970989281E+04  0.42998932153E+03  0.30053545865E+03  0.13070035280E+04  0.25500000920E-02 0.  1.
       -2    1    3    3    0  502 -0.11970989281E+04 -0.42998932153E+03  0.97984132032E+03  0.16056231418E+04  0.25500000920E-02 0. -1.
</event>
<event>
 5   0  0.1034714E-05  0.2610717E+04  0.7818609E-02  0.8364570E-01
        1   -1    0    0  501    0  0.00000000000E+00  0.00000000000E+00  0.99971047269E+03  0.99971047270E+03  0.50400001928E-02 0. -1.
       -1   -1    0    0    0  501  0.00000000000E+00  0.00000000000E+00 -0.17044540432E+04  0.17044540432E+04  0.50400001928E-02 0.  1.
    10030    2    1    2    0    0  0.00000000000E+00  0.00000000000E+00 -0.70474357050E+03  0.27041645159E+04  0.26107168037E+04 0.  0.
        5    1    3    3  502    0 -0.78272759307E+03 -0.98409125824E+03 -0.71540295647E+03  0.14466933226E+04  0.46999998093E+01 0. -1.
       -5    1    3    3    0  502  0.78272759307E+03  0.98409125824E+03  0.10659385963E+02  0.12574711933E+04  0.46999998093E+01 0.  1.
</event>
<event>
 5   0  0.2528460E-05  0.2572640E+04  0.7818609E-02  0.8377555E-01
       -2   -1    0    0    0  501  0.00000000000E+00  0.00000000000E+00  0.13008500681E+04  0.13008500681E+04  0.25500000920E-02 0. -1.
        2   -1    0    0  501    0  0.00000000000E+00  0.00000000000E+00 -0.12719520577E+04  0.12719520577E+04  0.25500000920E-02 0.  1.
    10030    2    1    2    0    0  0.00000000000E+00  0.00000000000E+00  0.28898010385E+02  0.25728021257E+04  0.25726398277E+04 0.  0.
        5    1    3    3  502    0  0.18806483668E+03 -0.11052589445E+04  0.64506876805E+03  0.12934842568E+04  0.46999998093E+01 0.  1.
       -5    1    3    3    0  502 -0.18806483668E+03  0.11052589445E+04 -0.61617075767E+03  0.12793178689E+04  0.46999998093E+01 0. -1.
</event>
<event>
 5   0  0.1005492E-05  0.2568248E+04  0.7818609E-02  0.8379067E-01
        1   -1    0    0  501    0  0.00000000000E+00  0.00000000000E+00  0.17963670455E+04  0.17963670455E+04  0.50400001928E-02 0. -1.
       -1   -1    0    0    0  501  0.00000000000E+00  0.00000000000E+00 -0.91794973348E+03  0.91794973349E+03  0.50400001928E-02 0.  1.
    10030    2    1    2    0    0  0.00000000000E+00  0.00000000000E+00  0.87841731200E+03  0.27143167790E+04  0.25682481583E+04 0.  0.
        4    1    3    3  502    0 -0.22139247471E+02 -0.10032218858E+04 -0.40763020723E+03  0.10831012405E+04  0.12699999809E+01 0.  1.
       -4    1    3    3    0  502  0.22139247471E+02  0.10032218858E+04  0.12860475192E+04  0.16312155385E+04  0.12699999809E+01 0. -1.
</event>
<event>
 5   0  0.2662024E-05  0.2668147E+04  0.7818609E-02  0.8345415E-01
       -2   -1    0    0    0  501  0.00000000000E+00  0.00000000000E+00  0.60987794822E+03  0.60987794822E+03  0.25500000920E-02 0. -1.
        2   -1    0    0  501    0  0.00000000000E+00  0.00000000000E+00 -0.29182105020E+04  0.29182105020E+04  0.25500000920E-02 0.  1.
    10030    2    1    2    0    0  0.00000000000E+00  0.00000000000E+00 -0.23083325538E+04  0.35280884502E+04  0.26681470975E+04 0.  0.
        2    1    3    3  502    0  0.18516758591E+03 -0.78339264997E+03 -0.25608844152E+04  0.26844217379E+04  0.25500000920E-02 0.  1.
       -2    1    3    3    0  502 -0.18516758591E+03  0.78339264997E+03  0.25255186136E+03  0.84366671238E+03  0.25500000920E-02 0. -1.
</event>
<event>
 5   0  0.1025153E-05  0.2545820E+04  0.7818609E-02  0.8386841E-01
        1   -1    0    0  501    0  0.00000000000E+00  0.00000000000E+00  0.11881651702E+04  0.11881651702E+04  0.50400001928E-02 0.  1.
       -1   -1    0    0    0  501  0.00000000000E+00  0.00000000000E+00 -0.13636988609E+04  0.13636988609E+04  0.50400001928E-02 0. -1.
    10030    2    1    2    0    0  0.00000000000E+00  0.00000000000E+00 -0.17553369074E+03  0.25518640311E+04  0.25458197023E+04 0.  0.
        1    1    3    3  502    0 -0.25017535935E+03 -0.91141444189E+01  0.11632462596E+04  0.11898792538E+04  0.50400001928E-02 0.  1.
       -1    1    3    3    0  502  0.25017535935E+03  0.91141444189E+01 -0.13387799504E+04  0.13619847773E+04  0.50400001928E-02 0. -1.
</event>
<event>
 5   0  0.2484618E-05  0.2674143E+04  0.7818609E-02  0.8343444E-01
       -2   -1    0    0    0  501  0.00000000000E+00  0.00000000000E+00  0.11904213132E+04  0.11904213132E+04  0.25500000920E-02 0.  1.
        2   -1    0    0  501    0  0.00000000000E+00  0.00000000000E+00 -0.15017880266E+04  0.15017880266E+04  0.25500000920E-02 0. -1.
    10030    2    1    2    0    0  0.00000000000E+00  0.00000000000E+00 -0.31136671332E+03  0.26922093398E+04  0.26741432084E+04 0.  0.
        3    1    3    3  502    0  0.65027183892E+03 -0.27213490488E+03  0.98814796956E+03  0.12138151799E+04  0.10100000352E+00 0.  1.
       -3    1    3    3    0  502 -0.65027183892E+03  0.27213490488E+03 -0.12995146829E+04  0.14783941599E+04  0.10100000352E+00 0. -1.
</event>
<event>
 5   0  0.2528460E-05  0.2578138E+04  0.7818609E-02  0.8375665E-01
        2   -1    0    0  501    0  0.00000000000E+00  0.00000000000E+00  0.18476800048E+04  0.18476800048E+04  0.25500000920E-02 0. -1.
       -2   -1    0    0    0  501  0.00000000000E+00  0.00000000000E+00 -0.89934336491E+03  0.89934336492E+03  0.25500000920E-02 0.  1.
    10030    2    1    2    0    0  0.00000000000E+00  0.00000000000E+00  0.94833663990E+03  0.27470233697E+04  0.25781378961E+04 0.  0.
        5    1    3    3  502    0 -0.55169818440E+03 -0.11300731227E+04  0.77599182696E+03  0.14777082103E+04  0.46999998093E+01 0. -1.
       -5    1    3    3    0  502  0.55169818440E+03  0.11300731227E+04  0.17234481294E+03  0.12693151594E+04  0.46999998093E+01 0.  1.
</event>
<event>
 5   0  0.1025153E-05  0.2591322E+04  0.7818609E-02  0.8371155E-01
        1   -1    0    0  501    0  0.00000000000E+00  0.00000000000E+00  0.17767223084E+04  0.17767223084E+04  0.50400001928E-02 0.  1.
       -1   -1    0    0    0  501  0.00000000000E+00  0.00000000000E+00 -0.94485082662E+03  0.94485082664E+03  0.50400001928E-02 0. -1.
    10030    2    1    2    0    0  0.00000000000E+00  0.00000000000E+00  0.83187148177E+03  0.27215731350E+04  0.25913220887E+04 0.  0.
        1    1    3    3  502    0 -0.59262490930E+03  0.43448824611E+02  0.16251751891E+04  0.17304006700E+04  0.50400001928E-02 0.  1.
       -1    1    3    3    0  502  0.59262490930E+03 -0.43448824611E+02 -0.79330370729E+03  0.99117246507E+03  0.50400001928E-02 0. -1.
</event>
<event>
 5   0  0.1005492E-05  0.2638575E+04  0.7818609E-02  0.8355215E-01
        1   -1    0    0  501    0  0.00000000000E+00  0.00000000000E+00  0.14264602244E+04  0.14264602244E+04  0.50400001928E-02 0.  1.
       -1   -1    0    0    0  501  0.00000000000E+00  0.00000000000E+00 -0.12201666030E+04  0.12201666030E+04  0.50400001928E-02 0. -1.
    10030    2    1    2    0    0  0.00000000000E+00  0.00000000000E+00  0.20629362136E+03  0.26466268274E+04  0.26385747110E+04 0.  0.
        4    1    3    3  502    0 -0.57545652829E+03 -0.13111910032E+03 -0.10803585853E+04  0.12310640601E+04  0.12699999809E+01 0. -1.
       -4    1    3    3    0  502  0.57545652829E+03  0.13111910032E+03  0.12866522066E+04  0.14155627673E+04  0.12699999809E+01 0.  1.
</event>
<event>
 5   0  0.1034714E-05  0.2592097E+04  0.7818609E-02  0.8370891E-01
        1   -1    0    0  501    0  0.00000000000E+00  0.00000000000E+00  0.57790828122E+03  0.57790828125E+03  0.50400001928E-02 0. -1.
       -1   -1    0    0    0  501  0.00000000000E+00  0.00000000000E+00 -0.29065879718E+04  0.29065879718E+04  0.50400001928E-02 0.  1.
    10030    2    1    2    0    0  0.00000000000E+00  0.00000000000E+00 -0.23286796905E+04  0.34844962530E+04  0.25920966487E+04 0.  0.
        5    1    3    3  502    0 -0.96954846248E+03 -0.80597902812E+03 -0.76084894652E+03  0.14725962190E+04  0.46999998093E+01 0. -1.
       -5    1    3    3    0  502  0.96954846248E+03  0.80597902812E+03 -0.15678307440E+04  0.20119000340E+04  0.46999998093E+01 0.  1.
</event>
<event>
 5   0  0.1034714E-05  0.2422090E+04  0.7818609E-02  0.8431279E-01
       -1   -1    0    0    0  501  0.00000000000E+00  0.00000000000E+00  0.10068266036E+04  0.10068266036E+04  0.50400001928E-02 0. -1.
        1   -1    0    0  501    0  0.00000000000E+00  0.00000000000E+00 -0.14566860426E+04  0.14566860426E+04  0.50400001928E-02 0.  1.
    10030    2    1    2    0    0  0.00000000000E+00  0.00000000000E+00 -0.44985943898E+03  0.24635126462E+04  0.24220902219E+04 0.  0.
        5    1    3    3  502    0  0.35711278151E+03 -0.61900758809E+03  0.76949653477E+03  0.10501651965E+04  0.46999998093E+01 0. -1.
       -5    1    3    3    0  502 -0.35711278151E+03  0.61900758809E+03 -0.12193559738E+04  0.14133474497E+04  0.46999998093E+01 0.  1.
</event>
<event>
 5   0  0.2528460E-05  0.2512470E+04  0.7818609E-02  0.8398556E-01
       -2   -1    0    0    0  501  0.00000000000E+00  0.00000000000E+00  0.10604694909E+04  0.10604694909E+04  0.25500000920E-02 0.  1.
        2   -1    0    0  501    0  0.00000000000E+00  0.00000000000E+00 -0.14881395542E+04  0.14881395542E+04  0.25500000920E-02 0. -1.
    10030    2    1    2    0    0  0.00000000000E+00  0.00000000000E+00 -0.42767006323E+03  0.25486090451E+04  0.25124701753E+04 0.  0.
        5    1    3    3  502    0  0.70072982965E+03 -0.44195299556E+02  0.84284375160E+03  0.10969882398E+04  0.46999998093E+01 0.  1.
       -5    1    3    3    0  502 -0.70072982965E+03  0.44195299556E+02 -0.12705138148E+04  0.14516208053E+04  0.46999998093E+01 0. -1.
</event>
<event>
 5   0  0.2528460E-05  0.2528296E+04  0.7818609E-02  0.8392974E-01
       -2   -1    0    0    0  501  0.00000000000E+00  0.00000000000E+00  0.67158103938E+03  0.67158103938E+03  0.25500000920E-02 0. -1.
        2   -1    0    0  501    0  0.00000000000E+00  0.00000000000E+00 -0.23795646448E+04  0.23795646448E+04  0.25500000920E-02 0.  1.
    10030    2    1    2    0    0  0.00000000000E+00  0.00000000000E+00 -0.17079836055E+04  0.30511456842E+04  0.25282962623E+04 0.  0.
        5    1    3    3  502    0 -0.89489845705E+03  0.87601727101E+03 -0.64566982132E+03  0.14089574570E+04  0.46999998093E+01 0. -1.
       -5    1    3    3    0  502  0.89489845705E+03 -0.87601727101E+03 -0.10623137841E+04  0.16421882272E+04  0.46999998093E+01 0.  1.
</event>
<event>
 5   0  0.2484618E-05  0.2590751E+04  0.7818609E-02  0.8371350E-01
        2   -1    0    0  501    0  0.00000000000E+00  0.00000000000E+00  0.17697401938E+04  0.17697401938E+04  0.25500000920E-02 0. -1.
       -2   -1    0    0    0  501  0.00000000000E+00  0.00000000000E+00 -0.94816052320E+03  0.94816052321E+03  0.25500000920E-02 0.  1.
    10030    2    1    2    0    0  0.00000000000E+00  0.00000000000E+00  0.82157967057E+03  0.27179007170E+04  0.25907510788E+04 0.  0.
        3    1    3    3  502    0  0.10426521221E+04 -0.26657497671E+03  0.11671542671E+04  0.15875877170E+04  0.10100000352E+00 0. -1.
       -3    1    3    3    0  502 -0.10426521221E+04  0.26657497671E+03 -0.34557459656E+03  0.11303129999E+04  0.10100000352E+00 0.  1.
</event>
<event>
 5   0  0.2528460E-05  0.2637526E+04  0.7818609E-02  0.8355565E-01
       -2   -1    0    0    0  501  0.00000000000E+00  0.00000000000E+00  0.13132849657E+04  0.13132849657E+04  0.25500000920E-02 0. -1.
        2   -1    0    0  501    0  0.00000000000E+00  0.00000000000E+00 -0.13242636460E+04  0.13242636460E+04  0.25500000920E-02 0.  1.
    10030    2    1    2    0    0  0.00000000000E+00  0.00000000000E+00 -0.10978680256E+02  0.26375486117E+04  0.26375257625E+04 0.  0.
        5    1    3    3  502    0  0.85545382742E+03  0.71151223321E+02  0.99564355055E+03  0.13146071342E+04  0.46999998093E+01 0. -1.
       -5    1    3    3    0  502 -0.85545382742E+03 -0.71151223321E+02 -0.10066222308E+04  0.13229414775E+04  0.46999998093E+01 0.  1.
</event>
<event>
 5   0  0.9855352E-06  0.2590183E+04  0.7818609E-02  0.8371543E-01
        1   -1    0    0  501    0  0.00000000000E+00  0.00000000000E+00  0.13222013941E+04  0.13222013941E+04  0.50400001928E-02 0.  1.
       -1   -1    0    0    0  501  0.00000000000E+00  0.00000000000E+00 -0.12685375249E+04  0.12685375249E+04  0.50400001928E-02 0. -1.
    10030    2    1    2    0    0  0.00000000000E+00  0.00000000000E+00  0.53663869183E+02  0.25907389190E+04  0.25901830699E+04 0.  0.
        2    1    3    3  502    0 -0.75314627304E+02  0.52887869956E+03 -0.11531996604E+04  0.12709266024E+04  0.25500000920E-02 0. -1.
       -2    1    3    3    0  502  0.75314627304E+02 -0.52887869956E+03  0.12068635296E+04  0.13198123166E+04  0.25500000920E-02 0.  1.
</event>
<event>
 5   0  0.2484618E-05  0.2618200E+04  0.7818609E-02  0.8362045E-01
        2   -1    0    0  501    0  0.00000000000E+00  0.00000000000E+00  0.19002341080E+04  0.19002341080E+04  0.25500000920E-02 0. -1.
       -2   -1    0    0    0  501  0.00000000000E+00  0.00000000000E+00 -0.90185872887E+03  0.90185872887E+03  0.25500000920E-02 0.  1.
    10030    2    1    2    0    0  0.00000000000E+00  0.00000000000E+00  0.99837537912E+03  0.28020928369E+04  0.26181999291E+04 0.  0.
        3    1    3    3  502    0 -0.96886869174E+02 -0.66768614113E+03  0.16998340211E+04  0.18288322936E+04  0.10100000352E+00 0. -1.
       -3    1    3    3    0  502  0.96886869174E+02  0.66768614113E+03 -0.70145864200E+03  0.97326054329E+03  0.10100000352E+00 0.  1.
</event>
<event>
 5   0  0.2517854E-05  0.2549862E+04  0.7818609E-02  0.8385434E-01
        2   -1    0    0  501    0  0.00000000000E+00  0.00000000000E+00  0.23316582948E+04  0.23316582948E+04  0.25500000920E-02 0.  1.
       -2   -1    0    0    0  501  0.00000000000E+00  0.00000000000E+00 -0.69712131493E+03  0.69712131493E+03  0.25500000920E-02 0. -1.
    10030    2    1    2    0    0  0.00000000000E+00  0.00000000000E+00  0.16345369798E+04  0.30287796097E+04  0.25498617189E+04 0.  0.
        4    1    3    3  502    0  0.10827736936E+04 -0.55196109171E+03  0.35970726601E+03  0.12674584208E+04  0.12699999809E+01 0. -1.
       -4    1    3    3    0  502 -0.10827736936E+04  0.55196109171E+03  0.12748297138E+04  0.17613211889E+04  0.12699999809E+01 0.  1.
</event>
<event>
 5   0  0.2484618E-05  0.2584787E+04  0.7818609E-02  0.8373387E-01
       -2   -1    0    0    0  501  0.00000000000E+00  0.00000000000E+00  0.14108592206E+04  0.14108592206E+04  0.25500000920E-02 0.  1.
        2   -1    0    0  501    0  0.00000000000E+00  0.00000000000E+00 -0.11838752814E+04  0.11838752814E+04  0.25500000920E-02 0. -1.
    10030    2    1    2    0    0  0.00000000000E+00  0.00000000000E+00  0.22698393924E+03  0.25947345020E+04  0.25847873080E+04 0.  0.
        3    1    3    3  502    0  0.70713354469E+03  0.10796152472E+04  0.18212477185E+03  0.13033711577E+04  0.10100000352E+00 0. -1.
       -3    1    3    3    0  502 -0.70713354469E+03 -0.10796152472E+04  0.44859167385E+02  0.12913633443E+04  0.10100000352E+00 0.  1.
</event>
<event>
 5   0  0.9855352E-06  0.2679741E+04  0.7818609E-02  0.8341608E-01
        1   -1    0    0  501    0  0.00000000000E+00  0.00000000000E+00  0.13385263232E+04  0.13385263232E+04  0.50400001928E-02 0.  1.
       -1   -1    0    0    0  501  0.00000000000E+00  0.00000000000E+00 -0.13412157892E+04  0.13412157892E+04  0.50400001928E-02 0. -1.
    10030    2    1    2    0    0  0.00000000000E+00  0.00000000000E+00 -0.26894660639E+01  0.26797421124E+04  0.26797407628E+04 0.  0.
        2    1    3    3  502    0  0.10945132303E+04  0.16004836660E+03 -0.75743898889E+03  0.13406298941E+04  0.25500000920E-02 0. -1.
       -2    1    3    3    0  502 -0.10945132303E+04 -0.16004836660E+03  0.75474952282E+03  0.13391122183E+04  0.25500000920E-02 0.  1.
</event>
<event>
 5   0  0.2662024E-05  0.2516620E+04  0.7818609E-02  0.8397088E-01
        2   -1    0    0  501    0  0.00000000000E+00  0.00000000000E+00  0.19084547916E+04  0.19084547916E+04  0.25500000920E-02 0.  1.
       -2   -1    0    0    0  501  0.00000000000E+00  0.00000000000E+00 -0.82964720112E+03  0.82964720112E+03  0.25500000920E-02 0. -1.
    10030    2    1    2    0    0  0.00000000000E+00  0.00000000000E+00  0.10788075905E+04  0.27381019927E+04  0.25166200956E+04 0.  0.
        2    1    3    3  502    0 -0.50204051623E+03 -0.87565655734E+03 -0.27806952106E+03  0.10469678815E+04  0.25500000920E-02 0. -1.
       -2    1    3    3    0  502  0.50204051623E+03  0.87565655734E+03  0.13568771116E+04  0.16911341112E+04  0.25500000920E-02 0.  1.
</event>
<event>
 5   0  0.1005492E-05  0.2601761E+04  0.7818609E-02  0.8367603E-01
        1   -1    0    0  501    0  0.00000000000E+00  0.00000000000E+00  0.12720769624E+04  0.12720769624E+04  0.50400001928E-02 0. -1.
       -1   -1    0    0    0  501  0.00000000000E+00  0.00000000000E+00 -0.13303359551E+04  0.13303359551E+04  0.50400001928E-02 0.  1.
    10030    2    1    2    0    0  0.00000000000E+00  0.00000000000E+00 -0.58258992663E+02  0.26024129175E+04  0.26017607275E+04 0.  0.
        4    1    3    3  502    0 -0.23198417921E+03  0.15364790564E+03  0.12419619540E+04  0.12727511329E+04  0.12699999809E+01 0. -1.
       -4    1    3    3    0  502  0.23198417921E+03 -0.15364790564E+03 -0.13002209467E+04  0.13296617846E+04  0.12699999809E+01 0.  1.
</event>
<event>
 5   0  0.1005492E-05  0.2649892E+04  0.7818609E-02  0.8351449E-01
        1   -1    0    0  501    0  0.00000000000E+00  0.00000000000E+00  0.13567201540E+04  0.13567201540E+04  0.50400001928E-02 0.  1.
       -1   -1    0    0    0  501  0.00000000000E+00  0.00000000000E+00 -0.12939158669E+04  0.12939158670E+04  0.50400001928E-02 0. -1.
    10030    2    1    2    0    0  0.00000000000E+00  0.00000000000E+00  0.62804287097E+02  0.26506360210E+04  0.26498918728E+04 0.  0.
        4    1    3    3  502    0 -0.82655685232E+03 -0.47735815970E+03  0.95057971345E+03  0.13470970445E+04  0.12699999809E+01 0.  1.
       -4    1    3    3    0  502  0.82655685232E+03  0.47735815970E+03 -0.88777542636E+03  0.13035389765E+04  0.12699999809E+01 0. -1.
</event>
<event>
 5   0  0.2517854E-05  0.2556231E+04  0.7818609E-02  0.8383222E-01
       -2   -1    0    0    0  501  0.00000000000E+00  0.00000000000E+00  0.11346430190E+04  0.11346430190E+04  0.25500000920E-02 0.  1.
        2   -1    0    0  501    0  0.00000000000E+00  0.00000000000E+00 -0.14397296450E+04  0.14397296450E+04  0.25500000920E-02 0. -1.
    10030    2    1    2    0    0  0.00000000000E+00  0.00000000000E+00 -0.30508662603E+03  0.25743726640E+04  0.25562309684E+04 0.  0.
        4    1    3    3  502    0 -0.81316918025E+03  0.89444050914E+03  0.26550464666E+03  0.12376438383E+04  0.12699999809E+01 0.  1.
       -4    1    3    3    0  502  0.81316918025E+03 -0.89444050914E+03 -0.57059127268E+03  0.13367288257E+04  0.12699999809E+01 0. -1.
</event>
<event>
 5   0  0.1000421E-05  0.2588944E+04  0.7818609E-02  0.8371966E-01
        1   -1    0    0  501    0  0.00000000000E+00  0.00000000000E+00  0.17059677274E+04  0.17059677274E+04  0.50400001928E-02 0. -1.
       -1   -1    0    0    0  501  0.00000000000E+00  0.00000000000E+00 -0.98223331284E+03  0.98223331285E+03  0.50400001928E-02 0.  1.
    10030    2    1    2    0    0  0.00000000000E+00  0.00000000000E+00  0.72373441452E+03  0.26882010402E+04  0.25889444432E+04 0.  0.
        3    1    3    3  502    0 -0.89487864724E+03  0.10391257238E+03 -0.60331460893E+03  0.10842481928E+04  0.10100000352E+00 0.  1.
       -3    1    3    3    0  502  0.89487864724E+03 -0.10391257238E+03  0.13270490235E+04  0.16039528474E+04  0.10100000352E+00 0. -1.
</event>
<event>
 5   0  0.9855352E-06  0.2823315E+04  0.7818609E-02  0.8296066E-01
       -1   -1    0    0    0  501  0.00000000000E+00  0.00000000000E+00  0.12061142433E+04  0.12061142433E+04  0.50400001928E-02 0. -1.
        1   -1    0    0  501    0  0.00000000000E+00  0.00000000000E+00 -0.16522290159E+04  0.16522290159E+04  0.50400001928E-02 0.  1.
    10030    2    1    2    0    0  0.00000000000E+00  0.00000000000E+00 -0.44611477262E+03  0.28583432592E+04  0.28233150368E+04 0.  0.
        2    1    3    3  502    0 -0.24616206461E+03 -0.11093382336E+03 -0.16258436463E+04  0.16481109300E+04  0.25500000920E-02 0.  1.
       -2    1    3    3    0  502  0.24616206461E+03  0.11093382336E+03  0.11797288737E+04  0.12102323292E+04  0.25500000920E-02 0. -1.
</event>
<event>
 5   0  0.2484618E-05  0.2817250E+04  0.7818609E-02  0.8297933E-01
       -2   -1    0    0    0  501  0.00000000000E+00  0.00000000000E+00  0.13244557609E+04  0.13244557609E+04  0.25500000920E-02 0.  1.
        2   -1    0    0  501    0  0.00000000000E+00  0.00000000000E+00 -0.14981427276E+04  0.14981427276E+04  0.25500000920E-02 0. -1.
    10030    2    1    2    0    0  0.00000000000E+00  0.00000000000E+00 -0.17368696670E+03  0.28225984886E+04  0.28172495568E+04 0.  0.
        3    1    3    3  502    0  0.30108418363E+03 -0.13203174930E+04  0.30162168691E+03  0.13873952645E+04  0.10100000352E+00 0.  1.
       -3    1    3    3    0  502 -0.30108418363E+03  0.13203174930E+04 -0.47530865361E+03  0.14352032240E+04  0.10100000352E+00 0. -1.
</event>
<event>
 5   0  0.2484618E-05  0.2575933E+04  0.7818609E-02  0.8376422E-01
        2   -1    0    0  501    0  0.00000000000E+00  0.00000000000E+00  0.15372158630E+04  0.15372158630E+04  0.25500000920E-02 0. -1.
       -2   -1    0    0    0  501  0.00000000000E+00  0.00000000000E+00 -0.10791314767E+04  0.10791314767E+04  0.25500000920E-02 0.  1.
    10030    2    1    2    0    0  0.00000000000E+00  0.00000000000E+00  0.45808438634E+03  0.26163473397E+04  0.25759332477E+04 0.  0.
        3    1    3    3  502    0  0.38934725734E+03 -0.10936051294E+04 -0.33764911569E+03  0.12089542594E+04  0.10100000352E+00 0.  1.
       -3    1    3    3    0  502 -0.38934725734E+03  0.10936051294E+04  0.79573350204E+03  0.14073930802E+04  0.10100000352E+00 0. -1.
</event>
<event>
 5   0  0.2517854E-05  0.2731300E+04  0.7818609E-02  0.8324920E-01
       -2   -1    0    0    0  501  0.00000000000E+00  0.00000000000E+00  0.10563318378E+04  0.10563318378E+04  0.25500000920E-02 0.  1.
        2   -1    0    0  501    0  0.00000000000E+00  0.00000000000E+00 -0.17655440857E+04  0.17655440857E+04  0.25500000920E-02 0. -1.
    10030    2    1    2    0    0  0.00000000000E+00  0.00000000000E+00 -0.70921224795E+03  0.28218759235E+04  0.27313003707E+04 0.  0.
        4    1    3    3  502    0 -0.12185400307E+04  0.54914957260E+03 -0.64963499649E+02  0.13381430897E+04  0.12699999809E+01 0. -1.
       -4    1    3    3    0  502  0.12185400307E+04 -0.54914957260E+03 -0.64424874830E+03  0.14837328338E+04  0.12699999809E+01 0.  1.
</event>
<event>
 5   0  0.1025153E-05  0.2730996E+04  0.7818609E-02  0.8325017E-01
       -1   -1    0    0    0  501  0.00000000000E+00  0.00000000000E+00  0.11896544810E+04  0.11896544810E+04  0.50400001928E-02 0.  1.
        1   -1    0    0  501    0  0.00000000000E+00  0.00000000000E+00 -0.15673327118E+04  0.15673327118E+04  0.50400001928E-02 0. -1.
    10030    2    1    2    0    0  0.00000000000E+00  0.00000000000E+00 -0.37767823078E+03  0.27569871928E+04  0.27309957040E+04 0.  0.
        1    1    3    3  502    0 -0.89552801849E+03  0.25421280857E+03  0.81966292899E+03  0.12403394298E+04  0.50400001928E-02 0.  1.
       -1    1    3    3    0  502  0.89552801849E+03 -0.25421280857E+03 -0.11973411598E+04  0.15166477629E+04  0.50400001928E-02 0. -1.
</event>
<event>
 5   0  0.2517854E-05  0.2578241E+04  0.7818609E-02  0.8375630E-01
       -2   -1    0    0    0  501  0.00000000000E+00  0.00000000000E+00  0.27744562515E+04  0.27744562515E+04  0.25500000920E-02 0. -1.
        2   -1    0    0  501    0  0.00000000000E+00  0.00000000000E+00 -0.59897566092E+03  0.59897566092E+03  0.25500000920E-02 0.  1.
    10030    2    1    2    0    0  0.00000000000E+00  0.00000000000E+00  0.21754805906E+04  0.33734319124E+04  0.25782410802E+04 0.  0.
        4    1    3    3  502    0  0.24653049384E+03 -0.39968366865E+03 -0.48307997704E+03  0.67371521914E+03  0.12699999809E+01 0.  1.
       -4    1    3    3    0  502 -0.24653049384E+03  0.39968366865E+03  0.26585605676E+04  0.26997166933E+04  0.12699999809E+01 0. -1.
</event>
<event>
 5   0  0.1000421E-05  0.2561807E+04  0.7818609E-02  0.8381291E-01
       -1   -1    0    0    0  501  0.00000000000E+00  0.00000000000E+00  0.10308568728E+04  0.10308568728E+04  0.50400001928E-02 0.  1.
        1   -1    0    0  501    0  0.00000000000E+00  0.00000000000E+00 -0.15916019333E+04  0.15916019333E+04  0.50400001928E-02 0. -1.
    10030    2    1    2    0    0  0.00000000000E+00  0.00000000000E+00 -0.56074506050E+03  0.26224588061E+04  0.25618070120E+04 0.  0.
        3    1    3    3  502    0 -0.11593659945E+04  0.50577763940E+03 -0.48707703402E+03  0.13554278207E+04  0.10100000352E+00 0. -1.
       -3    1    3    3    0  502  0.11593659945E+04 -0.50577763940E+03 -0.73668026477E+02  0.12670309854E+04  0.10100000352E+00 0.  1.
</event>
<event>
 5   0  0.2484618E-05  0.2600777E+04  0.7818609E-02  0.8367937E-01
       -2   -1    0    0    0  501  0.00000000000E+00  0.00000000000E+00  0.92207019758E+03  0.92207019758E+03  0.25500000920E-02 0. -1.
        2   -1    0    0  501    0  0.00000000000E+00  0.00000000000E+00 -0.18339272438E+04  0.18339272438E+04  0.25500000920E-02 0.  1.
    10030    2    1    2    0    0  0.00000000000E+00  0.00000000000E+00 -0.91185704620E+03  0.27559974414E+04  0.26007765425E+04 0.  0.
        3    1    3    3  502    0  0.67987744112E+03  0.93931665169E+03 -0.10796671772E+04  0.15843706419E+04  0.10100000352E+00 0.  1.
       -3    1    3    3    0  502 -0.67987744112E+03 -0.93931665169E+03  0.16781013098E+03  0.11716267995E+04  0.10100000352E+00 0. -1.
</event>
<event>
 5   0  0.2484618E-05  0.2598997E+04  0.7818609E-02  0.8368542E-01
       -2   -1    0    0    0  501  0.00000000000E+00  0.00000000000E+00  0.75749301249E+03  0.75749301250E+03  0.25500000920E-02 0. -1.
        2   -1    0    0  501    0  0.00000000000E+00  0.00000000000E+00 -0.22293223647E+04  0.22293223647E+04  0.25500000920E-02 0.  1.
    10030    2    1    2    0    0  0.00000000000E+00  0.00000000000E+00 -0.14718293522E+04  0.29868153772E+04  0.25989968171E+04 0.  0.
        3    1    3    3  502    0 -0.73900080634E+03  0.62311854980E+03  0.26218490735E+03  0.10015686970E+04  0.10100000352E+00 0. -1.
       -3    1    3    3    0  502  0.73900080634E+03 -0.62311854980E+03 -0.17340142595E+04  0.19852466802E+04  0.10100000352E+00 0.  1.
</event>
<event>
 5   0  0.1005492E-05  0.2523370E+04  0.7818609E-02  0.8394707E-01
        1   -1    0    0  501    0  0.00000000000E+00  0.00000000000E+00  0.98823464929E+03  0.98823464931E+03  0.50400001928E-02 0. -1.
       -1   -1    0    0    0  501  0.00000000000E+00  0.00000000000E+00 -0.16108001155E+04  0.16108001155E+04  0.50400001928E-02 0.  1.
    10030    2    1    2    0    0  0.00000000000E+00  0.00000000000E+00 -0.62256546625E+03  0.25990347649E+04  0.25233695625E+04 0.  0.
        4    1    3    3  502    0 -0.53134101727E+03 -0.98754269373E+03 -0.90679181730E+03  0.14421639509E+04  0.12699999809E+01 0.  1.
       -4    1    3    3    0  502  0.53134101727E+03  0.98754269373E+03  0.28422635105E+03  0.11568708139E+04  0.12699999809E+01 0. -1.
</event>
<event>
 5   0  0.1025153E-05  0.2587295E+04  0.7818609E-02  0.8372530E-01
       -1   -1    0    0    0  501  0.00000000000E+00  0.00000000000E+00  0.12610679483E+04  0.12610679483E+04  0.50400001928E-02 0. -1.
        1   -1    0    0  501    0  0.00000000000E+00  0.00000000000E+00 -0.13270689880E+04  0.13270689880E+04  0.50400001928E-02 0.  1.
    10030    2    1    2    0    0  0.00000000000E+00  0.00000000000E+00 -0.66001039733E+02  0.25881369363E+04  0.25872952409E+04 0.  0.
        1    1    3    3  502    0 -0.48511202847E+03 -0.21125285712E+03  0.11478760899E+04  0.12639544958E+04  0.50400001928E-02 0. -1.
       -1    1    3    3    0  502  0.48511202847E+03  0.21125285712E+03 -0.12138771296E+04  0.13241824404E+04  0.50400001928E-02 0.  1.
</event>
<event>
 5   0  0.2555801E-05  0.2570443E+04  0.7818609E-02  0.8378311E-01
       -2   -1    0    0    0  501  0.00000000000E+00  0.00000000000E+00  0.11403306856E+04  0.11403306856E+04  0.25500000920E-02 0.  1.
        2   -1    0    0  501    0  0.00000000000E+00  0.00000000000E+00 -0.14485227549E+04  0.14485227549E+04  0.25500000920E-02 0. -1.
    10030    2    1    2    0    0  0.00000000000E+00  0.00000000000E+00 -0.30819206933E+03  0.25888534405E+04  0.25704434997E+04 0.  0.
        1    1    3    3  502    0 -0.30300500610E+03  0.92056018467E+03 -0.10042696867E+04  0.13956363032E+04  0.50400001928E-02 0. -1.
       -1    1    3    3    0  502  0.30300500610E+03 -0.92056018467E+03  0.69607761736E+03  0.11932171373E+04  0.50400001928E-02 0.  1.
</event>
<event>
 5   0  0.1005492E-05  0.2629629E+04  0.7818609E-02  0.8358206E-01
        1   -1    0    0  501    0  0.00000000000E+00  0.00000000000E+00  0.10991498301E+04  0.10991498301E+04  0.50400001928E-02 0. -1.
       -1   -1    0    0    0  501  0.00000000000E+00  0.00000000000E+00 -0.15727950176E+04  0.15727950176E+04  0.50400001928E-02 0.  1.
    10030    2    1    2    0    0  0.00000000000E+00  0.00000000000E+00 -0.47364518749E+03  0.26719448477E+04  0.26296291574E+04 0.  0.
        4    1    3    3  502    0 -0.10935504541E+04 -0.41154163642E+03 -0.84944818733E+03  0.14445701610E+04  0.12699999809E+01 0.  1.
       -4    1    3    3    0  502  0.10935504541E+04  0.41154163642E+03  0.37580299984E+03  0.12273746868E+04  0.12699999809E+01 0. -1.
</event>
<event>
 5   0  0.2528460E-05  0.2599048E+04  0.7818609E-02  0.8368525E-01
       -2   -1    0    0    0  501  0.00000000000E+00  0.00000000000E+00  0.12014583791E+04  0.12014583791E+04  0.25500000920E-02 0.  1.
        2   -1    0    0  501    0  0.00000000000E+00  0.00000000000E+00 -0.14055936054E+04  0.14055936054E+04  0.25500000920E-02 0. -1.
    10030    2    1    2    0    0  0.00000000000E+00  0.00000000000E+00 -0.20413522629E+03  0.26070519846E+04  0.25990476832E+04 0.  0.
        5    1    3    3  502    0 -0.39419088470E+03  0.11760351195E+03  0.11344180780E+04  0.12067077133E+04  0.46999998093E+01 0.  1.
       -5    1    3    3    0  502  0.39419088470E+03 -0.11760351195E+03 -0.13385533043E+04  0.14003442713E+04  0.46999998093E+01 0. -1.
</event>
<event>
 5   0  0.9855352E-06  0.2576191E+04  0.7818609E-02  0.8376334E-01
       -1   -1    0    0    0  501  0.00000000000E+00  0.00000000000E+00  0.67367579140E+03  0.67367579142E+03  0.50400001928E-02 0.  1.
        1   -1    0    0  501    0  0.00000000000E+00  0.00000000000E+00 -0.24628905450E+04  0.24628905451E+04  0.50400001928E-02 0. -1.
    10030    2    1    2    0    0  0.00000000000E+00  0.00000000000E+00 -0.17892147536E+04  0.31365663365E+04  0.25761907826E+04 0.  0.
        2    1    3    3  502    0 -0.10016395515E+04  0.67579762721E+03 -0.35119799550E+03  0.12583021323E+04  0.25500000920E-02 0.  1.
       -2    1    3    3    0  502  0.10016395515E+04 -0.67579762721E+03 -0.14380167581E+04  0.18782642042E+04  0.25500000920E-02 0. -1.
</event>
<event>
 5   0  0.1034714E-05  0.2653206E+04  0.7818609E-02  0.8350350E-01
        1   -1    0    0  501    0  0.00000000000E+00  0.00000000000E+00  0.12760008640E+04  0.12760008641E+04  0.50400001928E-02 0. -1.
       -1   -1    0    0    0  501  0.00000000000E+00  0.00000000000E+00 -0.13792115035E+04  0.13792115035E+04  0.50400001928E-02 0.  1.
    10030    2    1    2    0    0  0.00000000000E+00  0.00000000000E+00 -0.10321063949E+03  0.26552123676E+04  0.26532056613E+04 0.  0.
        5    1    3    3  502    0  0.15461030911E+03  0.36381299197E+01 -0.13701508363E+04  0.13788593068E+04  0.46999998093E+01 0.  1.
       -5    1    3    3    0  502 -0.15461030911E+03 -0.36381299197E+01  0.12669401968E+04  0.12763530608E+04  0.46999998093E+01 0. -1.
</event>
<event>
 5   0  0.1025153E-05  0.2051857E+04  0.7818609E-02  0.8582752E-01
       -1   -1    0    0    0  501  0.00000000000E+00  0.00000000000E+00  0.75262800609E+03  0.75262800611E+03  0.50400001928E-02 0. -1.
        1   -1    0    0  501    0  0.00000000000E+00  0.00000000000E+00 -0.13984718380E+04  0.13984718380E+04  0.50400001928E-02 0.  1.
    10030    2    1    2    0    0  0.00000000000E+00  0.00000000000E+00 -0.64584383191E+03  0.21510998441E+04  0.20518567894E+04 0.  0.
        1    1    3    3  502    0  0.35773831759E+02  0.44759588320E+03  0.64414077776E+03  0.78520009124E+03  0.50400001928E-02 0. -1.
       -1    1    3    3    0  502 -0.35773831759E+02 -0.44759588320E+03 -0.12899846097E+04  0.13658997529E+04  0.50400001928E-02 0.  1.
</event>
<event>
 5   0  0.2528460E-05  0.2531903E+04  0.7818609E-02  0.8391707E-01
        2   -1    0    0  501    0  0.00000000000E+00  0.00000000000E+00  0.22399515772E+04  0.22399515772E+04  0.25500000920E-02 0. -1.
       -2   -1    0    0    0  501  0.00000000000E+00  0.00000000000E+00 -0.71547678125E+03  0.71547678125E+03  0.25500000920E-02 0.  1.
    10030    2    1    2    0    0  0.00000000000E+00  0.00000000000E+00  0.15244747960E+04  0.29554283585E+04  0.25319031140E+04 0.  0.
        5    1    3    3  502    0  0.18333979445E+03 -0.12280430636E+04  0.47415909331E+03  0.13291170686E+04  0.46999998093E+01 0.  1.
       -5    1    3    3    0  502 -0.18333979445E+03  0.12280430636E+04  0.10503157027E+04  0.16263112899E+04  0.46999998093E+01 0. -1.
</event>
<event>
 5   0  0.9855352E-06  0.2599936E+04  0.7818609E-02  0.8368223E-01
       -1   -1    0    0    0  501  0.00000000000E+00  0.00000000000E+00  0.97460114310E+03  0.97460114311E+03  0.50400001928E-02 0.  1.
        1   -1    0    0  501    0  0.00000000000E+00  0.00000000000E+00 -0.17339574688E+04  0.17339574688E+04  0.50400001928E-02 0. -1.
    10030    2    1    2    0    0  0.00000000000E+00  0.00000000000E+00 -0.75935632571E+03  0.27085586119E+04  0.25999361002E+04 0.  0.
        2    1    3    3  502    0  0.11388787061E+04 -0.15784189897E+03  0.25226028964E+03  0.11771125800E+04  0.25500000920E-02 0.  1.
       -2    1    3    3    0  502 -0.11388787061E+04  0.15784189897E+03 -0.10116166153E+04  0.15314460319E+04  0.25500000920E-02 0. -1.
</event>
<event>
 5   0  0.1000421E-05  0.2630183E+04  0.7818609E-02  0.8358021E-01
        1   -1    0    0  501    0  0.00000000000E+00  0.00000000000E+00  0.11951589262E+04  0.11951589262E+04  0.50400001928E-02 0.  1.
       -1   -1    0    0    0  501  0.00000000000E+00  0.00000000000E+00 -0.14470586174E+04  0.14470586174E+04  0.50400001928E-02 0. -1.
    10030    2    1    2    0    0  0.00000000000E+00  0.00000000000E+00 -0.25189969126E+03  0.26422175436E+04  0.26301825209E+04 0.  0.
        3    1    3    3  502    0 -0.80940356436E+03 -0.10337697268E+04 -0.50432505088E+02  0.13139092152E+04  0.10100000352E+00 0.  1.
       -3    1    3    3    0  502  0.80940356436E+03  0.10337697268E+04 -0.20146718617E+03  0.13283083284E+04  0.10100000352E+00 0. -1.
</event>
<event>
 5   0  0.2484618E-05  0.2617062E+04  0.7818609E-02  0.8362429E-01
        2   -1    0    0  501    0  0.00000000000E+00  0.00000000000E+00  0.15174741650E+04  0.15174741650E+04  0.25500000920E-02 0.  1.
       -2   -1    0    0    0  501  0.00000000000E+00  0.00000000000E+00 -0.11283576083E+04  0.11283576083E+04  0.25500000920E-02 0. -1.
    10030    2    1    2    0    0  0.00000000000E+00  0.00000000000E+00  0.38911655670E+03  0.26458317733E+04  0.26170621081E+04 0.  0.
        3    1    3    3  502    0 -0.10454849417E+04 -0.67591773657E+03  0.60191444027E+03  0.13828248456E+04  0.10100000352E+00 0.  1.
       -3    1    3    3    0  502  0.10454849417E+04  0.67591773657E+03 -0.21279788357E+03  0.12630069277E+04  0.10100000352E+00 0. -1.
</event>
<event>
 5   0  0.2528460E-05  0.2700559E+04  0.7818609E-02  0.8334823E-01
        2   -1    0    0  501    0  0.00000000000E+00  0.00000000000E+00  0.19716048082E+04  0.19716048082E+04  0.25500000920E-02 0. -1.
       -2   -1    0    0    0  501  0.00000000000E+00  0.00000000000E+00 -0.92475693052E+03  0.92475693052E+03  0.25500000920E-02 0.  1.
    10030    2    1    2    0    0  0.00000000000E+00  0.00000000000E+00  0.10468478777E+04  0.28963617387E+04  0.27005593573E+04 0.  0.
        5    1    3    3  502    0  0.10406985848E+04  0.36591001001E+03  0.13585250791E+04  0.17500160458E+04  0.46999998093E+01 0. -1.
       -5    1    3    3    0  502 -0.10406985848E+04 -0.36591001001E+03 -0.31167720145E+03  0.11463456929E+04  0.46999998093E+01 0.  1.
</event>
<event>
 5   0  0.2555801E-05  0.2609664E+04  0.7818609E-02  0.8364926E-01
       -2   -1    0    0    0  501  0.00000000000E+00  0.00000000000E+00  0.74553821658E+03  0.74553821658E+03  0.25500000920E-02 0.  1.
        2   -1    0    0  501    0  0.00000000000E+00  0.00000000000E+00 -0.22837008683E+04  0.22837008683E+04  0.25500000920E-02 0. -1.
    10030    2    1    2    0    0  0.00000000000E+00  0.00000000000E+00 -0.15381626517E+04  0.30292390849E+04  0.26096637887E+04 0.  0.
        1    1    3    3  502    0 -0.12371295122E+04  0.13346565308E+03 -0.31313984832E+03  0.12831052471E+04  0.50400001928E-02 0. -1.
       -1    1    3    3    0  502  0.12371295122E+04 -0.13346565308E+03 -0.12250228034E+04  0.17461338378E+04  0.50400001928E-02 0.  1.
</event>
<event>
 5   0  0.1005492E-05  0.2570422E+04  0.7818609E-02  0.8378318E-01
        1   -1    0    0  501    0  0.00000000000E+00  0.00000000000E+00  0.17362014399E+04  0.17362014399E+04  0.50400001928E-02 0.  1.
       -1   -1    0    0    0  501  0.00000000000E+00  0.00000000000E+00 -0.95136848740E+03  0.95136848742E+03  0.50400001928E-02 0. -1.
    10030    2    1    2    0    0  0.00000000000E+00  0.00000000000E+00  0.78483295250E+03  0.26875699273E+04  0.25704220181E+04 0.  0.
        4    1    3    3  502    0 -0.24738051841E+03  0.12425928256E+04  0.61795964485E+03  0.14096488168E+04  0.12699999809E+01 0.  1.
       -4    1    3    3    0  502  0.24738051841E+03 -0.12425928256E+04  0.16687330766E+03  0.12779211106E+04  0.12699999809E+01 0. -1.
</event>
<event>
 5   0  0.1000421E-05  0.2620191E+04  0.7818609E-02  0.8361375E-01
       -1   -1    0    0    0  501  0.00000000000E+00  0.00000000000E+00  0.10214408290E+04  0.10214408290E+04  0.50400001928E-02 0.  1.
        1   -1    0    0  501    0  0.00000000000E+00  0.00000000000E+00 -0.16803221163E+04  0.16803221163E+04  0.50400001928E-02 0. -1.
    10030    2    1    2    0    0  0.00000000000E+00  0.00000000000E+00 -0.65888128730E+03  0.27017629453E+04  0.26201905392E+04 0.  0.
        3    1    3    3  502    0 -0.11802047849E+04  0.25371545767E+03  0.19541958220E+03  0.12228833513E+04  0.10100000352E+00 0.  1.
       -3    1    3    3    0  502  0.11802047849E+04 -0.25371545767E+03 -0.85430086950E+03  0.14788795940E+04  0.10100000352E+00 0. -1.
</event>
<event>
 5   0  0.1025153E-05  0.2589544E+04  0.7818609E-02  0.8371762E-01
        1   -1    0    0  501    0  0.00000000000E+00  0.00000000000E+00  0.12233945372E+04  0.12233945372E+04  0.50400001928E-02 0.  1.
       -1   -1    0    0    0  501  0.00000000000E+00  0.00000000000E+00 -0.13703135370E+04  0.13703135370E+04  0.50400001928E-02 0. -1.
    10030    2    1    2    0    0  0.00000000000E+00  0.00000000000E+00 -0.14691899978E+03  0.25937080743E+04  0.25895436629E+04 0.  0.
        1    1    3    3  502    0 -0.53264884467E+03  0.11553430262E+04 -0.31447438861E+03  0.13105061774E+04  0.50400001928E-02 0. -1.
       -1    1    3    3    0  502  0.53264884467E+03 -0.11553430262E+04  0.16755538883E+03  0.12832018969E+04  0.50400001928E-02 0.  1.
</event>
<event>
 5   0  0.2662024E-05  0.2594520E+04  0.7818609E-02  0.8370065E-01
        2   -1    0    0  501    0  0.00000000000E+00  0.00000000000E+00  0.25825685323E+04  0.25825685323E+04  0.25500000920E-02 0. -1.
       -2   -1    0    0    0  501  0.00000000000E+00  0.00000000000E+00 -0.65163161743E+03  0.65163161744E+03  0.25500000920E-02 0.  1.
    10030    2    1    2    0    0  0.00000000000E+00  0.00000000000E+00  0.19309369148E+04  0.32342001497E+04  0.25945198476E+04 0.  0.
        2    1    3    3  502    0 -0.11585279786E+03  0.75888177638E+03 -0.33809201087E+03  0.83882634026E+03  0.25500000920E-02 0.  1.
       -2    1    3    3    0  502  0.11585279786E+03 -0.75888177638E+03  0.22690289257E+04  0.23953738095E+04  0.25500000920E-02 0. -1.
</event>
<event>
 5   0  0.1025153E-05  0.2630445E+04  0.7818609E-02  0.8357933E-01
       -1   -1    0    0    0  501  0.00000000000E+00  0.00000000000E+00  0.17435143520E+04  0.17435143520E+04  0.50400001928E-02 0.  1.
        1   -1    0    0  501    0  0.00000000000E+00  0.00000000000E+00 -0.99214024086E+03  0.99214024088E+03  0.50400001928E-02 0. -1.
    10030    2    1    2    0    0  0.00000000000E+00  0.00000000000E+00  0.75137411117E+03  0.27356545929E+04  0.26304453989E+04 0.  0.
        1    1    3    3  502    0 -0.10686658443E+04 -0.68669574242E+03  0.21151852919E+02  0.12704507587E+04  0.50400001928E-02 0. -1.
       -1    1    3    3    0  502  0.10686658443E+04  0.68669574242E+03  0.73022225825E+03  0.14652038342E+04  0.50400001928E-02 0.  1.
</event>
<event>
 5   0  0.9855352E-06  0.2628865E+04  0.7818609E-02  0.8358462E-01
       -1   -1    0    0    0  501  0.00000000000E+00  0.00000000000E+00  0.12879431275E+04  0.12879431275E+04  0.50400001928E-02 0. -1.
        1   -1    0    0  501    0  0.00000000000E+00  0.00000000000E+00 -0.13414670170E+04  0.13414670170E+04  0.50400001928E-02 0.  1.
    10030    2    1    2    0    0  0.00000000000E+00  0.00000000000E+00 -0.53523889511E+02  0.26294101445E+04  0.26288653258E+04 0.  0.
        2    1    3    3  502    0 -0.37769464908E+03  0.12582697417E+04 -0.69633800408E+02  0.13155777655E+04  0.25500000920E-02 0.  1.
       -2    1    3    3    0  502  0.37769464908E+03 -0.12582697417E+04  0.16109910897E+02  0.13138323790E+04  0.25500000920E-02 0. -1.
</event>
<event>
 5   0  0.1005492E-05  0.2505605E+04  0.7818609E-02  0.8400991E-01
       -1   -1    0    0    0  501  0.00000000000E+00  0.00000000000E+00  0.11404517397E+04  0.11404517398E+04  0.50400001928E-02 0. -1.
        1   -1    0    0  501    0  0.00000000000E+00  0.00000000000E+00 -0.13762217199E+04  0.13762217199E+04  0.50400001928E-02 0.  1.
    10030    2    1    2    0    0  0.00000000000E+00  0.00000000000E+00 -0.23576998016E+03  0.25166734597E+04  0.25056052800E+04 0.  0.
        4    1    3    3  502    0  0.10795112238E+03  0.11307735872E+04 -0.64862286381E+03  0.13080579432E+04  0.12699999809E+01 0.  1.
       -4    1    3    3    0  502 -0.10795112238E+03 -0.11307735872E+04  0.41285288366E+03  0.12086155165E+04  0.12699999809E+01 0. -1.
</event>
<event>
 5   0  0.2484618E-05  0.2559612E+04  0.7818609E-02  0.8382051E-01
       -2   -1    0    0    0  501  0.00000000000E+00  0.00000000000E+00  0.11416814320E+04  0.11416814320E+04  0.25500000920E-02 0. -1.
        2   -1    0    0  501    0  0.00000000000E+00  0.00000000000E+00 -0.14346413676E+04  0.14346413676E+04  0.25500000920E-02 0.  1.
    10030    2    1    2    0    0  0.00000000000E+00  0.00000000000E+00 -0.29295993560E+03  0.25763227996E+04  0.25596120104E+04 0.  0.
        3    1    3    3  502    0  0.12370304656E+04 -0.32773747836E+03 -0.13065558633E+03  0.12863619709E+04  0.10100000352E+00 0.  1.
       -3    1    3    3    0  502 -0.12370304656E+04  0.32773747836E+03 -0.16230434927E+03  0.12899608287E+04  0.10100000352E+00 0. -1.
</event>
<event>
 5   0  0.2484618E-05  0.2633317E+04  0.7818609E-02  0.8356971E-01
       -2   -1    0    0    0  501  0.00000000000E+00  0.00000000000E+00  0.13854864394E+04  0.13854864394E+04  0.25500000920E-02 0. -1.
        2   -1    0    0  501    0  0.00000000000E+00  0.00000000000E+00 -0.12512498509E+04  0.12512498509E+04  0.25500000920E-02 0.  1.
    10030    2    1    2    0    0  0.00000000000E+00  0.00000000000E+00  0.13423658848E+03  0.26367362902E+04  0.26333170722E+04 0.  0.
        3    1    3    3  502    0  0.19646902952E+03 -0.43743253312E+02 -0.12357538125E+04  0.12520387562E+04  0.10100000352E+00 0.  1.
       -3    1    3    3    0  502 -0.19646902952E+03  0.43743253312E+02  0.13699904010E+04  0.13846975340E+04  0.10100000352E+00 0. -1.
</event>
<event>
 5   0  0.9855352E-06  0.2514304E+04  0.7818609E-02  0.8397907E-01
        1   -1    0    0  501    0  0.00000000000E+00  0.00000000000E+00  0.15077809327E+04  0.15077809327E+04  0.50400001928E-02 0. -1.
       -1   -1    0    0    0  501  0.00000000000E+00  0.00000000000E+00 -0.10481836673E+04  0.10481836673E+04  0.50400001928E-02 0.  1.
    10030    2    1    2    0    0  0.00000000000E+00  0.00000000000E+00  0.45959726540E+03  0.25559646001E+04  0.25143041563E+04 0.  0.
        2    1    3    3  502    0 -0.57363941738E+03 -0.40636753381E+03 -0.82969618363E+03  0.10874706942E+04  0.25500000920E-02 0.  1.
       -2    1    3    3    0  502  0.57363941738E+03  0.40636753381E+03  0.12892934490E+04  0.14684939058E+04  0.25500000920E-02 0. -1.
</event>
<event>
 5   0  0.1034714E-05  0.2634316E+04  0.7818609E-02  0.8356637E-01
       -1   -1    0    0    0  501  0.00000000000E+00  0.00000000000E+00  0.11283133030E+04  0.11283133031E+04  0.50400001928E-02 0.  1.
        1   -1    0    0  501    0  0.00000000000E+00  0.00000000000E+00 -0.15376099110E+04  0.15376099110E+04  0.50400001928E-02 0. -1.
    10030    2    1    2    0    0  0.00000000000E+00  0.00000000000E+00 -0.40929660798E+03  0.26659232141E+04  0.26343163952E+04 0.  0.
        5    1    3    3  502    0 -0.17204404733E+03  0.44540539514E+03  0.10376380163E+04  0.11422345920E+04  0.46999998093E+01 0.  1.
       -5    1    3    3    0  502  0.17204404733E+03 -0.44540539514E+03 -0.14469346243E+04  0.15236886221E+04  0.46999998093E+01 0. -1.
</event>
<event>
 5   0  0.2528460E-05  0.2606388E+04  0.7818609E-02  0.8366035E-01
        2   -1    0    0  501    0  0.00000000000E+00  0.00000000000E+00  0.16576525187E+04  0.16576525187E+04  0.25500000920E-02 0. -1.
       -2   -1    0    0    0  501  0.00000000000E+00  0.00000000000E+00 -0.10245300272E+04  0.10245300272E+04  0.25500000920E-02 0.  1.
    10030    2    1    2    0    0  0.00000000000E+00  0.00000000000E+00  0.63312249151E+03  0.26821825459E+04  0.26063881369E+04 0.  0.
        5    1    3    3  502    0 -0.63184668448E+03 -0.52555624147E+03  0.13573339015E+04  0.15867630591E+04  0.46999998093E+01 0. -1.
       -5    1    3    3    0  502  0.63184668448E+03  0.52555624147E+03 -0.72421141000E+03  0.10954194868E+04  0.46999998093E+01 0.  1.
</event>
<event>
 5   0  0.2555801E-05  0.2613827E+04  0.7818609E-02  0.8363520E-01
        2   -1    0    0  501    0  0.00000000000E+00  0.00000000000E+00  0.19678410731E+04  0.19678410732E+04  0.25500000920E-02 0.  1.
       -2   -1    0    0    0  501  0.00000000000E+00  0.00000000000E+00 -0.86796808625E+03  0.86796808626E+03  0.25500000920E-02 0. -1.
    10030    2    1    2    0    0  0.00000000000E+00  0.00000000000E+00  0.10998729869E+04  0.28358091594E+04  0.26138272707E+04 0.  0.
        1    1    3    3  502    0 -0.11397484927E+04 -0.16985223225E+03  0.12188590025E+04  0.16773472138E+04  0.50400001928E-02 0. -1.
       -1    1    3    3    0  502  0.11397484927E+04  0.16985223225E+03 -0.11898601563E+03  0.11584619456E+04  0.50400001928E-02 0.  1.
</event>
<event>
 5   0  0.1034714E-05  0.2526666E+04  0.7818609E-02  0.8393547E-01
        1   -1    0    0  501    0  0.00000000000E+00  0.00000000000E+00  0.14278094145E+04  0.14278094145E+04  0.50400001928E-02 0. -1.
       -1   -1    0    0    0  501  0.00000000000E+00  0.00000000000E+00 -0.11178033514E+04  0.11178033514E+04  0.50400001928E-02 0.  1.
    10030    2    1    2    0    0  0.00000000000E+00  0.00000000000E+00  0.31000606309E+03  0.25456127659E+04  0.25266659048E+04 0.  0.
        5    1    3    3  502    0  0.92756594520E+03  0.66999532668E+03 -0.38447068013E+03  0.12071089902E+04  0.46999998093E+01 0.  1.
       -5    1    3    3    0  502 -0.92756594520E+03 -0.66999532668E+03  0.69447674321E+03  0.13385037756E+04  0.46999998093E+01 0. -1.
</event>
<event>
 5   0  0.1005492E-05  0.2505915E+04  0.7818609E-02  0.8400881E-01
       -1   -1    0    0    0  501  0.00000000000E+00  0.00000000000E+00  0.20687718365E+04  0.20687718365E+04  0.50400001928E-02 0.  1.
        1   -1    0    0  501    0  0.00000000000E+00  0.00000000000E+00 -0.75885698418E+03  0.75885698420E+03  0.50400001928E-02 0. -1.
    10030    2    1    2    0    0  0.00000000000E+00  0.00000000000E+00  0.13099148523E+04  0.28276288207E+04  0.25059145691E+04 0.  0.
        4    1    3    3  502    0  0.27139632220E+02  0.89521366741E+03  0.16436649193E+04  0.18718386816E+04  0.12699999809E+01 0.  1.
       -4    1    3    3    0  502 -0.27139632220E+02 -0.89521366741E+03 -0.33375006700E+03  0.95579013914E+03  0.12699999809E+01 0. -1.
</event>
<event>
 5   0  0.2517854E-05  0.2609632E+04  0.7818609E-02  0.8364937E-01
        2   -1    0    0  501    0  0.00000000000E+00  0.00000000000E+00  0.16888852532E+04  0.16888852532E+04  0.25500000920E-02 0.  1.
       -2   -1    0    0    0  501  0.00000000000E+00  0.00000000000E+00 -0.10080882863E+04  0.10080882863E+04  0.25500000920E-02 0. -1.
    10030    2    1    2    0    0  0.00000000000E+00  0.00000000000E+00  0.68079696682E+03  0.26969735395E+04  0.26096324957E+04 0.  0.
        4    1    3    3  502    0  0.51681998458E+03 -0.11907609626E+04  0.20356917237E+03  0.13139469500E+04  0.12699999809E+01 0.  1.
       -4    1    3    3    0  502 -0.51681998458E+03  0.11907609626E+04  0.47722779445E+03  0.13830265895E+04  0.12699999809E+01 0. -1.
</event>
<event>
 5   0  0.2484618E-05  0.2600916E+04  0.7818609E-02  0.8367890E-01
        2   -1    0    0  501    0  0.00000000000E+00  0.00000000000E+00  0.12406981339E+04  0.12406981339E+04  0.25500000920E-02 0. -1.
       -2   -1    0    0    0  501  0.00000000000E+00  0.00000000000E+00 -0.13630965884E+04  0.13630965884E+04  0.25500000920E-02 0.  1.
    10030    2    1    2    0    0  0.00000000000E+00  0.00000000000E+00 -0.12239845454E+03  0.26037947223E+04  0.26009162952E+04 0.  0.
        3    1    3    3  502    0 -0.57531638486E+03  0.11237562730E+04  0.25119463719E+03  0.12872124377E+04  0.10100000352E+00 0. -1.
       -3    1    3    3    0  502  0.57531638486E+03 -0.11237562730E+04 -0.37359309173E+03  0.13165822846E+04  0.10100000352E+00 0.  1.
</event>
<event>
 5   0  0.2528460E-05  0.2612949E+04  0.7818609E-02  0.8363816E-01
       -2   -1    0    0    0  501  0.00000000000E+00  0.00000000000E+00  0.17765295422E+04  0.17765295422E+04  0.25500000920E-02 0. -1.
        2   -1    0    0  501    0  0.00000000000E+00  0.00000000000E+00 -0.96079190316E+03  0.96079190317E+03  0.25500000920E-02 0.  1.
    10030    2    1    2    0    0  0.00000000000E+00  0.00000000000E+00  0.81573763904E+03  0.27373214454E+04  0.26129486791E+04 0.  0.
        5    1    3    3  502    0 -0.53450999419E+03  0.38750243098E+03  0.15889144506E+04  0.17206191587E+04  0.46999998093E+01 0. -1.
       -5    1    3    3    0  502  0.53450999419E+03 -0.38750243098E+03 -0.77317681154E+03  0.10167022867E+04  0.46999998093E+01 0.  1.
</event>
<event>
 5   0  0.2528460E-05  0.2622045E+04  0.7818609E-02  0.8360751E-01
        2   -1    0    0  501    0  0.00000000000E+00  0.00000000000E+00  0.86285128044E+03  0.86285128044E+03  0.25500000920E-02 0. -1.
       -2   -1    0    0    0  501  0.00000000000E+00  0.00000000000E+00 -0.19919770455E+04  0.19919770455E+04  0.25500000920E-02 0.  1.
    10030    2    1    2    0    0  0.00000000000E+00  0.00000000000E+00 -0.11291257651E+04  0.28548283260E+04  0.26220449610E+04 0.  0.
        5    1    3    3  502    0  0.62078394109E+03 -0.30219163787E+03 -0.17779855093E+04  0.19073403075E+04  0.46999998093E+01 0.  1.
       -5    1    3    3    0  502 -0.62078394109E+03  0.30219163787E+03  0.64885974417E+03  0.94748801846E+03  0.46999998093E+01 0. -1.
</event>
<event>
 5   0  0.2528460E-05  0.2557742E+04  0.7818609E-02  0.8382699E-01
        2   -1    0    0  501    0  0.00000000000E+00  0.00000000000E+00  0.15895908156E+04  0.15895908156E+04  0.25500000920E-02 0. -1.
       -2   -1    0    0    0  501  0.00000000000E+00  0.00000000000E+00 -0.10288883187E+04  0.10288883187E+04  0.25500000920E-02 0.  1.
    10030    2    1    2    0    0  0.00000000000E+00  0.00000000000E+00  0.56070249689E+03  0.26184791343E+04  0.25577423026E+04 0.  0.
        5    1    3    3  502    0 -0.31427618882E+03  0.11486487123E+03  0.15439734499E+04  0.15798226374E+04  0.46999998093E+01 0. -1.
       -5    1    3    3    0  502  0.31427618882E+03 -0.11486487123E+03 -0.98327095302E+03  0.10386564969E+04  0.46999998093E+01 0.  1.
</event>
<event>
 5   0  0.1034714E-05  0.2594809E+04  0.7818609E-02  0.8369966E-01
        1   -1    0    0  501    0  0.00000000000E+00  0.00000000000E+00  0.92919717270E+03  0.92919717272E+03  0.50400001928E-02 0.  1.
       -1   -1    0    0    0  501  0.00000000000E+00  0.00000000000E+00 -0.18115196170E+04  0.18115196170E+04  0.50400001928E-02 0. -1.
    10030    2    1    2    0    0  0.00000000000E+00  0.00000000000E+00 -0.88232244426E+03  0.27407167897E+04  0.25948093621E+04 0.  0.
        5    1    3    3  502    0  0.11811769731E+03  0.57655984715E+03  0.78008232153E+03  0.97720190653E+03  0.46999998093E+01 0.  1.
       -5    1    3    3    0  502 -0.11811769731E+03 -0.57655984715E+03 -0.16624047658E+04  0.17635148832E+04  0.46999998093E+01 0. -1.
</event>
<event>
 5   0  0.2555801E-05  0.2590609E+04  0.7818609E-02  0.8371398E-01
       -2   -1    0    0    0  501  0.00000000000E+00  0.00000000000E+00  0.84405118490E+03  0.84405118491E+03  0.25500000920E-02 0. -1.
        2   -1    0    0  501    0  0.00000000000E+00  0.00000000000E+00 -0.19878099596E+04  0.19878099596E+04  0.25500000920E-02 0.  1.
    10030    2    1    2    0    0  0.00000000000E+00  0.00000000000E+00 -0.11437587747E+04  0.28318611445E+04  0.25906086943E+04 0.  0.
        1    1    3    3  502    0  0.41388707189E+03 -0.11760074393E+04 -0.95605882091E+03  0.15710965835E+04  0.50400001928E-02 0.  1.
       -1    1    3    3    0  502 -0.41388707189E+03  0.11760074393E+04 -0.18769995383E+03  0.12607645610E+04  0.50400001928E-02 0. -1.
</event>
<event>
 5   0  0.9855352E-06  0.2653289E+04  0.7818609E-02  0.8350322E-01
       -1   -1    0    0    0  501  0.00000000000E+00  0.00000000000E+00  0.14907065522E+04  0.14907065522E+04  0.50400001928E-02 0.  1.
        1   -1    0    0  501    0  0.00000000000E+00  0.00000000000E+00 -0.11806385128E+04  0.11806385128E+04  0.50400001928E-02 0. -1.
    10030    2    1    2    0    0  0.00000000000E+00  0.00000000000E+00  0.31006803937E+03  0.26713450650E+04  0.26532889528E+04 0.  0.
        2    1    3    3  502    0 -0.10693462881E+03 -0.46640748604E+03  0.14007961056E+04  0.14802704777E+04  0.25500000920E-02 0.  1.
       -2    1    3    3    0  502  0.10693462881E+03  0.46640748604E+03 -0.10907280662E+04  0.11910745872E+04  0.25500000920E-02 0. -1.
</event>
<event>
 5   0  0.9855352E-06  0.2522171E+04  0.7818609E-02  0.8395129E-01
       -1   -1    0    0    0  501  0.00000000000E+00  0.00000000000E+00  0.14791090493E+04  0.14791090493E+04  0.50400001928E-02 0. -1.
        1   -1    0    0  501    0  0.00000000000E+00  0.00000000000E+00 -0.10751993090E+04  0.10751993090E+04  0.50400001928E-02 0.  1.
    10030    2    1    2    0    0  0.00000000000E+00  0.00000000000E+00  0.40390974030E+03  0.25543083583E+04  0.25221713088E+04 0.  0.
        2    1    3    3  502    0 -0.28907338568E+03  0.11308609664E+04  0.68545512457E+03  0.13536094988E+04  0.25500000920E-02 0. -1.
       -2    1    3    3    0  502  0.28907338568E+03 -0.11308609664E+04 -0.28154538427E+03  0.12006988594E+04  0.25500000920E-02 0.  1.
</event>
<event>
 5   0  0.1000421E-05  0.2628665E+04  0.7818609E-02  0.8358529E-01
        1   -1    0    0  501    0  0.00000000000E+00  0.00000000000E+00  0.20961303185E+04  0.20961303185E+04  0.50400001928E-02 0. -1.
       -1   -1    0    0    0  501  0.00000000000E+00  0.00000000000E+00 -0.82412332540E+03  0.82412332541E+03  0.50400001928E-02 0.  1.
    10030    2    1    2    0    0  0.00000000000E+00  0.00000000000E+00  0.12720069931E+04  0.29202536439E+04  0.26286649757E+04 0.  0.
        3    1    3    3  502    0  0.11787796572E+04  0.57976461152E+03  0.68341538093E+03  0.14807785378E+04  0.10100000352E+00 0.  1.
       -3    1    3    3    0  502 -0.11787796572E+04 -0.57976461152E+03  0.58859161214E+03  0.14394751061E+04  0.10100000352E+00 0. -1.
</event>
<event>
 5   0  0.2555801E-05  0.2573375E+04  0.7818609E-02  0.8377302E-01
       -2   -1    0    0    0  501  0.00000000000E+00  0.00000000000E+00  0.80991943873E+03  0.80991943874E+03  0.25500000920E-02 0.  1.
        2   -1    0    0  501    0  0.00000000000E+00  0.00000000000E+00 -0.20441106671E+04  0.20441106671E+04  0.25500000920E-02 0. -1.
    10030    2    1    2    0    0  0.00000000000E+00  0.00000000000E+00 -0.12341912284E+04  0.28540301059E+04  0.25733751878E+04 0.  0.
        1    1    3    3  502    0  0.70842890414E+03 -0.49642256704E+03  0.43928607503E+03  0.97019540972E+03  0.50400001928E-02 0.  1.
       -1    1    3    3    0  502 -0.70842890414E+03  0.49642256704E+03 -0.16734773034E+04  0.18838346961E+04  0.50400001928E-02 0. -1.
</event>
<event>
 5   0  0.1005492E-05  0.2654513E+04  0.7818609E-02  0.8349917E-01
        1   -1    0    0  501    0  0.00000000000E+00  0.00000000000E+00  0.20530782390E+04  0.20530782390E+04  0.50400001928E-02 0. -1.
       -1   -1    0    0    0  501  0.00000000000E+00  0.00000000000E+00 -0.85803336308E+03  0.85803336310E+03  0.50400001928E-02 0.  1.
    10030    2    1    2    0    0  0.00000000000E+00  0.00000000000E+00  0.11950448759E+04  0.29111116021E+04  0.26545128563E+04 0.  0.
        4    1    3    3  502    0 -0.10329780316E+04  0.81330361291E+03  0.39799679028E+03  0.13736482223E+04  0.12699999809E+01 0.  1.
       -4    1    3    3    0  502  0.10329780316E+04 -0.81330361291E+03  0.79704808563E+03  0.15374633798E+04  0.12699999809E+01 0. -1.
</event>
<event>
 5   0  0.1005492E-05  0.2615783E+04  0.7818609E-02  0.8362860E-01
       -1   -1    0    0    0  501  0.00000000000E+00  0.00000000000E+00  0.96141758789E+03  0.96141758791E+03  0.50400001928E-02 0.  1.
        1   -1    0    0  501    0  0.00000000000E+00  0.00000000000E+00 -0.17792267908E+04  0.17792267908E+04  0.50400001928E-02 0. -1.
    10030    2    1    2    0    0  0.00000000000E+00  0.00000000000E+00 -0.81780920288E+03  0.27406443787E+04  0.26157828117E+04 0.  0.
        4    1    3    3  502    0 -0.42822334075E+02  0.10382112699E+03 -0.17741649135E+04  0.17777163249E+04  0.12699999809E+01 0. -1.
       -4    1    3    3    0  502  0.42822334075E+02 -0.10382112699E+03  0.95635571059E+03  0.96292805379E+03  0.12699999809E+01 0.  1.
</event>
<event>
 5   0  0.1034714E-05  0.2712907E+04  0.7818609E-02  0.8330829E-01
        1   -1    0    0  501    0  0.00000000000E+00  0.00000000000E+00  0.18313809439E+04  0.18313809439E+04  0.50400001928E-02 0. -1.
       -1   -1    0    0    0  501  0.00000000000E+00  0.00000000000E+00 -0.10046877731E+04  0.10046877731E+04  0.50400001928E-02 0.  1.
    10030    2    1    2    0    0  0.00000000000E+00  0.00000000000E+00  0.82669317079E+03  0.28360687171E+04  0.27129069592E+04 0.  0.
        5    1    3    3  502    0 -0.12363257206E+04 -0.50427420893E+03  0.66326063859E+03  0.14908824668E+04  0.46999998093E+01 0.  1.
       -5    1    3    3    0  502  0.12363257206E+04  0.50427420893E+03  0.16343253220E+03  0.13451862502E+04  0.46999998093E+01 0. -1.
</event>
<event>
 5   0  0.2662024E-05  0.2045628E+04  0.7818609E-02  0.8585580E-01
        2   -1    0    0  501    0  0.00000000000E+00  0.00000000000E+00  0.96732408714E+03  0.96732408715E+03  0.25500000920E-02 0. -1.
       -2   -1    0    0    0  501  0.00000000000E+00  0.00000000000E+00 -0.10814875492E+04  0.10814875492E+04  0.25500000920E-02 0.  1.
    10030    2    1    2    0    0  0.00000000000E+00  0.00000000000E+00 -0.11416346208E+03  0.20488116364E+04  0.20456284671E+04 0.  0.
        2    1    3    3  502    0  0.55395038247E+03 -0.18528461405E+03 -0.89800574357E+03  0.10712636137E+04  0.25500000920E-02 0.  1.
       -2    1    3    3    0  502 -0.55395038247E+03  0.18528461405E+03  0.78384228150E+03  0.97754802271E+03  0.25500000920E-02 0. -1.
</event>
<event>
 5   0  0.2517854E-05  0.2609799E+04  0.7818609E-02  0.8364880E-01
       -2   -1    0    0    0  501  0.00000000000E+00  0.00000000000E+00  0.90601502522E+03  0.90601502522E+03  0.25500000920E-02 0.  1.
        2   -1    0    0  501    0  0.00000000000E+00  0.00000000000E+00 -0.18793980426E+04  0.18793980426E+04  0.25500000920E-02 0. -1.
    10030    2    1    2    0    0  0.00000000000E+00  0.00000000000E+00 -0.97338301742E+03  0.27854130679E+04  0.26097991225E+04 0.  0.
        4    1    3    3  502    0  0.59734668432E+02 -0.79590375808E+03 -0.15885001403E+04  0.17777416380E+04  0.12699999809E+01 0. -1.
       -4    1    3    3    0  502 -0.59734668432E+02  0.79590375808E+03  0.61511712292E+03  0.10076714299E+04  0.12699999809E+01 0.  1.
</event>
<event>
 5   0  0.2528460E-05  0.2554903E+04  0.7818609E-02  0.8383683E-01
       -2   -1    0    0    0  501  0.00000000000E+00  0.00000000000E+00  0.13917120283E+04  0.13917120283E+04  0.25500000920E-02 0. -1.
        2   -1    0    0  501    0  0.00000000000E+00  0.00000000000E+00 -0.11725719294E+04  0.11725719294E+04  0.25500000920E-02 0.  1.
    10030    2    1    2    0    0  0.00000000000E+00  0.00000000000E+00  0.21914009889E+03  0.25642839578E+04  0.25549030966E+04 0.  0.
        5    1    3    3  502    0  0.21687746881E+02 -0.10107950904E+04 -0.67411909437E+03  0.12151690074E+04  0.46999998093E+01 0.  1.
       -5    1    3    3    0  502 -0.21687746881E+02  0.10107950904E+04  0.89325919326E+03  0.13491149504E+04  0.46999998093E+01 0. -1.
</event>
<event>
 5   0  0.2484618E-05  0.2592421E+04  0.7818609E-02  0.8370780E-01
        2   -1    0    0  501    0  0.00000000000E+00  0.00000000000E+00  0.15940664712E+04  0.15940664712E+04  0.25500000920E-02 0.  1.
       -2   -1    0    0    0  501  0.00000000000E+00  0.00000000000E+00 -0.10540100939E+04  0.10540100939E+04  0.25500000920E-02 0. -1.
    10030    2    1    2    0    0  0.00000000000E+00  0.00000000000E+00  0.54005637730E+03  0.26480765651E+04  0.25924213786E+04 0.  0.
        3    1    3    3  502    0 -0.72817775654E+03  0.75138044680E+03  0.10515327878E+04  0.14834205860E+04  0.10100000352E+00 0.  1.
       -3    1    3    3    0  502  0.72817775654E+03 -0.75138044680E+03 -0.51147641051E+03  0.11646559791E+04  0.10100000352E+00 0. -1.
</event>
<event>
 5   0  0.2528460E-05  0.2610370E+04  0.7818609E-02  0.8364687E-01
       -2   -1    0    0    0  501  0.00000000000E+00  0.00000000000E+00  0.11654803633E+04  0.11654803633E+04  0.25500000920E-02 0. -1.
        2   -1    0    0  501    0  0.00000000000E+00  0.00000000000E+00 -0.14616359030E+04  0.14616359030E+04  0.25500000920E-02 0.  1.
    10030    2    1    2    0    0  0.00000000000E+00  0.00000000000E+00 -0.29615553972E+03  0.26271162663E+04  0.26103700452E+04 0.  0.
        5    1    3    3  502    0 -0.36443305130E+03  0.64049233440E+03  0.93607205783E+03  0.11913416247E+04  0.46999998093E+01 0. -1.
       -5    1    3    3    0  502  0.36443305130E+03 -0.64049233440E+03 -0.12322275975E+04  0.14357746416E+04  0.46999998093E+01 0.  1.
</event>
<event>
 5   0  0.2662024E-05  0.2819675E+04  0.7818609E-02  0.8297186E-01
       -2   -1    0    0    0  501  0.00000000000E+00  0.00000000000E+00  0.18045269765E+04  0.18045269765E+04  0.25500000920E-02 0. -1.
        2   -1    0    0  501    0  0.00000000000E+00  0.00000000000E+00 -0.11014753268E+04  0.11014753268E+04  0.25500000920E-02 0.  1.
    10030    2    1    2    0    0  0.00000000000E+00  0.00000000000E+00  0.70305164972E+03  0.29060023034E+04  0.28196751169E+04 0.  0.
        2    1    3    3  502    0 -0.51311827501E+03  0.12381519723E+04 -0.99280354127E+02  0.13439372230E+04  0.25500000920E-02 0.  1.
       -2    1    3    3    0  502  0.51311827501E+03 -0.12381519723E+04  0.80233200384E+03  0.15620650803E+04  0.25500000920E-02 0. -1.
</event>
<event>
 5   0  0.1025153E-05  0.2611498E+04  0.7818609E-02  0.8364306E-01
       -1   -1    0    0    0  501  0.00000000000E+00  0.00000000000E+00  0.17649500005E+04  0.17649500005E+04  0.50400001928E-02 0. -1.
        1   -1    0    0  501    0  0.00000000000E+00  0.00000000000E+00 -0.96602201198E+03  0.96602201200E+03  0.50400001928E-02 0.  1.
    10030    2    1    2    0    0  0.00000000000E+00  0.00000000000E+00  0.79892798855E+03  0.27309720125E+04  0.26114980763E+04 0.  0.
        1    1    3    3  502    0  0.99688027374E+02  0.95315519696E+03 -0.52797937159E+03  0.10941685195E+04  0.50400001928E-02 0.  1.
       -1    1    3    3    0  502 -0.99688027374E+02 -0.95315519696E+03  0.13269073601E+04  0.16368034930E+04  0.50400001928E-02 0. -1.
</event>
<event>
 5   0  0.1005492E-05  0.2564944E+04  0.7818609E-02  0.8380207E-01
       -1   -1    0    0    0  501  0.00000000000E+00  0.00000000000E+00  0.16434518040E+04  0.16434518040E+04  0.50400001928E-02 0.  1.
        1   -1    0    0  501    0  0.00000000000E+00  0.00000000000E+00 -0.10007808020E+04  0.10007808020E+04  0.50400001928E-02 0. -1.
    10030    2    1    2    0    0  0.00000000000E+00  0.00000000000E+00  0.64267100203E+03  0.26442326060E+04  0.25649444551E+04 0.  0.
        4    1    3    3  502    0 -0.31952930543E+02  0.90891183717E+03 -0.61082334265E+03  0.10955585271E+04  0.12699999809E+01 0. -1.
       -4    1    3    3    0  502  0.31952930543E+02 -0.90891183717E+03  0.12534943447E+04  0.15486740789E+04  0.12699999809E+01 0.  1.
</event>
<event>
 5   0  0.2517854E-05  0.2619906E+04  0.7818609E-02  0.8361471E-01
        2   -1    0    0  501    0  0.00000000000E+00  0.00000000000E+00  0.10206899243E+04  0.10206899243E+04  0.25500000920E-02 0.  1.
       -2   -1    0    0    0  501  0.00000000000E+00  0.00000000000E+00 -0.16811931718E+04  0.16811931718E+04  0.25500000920E-02 0. -1.
    10030    2    1    2    0    0  0.00000000000E+00  0.00000000000E+00 -0.66050324750E+03  0.27018830961E+04  0.26199060528E+04 0.  0.
        4    1    3    3  502    0  0.81578084611E+03  0.10084333030E+04 -0.14138413549E+03  0.13047709386E+04  0.12699999809E+01 0.  1.
       -4    1    3    3    0  502 -0.81578084611E+03 -0.10084333030E+04 -0.51911911201E+03  0.13971121576E+04  0.12699999809E+01 0. -1.
</event>
<event>
 5   0  0.2517854E-05  0.2554383E+04  0.7818609E-02  0.8383864E-01
        2   -1    0    0  501    0  0.00000000000E+00  0.00000000000E+00  0.10859614135E+04  0.10859614135E+04  0.25500000920E-02 0. -1.
       -2   -1    0    0    0  501  0.00000000000E+00  0.00000000000E+00 -0.15020953312E+04  0.15020953312E+04  0.25500000920E-02 0.  1.
    10030    2    1    2    0    0  0.00000000000E+00  0.00000000000E+00 -0.41613391768E+03  0.25880567447E+04  0.25543825627E+04 0.  0.
        4    1    3    3  502    0  0.12331037772E+04 -0.10282859685E+03 -0.52861937735E+03  0.13455700296E+04  0.12699999809E+01 0.  1.
       -4    1    3    3    0  502 -0.12331037772E+04  0.10282859685E+03  0.11248545966E+03  0.12424867151E+04  0.12699999809E+01 0. -1.
</event>
<event>
 5   0  0.9855352E-06  0.2442083E+04  0.7818609E-02  0.8423914E-01
        1   -1    0    0  501    0  0.00000000000E+00  0.00000000000E+00  0.17046016539E+04  0.17046016539E+04  0.50400001928E-02 0.  1.
       -1   -1    0    0    0  501  0.00000000000E+00  0.00000000000E+00 -0.87465721133E+03  0.87465721134E+03  0.50400001928E-02 0. -1.
    10030    2    1    2    0    0  0.00000000000E+00  0.00000000000E+00  0.82994444261E+03  0.25792588653E+04  0.24420828234E+04 0.  0.
        2    1    3    3  502    0  0.79306837436E+03 -0.62835322136E+03 -0.30690931248E+03  0.10573450446E+04  0.25500000920E-02 0. -1.
       -2    1    3    3    0  502 -0.79306837436E+03  0.62835322136E+03  0.11368537551E+04  0.15219138207E+04  0.25500000920E-02 0.  1.
</event>
<event>
 5   0  0.9855352E-06  0.2598115E+04  0.7818609E-02  0.8368842E-01
       -1   -1    0    0    0  501  0.00000000000E+00  0.00000000000E+00  0.15845945734E+04  0.15845945734E+04  0.50400001928E-02 0. -1.
        1   -1    0    0  501    0  0.00000000000E+00  0.00000000000E+00 -0.10649729384E+04  0.10649729384E+04  0.50400001928E-02 0.  1.
    10030    2    1    2    0    0  0.00000000000E+00  0.00000000000E+00  0.51962163497E+03  0.26495675118E+04  0.25981149620E+04 0.  0.
        2    1    3    3  502    0  0.10510908275E+04  0.39844771880E+03 -0.40423560492E+03  0.11945538651E+04  0.25500000920E-02 0.  1.
       -2    1    3    3    0  502 -0.10510908275E+04 -0.39844771880E+03  0.92385723988E+03  0.14550136467E+04  0.25500000920E-02 0. -1.
</event>
<event>
 5   0  0.2662024E-05  0.2448050E+04  0.7818609E-02  0.8421730E-01
        2   -1    0    0  501    0  0.00000000000E+00  0.00000000000E+00  0.74218857179E+03  0.74218857179E+03  0.25500000920E-02 0. -1.
       -2   -1    0    0    0  501  0.00000000000E+00  0.00000000000E+00 -0.20186751626E+04  0.20186751626E+04  0.25500000920E-02 0.  1.
    10030    2    1    2    0    0  0.00000000000E+00  0.00000000000E+00 -0.12764865908E+04  0.27608637344E+04  0.24480503556E+04 0.  0.
        2    1    3    3  502    0 -0.49879593385E+03 -0.93190962835E+03  0.57867535320E+02  0.10585847112E+04  0.25500000920E-02 0. -1.
       -2    1    3    3    0  502  0.49879593385E+03  0.93190962835E+03 -0.13343541261E+04  0.17022790232E+04  0.25500000920E-02 0.  1.
</event>
<event>
 5   0  0.2484618E-05  0.2605162E+04  0.7818609E-02  0.8366450E-01
        2   -1    0    0  501    0  0.00000000000E+00  0.00000000000E+00  0.18179206221E+04  0.18179206221E+04  0.25500000920E-02 0.  1.
       -2   -1    0    0    0  501  0.00000000000E+00  0.00000000000E+00 -0.93332853400E+03  0.93332853400E+03  0.25500000920E-02 0. -1.
    10030    2    1    2    0    0  0.00000000000E+00  0.00000000000E+00  0.88459208815E+03  0.27512491562E+04  0.26051619445E+04 0.  0.
        3    1    3    3  502    0  0.85385245997E+03 -0.14151155747E+02  0.14810438330E+04  0.17096067162E+04  0.10100000352E+00 0.  1.
       -3    1    3    3    0  502 -0.85385245997E+03  0.14151155747E+02 -0.59645174484E+03  0.10416424400E+04  0.10100000352E+00 0. -1.
</event>
<event>
 5   0  0.2662024E-05  0.2568460E+04  0.7818609E-02  0.8378994E-01
       -2   -1    0    0    0  501  0.00000000000E+00  0.00000000000E+00  0.11221736490E+04  0.11221736490E+04  0.25500000920E-02 0.  1.
        2   -1    0    0  501    0  0.00000000000E+00  0.00000000000E+00 -0.14696888974E+04  0.14696888974E+04  0.25500000920E-02 0. -1.
    10030    2    1    2    0    0  0.00000000000E+00  0.00000000000E+00 -0.34751524843E+03  0.25918625464E+04  0.25684595795E+04 0.  0.
        2    1    3    3  502    0 -0.65476844199E+03 -0.99526555607E+03 -0.65767997960E+03  0.13608152686E+04  0.25500000920E-02 0. -1.
       -2    1    3    3    0  502  0.65476844199E+03  0.99526555607E+03  0.31016473117E+03  0.12310472778E+04  0.25500000920E-02 0.  1.
</event>
<event>
 5   0  0.2555801E-05  0.2556268E+04  0.7818609E-02  0.8383209E-01
       -2   -1    0    0    0  501  0.00000000000E+00  0.00000000000E+00  0.13968188177E+04  0.13968188177E+04  0.25500000920E-02 0. -1.
        2   -1    0    0  501    0  0.00000000000E+00  0.00000000000E+00 -0.11695337466E+04  0.11695337466E+04  0.25500000920E-02 0.  1.
    10030    2    1    2    0    0  0.00000000000E+00  0.00000000000E+00  0.22728507116E+03  0.25663525643E+04  0.25562681746E+04 0.  0.
        1    1    3    3  502    0 -0.42294814601E+03  0.71872707268E+03  0.10860569157E+04  0.13692966674E+04  0.50400001928E-02 0. -1.
       -1    1    3    3    0  502  0.42294814601E+03 -0.71872707268E+03 -0.85877184456E+03  0.11970558969E+04  0.50400001928E-02 0.  1.
</event>
<event>
 5   0  0.1034714E-05  0.2675088E+04  0.7818609E-02  0.8343134E-01
        1   -1    0    0  501    0  0.00000000000E+00  0.00000000000E+00  0.11092953343E+04  0.11092953343E+04  0.50400001928E-02 0. -1.
       -1   -1    0    0    0  501  0.00000000000E+00  0.00000000000E+00 -0.16127572431E+04  0.16127572431E+04  0.50400001928E-02 0.  1.
    10030    2    1    2    0    0  0.00000000000E+00  0.00000000000E+00 -0.50346190877E+03  0.27220525774E+04  0.26750880996E+04 0.  0.
        5    1    3    3  502    0 -0.60945022397E+03 -0.11891587734E+04 -0.19175698612E+03  0.13499337004E+04  0.46999998093E+01 0. -1.
       -5    1    3    3    0  502  0.60945022397E+03  0.11891587734E+04 -0.31170492265E+03  0.13721188770E+04  0.46999998093E+01 0.  1.
</event>
<event>
 5   0  0.2528460E-05  0.2625497E+04  0.7818609E-02  0.8359592E-01
       -2   -1    0    0    0  501  0.00000000000E+00  0.00000000000E+00  0.73022105116E+03  0.73022105116E+03  0.25500000920E-02 0. -1.
        2   -1    0    0  501    0  0.00000000000E+00  0.00000000000E+00 -0.23599813719E+04  0.23599813719E+04  0.25500000920E-02 0.  1.
    10030    2    1    2    0    0  0.00000000000E+00  0.00000000000E+00 -0.16297603207E+04  0.30902024231E+04  0.26254965840E+04 0.  0.
        5    1    3    3  502    0  0.87124636140E+03 -0.50235045277E+03  0.17817346620E+03  0.10213687256E+04  0.46999998093E+01 0. -1.
       -5    1    3    3    0  502 -0.87124636140E+03  0.50235045277E+03 -0.18079337869E+04  0.20688336974E+04  0.46999998093E+01 0.  1.
</event>
<event>
 5   0  0.2517854E-05  0.2600487E+04  0.7818609E-02  0.8368036E-01
        2   -1    0    0  501    0  0.00000000000E+00  0.00000000000E+00  0.94732847205E+03  0.94732847206E+03  0.25500000920E-02 0. -1.
       -2   -1    0    0    0  501  0.00000000000E+00  0.00000000000E+00 -0.17846330420E+04  0.17846330420E+04  0.25500000920E-02 0.  1.
    10030    2    1    2    0    0  0.00000000000E+00  0.00000000000E+00 -0.83730456992E+03  0.27319615140E+04  0.26004874103E+04 0.  0.
        4    1    3    3  502    0  0.11834019245E+04 -0.36121527457E+03  0.11969256786E+01  0.12373033723E+04  0.12699999809E+01 0. -1.
       -4    1    3    3    0  502 -0.11834019245E+04  0.36121527457E+03 -0.83850149560E+03  0.14946581417E+04  0.12699999809E+01 0.  1.
</event>
<event>
 5   0  0.2662024E-05  0.2598478E+04  0.7818609E-02  0.8368718E-01
        2   -1    0    0  501    0  0.00000000000E+00  0.00000000000E+00  0.67613071332E+03  0.67613071333E+03  0.25500000920E-02 0.  1.
       -2   -1    0    0    0  501  0.00000000000E+00  0.00000000000E+00 -0.24965917818E+04  0.24965917818E+04  0.25500000920E-02 0. -1.
    10030    2    1    2    0    0  0.00000000000E+00  0.00000000000E+00 -0.18204610685E+04  0.31727224951E+04  0.25984783103E+04 0.  0.
        2    1    3    3  502    0  0.27277913484E+03 -0.90511147107E+03  0.17802052155E+03  0.96193894690E+03  0.25500000920E-02 0. -1.
       -2    1    3    3    0  502 -0.27277913484E+03  0.90511147107E+03 -0.19984815900E+04  0.22107835482E+04  0.25500000920E-02 0.  1.
</event>
<event>
 5   0  0.1000421E-05  0.2576539E+04  0.7818609E-02  0.8376214E-01
        1   -1    0    0  501    0  0.00000000000E+00  0.00000000000E+00  0.13804195055E+04  0.13804195056E+04  0.50400001928E-02 0. -1.
       -1   -1    0    0    0  501  0.00000000000E+00  0.00000000000E+00 -0.12022710946E+04  0.12022710946E+04  0.50400001928E-02 0.  1.
    10030    2    1    2    0    0  0.00000000000E+00  0.00000000000E+00  0.17814841097E+03  0.25826906001E+04  0.25765391283E+04 0.  0.
        3    1    3    3  502    0  0.34895451927E+03  0.21592444503E+03 -0.11350070903E+04  0.12069108201E+04  0.10100000352E+00 0.  1.
       -3    1    3    3    0  502 -0.34895451927E+03 -0.21592444503E+03  0.13131555013E+04  0.13757797800E+04  0.10100000352E+00 0. -1.
</event>
<event>
 5   0  0.1034714E-05  0.2610018E+04  0.7818609E-02  0.8364806E-01
        1   -1    0    0  501    0  0.00000000000E+00  0.00000000000E+00  0.15108326780E+04  0.15108326781E+04  0.50400001928E-02 0. -1.
       -1   -1    0    0    0  501  0.00000000000E+00  0.00000000000E+00 -0.11272252378E+04  0.11272252378E+04  0.50400001928E-02 0.  1.
    10030    2    1    2    0    0  0.00000000000E+00  0.00000000000E+00  0.38360744022E+03  0.26380579159E+04  0.26100181799E+04 0.  0.
        5    1    3    3  502    0  0.22755597666E+03  0.11282558958E+04 -0.42985140597E+03  0.12286323331E+04  0.46999998093E+01 0.  1.
       -5    1    3    3    0  502 -0.22755597666E+03 -0.11282558958E+04  0.81345884619E+03  0.14094255827E+04  0.46999998093E+01 0. -1.
</event>
<event>
 5   0  0.2555801E-05  0.2580441E+04  0.7818609E-02  0.8374876E-01
       -2   -1    0    0    0  501  0.00000000000E+00  0.00000000000E+00  0.51296299453E+03  0.51296299453E+03  0.25500000920E-02 0. -1.
        2   -1    0    0  501    0  0.00000000000E+00  0.00000000000E+00 -0.32452019971E+04  0.32452019971E+04  0.25500000920E-02 0.  1.
    10030    2    1    2    0    0  0.00000000000E+00  0.00000000000E+00 -0.27322390025E+04  0.37581649916E+04  0.25804406866E+04 0.  0.
        1    1    3    3  502    0  0.95745879518E+03  0.48000596364E+03 -0.31838313193E+03  0.11173633645E+04  0.50400001928E-02 0. -1.
       -1    1    3    3    0  502 -0.95745879518E+03 -0.48000596364E+03 -0.24138558706E+04  0.26408016271E+04  0.50400001928E-02 0.  1.
</event>
<event>
 5   0  0.2528460E-05  0.2567442E+04  0.7818609E-02  0.8379345E-01
       -2   -1    0    0    0  501  0.00000000000E+00  0.00000000000E+00  0.71267129263E+03  0.71267129263E+03  0.25500000920E-02 0. -1.
        2   -1    0    0  501    0  0.00000000000E+00  0.00000000000E+00 -0.23123411167E+04  0.23123411167E+04  0.25500000920E-02 0.  1.
    10030    2    1    2    0    0  0.00000000000E+00  0.00000000000E+00 -0.15996698240E+04  0.30250124093E+04  0.25674416314E+04 0.  0.
        5    1    3    3  502    0  0.33757437911E+03 -0.11184088058E+04 -0.14267570976E+04  0.18440316223E+04  0.46999998093E+01 0.  1.
       -5    1    3    3    0  502 -0.33757437911E+03  0.11184088058E+04 -0.17291272639E+03  0.11809807870E+04  0.46999998093E+01 0. -1.
</event>
<event>
 5   0  0.2528460E-05  0.2587706E+04  0.7818609E-02  0.8372389E-01
       -2   -1    0    0    0  501  0.00000000000E+00  0.00000000000E+00  0.11191595317E+04  0.11191595317E+04  0.25500000920E-02 0. -1.
        2   -1    0    0  501    0  0.00000000000E+00  0.00000000000E+00 -0.14958147221E+04  0.14958147221E+04  0.25500000920E-02 0.  1.
    10030    2    1    2    0    0  0.00000000000E+00  0.00000000000E+00 -0.37665519037E+03  0.26149742539E+04  0.25877057823E+04 0.  0.
        5    1    3    3  502    0 -0.11006715081E+04  0.42274131600E+03  0.35005785843E+03  0.12299392600E+04  0.46999998093E+01 0. -1.
       -5    1    3    3    0  502  0.11006715081E+04 -0.42274131600E+03 -0.72671304880E+03  0.13850349939E+04  0.46999998093E+01 0.  1.
</event>
<event>
 5   0  0.1005492E-05  0.2626807E+04  0.7818609E-02  0.8359152E-01
       -1   -1    0    0    0  501  0.00000000000E+00  0.00000000000E+00  0.13049211689E+04  0.13049211689E+04  0.50400001928E-02 0.  1.
        1   -1    0    0  501    0  0.00000000000E+00  0.00000000000E+00 -0.13219412933E+04  0.13219412933E+04  0.50400001928E-02 0. -1.
    10030    2    1    2    0    0  0.00000000000E+00  0.00000000000E+00 -0.17020124350E+02  0.26268624622E+04  0.26268073227E+04 0.  0.
        4    1    3    3  502    0 -0.17584749499E+03  0.94064878979E+03 -0.90813167898E+03  0.13192601133E+04  0.12699999809E+01 0. -1.
       -4    1    3    3    0  502  0.17584749499E+03 -0.94064878979E+03  0.89111155463E+03  0.13076023489E+04  0.12699999809E+01 0.  1.
</event>
<event>
 5   0  0.1005492E-05  0.2528284E+04  0.7818609E-02  0.8392978E-01
       -1   -1    0    0    0  501  0.00000000000E+00  0.00000000000E+00  0.97688797706E+03  0.97688797707E+03  0.50400001928E-02 0.  1.
        1   -1    0    0  501    0  0.00000000000E+00  0.00000000000E+00 -0.16358633097E+04  0.16358633097E+04  0.50400001928E-02 0. -1.
    10030    2    1    2    0    0  0.00000000000E+00  0.00000000000E+00 -0.65897533262E+03  0.26127512868E+04  0.25282841607E+04 0.  0.
        4    1    3    3  502    0  0.86133345871E+03  0.74044246341E+03  0.24394086818E+03  0.11617483070E+04  0.12699999809E+01 0.  1.
       -4    1    3    3    0  502 -0.86133345871E+03 -0.74044246341E+03 -0.90291620079E+03  0.14510029798E+04  0.12699999809E+01 0. -1.
</event>
<event>
 5   0  0.9855352E-06  0.2577949E+04  0.7818609E-02  0.8375730E-01
       -1   -1    0    0    0  501  0.00000000000E+00  0.00000000000E+00  0.16036430125E+04  0.16036430125E+04  0.50400001928E-02 0.  1.
        1   -1    0    0  501    0  0.00000000000E+00  0.00000000000E+00 -0.10360504828E+04  0.10360504828E+04  0.50400001928E-02 0. -1.
    10030    2    1    2    0    0  0.00000000000E+00  0.00000000000E+00  0.56759252971E+03  0.26396934953E+04  0.25779488881E+04 0.  0.
        2    1    3    3  502    0 -0.20657030186E+03  0.10586177631E+04 -0.43887837553E+03  0.11644557040E+04  0.25500000920E-02 0. -1.
       -2    1    3    3    0  502  0.20657030186E+03 -0.10586177631E+04  0.10064709052E+04  0.14752377914E+04  0.25500000920E-02 0.  1.
</event>
<event>
 5   0  0.2555801E-05  0.2618044E+04  0.7818609E-02  0.8362098E-01
       -2   -1    0    0    0  501  0.00000000000E+00  0.00000000000E+00  0.10838347233E+04  0.10838347233E+04  0.25500000920E-02 0. -1.
        2   -1    0    0  501    0  0.00000000000E+00  0.00000000000E+00 -0.15809958945E+04  0.15809958945E+04  0.25500000920E-02 0.  1.
    10030    2    1    2    0    0  0.00000000000E+00  0.00000000000E+00 -0.49716117121E+03  0.26648306178E+04  0.26180437337E+04 0.  0.
        1    1    3    3  502    0 -0.12109791810E+04  0.19146729149E+03  0.21831931588E+03  0.12453086462E+04  0.50400001928E-02 0. -1.
       -1    1    3    3    0  502  0.12109791810E+04 -0.19146729149E+03 -0.71548048709E+03  0.14195219716E+04  0.50400001928E-02 0.  1.
</event>
<event>
 5   0  0.2528460E-05  0.2702639E+04  0.7818609E-02  0.8334149E-01
       -2   -1    0    0    0  501  0.00000000000E+00  0.00000000000E+00  0.91725743974E+03  0.91725743974E+03  0.25500000920E-02 0.  1.
        2   -1    0    0  501    0  0.00000000000E+00  0.00000000000E+00 -0.19907865821E+04  0.19907865821E+04  0.25500000920E-02 0. -1.
    10030    2    1    2    0    0  0.00000000000E+00  0.00000000000E+00 -0.10735291423E+04  0.29080440218E+04  0.27026385651E+04 0.  0.
        5    1    3    3  502    0 -0.66251124696E+03 -0.35282438100E+03  0.67230699448E+03  0.10076829764E+04  0.46999998093E+01 0.  1.
       -5    1    3    3    0  502  0.66251124696E+03  0.35282438100E+03 -0.17458361368E+04  0.19003610454E+04  0.46999998093E+01 0. -1.
</event>
<event>
 5   0  0.2484618E-05  0.2596813E+04  0.7818609E-02  0.8369285E-01
       -2   -1    0    0    0  501  0.00000000000E+00  0.00000000000E+00  0.10333768877E+04  0.10333768877E+04  0.25500000920E-02 0. -1.
        2   -1    0    0  501    0  0.00000000000E+00  0.00000000000E+00 -0.16314082786E+04  0.16314082786E+04  0.25500000920E-02 0.  1.
    10030    2    1    2    0    0  0.00000000000E+00  0.00000000000E+00 -0.59803139093E+03  0.26647851663E+04  0.25968131311E+04 0.  0.
        3    1    3    3  502    0 -0.12302904105E+04  0.19474972761E+03 -0.67510245497E+03  0.14167940166E+04  0.10100000352E+00 0.  1.
       -3    1    3    3    0  502  0.12302904105E+04 -0.19474972761E+03  0.77071064042E+02  0.12479911497E+04  0.10100000352E+00 0. -1.
</event>
<event>
 5   0  0.1005492E-05  0.2584988E+04  0.7818609E-02  0.8373318E-01
        1   -1    0    0  501    0  0.00000000000E+00  0.00000000000E+00  0.17825673658E+04  0.17825673658E+04  0.50400001928E-02 0.  1.
       -1   -1    0    0    0  501  0.00000000000E+00  0.00000000000E+00 -0.93715453522E+03  0.93715453523E+03  0.50400001928E-02 0. -1.
    10030    2    1    2    0    0  0.00000000000E+00  0.00000000000E+00  0.84541283055E+03  0.27197219010E+04  0.25849882717E+04 0.  0.
        4    1    3    3  502    0  0.46084504220E+03  0.54966914488E+03 -0.70852006826E+03  0.10082244898E+04  0.12699999809E+01 0. -1.
       -4    1    3    3    0  502 -0.46084504220E+03 -0.54966914488E+03  0.15539328988E+04  0.17114974112E+04  0.12699999809E+01 0.  1.
</event>
<event>
 5   0  0.2555801E-05  0.2573438E+04  0.7818609E-02  0.8377280E-01
       -2   -1    0    0    0  501  0.00000000000E+00  0.00000000000E+00  0.12413419864E+04  0.12413419864E+04  0.25500000920E-02 0.  1.
        2   -1    0    0  501    0  0.00000000000E+00  0.00000000000E+00 -0.13337542469E+04  0.13337542469E+04  0.25500000920E-02 0. -1.
    10030    2    1    2    0    0  0.00000000000E+00  0.00000000000E+00 -0.92412260571E+02  0.25750962333E+04  0.25734375036E+04 0.  0.
        1    1    3    3  502    0 -0.52549997356E+03  0.51780553582E+03  0.10086898365E+04  0.12496911544E+04  0.50400001928E-02 0.  1.
       -1    1    3    3    0  502  0.52549997356E+03 -0.51780553582E+03 -0.11011020970E+04  0.13254050789E+04  0.50400001928E-02 0. -1.
</event>
<event>
 5   0  0.1005492E-05  0.2598378E+04  0.7818609E-02  0.8368752E-01
       -1   -1    0    0    0  501  0.00000000000E+00  0.00000000000E+00  0.12967916421E+04  0.12967916421E+04  0.50400001928E-02 0. -1.
        1   -1    0    0  501    0  0.00000000000E+00  0.00000000000E+00 -0.13015910326E+04  0.13015910326E+04  0.50400001928E-02 0.  1.
    10030    2    1    2    0    0  0.00000000000E+00  0.00000000000E+00 -0.47993904168E+01  0.25983826747E+04  0.25983782423E+04 0.  0.
        4    1    3    3  502    0 -0.68169475318E+03 -0.50978340529E+02 -0.11072021192E+04  0.13012319830E+04  0.12699999809E+01 0.  1.
       -4    1    3    3    0  502  0.68169475318E+03  0.50978340529E+02  0.11024027288E+04  0.12971506918E+04  0.12699999809E+01 0. -1.
</event>
<event>
 5   0  0.2484618E-05  0.2688973E+04  0.7818609E-02  0.8338592E-01
       -2   -1    0    0    0  501  0.00000000000E+00  0.00000000000E+00  0.73406321406E+03  0.73406321406E+03  0.25500000920E-02 0.  1.
        2   -1    0    0  501    0  0.00000000000E+00  0.00000000000E+00 -0.24625173630E+04  0.24625173630E+04  0.25500000920E-02 0. -1.
    10030    2    1    2    0    0  0.00000000000E+00  0.00000000000E+00 -0.17284541489E+04  0.31965805771E+04  0.26889725995E+04 0.  0.
        3    1    3    3  502    0 -0.63714793797E+02 -0.63853087792E+03  0.54026904613E+03  0.83885154194E+03  0.10100000352E+00 0.  1.
       -3    1    3    3    0  502  0.63714793797E+02  0.63853087792E+03 -0.22687231951E+04  0.23577290351E+04  0.10100000352E+00 0. -1.
</event>
<event>
 5   0  0.2517854E-05  0.2694546E+04  0.7818609E-02  0.8336777E-01
        2   -1    0    0  501    0  0.00000000000E+00  0.00000000000E+00  0.11707000869E+04  0.11707000869E+04  0.25500000920E-02 0.  1.
       -2   -1    0    0    0  501  0.00000000000E+00  0.00000000000E+00 -0.15504780322E+04  0.15504780322E+04  0.25500000920E-02 0. -1.
    10030    2    1    2    0    0  0.00000000000E+00  0.00000000000E+00 -0.37977794525E+03  0.27211781191E+04  0.26945461711E+04 0.  0.
        4    1    3    3  502    0  0.11185994048E+04 -0.63875077789E+03  0.20882451243E+03  0.13049430925E+04  0.12699999809E+01 0.  1.
       -4    1    3    3    0  502 -0.11185994048E+04  0.63875077789E+03 -0.58860245768E+03  0.14162350267E+04  0.12699999809E+01 0. -1.
</event>
<event>
 5   0  0.1025153E-05  0.2607935E+04  0.7818609E-02  0.8365511E-01
        1   -1    0    0  501    0  0.00000000000E+00  0.00000000000E+00  0.90843227372E+03  0.90843227373E+03  0.50400001928E-02 0.  1.
       -1   -1    0    0    0  501  0.00000000000E+00  0.00000000000E+00 -0.18717207198E+04  0.18717207198E+04  0.50400001928E-02 0. -1.
    10030    2    1    2    0    0  0.00000000000E+00  0.00000000000E+00 -0.96328844609E+03  0.27801529936E+04  0.26079352057E+04 0.  0.
        1    1    3    3  502    0 -0.12813096896E+04 -0.66031249538E+02 -0.23342289726E+03  0.13040708936E+04  0.50400001928E-02 0.  1.
       -1    1    3    3    0  502  0.12813096896E+04  0.66031249538E+02 -0.72986554883E+03  0.14760821000E+04  0.50400001928E-02 0. -1.
</event>
<event>
 5   0  0.2555801E-05  0.2593585E+04  0.7818609E-02  0.8370384E-01
       -2   -1    0    0    0  501  0.00000000000E+00  0.00000000000E+00  0.93492476004E+03  0.93492476004E+03  0.25500000920E-02 0. -1.
        2   -1    0    0  501    0  0.00000000000E+00  0.00000000000E+00 -0.17987225947E+04  0.17987225947E+04  0.25500000920E-02 0.  1.
    10030    2    1    2    0    0  0.00000000000E+00  0.00000000000E+00 -0.86379783467E+03  0.27336473548E+04  0.25935846161E+04 0.  0.
        1    1    3    3  502    0 -0.52866869960E+03  0.33701442518E+03 -0.16283674888E+04  0.17448925455E+04  0.50400001928E-02 0.  1.
       -1    1    3    3    0  502  0.52866869960E+03 -0.33701442518E+03  0.76456965415E+03  0.98875480924E+03  0.50400001928E-02 0. -1.
</event>
<event>
 5   0  0.1034714E-05  0.2590399E+04  0.7818609E-02  0.8371470E-01
       -1   -1    0    0    0  501  0.00000000000E+00  0.00000000000E+00  0.78757010088E+03  0.78757010089E+03  0.50400001928E-02 0.  1.
        1   -1    0    0  501    0  0.00000000000E+00  0.00000000000E+00 -0.21300227667E+04  0.21300227667E+04  0.50400001928E-02 0. -1.
    10030    2    1    2    0    0  0.00000000000E+00  0.00000000000E+00 -0.13424526658E+04  0.29175928676E+04  0.25903993864E+04 0.  0.
        5    1    3    3  502    0 -0.30348768215E+03 -0.42354803470E+03 -0.20067576822E+04  0.20733056205E+04  0.46999998093E+01 0. -1.
       -5    1    3    3    0  502  0.30348768215E+03  0.42354803470E+03  0.66430501635E+03  0.84428724713E+03  0.46999998093E+01 0.  1.
</event>
<event>
 5   0  0.1034714E-05  0.2545571E+04  0.7818609E-02  0.8386928E-01
       -1   -1    0    0    0  501  0.00000000000E+00  0.00000000000E+00  0.12506317564E+04  0.12506317565E+04  0.50400001928E-02 0. -1.
        1   -1    0    0  501    0  0.00000000000E+00  0.00000000000E+00 -0.12953318065E+04  0.12953318065E+04  0.50400001928E-02 0.  1.
    10030    2    1    2    0    0  0.00000000000E+00  0.00000000000E+00 -0.44700050041E+02  0.25459635629E+04  0.25455711283E+04 0.  0.
        5    1    3    3  502    0 -0.65810837410E+03 -0.85531663819E+03  0.65250418682E+03  0.12611332156E+04  0.46999998093E+01 0. -1.
       -5    1    3    3    0  502  0.65810837410E+03  0.85531663819E+03 -0.69720423686E+03  0.12848303474E+04  0.46999998093E+01 0.  1.
</event>
<event>
 5   0  0.1005492E-05  0.2605774E+04  0.7818609E-02  0.8366243E-01
       -1   -1    0    0    0  501  0.00000000000E+00  0.00000000000E+00  0.14756309994E+04  0.14756309994E+04  0.50400001928E-02 0.  1.
        1   -1    0    0  501    0  0.00000000000E+00  0.00000000000E+00 -0.11503650930E+04  0.11503650930E+04  0.50400001928E-02 0. -1.
    10030    2    1    2    0    0  0.00000000000E+00  0.00000000000E+00  0.32526590643E+03  0.26259960924E+04  0.26057738903E+04 0.  0.
        4    1    3    3  502    0  0.41162036877E+03  0.29963132506E+03  0.13712326140E+04  0.14626998166E+04  0.12699999809E+01 0.  1.
       -4    1    3    3    0  502 -0.41162036877E+03 -0.29963132506E+03 -0.10459667076E+04  0.11632962758E+04  0.12699999809E+01 0. -1.
</event>
<event>
 5   0  0.1000421E-05  0.2576464E+04  0.7818609E-02  0.8376240E-01
        1   -1    0    0  501    0  0.00000000000E+00  0.00000000000E+00  0.18459996082E+04  0.18459996082E+04  0.50400001928E-02 0.  1.
       -1   -1    0    0    0  501  0.00000000000E+00  0.00000000000E+00 -0.89899357244E+03  0.89899357245E+03  0.50400001928E-02 0. -1.
    10030    2    1    2    0    0  0.00000000000E+00  0.00000000000E+00  0.94700603575E+03  0.27449931806E+04  0.25764640751E+04 0.  0.
        3    1    3    3  502    0 -0.69964490608E+03  0.10533117260E+04  0.73571792939E+03  0.14629591480E+04  0.10100000352E+00 0. -1.
       -3    1    3    3    0  502  0.69964490608E+03 -0.10533117260E+04  0.21128810636E+03  0.12820340327E+04  0.10100000352E+00 0.  1.
</event>
<event>
 5   0  0.1000421E-05  0.2623665E+04  0.7818609E-02  0.8360207E-01
       -1   -1    0    0    0  501  0.00000000000E+00  0.00000000000E+00  0.19109539360E+04  0.19109539360E+04  0.50400001928E-02 0.  1.
        1   -1    0    0  501    0  0.00000000000E+00  0.00000000000E+00 -0.90054721755E+03  0.90054721757E+03  0.50400001928E-02 0. -1.
    10030    2    1    2    0    0  0.00000000000E+00  0.00000000000E+00  0.10104067185E+04  0.28115011536E+04  0.26236648033E+04 0.  0.
        3    1    3    3  502    0 -0.11488117937E+03 -0.10169537853E+03  0.19013064468E+04  0.19074867890E+04  0.10100000352E+00 0.  1.
       -3    1    3    3    0  502  0.11488117937E+03  0.10169537853E+03 -0.89089972829E+03  0.90401436463E+03  0.10100000352E+00 0. -1.
</event>
<event>
 5   0  0.1005492E-05  0.2499454E+04  0.7818609E-02  0.8403180E-01
        1   -1    0    0  501    0  0.00000000000E+00  0.00000000000E+00  0.73172440846E+03  0.73172440848E+03  0.50400001928E-02 0.  1.
       -1   -1    0    0    0  501  0.00000000000E+00  0.00000000000E+00 -0.21344348913E+04  0.21344348913E+04  0.50400001928E-02 0. -1.
    10030    2    1    2    0    0  0.00000000000E+00  0.00000000000E+00 -0.14027104829E+04  0.28661592998E+04  0.24994544271E+04 0.  0.
        4    1    3    3  502    0  0.96562213194E+03 -0.77179652564E+03 -0.49078247032E+03  0.13300244452E+04  0.12699999809E+01 0.  1.
       -4    1    3    3    0  502 -0.96562213194E+03  0.77179652564E+03 -0.91192801256E+03  0.15361348546E+04  0.12699999809E+01 0. -1.
</event>
<event>
 5   0  0.1000421E-05  0.2607984E+04  0.7818609E-02  0.8365494E-01
        1   -1    0    0  501    0  0.00000000000E+00  0.00000000000E+00  0.24652422061E+04  0.24652422061E+04  0.50400001928E-02 0.  1.
       -1   -1    0    0    0  501  0.00000000000E+00  0.00000000000E+00 -0.68974767168E+03  0.68974767170E+03  0.50400001928E-02 0. -1.
    10030    2    1    2    0    0  0.00000000000E+00  0.00000000000E+00  0.17754945344E+04  0.31549898778E+04  0.26079839507E+04 0.  0.
        3    1    3    3  502    0  0.64253072145E+03  0.15632220702E+03  0.22473565055E+04  0.23426253720E+04  0.10100000352E+00 0.  1.
       -3    1    3    3    0  502 -0.64253072145E+03 -0.15632220702E+03 -0.47186197106E+03  0.81236450584E+03  0.10100000352E+00 0. -1.
</event>
<event>
 5   0  0.1025153E-05  0.2599740E+04  0.7818609E-02  0.8368289E-01
       -1   -1    0    0    0  501  0.00000000000E+00  0.00000000000E+00  0.10075016450E+04  0.10075016450E+04  0.50400001928E-02 0.  1.
        1   -1    0    0  501    0  0.00000000000E+00  0.00000000000E+00 -0.16770813893E+04  0.16770813893E+04  0.50400001928E-02 0. -1.
    10030    2    1    2    0    0  0.00000000000E+00  0.00000000000E+00 -0.66957974431E+03  0.26845830343E+04  0.25997401859E+04 0.  0.
        1    1    3    3  502    0 -0.15908812962E+03  0.11836313466E+04  0.19515426983E+03  0.12101146172E+04  0.50400001928E-02 0. -1.
       -1    1    3    3    0  502  0.15908812962E+03 -0.11836313466E+04 -0.86473401414E+03  0.14744684171E+04  0.50400001928E-02 0.  1.
</event>
<event>
 5   0  0.1034714E-05  0.2617892E+04  0.7818609E-02  0.8362149E-01
        1   -1    0    0  501    0  0.00000000000E+00  0.00000000000E+00  0.25012545536E+04  0.25012545536E+04  0.50400001928E-02 0.  1.
       -1   -1    0    0    0  501  0.00000000000E+00  0.00000000000E+00 -0.68499190444E+03  0.68499190445E+03  0.50400001928E-02 0. -1.
    10030    2    1    2    0    0  0.00000000000E+00  0.00000000000E+00  0.18162626491E+04  0.31862464580E+04  0.26178916098E+04 0.  0.
        5    1    3    3  502    0  0.73303360702E+03 -0.35655599774E+03 -0.33834400708E+03  0.88259232133E+03  0.46999998093E+01 0. -1.
       -5    1    3    3    0  502 -0.73303360702E+03  0.35655599774E+03  0.21546066562E+04  0.23036541367E+04  0.46999998093E+01 0.  1.
</event>
<event>
 5   0  0.2484618E-05  0.2584131E+04  0.7818609E-02  0.8373612E-01
        2   -1    0    0  501    0  0.00000000000E+00  0.00000000000E+00  0.15736687093E+04  0.15736687093E+04  0.25500000920E-02 0.  1.
       -2   -1    0    0    0  501  0.00000000000E+00  0.00000000000E+00 -0.10608545089E+04  0.10608545089E+04  0.25500000920E-02 0. -1.
    10030    2    1    2    0    0  0.00000000000E+00  0.00000000000E+00  0.51281420043E+03  0.26345232181E+04  0.25841312240E+04 0.  0.
        3    1    3    3  502    0  0.75865643378E+03  0.52400160594E+03 -0.66639368417E+03  0.11376369456E+04  0.10100000352E+00 0. -1.
       -3    1    3    3    0  502 -0.75865643378E+03 -0.52400160594E+03  0.11792078846E+04  0.14968862725E+04  0.10100000352E+00 0.  1.
</event>
<event>
 5   0  0.2662024E-05  0.2655674E+04  0.7818609E-02  0.8349532E-01
        2   -1    0    0  501    0  0.00000000000E+00  0.00000000000E+00  0.27336883841E+04  0.27336883841E+04  0.25500000920E-02 0. -1.
       -2   -1    0    0    0  501  0.00000000000E+00  0.00000000000E+00 -0.64497134409E+03  0.64497134409E+03  0.25500000920E-02 0.  1.
    10030    2    1    2    0    0  0.00000000000E+00  0.00000000000E+00  0.20887170400E+04  0.33786597281E+04  0.26556736783E+04 0.  0.
        2    1    3    3  502    0 -0.18732495890E+03 -0.93339450824E+03 -0.13329700834E+03  0.96129290056E+03  0.25500000920E-02 0.  1.
       -2    1    3    3    0  502  0.18732495890E+03  0.93339450824E+03  0.22220140483E+04  0.24173668276E+04  0.25500000920E-02 0. -1.
</event>
<event>
 5   0  0.1034714E-05  0.2626234E+04  0.7818609E-02  0.8359344E-01
        1   -1    0    0  501    0  0.00000000000E+00  0.00000000000E+00  0.18633292100E+04  0.18633292100E+04  0.50400001928E-02 0.  1.
       -1   -1    0    0    0  501  0.00000000000E+00  0.00000000000E+00 -0.92537383269E+03  0.92537383270E+03  0.50400001928E-02 0. -1.
    10030    2    1    2    0    0  0.00000000000E+00  0.00000000000E+00  0.93795537735E+03  0.27887030427E+04  0.26262338759E+04 0.  0.
        5    1    3    3  502    0 -0.40372163057E+03 -0.10076177063E+04 -0.31563084071E+03  0.11304554457E+04  0.46999998093E+01 0. -1.
       -5    1    3    3    0  502  0.40372163057E+03  0.10076177063E+04  0.12535862181E+04  0.16582475971E+04  0.46999998093E+01 0.  1.
</event>
<event>
 5   0  0.2484618E-05  0.2619171E+04  0.7818609E-02  0.8361718E-01
        2   -1    0    0  501    0  0.00000000000E+00  0.00000000000E+00  0.25945403837E+04  0.25945403837E+04  0.25500000920E-02 0.  1.
       -2   -1    0    0    0  501  0.00000000000E+00  0.00000000000E+00 -0.66100865286E+03  0.66100865286E+03  0.25500000920E-02 0. -1.
    10030    2    1    2    0    0  0.00000000000E+00  0.00000000000E+00  0.19335317309E+04  0.32555490366E+04  0.26191705892E+04 0.  0.
        3    1    3    3  502    0 -0.26605326861E+03 -0.12821447309E+04  0.94404361893E+03  0.16142793492E+04  0.10100000352E+00 0.  1.
       -3    1    3    3    0  502  0.26605326861E+03  0.12821447309E+04  0.98948811196E+03  0.16412696874E+04  0.10100000352E+00 0. -1.
</event>
<event>
 5   0  0.2555801E-05  0.2579851E+04  0.7818609E-02  0.8375078E-01
        2   -1    0    0  501    0  0.00000000000E+00  0.00000000000E+00  0.17018952961E+04  0.17018952961E+04  0.25500000920E-02 0.  1.
       -2   -1    0    0    0  501  0.00000000000E+00  0.00000000000E+00 -0.97767967047E+03  0.97767967048E+03  0.25500000920E-02 0. -1.
    10030    2    1    2    0    0  0.00000000000E+00  0.00000000000E+00  0.72421562567E+03  0.26795749666E+04  0.25798514936E+04 0.  0.
        1    1    3    3  502    0  0.61725808131E+03  0.78681911784E+02  0.15357003614E+04  0.16569773632E+04  0.50400001928E-02 0.  1.
       -1    1    3    3    0  502 -0.61725808131E+03 -0.78681911784E+02 -0.81148473572E+03  0.10225976034E+04  0.50400001928E-02 0. -1.
</event>
<event>
 5   0  0.2517854E-05  0.2611651E+04  0.7818609E-02  0.8364254E-01
       -2   -1    0    0    0  501  0.00000000000E+00  0.00000000000E+00  0.12008616460E+04  0.12008616460E+04  0.25500000920E-02 0. -1.
        2   -1    0    0  501    0  0.00000000000E+00  0.00000000000E+00 -0.14199643670E+04  0.14199643670E+04  0.25500000920E-02 0.  1.
    10030    2    1    2    0    0  0.00000000000E+00  0.00000000000E+00 -0.21910272103E+03  0.26208260130E+04  0.26116513910E+04 0.  0.
        4    1    3    3  502    0  0.59132833538E+03  0.55861506503E+03  0.91553560007E+03  0.12247150848E+04  0.12699999809E+01 0. -1.
       -4    1    3    3    0  502 -0.59132833538E+03 -0.55861506503E+03 -0.11346383211E+04  0.13961109282E+04  0.12699999809E+01 0.  1.
</event>
<event>
 5   0  0.2662024E-05  0.2454181E+04  0.7818609E-02  0.8419493E-01
        2   -1    0    0  501    0  0.00000000000E+00  0.00000000000E+00  0.23445349370E+04  0.23445349370E+04  0.25500000920E-02 0.  1.
       -2   -1    0    0    0  501  0.00000000000E+00  0.00000000000E+00 -0.64223889617E+03  0.64223889618E+03  0.25500000920E-02 0. -1.
    10030    2    1    2    0    0  0.00000000000E+00  0.00000000000E+00  0.17022960408E+04  0.29867738331E+04  0.24541813543E+04 0.  0.
        2    1    3    3  502    0  0.21309064102E+03  0.10951497433E+04  0.14728874470E+04  0.18477440335E+04  0.25500000920E-02 0.  1.
       -2    1    3    3    0  502 -0.21309064102E+03 -0.10951497433E+04  0.22940859378E+03  0.11390297997E+04  0.25500000920E-02 0. -1.
</event>
<event>
 5   0  0.1034714E-05  0.2599284E+04  0.7818609E-02  0.8368445E-01
       -1   -1    0    0    0  501  0.00000000000E+00  0.00000000000E+00  0.94636519435E+03  0.94636519437E+03  0.50400001928E-02 0. -1.
        1   -1    0    0  501    0  0.00000000000E+00  0.00000000000E+00 -0.17847961106E+04  0.17847961106E+04  0.50400001928E-02 0.  1.
    10030    2    1    2    0    0  0.00000000000E+00  0.00000000000E+00 -0.83843091621E+03  0.27311613049E+04  0.25992836845E+04 0.  0.
        5    1    3    3  502    0  0.24895286839E+03 -0.66883931735E+03 -0.15604732141E+04  0.17159319057E+04  0.46999998093E+01 0.  1.
       -5    1    3    3    0  502 -0.24895286839E+03  0.66883931735E+03  0.72204229789E+03  0.10152293992E+04  0.46999998093E+01 0. -1.
</event>
<event>
 5   0  0.2662024E-05  0.2611837E+04  0.7818609E-02  0.8364192E-01
        2   -1    0    0  501    0  0.00000000000E+00  0.00000000000E+00  0.17125361320E+04  0.17125361320E+04  0.25500000920E-02 0. -1.
       -2   -1    0    0    0  501  0.00000000000E+00  0.00000000000E+00 -0.99584648198E+03  0.99584648198E+03  0.25500000920E-02 0.  1.
    10030    2    1    2    0    0  0.00000000000E+00  0.00000000000E+00  0.71668965002E+03  0.27083826140E+04  0.26118369645E+04 0.  0.
        2    1    3    3  502    0  0.54633422249E+03 -0.10466836509E+04 -0.22031056668E+03  0.12010680636E+04  0.25500000920E-02 0. -1.
       -2    1    3    3    0  502 -0.54633422249E+03  0.10466836509E+04  0.93700021671E+03  0.15073145504E+04  0.25500000920E-02 0.  1.
</event>
<event>
 5   0  0.1034714E-05  0.2551253E+04  0.7818609E-02  0.8384951E-01
        1   -1    0    0  501    0  0.00000000000E+00  0.00000000000E+00  0.20379186221E+04  0.20379186221E+04  0.50400001928E-02 0.  1.
       -1   -1    0    0    0  501  0.00000000000E+00  0.00000000000E+00 -0.79847286440E+03  0.79847286442E+03  0.50400001928E-02 0. -1.
    10030    2    1    2    0    0  0.00000000000E+00  0.00000000000E+00  0.12394457577E+04  0.28363914866E+04  0.25512528057E+04 0.  0.
        5    1    3    3  502    0  0.44430825112E+03 -0.10080103343E+04 -0.95363612184E+02  0.11057173982E+04  0.46999998093E+01 0. -1.
       -5    1    3    3    0  502 -0.44430825112E+03  0.10080103343E+04  0.13348093699E+04  0.17306740884E+04  0.46999998093E+01 0.  1.
</event>
<event>
 5   0  0.1005492E-05  0.2309150E+04  0.7818609E-02  0.8474322E-01
        1   -1    0    0  501    0  0.00000000000E+00  0.00000000000E+00  0.23015414412E+04  0.23015414412E+04  0.50400001928E-02 0.  1.
       -1   -1    0    0    0  501  0.00000000000E+00  0.00000000000E+00 -0.57919594861E+03  0.57919594863E+03  0.50400001928E-02 0. -1.
    10030    2    1    2    0    0  0.00000000000E+00  0.00000000000E+00  0.17223454926E+04  0.28807373898E+04  0.23091500413E+04 0.  0.
        4    1    3    3  502    0  0.83591062103E+03  0.16825494174E+03  0.18323145725E+04  0.20209984159E+04  0.12699999809E+01 0.  1.
       -4    1    3    3    0  502 -0.83591062103E+03 -0.16825494174E+03 -0.10996907992E+03  0.85973897388E+03  0.12699999809E+01 0. -1.
</event>
<event>
 5   0  0.9855352E-06  0.2326979E+04  0.7818609E-02  0.8467359E-01
       -1   -1    0    0    0  501  0.00000000000E+00  0.00000000000E+00  0.47602843919E+03  0.47602843921E+03  0.50400001928E-02 0. -1.
        1   -1    0    0  501    0  0.00000000000E+00  0.00000000000E+00 -0.28437541342E+04  0.28437541342E+04  0.50400001928E-02 0.  1.
    10030    2    1    2    0    0  0.00000000000E+00  0.00000000000E+00 -0.23677256950E+04  0.33197825734E+04  0.23269790218E+04 0.  0.
        2    1    3    3  502    0  0.88235718868E+03  0.29109134350E+03 -0.21829445878E+04  0.23724534668E+04  0.25500000920E-02 0.  1.
       -2    1    3    3    0  502 -0.88235718868E+03 -0.29109134350E+03 -0.18478110723E+03  0.94732910663E+03  0.25500000920E-02 0. -1.
</event>
<event>
 5   0  0.1005492E-05  0.2589087E+04  0.7818609E-02  0.8371918E-01
       -1   -1    0    0    0  501  0.00000000000E+00  0.00000000000E+00  0.11321293672E+04  0.11321293673E+04  0.50400001928E-02 0.  1.
        1   -1    0    0  501    0  0.00000000000E+00  0.00000000000E+00 -0.14802572606E+04  0.14802572606E+04  0.50400001928E-02 0. -1.
    10030    2    1    2    0    0  0.00000000000E+00  0.00000000000E+00 -0.34812789331E+03  0.26123866278E+04  0.25890868782E+04 0.  0.
        4    1    3    3  502    0  0.47611580994E+03 -0.92788750303E+03 -0.94789439586E+03  0.14093143302E+04  0.12699999809E+01 0. -1.
       -4    1    3    3    0  502 -0.47611580994E+03  0.92788750303E+03  0.59976650254E+03  0.12030722976E+04  0.12699999809E+01 0.  1.
</event>
<event>
 5   0  0.2555801E-05  0.2575887E+04  0.7818609E-02  0.8376438E-01
       -2   -1    0    0    0  501  0.00000000000E+00  0.00000000000E+00  0.14482685175E+04  0.14482685175E+04  0.25500000920E-02 0.  1.
        2   -1    0    0  501    0  0.00000000000E+00  0.00000000000E+00 -0.11453662581E+04  0.11453662581E+04  0.25500000920E-02 0. -1.
    10030    2    1    2    0    0  0.00000000000E+00  0.00000000000E+00  0.30290225931E+03  0.25936347756E+04  0.25758865601E+04 0.  0.
        1    1    3    3  502    0  0.65683821513E+03  0.41398586371E+03  0.11861389791E+04  0.14176552522E+04  0.50400001928E-02 0.  1.
       -1    1    3    3    0  502 -0.65683821513E+03 -0.41398586371E+03 -0.88323671983E+03  0.11759795234E+04  0.50400001928E-02 0. -1.
</event>
<event>
 5   0  0.2517854E-05  0.2570665E+04  0.7818609E-02  0.8378234E-01
       -2   -1    0    0    0  501  0.00000000000E+00  0.00000000000E+00  0.88649340513E+03  0.88649340513E+03  0.25500000920E-02 0.  1.
        2   -1    0    0  501    0  0.00000000000E+00  0.00000000000E+00 -0.18636120704E+04  0.18636120704E+04  0.25500000920E-02 0. -1.
    10030    2    1    2    0    0  0.00000000000E+00  0.00000000000E+00 -0.97711866530E+03  0.27501054756E+04  0.25706651358E+04 0.  0.
        4    1    3    3  502    0 -0.85556988170E+03  0.95649864432E+03 -0.41149846646E+03  0.13476728386E+04  0.12699999809E+01 0. -1.
       -4    1    3    3    0  502  0.85556988170E+03 -0.95649864432E+03 -0.56562019884E+03  0.14024326370E+04  0.12699999809E+01 0.  1.
</event>
<event>
 5   0  0.1000421E-05  0.2598756E+04  0.7818609E-02  0.8368624E-01
        1   -1    0    0  501    0  0.00000000000E+00  0.00000000000E+00  0.96004927993E+03  0.96004927995E+03  0.50400001928E-02 0.  1.
       -1   -1    0    0    0  501  0.00000000000E+00  0.00000000000E+00 -0.17586420488E+04  0.17586420489E+04  0.50400001928E-02 0. -1.
    10030    2    1    2    0    0  0.00000000000E+00  0.00000000000E+00 -0.79859276891E+03  0.27186913288E+04  0.25987558813E+04 0.  0.
        3    1    3    3  502    0 -0.96389140889E+03 -0.39761687070E+03  0.41185682505E+03  0.11210762144E+04  0.10100000352E+00 0.  1.
       -3    1    3    3    0  502  0.96389140889E+03  0.39761687070E+03 -0.12104495940E+04  0.15976151144E+04  0.10100000352E+00 0. -1.
</event>
<event>
 5   0  0.2484618E-05  0.2577104E+04  0.7818609E-02  0.8376020E-01
        2   -1    0    0  501    0  0.00000000000E+00  0.00000000000E+00  0.54535133478E+03  0.54535133478E+03  0.25500000920E-02 0.  1.
       -2   -1    0    0    0  501  0.00000000000E+00  0.00000000000E+00 -0.30445809970E+04  0.30445809970E+04  0.25500000920E-02 0. -1.
    10030    2    1    2    0    0  0.00000000000E+00  0.00000000000E+00 -0.24992296622E+04  0.35899323318E+04  0.25771040418E+04 0.  0.
        3    1    3    3  502    0 -0.38423837591E+03  0.14231948595E+03  0.45218099896E+03  0.61021441447E+03  0.10100000352E+00 0.  1.
       -3    1    3    3    0  502  0.38423837591E+03 -0.14231948595E+03 -0.29514106612E+04  0.29797179173E+04  0.10100000352E+00 0. -1.
</event>
<event>
 5   0  0.1000421E-05  0.2565806E+04  0.7818609E-02  0.8379910E-01
        1   -1    0    0  501    0  0.00000000000E+00  0.00000000000E+00  0.92972905498E+03  0.92972905499E+03  0.50400001928E-02 0.  1.
       -1   -1    0    0    0  501  0.00000000000E+00  0.00000000000E+00 -0.17702369038E+04  0.17702369038E+04  0.50400001928E-02 0. -1.
    10030    2    1    2    0    0  0.00000000000E+00  0.00000000000E+00 -0.84050784879E+03  0.26999659588E+04  0.25658064492E+04 0.  0.
        3    1    3    3  502    0 -0.25742481272E+03 -0.11154867682E+03  0.89705281251E+03  0.93990127149E+03  0.10100000352E+00 0.  1.
       -3    1    3    3    0  502  0.25742481272E+03  0.11154867682E+03 -0.17375606613E+04  0.17600646873E+04  0.10100000352E+00 0. -1.
</event>
<event>
 5   0  0.9855352E-06  0.2697842E+04  0.7818609E-02  0.8335706E-01
       -1   -1    0    0    0  501  0.00000000000E+00  0.00000000000E+00  0.68342382655E+03  0.68342382657E+03  0.50400001928E-02 0. -1.
        1   -1    0    0  501    0  0.00000000000E+00  0.00000000000E+00 -0.26624581270E+04  0.26624581270E+04  0.50400001928E-02 0.  1.
    10030    2    1    2    0    0  0.00000000000E+00  0.00000000000E+00 -0.19790343005E+04  0.33458819536E+04  0.26978415975E+04 0.  0.
        2    1    3    3  502    0 -0.11641570233E+04  0.38449181208E+02 -0.18332657892E+04  0.21720044586E+04  0.25500000920E-02 0.  1.
       -2    1    3    3    0  502  0.11641570233E+04 -0.38449181208E+02 -0.14576851129E+03  0.11738774950E+04  0.25500000920E-02 0. -1.
</event>
<event>
 5   0  0.2662024E-05  0.2824887E+04  0.7818609E-02  0.8295583E-01
        2   -1    0    0  501    0  0.00000000000E+00  0.00000000000E+00  0.24424086851E+04  0.24424086851E+04  0.25500000920E-02 0.  1.
       -2   -1    0    0    0  501  0.00000000000E+00  0.00000000000E+00 -0.81681523026E+03  0.81681523027E+03  0.25500000920E-02 0. -1.
    10030    2    1    2    0    0  0.00000000000E+00  0.00000000000E+00  0.16255934548E+04  0.32592239154E+04  0.28248869801E+04 0.  0.
        2    1    3    3  502    0  0.11358290001E+04 -0.33039977355E+03  0.17033011184E+04  0.20737661941E+04  0.25500000920E-02 0.  1.
       -2    1    3    3    0  502 -0.11358290001E+04  0.33039977355E+03 -0.77707663610E+02  0.11854577212E+04  0.25500000920E-02 0. -1.
</event>
<event>
 5   0  0.1034714E-05  0.2613045E+04  0.7818609E-02  0.8363784E-01
       -1   -1    0    0    0  501  0.00000000000E+00  0.00000000000E+00  0.59097094715E+03  0.59097094717E+03  0.50400001928E-02 0.  1.
        1   -1    0    0  501    0  0.00000000000E+00  0.00000000000E+00 -0.28884676171E+04  0.28884676171E+04  0.50400001928E-02 0. -1.
    10030    2    1    2    0    0  0.00000000000E+00  0.00000000000E+00 -0.22974966700E+04  0.34794385643E+04  0.26130445412E+04 0.  0.
        5    1    3    3  502    0 -0.83985929507E+03 -0.10789344464E+03 -0.24736211641E+04  0.26145417159E+04  0.46999998093E+01 0. -1.
       -5    1    3    3    0  502  0.83985929507E+03  0.10789344464E+03  0.17612449410E+03  0.86489684837E+03  0.46999998093E+01 0.  1.
</event>
<event>
 5   0  0.1025153E-05  0.2602712E+04  0.7818609E-02  0.8367281E-01
       -1   -1    0    0    0  501  0.00000000000E+00  0.00000000000E+00  0.76295529831E+03  0.76295529833E+03  0.50400001928E-02 0.  1.
        1   -1    0    0  501    0  0.00000000000E+00  0.00000000000E+00 -0.22196939940E+04  0.22196939940E+04  0.50400001928E-02 0. -1.
    10030    2    1    2    0    0  0.00000000000E+00  0.00000000000E+00 -0.14567386957E+04  0.29826492923E+04  0.26027118883E+04 0.  0.
        1    1    3    3  502    0  0.71311572564E+03  0.10766120833E+04 -0.91279582503E+03  0.15813993279E+04  0.50400001928E-02 0.  1.
       -1    1    3    3    0  502 -0.71311572564E+03 -0.10766120833E+04 -0.54394287066E+03  0.14012499644E+04  0.50400001928E-02 0. -1.
</event>
<event>
 5   0  0.2517854E-05  0.2629714E+04  0.7818609E-02  0.8358178E-01
       -2   -1    0    0    0  501  0.00000000000E+00  0.00000000000E+00  0.17930257387E+04  0.17930257387E+04  0.25500000920E-02 0.  1.
        2   -1    0    0  501    0  0.00000000000E+00  0.00000000000E+00 -0.96420734134E+03  0.96420734134E+03  0.25500000920E-02 0. -1.
    10030    2    1    2    0    0  0.00000000000E+00  0.00000000000E+00  0.82881839735E+03  0.27572330800E+04  0.26297137338E+04 0.  0.
        4    1    3    3  502    0  0.42612746229E+03  0.29575888911E+03 -0.85239663344E+03  0.99781740224E+03  0.12699999809E+01 0. -1.
       -4    1    3    3    0  502 -0.42612746229E+03 -0.29575888911E+03  0.16812150308E+04  0.17594156778E+04  0.12699999809E+01 0.  1.
</event>
<event>
 5   0  0.1025153E-05  0.2641975E+04  0.7818609E-02  0.8354081E-01
        1   -1    0    0  501    0  0.00000000000E+00  0.00000000000E+00  0.29529229278E+04  0.29529229278E+04  0.50400001928E-02 0.  1.
       -1   -1    0    0    0  501  0.00000000000E+00  0.00000000000E+00 -0.59094258564E+03  0.59094258566E+03  0.50400001928E-02 0. -1.
    10030    2    1    2    0    0  0.00000000000E+00  0.00000000000E+00  0.23619803422E+04  0.35438655135E+04  0.26419749508E+04 0.  0.
        1    1    3    3  502    0  0.47460940390E+03 -0.48517525565E+03  0.27011586351E+04  0.27851224546E+04  0.50400001928E-02 0.  1.
       -1    1    3    3    0  502 -0.47460940390E+03  0.48517525565E+03 -0.33917829295E+03  0.75874305888E+03  0.50400001928E-02 0. -1.
</event>
<event>
 5   0  0.2517854E-05  0.2590973E+04  0.7818609E-02  0.8371274E-01
        2   -1    0    0  501    0  0.00000000000E+00  0.00000000000E+00  0.16728341358E+04  0.16728341359E+04  0.25500000920E-02 0. -1.
       -2   -1    0    0    0  501  0.00000000000E+00  0.00000000000E+00 -0.10032585460E+04  0.10032585460E+04  0.25500000920E-02 0.  1.
    10030    2    1    2    0    0  0.00000000000E+00  0.00000000000E+00  0.66957558989E+03  0.26760926818E+04  0.25909729005E+04 0.  0.
        4    1    3    3  502    0  0.57872726789E+03  0.75993331704E+03  0.12386721499E+04  0.15642040163E+04  0.12699999809E+01 0. -1.
       -4    1    3    3    0  502 -0.57872726789E+03 -0.75993331704E+03 -0.56909655999E+03  0.11118886655E+04  0.12699999809E+01 0.  1.
</event>
<event>
 5   0  0.2528460E-05  0.2587091E+04  0.7818609E-02  0.8372599E-01
       -2   -1    0    0    0  501  0.00000000000E+00  0.00000000000E+00  0.64199391025E+03  0.64199391025E+03  0.25500000920E-02 0.  1.
        2   -1    0    0  501    0  0.00000000000E+00  0.00000000000E+00 -0.26063484237E+04  0.26063484237E+04  0.25500000920E-02 0. -1.
    10030    2    1    2    0    0  0.00000000000E+00  0.00000000000E+00 -0.19643545134E+04  0.32483423339E+04  0.25870908882E+04 0.  0.
        5    1    3    3  502    0 -0.13669589698E+03  0.44159093327E+01  0.63287935993E+03  0.64750570865E+03  0.46999998093E+01 0.  1.
       -5    1    3    3    0  502  0.13669589698E+03 -0.44159093327E+01 -0.25972338734E+04  0.26008366253E+04  0.46999998093E+01 0. -1.
</event>
<event>
 5   0  0.1005492E-05  0.2426161E+04  0.7818609E-02  0.8429774E-01
        1   -1    0    0  501    0  0.00000000000E+00  0.00000000000E+00  0.21282357149E+04  0.21282357149E+04  0.50400001928E-02 0.  1.
       -1   -1    0    0    0  501  0.00000000000E+00  0.00000000000E+00 -0.69144792258E+03  0.69144792260E+03  0.50400001928E-02 0. -1.
    10030    2    1    2    0    0  0.00000000000E+00  0.00000000000E+00  0.14367877924E+04  0.28196836376E+04  0.24261608882E+04 0.  0.
        4    1    3    3  502    0  0.12104822883E+04 -0.73165229256E+02  0.75406471923E+03  0.14280181143E+04  0.12699999809E+01 0.  1.
       -4    1    3    3    0  502 -0.12104822883E+04  0.73165229256E+02  0.68272307312E+03  0.13916655232E+04  0.12699999809E+01 0. -1.
</event>
<event>
 5   0  0.2528460E-05  0.2569807E+04  0.7818609E-02  0.8378530E-01
        2   -1    0    0  501    0  0.00000000000E+00  0.00000000000E+00  0.17970369972E+04  0.17970369972E+04  0.25500000920E-02 0.  1.
       -2   -1    0    0    0  501  0.00000000000E+00  0.00000000000E+00 -0.91872210685E+03  0.91872210686E+03  0.25500000920E-02 0. -1.
    10030    2    1    2    0    0  0.00000000000E+00  0.00000000000E+00  0.87831489036E+03  0.27157591041E+04  0.25698074762E+04 0.  0.
        5    1    3    3  502    0  0.46059428890E+03 -0.38196445648E+03  0.16407993600E+04  0.17465075364E+04  0.46999998093E+01 0.  1.
       -5    1    3    3    0  502 -0.46059428890E+03  0.38196445648E+03 -0.76248446964E+03  0.96925156766E+03  0.46999998093E+01 0. -1.
</event>
<event>
 5   0  0.9855352E-06  0.2620310E+04  0.7818609E-02  0.8361335E-01
       -1   -1    0    0    0  501  0.00000000000E+00  0.00000000000E+00  0.59082702923E+03  0.59082702925E+03  0.50400001928E-02 0.  1.
        1   -1    0    0  501    0  0.00000000000E+00  0.00000000000E+00 -0.29052610058E+04  0.29052610058E+04  0.50400001928E-02 0. -1.
    10030    2    1    2    0    0  0.00000000000E+00  0.00000000000E+00 -0.23144339766E+04  0.34960880350E+04  0.26203104619E+04 0.  0.
        2    1    3    3  502    0  0.57027205169E+03 -0.11696091655E+04 -0.13609255497E+04  0.18829004660E+04  0.25500000920E-02 0. -1.
       -2    1    3    3    0  502 -0.57027205169E+03  0.11696091655E+04 -0.95350842686E+03  0.16131875691E+04  0.25500000920E-02 0.  1.
</event>
<event>
 5   0  0.2662024E-05  0.2594636E+04  0.7818609E-02  0.8370025E-01
        2   -1    0    0  501    0  0.00000000000E+00  0.00000000000E+00  0.17612287369E+04  0.17612287369E+04  0.25500000920E-02 0.  1.
       -2   -1    0    0    0  501  0.00000000000E+00  0.00000000000E+00 -0.95560253016E+03  0.95560253017E+03  0.25500000920E-02 0. -1.
    10030    2    1    2    0    0  0.00000000000E+00  0.00000000000E+00  0.80562620670E+03  0.27168312670E+04  0.25946364964E+04 0.  0.
        2    1    3    3  502    0  0.89851596022E+03  0.27317971815E+02 -0.57663088966E+03  0.10679795809E+04  0.25500000920E-02 0. -1.
       -2    1    3    3    0  502 -0.89851596022E+03 -0.27317971815E+02  0.13822570964E+04  0.16488516861E+04  0.25500000920E-02 0.  1.
</event>
<event>
 5   0  0.1034714E-05  0.2569621E+04  0.7818609E-02  0.8378594E-01
       -1   -1    0    0    0  501  0.00000000000E+00  0.00000000000E+00  0.14353761714E+04  0.14353761714E+04  0.50400001928E-02 0. -1.
        1   -1    0    0  501    0  0.00000000000E+00  0.00000000000E+00 -0.11500389697E+04  0.11500389697E+04  0.50400001928E-02 0.  1.
    10030    2    1    2    0    0  0.00000000000E+00  0.00000000000E+00  0.28533720173E+03  0.25854151411E+04  0.25696213988E+04 0.  0.
        5    1    3    3  502    0 -0.21773687343E+03  0.23127075321E+03 -0.11099011207E+04  0.11544687502E+04  0.46999998093E+01 0.  1.
       -5    1    3    3    0  502  0.21773687343E+03 -0.23127075321E+03  0.13952383224E+04  0.14309463909E+04  0.46999998093E+01 0. -1.
</event>
</LesHouchesEvents>
