<LesHouchesEvents version="3.0">
<header>
<!--
#*********************************************************************
#                                                                    *
#                        MadGraph5_aMC@NLO                           *
#                                                                    *
#                           Going Beyond                             *
#                                                                    *
#                   http://madgraph.hep.uiuc.edu                     *
#                   http://madgraph.phys.ucl.ac.be                   *
#                   http://amcatnlo.cern.ch                          *
#                                                                    *
#                     The MadGraph5_aMC@NLO team                     *
#                                                                    *
#....................................................................*
#                                                                    *
# This file contains all the information necessary to reproduce      *
# the events generated:                                              *
#                                                                    *
# 1. software version                                                *
# 2. proc_card          : code generation info including model       *
# 3. param_card         : model primary parameters in the LH format  *
# 4. run_card           : running parameters (collider and cuts)     *
# 5. pythia_card        : present only if pythia has been run        *
# 6. pgs_card           : present only if pgs has been run           *
# 7. delphes_cards      : present only if delphes has been run       *
#                                                                    *
#                                                                    *
#*********************************************************************
-->
<MGVersion>
#5.2.2.3
</MGVersion>
<MG5ProcCard>
#************************************************************
#*                     MadGraph5_aMC@NLO                    *
#*                                                          *
#*                *                       *                 *
#*                  *        * *        *                   *
#*                    * * * * 5 * * * *                     *
#*                  *        * *        *                   *
#*                *                       *                 *
#*                                                          *
#*                                                          *
#*         VERSION 2.2.3                 2015-02-10         *
#*                                                          *
#*    The MadGraph5_aMC@NLO Development Team - Find us at   *
#*    https://server06.fynu.ucl.ac.be/projects/madgraph     *
#*                                                          *
#************************************************************
#*                                                          *
#*               Command File for MadGraph5_aMC@NLO         *
#*                                                          *
#*     run as ./bin/mg5_aMC  filename                       *
#*                                                          *
#************************************************************
set group_subprocesses Auto
set ignore_six_quark_processes False
set loop_optimized_output True
set gauge unitary
set complex_mass_scheme False
import model sm
define p = g u c d s u~ c~ d~ s~
define j = g u c d s u~ c~ d~ s~
define l+ = e+ mu+
define l- = e- mu-
define vl = ve vm vt
define vl~ = ve~ vm~ vt~
import model Zprime_UFO
generate p p > zph, zph > j j
add process p p > zph, zph > b b~
output Dijet_signal
</MG5ProcCard>
<MGProcCard>
#*********************************************************************
#                        MadGraph/MadEvent                           *
#                   http://madgraph.hep.uiuc.edu                     *
#                                                                    *
#                          proc_card.dat                             *
#*********************************************************************
#                                                                    *
#            This Files is generated by MADGRAPH 5                   *
#                                                                    *
# WARNING: This Files is generated for MADEVENT (compatibility issue)*
#          This files is NOT a valid MG4 proc_card.dat               *
#          Running this in MG4 will NEVER reproduce the result of MG5*
#                                                                    *
#*********************************************************************
#*********************************************************************
# Process(es) requested : mg2 input                                  *
#*********************************************************************
# Begin PROCESS # This is TAG. Do not modify this line
p p > zph , zph > j j           #Process
# Be carefull the coupling are here in MG5 convention
          
end_coup           # End the couplings input

done               # this tells MG there are no more procs
# End PROCESS  # This is TAG. Do not modify this line
#*********************************************************************
# Model information                                                  *
#*********************************************************************
# Begin MODEL  # This is TAG. Do not modify this line
Zprime_UFO
# End   MODEL  # This is TAG. Do not modify this line
#*********************************************************************
# Start multiparticle definitions                                    *
#*********************************************************************
# Begin MULTIPARTICLES # This is TAG. Do not modify this line

# End  MULTIPARTICLES # This is TAG. Do not modify this line
</MGProcCard>
<MGRunCard>
#*********************************************************************
#                       MadGraph5_aMC@NLO                            *
#                                                                    *
#                     run_card.dat MadEvent                          *
#                                                                    *
#  This file is used to set the parameters of the run.               *
#                                                                    *
#  Some notation/conventions:                                        *
#                                                                    *
#   Lines starting with a '# ' are info or comments                  *
#                                                                    *
#   mind the format:   value    = variable     ! comment             *
#*********************************************************************
#
#*******************                                                 
# Running parameters
#*******************                                                 
#                                                                    
#*********************************************************************
# Tag name for the run (one word)                                    *
#*********************************************************************
  tag_1     = run_tag ! name of the run 
#*********************************************************************
# Run to generate the grid pack                                      *
#*********************************************************************
  .false.     = gridpack  !True = setting up the grid pack
#*********************************************************************
# Number of events and rnd seed                                      *
# Warning: Do not generate more than 1M events in a single run       *
# If you want to run Pythia, avoid more than 50k events in a run.    *
#*********************************************************************
  2000 = nevents ! Number of unweighted events requested 
 975 = iseed   ! rnd seed (0=assigned automatically=default))
#*********************************************************************
# Collider type and energy                                           *
# lpp: 0=No PDF, 1=proton, -1=antiproton, 2=photon from proton,      *
#                                         3=photon from electron     *
#*********************************************************************
        1     = lpp1    ! beam 1 type 
        1     = lpp2    ! beam 2 type
     4000     = ebeam1  ! beam 1 total energy in GeV
     4000     = ebeam2  ! beam 2 total energy in GeV
#*********************************************************************
# Beam polarization from -100 (left-handed) to 100 (right-handed)    *
#*********************************************************************
        0     = polbeam1 ! beam polarization for beam 1
        0     = polbeam2 ! beam polarization for beam 2
#*********************************************************************
# PDF CHOICE: this automatically fixes also alpha_s and its evol.    *
#*********************************************************************
 'nn23lo1'    = pdlabel     ! PDF set                                     
 230000    = lhaid     ! if pdlabel=lhapdf, this is the lhapdf number
#*********************************************************************
# Renormalization and factorization scales                           *
#*********************************************************************
 F        = fixed_ren_scale  ! if .true. use fixed ren scale
 F        = fixed_fac_scale  ! if .true. use fixed fac scale
 91.1880  = scale            ! fixed ren scale
 91.1880  = dsqrt_q2fact1    ! fixed fact scale for pdf1
 91.1880  = dsqrt_q2fact2    ! fixed fact scale for pdf2
 1        = scalefact        ! scale factor for event-by-event scales
#*********************************************************************
# Matching - Warning! ickkw > 1 is still beta
#*********************************************************************
 0        = ickkw            ! 0 no matching, 1 MLM, 2 CKKW matching
 1        = highestmult      ! for ickkw=2, highest mult group
 1        = ktscheme         ! for ickkw=1, 1 Durham kT, 2 Pythia pTE
 1        = alpsfact         ! scale factor for QCD emission vx
 F        = chcluster        ! cluster only according to channel diag
 T        = pdfwgt           ! for ickkw=1, perform pdf reweighting
 5        = asrwgtflavor     ! highest quark flavor for a_s reweight
 T        = clusinfo         ! include clustering tag in output
 3.0      = lhe_version       ! Change the way clustering information pass to shower.        
#*********************************************************************
#**********************************************************
#
#**********************************************************
# Automatic ptj and mjj cuts if xqcut > 0
# (turn off for VBF and single top processes)
#**********************************************************
   T  = auto_ptj_mjj  ! Automatic setting of ptj and mjj
#**********************************************************
#                                                                    
#**********************************
# BW cutoff (M+/-bwcutoff*Gamma)
#**********************************
  15  = bwcutoff      ! (M+/-bwcutoff*Gamma)
#**********************************************************
# Apply pt/E/eta/dr/mij cuts on decay products or not
# (note that etmiss/ptll/ptheavy/ht/sorted cuts always apply)
#**********************************************************
   T  = cut_decays    ! Cut decay products 
#*************************************************************
# Number of helicities to sum per event (0 = all helicities)
# 0 gives more stable result, but longer run time (needed for
# long decay chains e.g.).
# Use >=2 if most helicities contribute, e.g. pure QCD.
#*************************************************************
   0  = nhel          ! Number of helicities used per event
#*******************                                                 
# Standard Cuts
#*******************                                                 
#                                                                    
#*********************************************************************
# Minimum and maximum pt's (for max, -1 means no cut)                *
#*********************************************************************
 20  = ptj       ! minimum pt for the jets 
  0  = ptb       ! minimum pt for the b 
 10  = pta       ! minimum pt for the photons 
 10  = ptl       ! minimum pt for the charged leptons 
  0  = misset    ! minimum missing Et (sum of neutrino's momenta)
  0  = ptheavy   ! minimum pt for one heavy final state
 1.0 = ptonium   ! minimum pt for the quarkonium states
 -1  = ptjmax    ! maximum pt for the jets
 -1  = ptbmax    ! maximum pt for the b
 -1  = ptamax    ! maximum pt for the photons
 -1  = ptlmax    ! maximum pt for the charged leptons
 -1  = missetmax ! maximum missing Et (sum of neutrino's momenta)
#*********************************************************************
# Minimum and maximum E's (in the center of mass frame)              *
#*********************************************************************
  0  = ej     ! minimum E for the jets 
  0  = eb     ! minimum E for the b 
  0  = ea     ! minimum E for the photons 
  0  = el     ! minimum E for the charged leptons 
 -1   = ejmax ! maximum E for the jets
 -1   = ebmax ! maximum E for the b
 -1   = eamax ! maximum E for the photons
 -1   = elmax ! maximum E for the charged leptons
#*********************************************************************
# Maximum and minimum absolute rapidity (for max, -1 means no cut)   *
#*********************************************************************
   5  = etaj    ! max rap for the jets 
  -1  = etab    ! max rap for the b
 2.5  = etaa    ! max rap for the photons 
 2.5  = etal    ! max rap for the charged leptons 
 0.6  = etaonium ! max rap for the quarkonium states
   0  = etajmin ! min rap for the jets
   0  = etabmin ! min rap for the b
   0  = etaamin ! min rap for the photons
   0  = etalmin ! main rap for the charged leptons
#*********************************************************************
# Minimum and maximum DeltaR distance                                *
#*********************************************************************
 0.4 = drjj    ! min distance between jets 
 0   = drbb    ! min distance between b's 
 0.4 = drll    ! min distance between leptons 
 0.4 = draa    ! min distance between gammas 
 0   = drbj    ! min distance between b and jet 
 0.4 = draj    ! min distance between gamma and jet 
 0.4 = drjl    ! min distance between jet and lepton 
 0   = drab    ! min distance between gamma and b 
 0   = drbl    ! min distance between b and lepton 
 0.4 = dral    ! min distance between gamma and lepton 
 -1  = drjjmax ! max distance between jets
 -1  = drbbmax ! max distance between b's
 -1  = drllmax ! max distance between leptons
 -1  = draamax ! max distance between gammas
 -1  = drbjmax ! max distance between b and jet
 -1  = drajmax ! max distance between gamma and jet
 -1  = drjlmax ! max distance between jet and lepton
 -1  = drabmax ! max distance between gamma and b
 -1  = drblmax ! max distance between b and lepton
 -1  = dralmax ! maxdistance between gamma and lepton
#*********************************************************************
# Minimum and maximum invariant mass for pairs                       *
# WARNING: for four lepton final state mmll cut require to have      *
#          different lepton masses for each flavor!                  *           
#*********************************************************************
 0   = mmjj    ! min invariant mass of a jet pair 
 0   = mmbb    ! min invariant mass of a b pair 
 0   = mmaa    ! min invariant mass of gamma gamma pair
 0   = mmll    ! min invariant mass of l+l- (same flavour) lepton pair
 -1  = mmjjmax ! max invariant mass of a jet pair
 -1  = mmbbmax ! max invariant mass of a b pair
 -1  = mmaamax ! max invariant mass of gamma gamma pair
 -1  = mmllmax ! max invariant mass of l+l- (same flavour) lepton pair
#*********************************************************************
# Minimum and maximum invariant mass for all letpons                 *
#*********************************************************************
 0   = mmnl    ! min invariant mass for all letpons (l+- and vl) 
 -1  = mmnlmax ! max invariant mass for all letpons (l+- and vl) 
#*********************************************************************
# Minimum and maximum pt for 4-momenta sum of leptons                *
#*********************************************************************
 0   = ptllmin  ! Minimum pt for 4-momenta sum of leptons(l and vl)
 -1  = ptllmax  ! Maximum pt for 4-momenta sum of leptons(l and vl)
#*********************************************************************
# Inclusive cuts                                                     *
#*********************************************************************
 0  = xptj ! minimum pt for at least one jet  
 0  = xptb ! minimum pt for at least one b 
 0  = xpta ! minimum pt for at least one photon 
 0  = xptl ! minimum pt for at least one charged lepton 
#*********************************************************************
# Control the pt's of the jets sorted by pt                          *
#*********************************************************************
 0   = ptj1min ! minimum pt for the leading jet in pt
 0   = ptj2min ! minimum pt for the second jet in pt
 0   = ptj3min ! minimum pt for the third jet in pt
 0   = ptj4min ! minimum pt for the fourth jet in pt
 -1  = ptj1max ! maximum pt for the leading jet in pt 
 -1  = ptj2max ! maximum pt for the second jet in pt
 -1  = ptj3max ! maximum pt for the third jet in pt
 -1  = ptj4max ! maximum pt for the fourth jet in pt
 0   = cutuse  ! reject event if fails any (0) / all (1) jet pt cuts
#*********************************************************************
# Control the pt's of leptons sorted by pt                           *
#*********************************************************************
 0   = ptl1min ! minimum pt for the leading lepton in pt
 0   = ptl2min ! minimum pt for the second lepton in pt
 0   = ptl3min ! minimum pt for the third lepton in pt
 0   = ptl4min ! minimum pt for the fourth lepton in pt
 -1  = ptl1max ! maximum pt for the leading lepton in pt 
 -1  = ptl2max ! maximum pt for the second lepton in pt
 -1  = ptl3max ! maximum pt for the third lepton in pt
 -1  = ptl4max ! maximum pt for the fourth lepton in pt
#*********************************************************************
# Control the Ht(k)=Sum of k leading jets                            *
#*********************************************************************
 0   = htjmin ! minimum jet HT=Sum(jet pt)
 -1  = htjmax ! maximum jet HT=Sum(jet pt)
 0   = ihtmin  !inclusive Ht for all partons (including b)
 -1  = ihtmax  !inclusive Ht for all partons (including b)
 0   = ht2min ! minimum Ht for the two leading jets
 0   = ht3min ! minimum Ht for the three leading jets
 0   = ht4min ! minimum Ht for the four leading jets
 -1  = ht2max ! maximum Ht for the two leading jets
 -1  = ht3max ! maximum Ht for the three leading jets
 -1  = ht4max ! maximum Ht for the four leading jets
#***********************************************************************
# Photon-isolation cuts, according to hep-ph/9801442                   *
# When ptgmin=0, all the other parameters are ignored                  *
# When ptgmin>0, pta and draj are not going to be used                 *
#***********************************************************************
   0 = ptgmin ! Min photon transverse momentum
 0.4 = R0gamma ! Radius of isolation code
 1.0 = xn ! n parameter of eq.(3.4) in hep-ph/9801442
 1.0 = epsgamma ! epsilon_gamma parameter of eq.(3.4) in hep-ph/9801442
 .true. = isoEM ! isolate photons from EM energy (photons and leptons)
#*********************************************************************
# WBF cuts                                                           *
#*********************************************************************
 0   = xetamin ! minimum rapidity for two jets in the WBF case  
 0   = deltaeta ! minimum rapidity for two jets in the WBF case 
#*********************************************************************
# KT DURHAM CUT                                                      *
#*********************************************************************
 -1    =  ktdurham        
 0.4  =  dparameter 
#*********************************************************************
# maximal pdg code for quark to be considered as a light jet         *
# (otherwise b cuts are applied)                                     *
#*********************************************************************
 4 = maxjetflavor    ! Maximum jet pdg code
#*********************************************************************
# Jet measure cuts                                                   *
#*********************************************************************
 0   = xqcut   ! minimum kt jet measure between partons
#*********************************************************************
#
#*********************************************************************
# Store info for systematics studies                                 *
# WARNING: If use_syst is T, matched Pythia output is                *
#          meaningful ONLY if plotted taking matchscale              *
#          reweighting into account!                                 *
#*********************************************************************
   F  = use_syst      ! Enable systematics studies
#
#**************************************
# Parameter of the systematics study
#  will be used by SysCalc (if installed)
#**************************************                                  
#
0.5 1 2 = sys_scalefact  # factorization/renormalization scale factor
0.5 1 2 = sys_alpsfact  # \alpha_s emission scale factors
30 50 = sys_matchscale # variation of merging scale
# PDF sets and number of members (0 or none for all members).
CT10nlo.LHgrid = sys_pdf # matching scales
# MSTW2008nlo68cl.LHgrid 1  = sys_pdf
</MGRunCard>
<slha>
######################################################################
## PARAM_CARD AUTOMATICALY GENERATED BY MG5 FOLLOWING UFO MODEL   ####
######################################################################
##                                                                  ##
##  Width set on Auto will be computed following the information    ##
##        present in the decay.py files of the model.               ##
##        See  arXiv:1402.1178 for more details.                    ##
##                                                                  ##
######################################################################

###################################
## INFORMATION FOR CKMBLOCK
###################################
Block ckmblock 
    1 2.277360e-01 # cabi 

###################################
## INFORMATION FOR FRBLOCK
###################################
Block frblock 
    1 4.000000e-01 # gz 

###################################
## INFORMATION FOR MASS
###################################
Block mass 
    1 5.040000e-03 # MD 
    2 2.550000e-03 # MU 
    3 1.010000e-01 # MS 
    4 1.270000e+00 # MC 
    5 4.700000e+00 # MB 
    6 1.720000e+02 # MT 
   11 5.110000e-04 # Me 
   13 1.056600e-01 # MM 
   15 1.777000e+00 # MTA 
   23 9.118760e+01 # MZ 
   25 1.200000e+02 # MH 
  10030 2.200000e+03 # MZph 
  10031 3.000000e+02 # MZpl 
## Dependent parameters, given by model restrictions.
## Those values should be edited following the 
## analytical expression. MG5 ignores those values 
## but they are important for interfacing the output of MG5
## to external program such as Pythia.
  12 0.000000 # ve : 0.0 
  14 0.000000 # vm : 0.0 
  16 0.000000 # vt : 0.0 
  21 0.000000 # g : 0.0 
  22 0.000000 # a : 0.0 
  24 79.824360 # w+ : cmath.sqrt(MZ__exp__2/2. + cmath.sqrt(MZ__exp__4/4. - (aEW*cmath.pi*MZ__exp__2)/(Gf*sqrt__2))) 

###################################
## INFORMATION FOR SMINPUTS
###################################
Block sminputs 
    1 1.279000e+02 # aEWM1 
    2 1.166370e-05 # Gf 
    3 1.184000e-01 # aS 

###################################
## INFORMATION FOR YUKAWA
###################################
Block yukawa 
    1 5.040000e-03 # ymdo 
    2 2.550000e-03 # ymup 
    3 1.010000e-01 # yms 
    4 1.270000e+00 # ymc 
    5 4.700000e+00 # ymb 
    6 1.720000e+02 # ymt 
   11 5.110000e-04 # yme 
   13 1.056600e-01 # ymm 
   15 1.777000e+00 # ymtau 

###################################
## INFORMATION FOR DECAY
###################################
DECAY   6 1.508336e+00 # WT 
DECAY  23 2.495200e+00 # WZ 
DECAY  24 2.085000e+00 # WW 
DECAY  25 5.753088e-03 # WH 
## Dependent parameters, given by model restrictions.
## Those values should be edited following the 
## analytical expression. MG5 ignores those values 
## but they are important for interfacing the output of MG5
## to external program such as Pythia.
DECAY  1 0.000000 # d : 0.0 
DECAY  2 0.000000 # u : 0.0 
DECAY  3 0.000000 # s : 0.0 
DECAY  4 0.000000 # c : 0.0 
DECAY  5 0.000000 # b : 0.0 
DECAY  11 0.000000 # e- : 0.0 
DECAY  12 0.000000 # ve : 0.0 
DECAY  13 0.000000 # mu- : 0.0 
DECAY  14 0.000000 # vm : 0.0 
DECAY  15 0.000000 # ta- : 0.0 
DECAY  16 0.000000 # vt : 0.0 
DECAY  21 0.000000 # g : 0.0 
DECAY  22 0.000000 # a : 0.0 
DECAY  10030 0.308725 # zph : (gz__exp__2*MZph*(5 + cmath.sqrt(1 - (4*MT__exp__2)/MZph__exp__2)))/(144.*cmath.pi) 
DECAY  10031 0.132629 # zpl : (5*gz__exp__2*MZpl)/(144.*cmath.pi) 
#===========================================================
# QUANTUM NUMBERS OF NEW STATE(S) (NON SM PDG CODE)
#===========================================================

Block QNUMBERS 10030  # zph 
        1 0  # 3 times electric charge
        2 3  # number of spin states (2S+1)
        3 1  # colour rep (1: singlet, 3: triplet, 8: octet)
        4 0  # Particle/Antiparticle distinction (0=own anti)
Block QNUMBERS 10031  # zpl 
        1 0  # 3 times electric charge
        2 3  # number of spin states (2S+1)
        3 1  # colour rep (1: singlet, 3: triplet, 8: octet)
        4 0  # Particle/Antiparticle distinction (0=own anti)
</slha>
## END BANNER##
<MGGenerationInfo>
#  Number of Events        :         3952
#  Integrated weight (pb)  :  0.28374E-02
#  Max wgt                 :  0.10359E-05
#  Average wgt             :  0.71797E-06
</MGGenerationInfo>
</header>
<init>
     2212     2212  0.40000000000E+04  0.40000000000E+04 0 0  247000  247000 2   1
  0.28379678283E-02  0.60275059997E-05  0.10359280000E-05   0
</init>
<event>
 5   0  0.1014015E-05  0.2198529E+04  0.7818609E-02  0.8519041E-01
        2   -1    0    0  501    0  0.00000000000E+00  0.00000000000E+00  0.12032992423E+04  0.12032992423E+04  0.25500000920E-02 0.  1.
       -2   -1    0    0    0  501  0.00000000000E+00  0.00000000000E+00 -0.10042241330E+04  0.10042241330E+04  0.25500000920E-02 0. -1.
    10030    2    1    2    0    0  0.00000000000E+00  0.00000000000E+00  0.19907510924E+03  0.22075233753E+04  0.21985287247E+04 0.  0.
        1    1    3    3  502    0 -0.52105366861E+03  0.95447748992E+03 -0.61924352452E+02  0.10892010052E+04  0.50400001928E-02 0. -1.
       -1    1    3    3    0  502  0.52105366861E+03 -0.95447748992E+03  0.26099946169E+03  0.11183223701E+04  0.50400001928E-02 0.  1.
</event>
<event>
 5   0  0.1014015E-05  0.2198556E+04  0.7818609E-02  0.8519029E-01
        2   -1    0    0  501    0  0.00000000000E+00  0.00000000000E+00  0.15294860090E+04  0.15294860090E+04  0.25500000920E-02 0. -1.
       -2   -1    0    0    0  501  0.00000000000E+00  0.00000000000E+00 -0.79007716792E+03  0.79007716792E+03  0.25500000920E-02 0.  1.
    10030    2    1    2    0    0  0.00000000000E+00  0.00000000000E+00  0.73940884110E+03  0.23195631769E+04  0.21985558664E+04 0.  0.
        1    1    3    3  502    0 -0.49519081005E+03 -0.77299990031E+03 -0.26828413009E+03  0.95640951413E+03  0.50400001928E-02 0.  1.
       -1    1    3    3    0  502  0.49519081005E+03  0.77299990031E+03  0.10076929712E+04  0.13631536628E+04  0.50400001928E-02 0. -1.
</event>
<event>
 5   0  0.1035928E-05  0.2196709E+04  0.7818609E-02  0.8519799E-01
        2   -1    0    0  501    0  0.00000000000E+00  0.00000000000E+00  0.15149816958E+04  0.15149816958E+04  0.25500000920E-02 0. -1.
       -2   -1    0    0    0  501  0.00000000000E+00  0.00000000000E+00 -0.79630186582E+03  0.79630186582E+03  0.25500000920E-02 0.  1.
    10030    2    1    2    0    0  0.00000000000E+00  0.00000000000E+00  0.71867982998E+03  0.23112835616E+04  0.21967091305E+04 0.  0.
        3    1    3    3  502    0 -0.42503892022E+03  0.10122485943E+04  0.39387633505E+03  0.11663806745E+04  0.10100000352E+00 0. -1.
       -3    1    3    3    0  502  0.42503892022E+03 -0.10122485943E+04  0.32480349494E+03  0.11449028871E+04  0.10100000352E+00 0.  1.
</event>
<event>
 5   0  0.1014015E-05  0.2201265E+04  0.7818609E-02  0.8517902E-01
       -2   -1    0    0    0  501  0.00000000000E+00  0.00000000000E+00  0.54521841207E+03  0.54521841208E+03  0.25500000920E-02 0. -1.
        2   -1    0    0  501    0  0.00000000000E+00  0.00000000000E+00 -0.22218463817E+04  0.22218463817E+04  0.25500000920E-02 0.  1.
    10030    2    1    2    0    0  0.00000000000E+00  0.00000000000E+00 -0.16766279696E+04  0.27670647938E+04  0.22012646875E+04 0.  0.
        1    1    3    3  502    0 -0.53256137818E+03 -0.70143360835E+03 -0.16681096381E+04  0.18863245991E+04  0.50400001928E-02 0.  1.
       -1    1    3    3    0  502  0.53256137818E+03  0.70143360835E+03 -0.85183315053E+01  0.88074019464E+03  0.50400001928E-02 0. -1.
</event>
<event>
 5   0  0.1035928E-05  0.2199411E+04  0.7818609E-02  0.8518673E-01
       -2   -1    0    0    0  501  0.00000000000E+00  0.00000000000E+00  0.13078719335E+04  0.13078719335E+04  0.25500000920E-02 0.  1.
        2   -1    0    0  501    0  0.00000000000E+00  0.00000000000E+00 -0.92467152085E+03  0.92467152085E+03  0.25500000920E-02 0. -1.
    10030    2    1    2    0    0  0.00000000000E+00  0.00000000000E+00  0.38320041269E+03  0.22325434544E+04  0.21994107664E+04 0.  0.
        3    1    3    3  502    0  0.96975521425E+03 -0.45452708670E+03  0.44502474098E+03  0.11597702697E+04  0.10100000352E+00 0. -1.
       -3    1    3    3    0  502 -0.96975521425E+03  0.45452708670E+03 -0.61824328290E+02  0.10727731847E+04  0.10100000352E+00 0.  1.
</event>
<event>
 5   0  0.4408787E-06  0.2198119E+04  0.7818609E-02  0.8519211E-01
        1   -1    0    0  501    0  0.00000000000E+00  0.00000000000E+00  0.13675159916E+04  0.13675159916E+04  0.50400001928E-02 0.  1.
       -1   -1    0    0    0  501  0.00000000000E+00  0.00000000000E+00 -0.88330359902E+03  0.88330359904E+03  0.50400001928E-02 0. -1.
    10030    2    1    2    0    0  0.00000000000E+00  0.00000000000E+00  0.48421239257E+03  0.22508195906E+04  0.21981190114E+04 0.  0.
        1    1    3    3  502    0  0.91134844045E+03  0.41104065809E+03 -0.22537121755E+03  0.10248427139E+04  0.50400001928E-02 0. -1.
       -1    1    3    3    0  502 -0.91134844045E+03 -0.41104065809E+03  0.70958361012E+03  0.12259768767E+04  0.50400001928E-02 0.  1.
</event>
<event>
 5   0  0.4462201E-06  0.2200215E+04  0.7818609E-02  0.8518339E-01
       -1   -1    0    0    0  501  0.00000000000E+00  0.00000000000E+00  0.10088266425E+04  0.10088266425E+04  0.50400001928E-02 0.  1.
        1   -1    0    0  501    0  0.00000000000E+00  0.00000000000E+00 -0.11996478706E+04  0.11996478706E+04  0.50400001928E-02 0. -1.
    10030    2    1    2    0    0  0.00000000000E+00  0.00000000000E+00 -0.19082122813E+03  0.22084745131E+04  0.22002152017E+04 0.  0.
        3    1    3    3  502    0 -0.61252857810E+03  0.14559084820E+03 -0.10009327810E+04  0.11824780743E+04  0.10100000352E+00 0. -1.
       -3    1    3    3    0  502  0.61252857810E+03 -0.14559084820E+03  0.81011155283E+03  0.10259964387E+04  0.10100000352E+00 0.  1.
</event>
<event>
 5   0  0.1014015E-05  0.2210337E+04  0.7818609E-02  0.8514138E-01
        2   -1    0    0  501    0  0.00000000000E+00  0.00000000000E+00  0.18443335348E+04  0.18443335348E+04  0.25500000920E-02 0.  1.
       -2   -1    0    0    0  501  0.00000000000E+00  0.00000000000E+00 -0.66224298983E+03  0.66224298983E+03  0.25500000920E-02 0. -1.
    10030    2    1    2    0    0  0.00000000000E+00  0.00000000000E+00  0.11820905450E+04  0.25065765247E+04  0.22103365846E+04 0.  0.
        1    1    3    3  502    0  0.13255957812E+03 -0.65342189795E+03  0.15905739522E+04  0.17246616236E+04  0.50400001928E-02 0.  1.
       -1    1    3    3    0  502 -0.13255957812E+03  0.65342189795E+03 -0.40848340723E+03  0.78191490104E+03  0.50400001928E-02 0. -1.
</event>
<event>
 5   0  0.4630615E-06  0.2200501E+04  0.7818609E-02  0.8518219E-01
       -1   -1    0    0    0  501  0.00000000000E+00  0.00000000000E+00  0.14858211424E+04  0.14858211424E+04  0.50400001928E-02 0. -1.
        1   -1    0    0  501    0  0.00000000000E+00  0.00000000000E+00 -0.81473574233E+03  0.81473574235E+03  0.50400001928E-02 0.  1.
    10030    2    1    2    0    0  0.00000000000E+00  0.00000000000E+00  0.67108540007E+03  0.23005568848E+04  0.22005013896E+04 0.  0.
        2    1    3    3  502    0 -0.17505268691E+03  0.90050288520E+03 -0.29953388719E+03  0.96502302512E+03  0.25500000920E-02 0.  1.
       -2    1    3    3    0  502  0.17505268691E+03 -0.90050288520E+03  0.97061928726E+03  0.13355338596E+04  0.25500000920E-02 0. -1.
</event>
<event>
 5   0  0.1014015E-05  0.2197629E+04  0.7818609E-02  0.8519416E-01
       -2   -1    0    0    0  501  0.00000000000E+00  0.00000000000E+00  0.12847254698E+04  0.12847254698E+04  0.25500000920E-02 0.  1.
        2   -1    0    0  501    0  0.00000000000E+00  0.00000000000E+00 -0.93980665974E+03  0.93980665974E+03  0.25500000920E-02 0. -1.
    10030    2    1    2    0    0  0.00000000000E+00  0.00000000000E+00  0.34491881003E+03  0.22245321295E+04  0.21976292248E+04 0.  0.
        1    1    3    3  502    0  0.69181169641E+03 -0.17445910058E+03  0.10183654344E+04  0.12434257352E+04  0.50400001928E-02 0.  1.
       -1    1    3    3    0  502 -0.69181169641E+03  0.17445910058E+03 -0.67344662434E+03  0.98110639429E+03  0.50400001928E-02 0. -1.
</event>
<event>
 5   0  0.3546750E-06  0.2200713E+04  0.7818609E-02  0.8518131E-01
       -4   -1    0    0    0  501  0.00000000000E+00  0.00000000000E+00  0.73704497692E+03  0.73704607108E+03  0.12699999809E+01 0. -1.
        4   -1    0    0  501    0  0.00000000000E+00  0.00000000000E+00 -0.16427530567E+04  0.16427535476E+04  0.12699999809E+01 0.  1.
    10030    2    1    2    0    0  0.00000000000E+00  0.00000000000E+00 -0.90570807982E+03  0.23797996187E+04  0.22007133161E+04 0.  0.
        3    1    3    3  502    0 -0.13580274872E+03  0.93230515416E+03 -0.10675758874E+04  0.14238516681E+04  0.10100000352E+00 0.  1.
       -3    1    3    3    0  502  0.13580274872E+03 -0.93230515416E+03  0.16186780762E+03  0.95594795066E+03  0.10100000352E+00 0. -1.
</event>
<event>
 5   0  0.1015876E-05  0.2201773E+04  0.7818609E-02  0.8517690E-01
       -2   -1    0    0    0  501  0.00000000000E+00  0.00000000000E+00  0.14268520121E+04  0.14268520121E+04  0.25500000920E-02 0.  1.
        2   -1    0    0  501    0  0.00000000000E+00  0.00000000000E+00 -0.84938839529E+03  0.84938839529E+03  0.25500000920E-02 0. -1.
    10030    2    1    2    0    0  0.00000000000E+00  0.00000000000E+00  0.57746361681E+03  0.22762404074E+04  0.22017734133E+04 0.  0.
        5    1    3    3  502    0 -0.33513633733E+03 -0.91381366215E+03 -0.24301597684E+03  0.10032201297E+04  0.46999998093E+01 0.  1.
       -5    1    3    3    0  502  0.33513633733E+03  0.91381366215E+03  0.82047959365E+03  0.12730202777E+04  0.46999998093E+01 0. -1.
</event>
<event>
 5   0  0.4794967E-06  0.2197346E+04  0.7818609E-02  0.8519533E-01
       -1   -1    0    0    0  501  0.00000000000E+00  0.00000000000E+00  0.78623577222E+03  0.78623577223E+03  0.50400001928E-02 0. -1.
        1   -1    0    0  501    0  0.00000000000E+00  0.00000000000E+00 -0.15352679143E+04  0.15352679143E+04  0.50400001928E-02 0.  1.
    10030    2    1    2    0    0  0.00000000000E+00  0.00000000000E+00 -0.74903214207E+03  0.23215036865E+04  0.21973461759E+04 0.  0.
        5    1    3    3  502    0  0.70788032224E+03  0.79601546757E+03 -0.90386795395E+02  0.10690776576E+04  0.46999998093E+01 0. -1.
       -5    1    3    3    0  502 -0.70788032224E+03 -0.79601546757E+03 -0.65864534668E+03  0.12524260289E+04  0.46999998093E+01 0.  1.
</event>
<event>
 5   0  0.4408787E-06  0.2194255E+04  0.7818609E-02  0.8520823E-01
       -1   -1    0    0    0  501  0.00000000000E+00  0.00000000000E+00  0.92194259026E+03  0.92194259027E+03  0.50400001928E-02 0. -1.
        1   -1    0    0  501    0  0.00000000000E+00  0.00000000000E+00 -0.13056010601E+04  0.13056010601E+04  0.50400001928E-02 0.  1.
    10030    2    1    2    0    0  0.00000000000E+00  0.00000000000E+00 -0.38365846986E+03  0.22275436504E+04  0.21942554302E+04 0.  0.
        1    1    3    3  502    0  0.85778133027E+03  0.17077507780E+03  0.48059106854E+03  0.99795827214E+03  0.50400001928E-02 0. -1.
       -1    1    3    3    0  502 -0.85778133027E+03 -0.17077507780E+03 -0.86424953840E+03  0.12295853782E+04  0.50400001928E-02 0.  1.
</event>
<event>
 5   0  0.4462201E-06  0.2205869E+04  0.7818609E-02  0.8515989E-01
        1   -1    0    0  501    0  0.00000000000E+00  0.00000000000E+00  0.11550064727E+04  0.11550064727E+04  0.50400001928E-02 0. -1.
       -1   -1    0    0    0  501  0.00000000000E+00  0.00000000000E+00 -0.10532097274E+04  0.10532097274E+04  0.50400001928E-02 0.  1.
    10030    2    1    2    0    0  0.00000000000E+00  0.00000000000E+00  0.10179674532E+03  0.22082162001E+04  0.22058685838E+04 0.  0.
        3    1    3    3  502    0 -0.98783928453E+03 -0.38262380858E+03  0.35820490072E+03  0.11182746497E+04  0.10100000352E+00 0. -1.
       -3    1    3    3    0  502  0.98783928453E+03  0.38262380858E+03 -0.25640815540E+03  0.10899415504E+04  0.10100000352E+00 0.  1.
</event>
<event>
 5   0  0.4462201E-06  0.2200123E+04  0.7818609E-02  0.8518377E-01
        1   -1    0    0  501    0  0.00000000000E+00  0.00000000000E+00  0.88402680348E+03  0.88402680349E+03  0.50400001928E-02 0.  1.
       -1   -1    0    0    0  501  0.00000000000E+00  0.00000000000E+00 -0.13688894841E+04  0.13688894842E+04  0.50400001928E-02 0. -1.
    10030    2    1    2    0    0  0.00000000000E+00  0.00000000000E+00 -0.48486268067E+03  0.22529162876E+04  0.22001227193E+04 0.  0.
        3    1    3    3  502    0  0.88894294870E+03 -0.57357795366E+03  0.66339882869E+02  0.10600057666E+04  0.10100000352E+00 0.  1.
       -3    1    3    3    0  502 -0.88894294870E+03  0.57357795366E+03 -0.55120256354E+03  0.11929105210E+04  0.10100000352E+00 0. -1.
</event>
<event>
 5   0  0.1014015E-05  0.2195482E+04  0.7818609E-02  0.8520311E-01
       -2   -1    0    0    0  501  0.00000000000E+00  0.00000000000E+00  0.54621862935E+03  0.54621862936E+03  0.25500000920E-02 0. -1.
        2   -1    0    0  501    0  0.00000000000E+00  0.00000000000E+00 -0.22061405980E+04  0.22061405980E+04  0.25500000920E-02 0.  1.
    10030    2    1    2    0    0  0.00000000000E+00  0.00000000000E+00 -0.16599219686E+04  0.27523592273E+04  0.21954818092E+04 0.  0.
        1    1    3    3  502    0 -0.39479880540E+03 -0.88656703302E+03 -0.14730805527E+04  0.17640389779E+04  0.50400001928E-02 0.  1.
       -1    1    3    3    0  502  0.39479880540E+03  0.88656703302E+03 -0.18684141598E+03  0.98832024948E+03  0.50400001928E-02 0. -1.
</event>
<event>
 5   0  0.4309945E-06  0.2217730E+04  0.7818609E-02  0.8511085E-01
       -1   -1    0    0    0  501  0.00000000000E+00  0.00000000000E+00  0.11777626313E+04  0.11777626313E+04  0.50400001928E-02 0. -1.
        1   -1    0    0  501    0  0.00000000000E+00  0.00000000000E+00 -0.10439978037E+04  0.10439978037E+04  0.50400001928E-02 0.  1.
    10030    2    1    2    0    0  0.00000000000E+00  0.00000000000E+00  0.13376482759E+03  0.22217604349E+04  0.22177300109E+04 0.  0.
        4    1    3    3  502    0  0.87285191691E+02 -0.63968992650E+03 -0.83628696156E+03  0.10565033846E+04  0.12699999809E+01 0.  1.
       -4    1    3    3    0  502 -0.87285191691E+02  0.63968992650E+03  0.97005178915E+03  0.11652570503E+04  0.12699999809E+01 0. -1.
</event>
<event>
 5   0  0.4408787E-06  0.2197072E+04  0.7818609E-02  0.8519648E-01
        1   -1    0    0  501    0  0.00000000000E+00  0.00000000000E+00  0.21736211367E+04  0.21736211367E+04  0.50400001928E-02 0.  1.
       -1   -1    0    0    0  501  0.00000000000E+00  0.00000000000E+00 -0.55519409556E+03  0.55519409558E+03  0.50400001928E-02 0. -1.
    10030    2    1    2    0    0  0.00000000000E+00  0.00000000000E+00  0.16184270411E+04  0.27288152323E+04  0.21970722529E+04 0.  0.
        1    1    3    3  502    0 -0.35684526377E+03  0.81056456601E+03  0.16164601190E+04  0.18431757307E+04  0.50400001928E-02 0.  1.
       -1    1    3    3    0  502  0.35684526377E+03 -0.81056456601E+03  0.19669221611E+01  0.88563950158E+03  0.50400001928E-02 0. -1.
</event>
<event>
 5   0  0.9963573E-06  0.2197314E+04  0.7818609E-02  0.8519547E-01
        2   -1    0    0  501    0  0.00000000000E+00  0.00000000000E+00  0.98679443376E+03  0.98679443376E+03  0.25500000920E-02 0.  1.
       -2   -1    0    0    0  501  0.00000000000E+00  0.00000000000E+00 -0.12232003174E+04  0.12232003174E+04  0.25500000920E-02 0. -1.
    10030    2    1    2    0    0  0.00000000000E+00  0.00000000000E+00 -0.23640588364E+03  0.22099947512E+04  0.21973140555E+04 0.  0.
        2    1    3    3  502    0  0.69597380427E+03  0.74658366075E+03  0.29069036719E+03  0.10612575504E+04  0.25500000920E-02 0. -1.
       -2    1    3    3    0  502 -0.69597380427E+03 -0.74658366075E+03 -0.52709625083E+03  0.11487372007E+04  0.25500000920E-02 0.  1.
</event>
<event>
 5   0  0.4462201E-06  0.2202886E+04  0.7818609E-02  0.8517228E-01
        1   -1    0    0  501    0  0.00000000000E+00  0.00000000000E+00  0.54022306994E+03  0.54022306996E+03  0.50400001928E-02 0.  1.
       -1   -1    0    0    0  501  0.00000000000E+00  0.00000000000E+00 -0.22456959565E+04  0.22456959565E+04  0.50400001928E-02 0. -1.
    10030    2    1    2    0    0  0.00000000000E+00  0.00000000000E+00 -0.17054728865E+04  0.27859190264E+04  0.22028860740E+04 0.  0.
        3    1    3    3  502    0 -0.88567474983E+03  0.38280157314E+03 -0.18088956328E+03  0.98167094853E+03  0.10100000352E+00 0.  1.
       -3    1    3    3    0  502  0.88567474983E+03 -0.38280157314E+03 -0.15245833233E+04  0.18042480779E+04  0.10100000352E+00 0. -1.
</event>
<event>
 5   0  0.1035928E-05  0.2200418E+04  0.7818609E-02  0.8518254E-01
       -2   -1    0    0    0  501  0.00000000000E+00  0.00000000000E+00  0.11273489598E+04  0.11273489598E+04  0.25500000920E-02 0. -1.
        2   -1    0    0  501    0  0.00000000000E+00  0.00000000000E+00 -0.10737220428E+04  0.10737220428E+04  0.25500000920E-02 0.  1.
    10030    2    1    2    0    0  0.00000000000E+00  0.00000000000E+00  0.53626917046E+02  0.22010710026E+04  0.22004176222E+04 0.  0.
        3    1    3    3  502    0 -0.79332522538E+03  0.39294386543E+03 -0.62659534061E+03  0.10846158424E+04  0.10100000352E+00 0.  1.
       -3    1    3    3    0  502  0.79332522538E+03 -0.39294386543E+03  0.68022225766E+03  0.11164551601E+04  0.10100000352E+00 0. -1.
</event>
<event>
 5   0  0.4408787E-06  0.2167919E+04  0.7818609E-02  0.8531901E-01
        1   -1    0    0  501    0  0.00000000000E+00  0.00000000000E+00  0.11146081720E+04  0.11146081720E+04  0.50400001928E-02 0. -1.
       -1   -1    0    0    0  501  0.00000000000E+00  0.00000000000E+00 -0.10541531896E+04  0.10541531896E+04  0.50400001928E-02 0.  1.
    10030    2    1    2    0    0  0.00000000000E+00  0.00000000000E+00  0.60454982420E+02  0.21687613617E+04  0.21679185960E+04 0.  0.
        1    1    3    3  502    0 -0.77047852568E+03 -0.59980798256E+03 -0.44065814223E+03  0.10712545789E+04  0.50400001928E-02 0.  1.
       -1    1    3    3    0  502  0.77047852568E+03  0.59980798256E+03  0.50111312465E+03  0.10975067828E+04  0.50400001928E-02 0. -1.
</event>
<event>
 5   0  0.9963573E-06  0.2195531E+04  0.7818609E-02  0.8520291E-01
       -2   -1    0    0    0  501  0.00000000000E+00  0.00000000000E+00  0.12328883115E+04  0.12328883115E+04  0.25500000920E-02 0.  1.
        2   -1    0    0  501    0  0.00000000000E+00  0.00000000000E+00 -0.97745170854E+03  0.97745170855E+03  0.25500000920E-02 0. -1.
    10030    2    1    2    0    0  0.00000000000E+00  0.00000000000E+00  0.25543660293E+03  0.22103400200E+04  0.21955307208E+04 0.  0.
        2    1    3    3  502    0 -0.23621829681E+03  0.76557456413E+03  0.88323700458E+03  0.11924810704E+04  0.25500000920E-02 0. -1.
       -2    1    3    3    0  502  0.23621829681E+03 -0.76557456413E+03 -0.62780040165E+03  0.10178589496E+04  0.25500000920E-02 0.  1.
</event>
<event>
 5   0  0.4630615E-06  0.2198161E+04  0.7818609E-02  0.8519194E-01
       -1   -1    0    0    0  501  0.00000000000E+00  0.00000000000E+00  0.71675539678E+03  0.71675539680E+03  0.50400001928E-02 0. -1.
        1   -1    0    0  501    0  0.00000000000E+00  0.00000000000E+00 -0.16853418678E+04  0.16853418678E+04  0.50400001928E-02 0.  1.
    10030    2    1    2    0    0  0.00000000000E+00  0.00000000000E+00 -0.96858647101E+03  0.24020972646E+04  0.21981609397E+04 0.  0.
        2    1    3    3  502    0  0.28433757749E+03 -0.10422753381E+04 -0.70500188412E+03  0.12900439508E+04  0.25500000920E-02 0. -1.
       -2    1    3    3    0  502 -0.28433757749E+03  0.10422753381E+04 -0.26358458689E+03  0.11120533138E+04  0.25500000920E-02 0.  1.
</event>
<event>
 5   0  0.1035928E-05  0.2206685E+04  0.7818609E-02  0.8515651E-01
        2   -1    0    0  501    0  0.00000000000E+00  0.00000000000E+00  0.24612733655E+04  0.24612733655E+04  0.25500000920E-02 0. -1.
       -2   -1    0    0    0  501  0.00000000000E+00  0.00000000000E+00 -0.49460780298E+03  0.49460780299E+03  0.25500000920E-02 0.  1.
    10030    2    1    2    0    0  0.00000000000E+00  0.00000000000E+00  0.19666655625E+04  0.29558811685E+04  0.22066853077E+04 0.  0.
        3    1    3    3  502    0 -0.99473213774E+03  0.41139122339E+03  0.13076779195E+04  0.16937403331E+04  0.10100000352E+00 0.  1.
       -3    1    3    3    0  502  0.99473213774E+03 -0.41139122339E+03  0.65898764298E+03  0.12621408354E+04  0.10100000352E+00 0. -1.
</event>
<event>
 5   0  0.1015876E-05  0.2203795E+04  0.7818609E-02  0.8516850E-01
       -2   -1    0    0    0  501  0.00000000000E+00  0.00000000000E+00  0.12588341261E+04  0.12588341262E+04  0.25500000920E-02 0.  1.
        2   -1    0    0  501    0  0.00000000000E+00  0.00000000000E+00 -0.96452581295E+03  0.96452581296E+03  0.25500000920E-02 0. -1.
    10030    2    1    2    0    0  0.00000000000E+00  0.00000000000E+00  0.29430831320E+03  0.22233599391E+04  0.22037949169E+04 0.  0.
        5    1    3    3  502    0 -0.42226927797E+03 -0.97443188492E+03 -0.14926899358E+03  0.10724421494E+04  0.46999998093E+01 0. -1.
       -5    1    3    3    0  502  0.42226927797E+03  0.97443188492E+03  0.44357730678E+03  0.11509177897E+04  0.46999998093E+01 0.  1.
</event>
<event>
 5   0  0.4630615E-06  0.2198361E+04  0.7818609E-02  0.8519111E-01
       -1   -1    0    0    0  501  0.00000000000E+00  0.00000000000E+00  0.69589384572E+03  0.69589384574E+03  0.50400001928E-02 0. -1.
        1   -1    0    0  501    0  0.00000000000E+00  0.00000000000E+00 -0.17361813922E+04  0.17361813922E+04  0.50400001928E-02 0.  1.
    10030    2    1    2    0    0  0.00000000000E+00  0.00000000000E+00 -0.10402875464E+04  0.24320752379E+04  0.21983611586E+04 0.  0.
        2    1    3    3  502    0 -0.10157368678E+04 -0.41512056733E+03 -0.44886188029E+03  0.11855477458E+04  0.25500000920E-02 0. -1.
       -2    1    3    3    0  502  0.10157368678E+04  0.41512056733E+03 -0.59142566615E+03  0.12465274921E+04  0.25500000920E-02 0.  1.
</event>
<event>
 5   0  0.1035928E-05  0.2192689E+04  0.7818609E-02  0.8521477E-01
        2   -1    0    0  501    0  0.00000000000E+00  0.00000000000E+00  0.18113286066E+04  0.18113286066E+04  0.25500000920E-02 0.  1.
       -2   -1    0    0    0  501  0.00000000000E+00  0.00000000000E+00 -0.66358561832E+03  0.66358561833E+03  0.25500000920E-02 0. -1.
    10030    2    1    2    0    0  0.00000000000E+00  0.00000000000E+00  0.11477429883E+04  0.24749142249E+04  0.21926893199E+04 0.  0.
        3    1    3    3  502    0  0.10540212699E+04  0.29563790751E+03  0.50606425055E+03  0.12060114617E+04  0.10100000352E+00 0. -1.
       -3    1    3    3    0  502 -0.10540212699E+04 -0.29563790751E+03  0.64167873770E+03  0.12689027632E+04  0.10100000352E+00 0.  1.
</event>
<event>
 5   0  0.1014015E-05  0.2199389E+04  0.7818609E-02  0.8518682E-01
        2   -1    0    0  501    0  0.00000000000E+00  0.00000000000E+00  0.24519560822E+04  0.24519560823E+04  0.25500000920E-02 0. -1.
       -2   -1    0    0    0  501  0.00000000000E+00  0.00000000000E+00 -0.49320947798E+03  0.49320947799E+03  0.25500000920E-02 0.  1.
    10030    2    1    2    0    0  0.00000000000E+00  0.00000000000E+00  0.19587466043E+04  0.29451655602E+04  0.21993889873E+04 0.  0.
        1    1    3    3  502    0  0.71790299886E+03  0.43724163304E+03  0.29885631989E+02  0.84110529214E+03  0.50400001928E-02 0.  1.
       -1    1    3    3    0  502 -0.71790299886E+03 -0.43724163304E+03  0.19288609723E+04  0.21040602681E+04  0.50400001928E-02 0. -1.
</event>
<event>
 5   0  0.4462201E-06  0.2196204E+04  0.7818609E-02  0.8520010E-01
        1   -1    0    0  501    0  0.00000000000E+00  0.00000000000E+00  0.14825792030E+04  0.14825792030E+04  0.50400001928E-02 0. -1.
       -1   -1    0    0    0  501  0.00000000000E+00  0.00000000000E+00 -0.81333147189E+03  0.81333147191E+03  0.50400001928E-02 0.  1.
    10030    2    1    2    0    0  0.00000000000E+00  0.00000000000E+00  0.66924773114E+03  0.22959106749E+04  0.21962042942E+04 0.  0.
        3    1    3    3  502    0 -0.15214063560E+03 -0.70377538701E+03  0.12013487160E+04  0.14006017692E+04  0.10100000352E+00 0. -1.
       -3    1    3    3    0  502  0.15214063560E+03  0.70377538701E+03 -0.53210098485E+03  0.89530890571E+03  0.10100000352E+00 0.  1.
</event>
<event>
 5   0  0.1035928E-05  0.2198902E+04  0.7818609E-02  0.8518885E-01
        2   -1    0    0  501    0  0.00000000000E+00  0.00000000000E+00  0.16906128780E+04  0.16906128780E+04  0.25500000920E-02 0. -1.
       -2   -1    0    0    0  501  0.00000000000E+00  0.00000000000E+00 -0.71500230196E+03  0.71500230196E+03  0.25500000920E-02 0.  1.
    10030    2    1    2    0    0  0.00000000000E+00  0.00000000000E+00  0.97561057603E+03  0.24056151799E+04  0.21989016344E+04 0.  0.
        3    1    3    3  502    0 -0.74337410234E+03 -0.69272132402E+03  0.28420811806E+02  0.10165016682E+04  0.10100000352E+00 0.  1.
       -3    1    3    3    0  502  0.74337410234E+03  0.69272132402E+03  0.94718976422E+03  0.13891135117E+04  0.10100000352E+00 0. -1.
</event>
<event>
 5   0  0.4309945E-06  0.2176513E+04  0.7818609E-02  0.8528268E-01
       -1   -1    0    0    0  501  0.00000000000E+00  0.00000000000E+00  0.88468531737E+03  0.88468531739E+03  0.50400001928E-02 0.  1.
        1   -1    0    0  501    0  0.00000000000E+00  0.00000000000E+00 -0.13386711551E+04  0.13386711551E+04  0.50400001928E-02 0. -1.
    10030    2    1    2    0    0  0.00000000000E+00  0.00000000000E+00 -0.45398583771E+03  0.22233564725E+04  0.21765134649E+04 0.  0.
        4    1    3    3  502    0 -0.11690081302E+03 -0.42675081069E+02 -0.13313778425E+04  0.13371819379E+04  0.12699999809E+01 0. -1.
       -4    1    3    3    0  502  0.11690081302E+03  0.42675081069E+02  0.87739200483E+03  0.88617453454E+03  0.12699999809E+01 0.  1.
</event>
<event>
 5   0  0.4408787E-06  0.2199693E+04  0.7818609E-02  0.8518556E-01
       -1   -1    0    0    0  501  0.00000000000E+00  0.00000000000E+00  0.10458322572E+04  0.10458322572E+04  0.50400001928E-02 0. -1.
        1   -1    0    0  501    0  0.00000000000E+00  0.00000000000E+00 -0.11566507793E+04  0.11566507793E+04  0.50400001928E-02 0.  1.
    10030    2    1    2    0    0  0.00000000000E+00  0.00000000000E+00 -0.11081852212E+03  0.22024830366E+04  0.21996933381E+04 0.  0.
        1    1    3    3  502    0  0.90197663279E+03 -0.62591427243E+02  0.57163024610E+03  0.10696918580E+04  0.50400001928E-02 0. -1.
       -1    1    3    3    0  502 -0.90197663279E+03  0.62591427243E+02 -0.68244876822E+03  0.11327911785E+04  0.50400001928E-02 0.  1.
</event>
<event>
 5   0  0.4462201E-06  0.2196502E+04  0.7818609E-02  0.8519885E-01
        1   -1    0    0  501    0  0.00000000000E+00  0.00000000000E+00  0.16428687658E+04  0.16428687658E+04  0.50400001928E-02 0.  1.
       -1   -1    0    0    0  501  0.00000000000E+00  0.00000000000E+00 -0.73417648847E+03  0.73417648849E+03  0.50400001928E-02 0. -1.
    10030    2    1    2    0    0  0.00000000000E+00  0.00000000000E+00  0.90869227733E+03  0.23770452543E+04  0.21965023301E+04 0.  0.
        3    1    3    3  502    0 -0.17963921914E+03  0.44881456402E+03 -0.61283861388E+03  0.78056129727E+03  0.10100000352E+00 0. -1.
       -3    1    3    3    0  502  0.17963921914E+03 -0.44881456402E+03  0.15215308912E+04  0.15964839570E+04  0.10100000352E+00 0.  1.
</event>
<event>
 5   0  0.9963173E-06  0.2209486E+04  0.7818609E-02  0.8514490E-01
       -2   -1    0    0    0  501  0.00000000000E+00  0.00000000000E+00  0.12744675408E+04  0.12744675408E+04  0.25500000920E-02 0. -1.
        2   -1    0    0  501    0  0.00000000000E+00  0.00000000000E+00 -0.95762108672E+03  0.95762108672E+03  0.25500000920E-02 0.  1.
    10030    2    1    2    0    0  0.00000000000E+00  0.00000000000E+00  0.31684645406E+03  0.22320886275E+04  0.22094859053E+04 0.  0.
        4    1    3    3  502    0  0.53191649336E+03  0.70281406142E+03 -0.51440246016E+03  0.10205362633E+04  0.12699999809E+01 0.  1.
       -4    1    3    3    0  502 -0.53191649336E+03 -0.70281406142E+03  0.83124891422E+03  0.12115523642E+04  0.12699999809E+01 0. -1.
</event>
<event>
 5   0  0.9963173E-06  0.2179007E+04  0.7818609E-02  0.8527217E-01
       -2   -1    0    0    0  501  0.00000000000E+00  0.00000000000E+00  0.10771029625E+04  0.10771029625E+04  0.25500000920E-02 0. -1.
        2   -1    0    0  501    0  0.00000000000E+00  0.00000000000E+00 -0.11020463201E+04  0.11020463201E+04  0.25500000920E-02 0.  1.
    10030    2    1    2    0    0  0.00000000000E+00  0.00000000000E+00 -0.24943357615E+02  0.21791492826E+04  0.21790065224E+04 0.  0.
        4    1    3    3  502    0 -0.76186991660E+03 -0.30466416563E+03 -0.72928200219E+03  0.10977795203E+04  0.12699999809E+01 0.  1.
       -4    1    3    3    0  502  0.76186991660E+03  0.30466416563E+03  0.70433864458E+03  0.10813697623E+04  0.12699999809E+01 0. -1.
</event>
<event>
 5   0  0.4630615E-06  0.2199813E+04  0.7818609E-02  0.8518506E-01
        1   -1    0    0  501    0  0.00000000000E+00  0.00000000000E+00  0.15794386546E+04  0.15794386546E+04  0.50400001928E-02 0. -1.
       -1   -1    0    0    0  501  0.00000000000E+00  0.00000000000E+00 -0.76596455394E+03  0.76596455396E+03  0.50400001928E-02 0.  1.
    10030    2    1    2    0    0  0.00000000000E+00  0.00000000000E+00  0.81347410063E+03  0.23454032085E+04  0.21998127416E+04 0.  0.
        2    1    3    3  502    0  0.73561011745E+03  0.67186518468E+03  0.90370758217E+03  0.13450696879E+04  0.25500000920E-02 0. -1.
       -2    1    3    3    0  502 -0.73561011745E+03 -0.67186518468E+03 -0.90233481539E+02  0.10003335206E+04  0.25500000920E-02 0.  1.
</event>
<event>
 5   0  0.4462201E-06  0.2201024E+04  0.7818609E-02  0.8518002E-01
       -1   -1    0    0    0  501  0.00000000000E+00  0.00000000000E+00  0.57552612183E+03  0.57552612185E+03  0.50400001928E-02 0. -1.
        1   -1    0    0  501    0  0.00000000000E+00  0.00000000000E+00 -0.21043817598E+04  0.21043817599E+04  0.50400001928E-02 0.  1.
    10030    2    1    2    0    0  0.00000000000E+00  0.00000000000E+00 -0.15288556380E+04  0.26799078817E+04  0.22010240100E+04 0.  0.
        3    1    3    3  502    0  0.16298338051E+03  0.66707568387E+02 -0.20871143053E+04  0.20945308820E+04  0.10100000352E+00 0.  1.
       -3    1    3    3    0  502 -0.16298338051E+03 -0.66707568387E+02  0.55825866728E+03  0.58537699972E+03  0.10100000352E+00 0. -1.
</event>
<event>
 5   0  0.4794967E-06  0.2199446E+04  0.7818609E-02  0.8518659E-01
        1   -1    0    0  501    0  0.00000000000E+00  0.00000000000E+00  0.12880456098E+04  0.12880456098E+04  0.50400001928E-02 0. -1.
       -1   -1    0    0    0  501  0.00000000000E+00  0.00000000000E+00 -0.93893458503E+03  0.93893458505E+03  0.50400001928E-02 0.  1.
    10030    2    1    2    0    0  0.00000000000E+00  0.00000000000E+00  0.34911102476E+03  0.22269801948E+04  0.21994459031E+04 0.  0.
        5    1    3    3  502    0  0.55981151191E+03 -0.23495957639E+03  0.11029714563E+04  0.12590325869E+04  0.46999998093E+01 0. -1.
       -5    1    3    3    0  502 -0.55981151191E+03  0.23495957639E+03 -0.75386043158E+03  0.96794760793E+03  0.46999998093E+01 0.  1.
</event>
<event>
 5   0  0.9963573E-06  0.2200359E+04  0.7818609E-02  0.8518279E-01
        2   -1    0    0  501    0  0.00000000000E+00  0.00000000000E+00  0.24404901596E+04  0.24404901596E+04  0.25500000920E-02 0. -1.
       -2   -1    0    0    0  501  0.00000000000E+00  0.00000000000E+00 -0.49596388326E+03  0.49596388327E+03  0.25500000920E-02 0.  1.
    10030    2    1    2    0    0  0.00000000000E+00  0.00000000000E+00  0.19445262763E+04  0.29364540429E+04  0.22003590404E+04 0.  0.
        2    1    3    3  502    0 -0.47493112376E+03 -0.30213211605E+03  0.22337695783E+04  0.23035993395E+04  0.25500000920E-02 0. -1.
       -2    1    3    3    0  502  0.47493112376E+03  0.30213211605E+03 -0.28924330197E+03  0.63285470339E+03  0.25500000920E-02 0.  1.
</event>
<event>
 5   0  0.1035928E-05  0.2199477E+04  0.7818609E-02  0.8518646E-01
       -2   -1    0    0    0  501  0.00000000000E+00  0.00000000000E+00  0.61180419276E+03  0.61180419276E+03  0.25500000920E-02 0.  1.
        2   -1    0    0  501    0  0.00000000000E+00  0.00000000000E+00 -0.19768171529E+04  0.19768171529E+04  0.25500000920E-02 0. -1.
    10030    2    1    2    0    0  0.00000000000E+00  0.00000000000E+00 -0.13650129602E+04  0.25886213457E+04  0.21994772310E+04 0.  0.
        3    1    3    3  502    0  0.30065061935E+03 -0.10368975022E+04 -0.43597554842E+03  0.11643117770E+04  0.10100000352E+00 0.  1.
       -3    1    3    3    0  502 -0.30065061935E+03  0.10368975022E+04 -0.92903741173E+03  0.14243095687E+04  0.10100000352E+00 0. -1.
</event>
<event>
 5   0  0.1014015E-05  0.2200693E+04  0.7818609E-02  0.8518140E-01
        2   -1    0    0  501    0  0.00000000000E+00  0.00000000000E+00  0.15197870233E+04  0.15197870233E+04  0.25500000920E-02 0. -1.
       -2   -1    0    0    0  501  0.00000000000E+00  0.00000000000E+00 -0.79666600762E+03  0.79666600762E+03  0.25500000920E-02 0.  1.
    10030    2    1    2    0    0  0.00000000000E+00  0.00000000000E+00  0.72312101565E+03  0.23164530309E+04  0.22006932183E+04 0.  0.
        1    1    3    3  502    0 -0.83644118586E+03 -0.18019791327E+03  0.10898037018E+04  0.13855602671E+04  0.50400001928E-02 0. -1.
       -1    1    3    3    0  502  0.83644118586E+03  0.18019791327E+03 -0.36668268613E+03  0.93089276379E+03  0.50400001928E-02 0.  1.
</event>
<event>
 5   0  0.9963573E-06  0.2200881E+04  0.7818609E-02  0.8518062E-01
       -2   -1    0    0    0  501  0.00000000000E+00  0.00000000000E+00  0.56575788859E+03  0.56575788859E+03  0.25500000920E-02 0.  1.
        2   -1    0    0  501    0  0.00000000000E+00  0.00000000000E+00 -0.21404363843E+04  0.21404363843E+04  0.25500000920E-02 0. -1.
    10030    2    1    2    0    0  0.00000000000E+00  0.00000000000E+00 -0.15746784957E+04  0.27061942729E+04  0.22008805233E+04 0.  0.
        2    1    3    3  502    0 -0.63324664500E+03 -0.47184012015E+03  0.15499550208E+03  0.80477202862E+03  0.25500000920E-02 0.  1.
       -2    1    3    3    0  502  0.63324664500E+03  0.47184012015E+03 -0.17296739978E+04  0.19014222443E+04  0.25500000920E-02 0. -1.
</event>
<event>
 5   0  0.1035928E-05  0.2201090E+04  0.7818609E-02  0.8517975E-01
       -2   -1    0    0    0  501  0.00000000000E+00  0.00000000000E+00  0.10054658349E+04  0.10054658349E+04  0.25500000920E-02 0.  1.
        2   -1    0    0  501    0  0.00000000000E+00  0.00000000000E+00 -0.12046146429E+04  0.12046146429E+04  0.25500000920E-02 0. -1.
    10030    2    1    2    0    0  0.00000000000E+00  0.00000000000E+00 -0.19914880797E+03  0.22100804778E+04  0.22010896098E+04 0.  0.
        3    1    3    3  502    0 -0.96756261617E+03 -0.49761091289E+03 -0.26579462153E+03  0.11200182266E+04  0.10100000352E+00 0. -1.
       -3    1    3    3    0  502  0.96756261617E+03  0.49761091289E+03  0.66645813559E+02  0.10900622512E+04  0.10100000352E+00 0.  1.
</event>
<event>
 5   0  0.4462201E-06  0.2194724E+04  0.7818609E-02  0.8520627E-01
       -1   -1    0    0    0  501  0.00000000000E+00  0.00000000000E+00  0.14085663576E+04  0.14085663576E+04  0.50400001928E-02 0.  1.
        1   -1    0    0  501    0  0.00000000000E+00  0.00000000000E+00 -0.85491419450E+03  0.85491419451E+03  0.50400001928E-02 0. -1.
    10030    2    1    2    0    0  0.00000000000E+00  0.00000000000E+00  0.55365216308E+03  0.22634805521E+04  0.21947240127E+04 0.  0.
        3    1    3    3  502    0  0.78034304643E+03  0.45256510878E+03 -0.36761198617E+03  0.97410935237E+03  0.10100000352E+00 0. -1.
       -3    1    3    3    0  502 -0.78034304643E+03 -0.45256510878E+03  0.92126414925E+03  0.12893711997E+04  0.10100000352E+00 0.  1.
</event>
<event>
 5   0  0.1015876E-05  0.2197737E+04  0.7818609E-02  0.8519371E-01
        2   -1    0    0  501    0  0.00000000000E+00  0.00000000000E+00  0.18633779088E+04  0.18633779088E+04  0.25500000920E-02 0. -1.
       -2   -1    0    0    0  501  0.00000000000E+00  0.00000000000E+00 -0.64802313898E+03  0.64802313899E+03  0.25500000920E-02 0.  1.
    10030    2    1    2    0    0  0.00000000000E+00  0.00000000000E+00  0.12153547698E+04  0.25114010478E+04  0.21977370194E+04 0.  0.
        5    1    3    3  502    0  0.53092607280E+03  0.87707474503E+03  0.10595182974E+04  0.14743621386E+04  0.46999998093E+01 0. -1.
       -5    1    3    3    0  502 -0.53092607280E+03 -0.87707474503E+03  0.15583647247E+03  0.10370389093E+04  0.46999998093E+01 0.  1.
</event>
<event>
 5   0  0.4794967E-06  0.2198534E+04  0.7818609E-02  0.8519039E-01
        1   -1    0    0  501    0  0.00000000000E+00  0.00000000000E+00  0.69330597000E+03  0.69330597002E+03  0.50400001928E-02 0. -1.
       -1   -1    0    0    0  501  0.00000000000E+00  0.00000000000E+00 -0.17429352854E+04  0.17429352854E+04  0.50400001928E-02 0.  1.
    10030    2    1    2    0    0  0.00000000000E+00  0.00000000000E+00 -0.10496293154E+04  0.24362412555E+04  0.21985335465E+04 0.  0.
        5    1    3    3  502    0  0.68994974290E+03  0.32519817393E+03 -0.14019684693E+04  0.15960332637E+04  0.46999998093E+01 0.  1.
       -5    1    3    3    0  502 -0.68994974290E+03 -0.32519817393E+03  0.35233915384E+03  0.84020799174E+03  0.46999998093E+01 0. -1.
</event>
<event>
 5   0  0.4462201E-06  0.2196880E+04  0.7818609E-02  0.8519728E-01
       -1   -1    0    0    0  501  0.00000000000E+00  0.00000000000E+00  0.10812620373E+04  0.10812620373E+04  0.50400001928E-02 0. -1.
        1   -1    0    0  501    0  0.00000000000E+00  0.00000000000E+00 -0.11158913231E+04  0.11158913231E+04  0.50400001928E-02 0.  1.
    10030    2    1    2    0    0  0.00000000000E+00  0.00000000000E+00 -0.34629285748E+02  0.21971533604E+04  0.21968804477E+04 0.  0.
        3    1    3    3  502    0 -0.63377934924E+03  0.40422574623E+03  0.78371943282E+03  0.10859515998E+04  0.10100000352E+00 0. -1.
       -3    1    3    3    0  502  0.63377934924E+03 -0.40422574623E+03 -0.81834871857E+03  0.11112017606E+04  0.10100000352E+00 0.  1.
</event>
<event>
 5   0  0.1035928E-05  0.2203774E+04  0.7818609E-02  0.8516859E-01
       -2   -1    0    0    0  501  0.00000000000E+00  0.00000000000E+00  0.60718340392E+03  0.60718340392E+03  0.25500000920E-02 0.  1.
        2   -1    0    0  501    0  0.00000000000E+00  0.00000000000E+00 -0.19996513046E+04  0.19996513046E+04  0.25500000920E-02 0. -1.
    10030    2    1    2    0    0  0.00000000000E+00  0.00000000000E+00 -0.13924679007E+04  0.26068347085E+04  0.22037741135E+04 0.  0.
        3    1    3    3  502    0  0.17788548992E+03 -0.52277218223E+03 -0.18241613948E+04  0.19059115422E+04  0.10100000352E+00 0. -1.
       -3    1    3    3    0  502 -0.17788548992E+03  0.52277218223E+03  0.43169349414E+03  0.70092316635E+03  0.10100000352E+00 0.  1.
</event>
<event>
 5   0  0.4408787E-06  0.2225233E+04  0.7818609E-02  0.8507998E-01
        1   -1    0    0  501    0  0.00000000000E+00  0.00000000000E+00  0.18021942714E+04  0.18021942714E+04  0.50400001928E-02 0. -1.
       -1   -1    0    0    0  501  0.00000000000E+00  0.00000000000E+00 -0.68689377722E+03  0.68689377724E+03  0.50400001928E-02 0.  1.
    10030    2    1    2    0    0  0.00000000000E+00  0.00000000000E+00  0.11153004942E+04  0.24890880486E+04  0.22252334982E+04 0.  0.
        1    1    3    3  502    0 -0.20282504130E+03  0.10339586009E+04  0.95738611422E+03  0.14236560531E+04  0.50400001928E-02 0.  1.
       -1    1    3    3    0  502  0.20282504130E+03 -0.10339586009E+04  0.15791437997E+03  0.10654319956E+04  0.50400001928E-02 0. -1.
</event>
<event>
 5   0  0.4462201E-06  0.2197669E+04  0.7818609E-02  0.8519399E-01
       -1   -1    0    0    0  501  0.00000000000E+00  0.00000000000E+00  0.14855297877E+04  0.14855297877E+04  0.50400001928E-02 0.  1.
        1   -1    0    0  501    0  0.00000000000E+00  0.00000000000E+00 -0.81279934089E+03  0.81279934091E+03  0.50400001928E-02 0. -1.
    10030    2    1    2    0    0  0.00000000000E+00  0.00000000000E+00  0.67273044684E+03  0.22983291286E+04  0.21976693403E+04 0.  0.
        3    1    3    3  502    0 -0.12709669133E+03  0.38835090980E+03  0.14031189222E+04  0.14614077864E+04  0.10100000352E+00 0.  1.
       -3    1    3    3    0  502  0.12709669133E+03 -0.38835090980E+03 -0.73038847532E+03  0.83692134229E+03  0.10100000352E+00 0. -1.
</event>
<event>
 5   0  0.4630615E-06  0.2195964E+04  0.7818609E-02  0.8520110E-01
       -1   -1    0    0    0  501  0.00000000000E+00  0.00000000000E+00  0.17706815844E+04  0.17706815844E+04  0.50400001928E-02 0. -1.
        1   -1    0    0  501    0  0.00000000000E+00  0.00000000000E+00 -0.68084791742E+03  0.68084791744E+03  0.50400001928E-02 0.  1.
    10030    2    1    2    0    0  0.00000000000E+00  0.00000000000E+00  0.10898336670E+04  0.24515295019E+04  0.21959643615E+04 0.  0.
        2    1    3    3  502    0 -0.67047645113E+03 -0.86838795607E+03  0.49589067106E+03  0.12039700459E+04  0.25500000920E-02 0. -1.
       -2    1    3    3    0  502  0.67047645113E+03  0.86838795607E+03  0.59394299595E+03  0.12475594560E+04  0.25500000920E-02 0.  1.
</event>
<event>
 5   0  0.4794967E-06  0.2200442E+04  0.7818609E-02  0.8518244E-01
       -1   -1    0    0    0  501  0.00000000000E+00  0.00000000000E+00  0.69541996643E+03  0.69541996645E+03  0.50400001928E-02 0.  1.
        1   -1    0    0  501    0  0.00000000000E+00  0.00000000000E+00 -0.17406547345E+04  0.17406547345E+04  0.50400001928E-02 0. -1.
    10030    2    1    2    0    0  0.00000000000E+00  0.00000000000E+00 -0.10452347681E+04  0.24360747010E+04  0.22004418257E+04 0.  0.
        5    1    3    3  502    0  0.97156341558E+03 -0.47135458731E+03 -0.28946281955E+03  0.11179988512E+04  0.46999998093E+01 0.  1.
       -5    1    3    3    0  502 -0.97156341558E+03  0.47135458731E+03 -0.75577194854E+03  0.13180758497E+04  0.46999998093E+01 0. -1.
</event>
<event>
 5   0  0.9963173E-06  0.2206468E+04  0.7818609E-02  0.8515741E-01
       -2   -1    0    0    0  501  0.00000000000E+00  0.00000000000E+00  0.84209269028E+03  0.84209269028E+03  0.25500000920E-02 0. -1.
        2   -1    0    0  501    0  0.00000000000E+00  0.00000000000E+00 -0.14453575083E+04  0.14453575083E+04  0.25500000920E-02 0.  1.
    10030    2    1    2    0    0  0.00000000000E+00  0.00000000000E+00 -0.60326481802E+03  0.22874501986E+04  0.22064677587E+04 0.  0.
        4    1    3    3  502    0  0.10016370820E+04  0.34136032558E+03  0.21778273923E+02  0.10584326252E+04  0.12699999809E+01 0. -1.
       -4    1    3    3    0  502 -0.10016370820E+04 -0.34136032558E+03 -0.62504309194E+03  0.12290175734E+04  0.12699999809E+01 0.  1.
</event>
<event>
 5   0  0.1014015E-05  0.2199150E+04  0.7818609E-02  0.8518782E-01
       -2   -1    0    0    0  501  0.00000000000E+00  0.00000000000E+00  0.76839546276E+03  0.76839546276E+03  0.25500000920E-02 0.  1.
        2   -1    0    0  501    0  0.00000000000E+00  0.00000000000E+00 -0.15734940703E+04  0.15734940703E+04  0.25500000920E-02 0. -1.
    10030    2    1    2    0    0  0.00000000000E+00  0.00000000000E+00 -0.80509860757E+03  0.23418895331E+04  0.21991504763E+04 0.  0.
        1    1    3    3  502    0 -0.12037133828E+03  0.19162724308E+03 -0.15484279594E+04  0.15648768018E+04  0.50400001928E-02 0. -1.
       -1    1    3    3    0  502  0.12037133828E+03 -0.19162724308E+03  0.74332935179E+03  0.77701273132E+03  0.50400001928E-02 0.  1.
</event>
<event>
 5   0  0.4309945E-06  0.2200396E+04  0.7818609E-02  0.8518263E-01
        1   -1    0    0  501    0  0.00000000000E+00  0.00000000000E+00  0.24221592606E+04  0.24221592607E+04  0.50400001928E-02 0.  1.
       -1   -1    0    0    0  501  0.00000000000E+00  0.00000000000E+00 -0.49973408881E+03  0.49973408883E+03  0.50400001928E-02 0. -1.
    10030    2    1    2    0    0  0.00000000000E+00  0.00000000000E+00  0.19224251718E+04  0.29218933495E+04  0.22003959199E+04 0.  0.
        4    1    3    3  502    0 -0.84851148009E+03 -0.54878713669E+03  0.15389532927E+04  0.18410643398E+04  0.12699999809E+01 0.  1.
       -4    1    3    3    0  502  0.84851148009E+03  0.54878713669E+03  0.38347187916E+03  0.10808290097E+04  0.12699999809E+01 0. -1.
</event>
<event>
 5   0  0.9963573E-06  0.2215637E+04  0.7818609E-02  0.8511948E-01
        2   -1    0    0  501    0  0.00000000000E+00  0.00000000000E+00  0.72960788732E+03  0.72960788732E+03  0.25500000920E-02 0.  1.
       -2   -1    0    0    0  501  0.00000000000E+00  0.00000000000E+00 -0.16820846849E+04  0.16820846849E+04  0.25500000920E-02 0. -1.
    10030    2    1    2    0    0  0.00000000000E+00  0.00000000000E+00 -0.95247679759E+03  0.24116925722E+04  0.22156373830E+04 0.  0.
        2    1    3    3  502    0 -0.21881066308E+03  0.19338705164E+03 -0.16394362055E+04  0.16652410426E+04  0.25500000920E-02 0. -1.
       -2    1    3    3    0  502  0.21881066308E+03 -0.19338705164E+03  0.68695940790E+03  0.74645152966E+03  0.25500000920E-02 0.  1.
</event>
<event>
 5   0  0.4794967E-06  0.2199667E+04  0.7818609E-02  0.8518567E-01
       -1   -1    0    0    0  501  0.00000000000E+00  0.00000000000E+00  0.14855730605E+04  0.14855730605E+04  0.50400001928E-02 0.  1.
        1   -1    0    0  501    0  0.00000000000E+00  0.00000000000E+00 -0.81425364362E+03  0.81425364363E+03  0.50400001928E-02 0. -1.
    10030    2    1    2    0    0  0.00000000000E+00  0.00000000000E+00  0.67131941688E+03  0.22998267041E+04  0.21996665905E+04 0.  0.
        5    1    3    3  502    0 -0.51866859382E+03 -0.56120807682E+03 -0.49133048341E+03  0.90851491437E+03  0.46999998093E+01 0. -1.
       -5    1    3    3    0  502  0.51866859382E+03  0.56120807682E+03  0.11626499003E+04  0.13913117898E+04  0.46999998093E+01 0.  1.
</event>
<event>
 5   0  0.9963573E-06  0.2196774E+04  0.7818609E-02  0.8519772E-01
       -2   -1    0    0    0  501  0.00000000000E+00  0.00000000000E+00  0.16608538261E+04  0.16608538261E+04  0.25500000920E-02 0. -1.
        2   -1    0    0  501    0  0.00000000000E+00  0.00000000000E+00 -0.72640606353E+03  0.72640606353E+03  0.25500000920E-02 0.  1.
    10030    2    1    2    0    0  0.00000000000E+00  0.00000000000E+00  0.93444776256E+03  0.23872598896E+04  0.21967742623E+04 0.  0.
        2    1    3    3  502    0 -0.27357424538E+03  0.88125105821E+03  0.11147142848E+04  0.14470778251E+04  0.25500000920E-02 0. -1.
       -2    1    3    3    0  502  0.27357424538E+03 -0.88125105821E+03 -0.18026652222E+03  0.94018206448E+03  0.25500000920E-02 0.  1.
</event>
<event>
 5   0  0.4309945E-06  0.2198867E+04  0.7818609E-02  0.8518900E-01
       -1   -1    0    0    0  501  0.00000000000E+00  0.00000000000E+00  0.74176340514E+03  0.74176340516E+03  0.50400001928E-02 0. -1.
        1   -1    0    0  501    0  0.00000000000E+00  0.00000000000E+00 -0.16295688314E+04  0.16295688314E+04  0.50400001928E-02 0.  1.
    10030    2    1    2    0    0  0.00000000000E+00  0.00000000000E+00 -0.88780542623E+03  0.23713322365E+04  0.21988674588E+04 0.  0.
        4    1    3    3  502    0 -0.24989440297E+03  0.10338517281E+04 -0.74404123403E+03  0.12980352766E+04  0.12699999809E+01 0. -1.
       -4    1    3    3    0  502  0.24989440297E+03 -0.10338517281E+04 -0.14376419220E+03  0.10732969600E+04  0.12699999809E+01 0.  1.
</event>
<event>
 5   0  0.4309945E-06  0.2200590E+04  0.7818609E-02  0.8518183E-01
       -1   -1    0    0    0  501  0.00000000000E+00  0.00000000000E+00  0.13081512333E+04  0.13081512333E+04  0.50400001928E-02 0.  1.
        1   -1    0    0  501    0  0.00000000000E+00  0.00000000000E+00 -0.92546545538E+03  0.92546545539E+03  0.50400001928E-02 0. -1.
    10030    2    1    2    0    0  0.00000000000E+00  0.00000000000E+00  0.38268577791E+03  0.22336166887E+04  0.22005897181E+04 0.  0.
        4    1    3    3  502    0 -0.77564512824E+03  0.81776426704E+02 -0.59640709909E+03  0.98184305755E+03  0.12699999809E+01 0. -1.
       -4    1    3    3    0  502  0.77564512824E+03 -0.81776426704E+02  0.97909287700E+03  0.12517736311E+04  0.12699999809E+01 0.  1.
</event>
<event>
 5   0  0.4630615E-06  0.2201080E+04  0.7818609E-02  0.8517979E-01
       -1   -1    0    0    0  501  0.00000000000E+00  0.00000000000E+00  0.14925665820E+04  0.14925665820E+04  0.50400001928E-02 0.  1.
        1   -1    0    0  501    0  0.00000000000E+00  0.00000000000E+00 -0.81148001486E+03  0.81148001488E+03  0.50400001928E-02 0. -1.
    10030    2    1    2    0    0  0.00000000000E+00  0.00000000000E+00  0.68108656715E+03  0.23040465969E+04  0.22010796916E+04 0.  0.
        2    1    3    3  502    0 -0.60311817670E+03 -0.34964006267E+03  0.12319601944E+04  0.14155301583E+04  0.25500000920E-02 0.  1.
       -2    1    3    3    0  502  0.60311817670E+03  0.34964006267E+03 -0.55087362723E+03  0.88851643861E+03  0.25500000920E-02 0. -1.
</event>
<event>
 5   0  0.9963573E-06  0.2199603E+04  0.7818609E-02  0.8518594E-01
       -2   -1    0    0    0  501  0.00000000000E+00  0.00000000000E+00  0.11702594794E+04  0.11702594794E+04  0.25500000920E-02 0. -1.
        2   -1    0    0  501    0  0.00000000000E+00  0.00000000000E+00 -0.10335852436E+04  0.10335852437E+04  0.25500000920E-02 0.  1.
    10030    2    1    2    0    0  0.00000000000E+00  0.00000000000E+00  0.13667423574E+03  0.22038447230E+04  0.21996026270E+04 0.  0.
        2    1    3    3  502    0 -0.27018431667E+03  0.10415904431E+04 -0.15937352609E+03  0.10878005961E+04  0.25500000920E-02 0.  1.
       -2    1    3    3    0  502  0.27018431667E+03 -0.10415904431E+04  0.29604776183E+03  0.11160441270E+04  0.25500000920E-02 0. -1.
</event>
<event>
 5   0  0.4794967E-06  0.2205257E+04  0.7818609E-02  0.8516243E-01
        1   -1    0    0  501    0  0.00000000000E+00  0.00000000000E+00  0.11326650920E+04  0.11326650921E+04  0.50400001928E-02 0.  1.
       -1   -1    0    0    0  501  0.00000000000E+00  0.00000000000E+00 -0.10733882441E+04  0.10733882441E+04  0.50400001928E-02 0. -1.
    10030    2    1    2    0    0  0.00000000000E+00  0.00000000000E+00  0.59276847993E+02  0.22060533361E+04  0.22052568052E+04 0.  0.
        5    1    3    3  502    0 -0.10761739586E+04  0.75640024557E+02 -0.19824970086E+03  0.10969032940E+04  0.46999998093E+01 0. -1.
       -5    1    3    3    0  502  0.10761739586E+04 -0.75640024557E+02  0.25752654886E+03  0.11091500421E+04  0.46999998093E+01 0.  1.
</event>
<event>
 5   0  0.1015876E-05  0.2200724E+04  0.7818609E-02  0.8518127E-01
       -2   -1    0    0    0  501  0.00000000000E+00  0.00000000000E+00  0.12501333060E+04  0.12501333060E+04  0.25500000920E-02 0.  1.
        2   -1    0    0  501    0  0.00000000000E+00  0.00000000000E+00 -0.96853376930E+03  0.96853376930E+03  0.25500000920E-02 0. -1.
    10030    2    1    2    0    0  0.00000000000E+00  0.00000000000E+00  0.28159953672E+03  0.22186670753E+04  0.22007238109E+04 0.  0.
        5    1    3    3  502    0 -0.42347677825E+03  0.57886232199E+03 -0.70048596526E+03  0.10025551591E+04  0.46999998093E+01 0.  1.
       -5    1    3    3    0  502  0.42347677825E+03 -0.57886232199E+03  0.98208550198E+03  0.12161119162E+04  0.46999998093E+01 0. -1.
</event>
<event>
 5   0  0.1015876E-05  0.2204050E+04  0.7818609E-02  0.8516744E-01
        2   -1    0    0  501    0  0.00000000000E+00  0.00000000000E+00  0.86146166605E+03  0.86146166605E+03  0.25500000920E-02 0. -1.
       -2   -1    0    0    0  501  0.00000000000E+00  0.00000000000E+00 -0.14097662886E+04  0.14097662886E+04  0.25500000920E-02 0.  1.
    10030    2    1    2    0    0  0.00000000000E+00  0.00000000000E+00 -0.54830462257E+03  0.22712279547E+04  0.22040504674E+04 0.  0.
        5    1    3    3  502    0 -0.54180816111E+03  0.59593277045E+02  0.71281327190E+03  0.89734736457E+03  0.46999998093E+01 0. -1.
       -5    1    3    3    0  502  0.54180816111E+03 -0.59593277045E+02 -0.12611178945E+04  0.13738805901E+04  0.46999998093E+01 0.  1.
</event>
<event>
 5   0  0.9963173E-06  0.2195971E+04  0.7818609E-02  0.8520107E-01
       -2   -1    0    0    0  501  0.00000000000E+00  0.00000000000E+00  0.22494558355E+04  0.22494558355E+04  0.25500000920E-02 0. -1.
        2   -1    0    0  501    0  0.00000000000E+00  0.00000000000E+00 -0.53593942677E+03  0.53593942677E+03  0.25500000920E-02 0.  1.
    10030    2    1    2    0    0  0.00000000000E+00  0.00000000000E+00  0.17135164087E+04  0.27853952623E+04  0.21959709206E+04 0.  0.
        4    1    3    3  502    0  0.85394816702E+03 -0.86725736765E+02  0.17252466986E+04  0.19269734324E+04  0.12699999809E+01 0. -1.
       -4    1    3    3    0  502 -0.85394816702E+03  0.86725736765E+02 -0.11730289844E+02  0.85842182986E+03  0.12699999809E+01 0.  1.
</event>
<event>
 5   0  0.4309945E-06  0.2199805E+04  0.7818609E-02  0.8518509E-01
        1   -1    0    0  501    0  0.00000000000E+00  0.00000000000E+00  0.72440942169E+03  0.72440942170E+03  0.50400001928E-02 0.  1.
       -1   -1    0    0    0  501  0.00000000000E+00  0.00000000000E+00 -0.16700305361E+04  0.16700305361E+04  0.50400001928E-02 0. -1.
    10030    2    1    2    0    0  0.00000000000E+00  0.00000000000E+00 -0.94562111442E+03  0.23944399578E+04  0.21998053140E+04 0.  0.
        4    1    3    3  502    0  0.80082157638E+03  0.65692606898E+03 -0.87557273895E+03  0.13562803145E+04  0.12699999809E+01 0. -1.
       -4    1    3    3    0  502 -0.80082157638E+03 -0.65692606898E+03 -0.70048375471E+02  0.10381596434E+04  0.12699999809E+01 0.  1.
</event>
<event>
 5   0  0.4630615E-06  0.2192815E+04  0.7818609E-02  0.8521425E-01
        1   -1    0    0  501    0  0.00000000000E+00  0.00000000000E+00  0.12868502888E+04  0.12868502888E+04  0.50400001928E-02 0. -1.
       -1   -1    0    0    0  501  0.00000000000E+00  0.00000000000E+00 -0.93414850523E+03  0.93414850524E+03  0.50400001928E-02 0.  1.
    10030    2    1    2    0    0  0.00000000000E+00  0.00000000000E+00  0.35270178360E+03  0.22209987941E+04  0.21928148794E+04 0.  0.
        2    1    3    3  502    0 -0.31548456477E+03  0.36511513752E+03 -0.82081788504E+03  0.95214577385E+03  0.25500000920E-02 0.  1.
       -2    1    3    3    0  502  0.31548456477E+03 -0.36511513752E+03  0.11735196686E+04  0.12688530202E+04  0.25500000920E-02 0. -1.
</event>
<event>
 5   0  0.9963573E-06  0.2223672E+04  0.7818609E-02  0.8508639E-01
       -2   -1    0    0    0  501  0.00000000000E+00  0.00000000000E+00  0.87123137284E+03  0.87123137284E+03  0.25500000920E-02 0. -1.
        2   -1    0    0  501    0  0.00000000000E+00  0.00000000000E+00 -0.14188875105E+04  0.14188875105E+04  0.25500000920E-02 0.  1.
    10030    2    1    2    0    0  0.00000000000E+00  0.00000000000E+00 -0.54765613764E+03  0.22901188833E+04  0.22236720205E+04 0.  0.
        2    1    3    3  502    0 -0.42777838417E+03 -0.49693659394E+03 -0.11985671125E+04  0.13662003687E+04  0.25500000920E-02 0.  1.
       -2    1    3    3    0  502  0.42777838417E+03  0.49693659394E+03  0.65091097487E+03  0.92391851457E+03  0.25500000920E-02 0. -1.
</event>
<event>
 5   0  0.4630615E-06  0.2213910E+04  0.7818609E-02  0.8512661E-01
        1   -1    0    0  501    0  0.00000000000E+00  0.00000000000E+00  0.17970107578E+04  0.17970107578E+04  0.50400001928E-02 0. -1.
       -1   -1    0    0    0  501  0.00000000000E+00  0.00000000000E+00 -0.68188186497E+03  0.68188186498E+03  0.50400001928E-02 0.  1.
    10030    2    1    2    0    0  0.00000000000E+00  0.00000000000E+00  0.11151288928E+04  0.24788926228E+04  0.22139097063E+04 0.  0.
        2    1    3    3  502    0  0.92807517241E+03  0.57434669745E+03  0.76448423125E+03  0.13325290970E+04  0.25500000920E-02 0.  1.
       -2    1    3    3    0  502 -0.92807517241E+03 -0.57434669745E+03  0.35064466157E+03  0.11463635258E+04  0.25500000920E-02 0. -1.
</event>
<event>
 5   0  0.1035928E-05  0.2193847E+04  0.7818609E-02  0.8520994E-01
        2   -1    0    0  501    0  0.00000000000E+00  0.00000000000E+00  0.94791367729E+03  0.94791367729E+03  0.25500000920E-02 0. -1.
       -2   -1    0    0    0  501  0.00000000000E+00  0.00000000000E+00 -0.12693572442E+04  0.12693572442E+04  0.25500000920E-02 0.  1.
    10030    2    1    2    0    0  0.00000000000E+00  0.00000000000E+00 -0.32144356691E+03  0.22172709215E+04  0.21938469346E+04 0.  0.
        3    1    3    3  502    0 -0.91208135296E+02  0.14297100101E+03 -0.12560279161E+04  0.12674248566E+04  0.10100000352E+00 0.  1.
       -3    1    3    3    0  502  0.91208135296E+02 -0.14297100101E+03  0.93458434914E+03  0.94984606487E+03  0.10100000352E+00 0. -1.
</event>
<event>
 5   0  0.1015876E-05  0.2214892E+04  0.7818609E-02  0.8512255E-01
       -2   -1    0    0    0  501  0.00000000000E+00  0.00000000000E+00  0.17638793373E+04  0.17638793373E+04  0.25500000920E-02 0.  1.
        2   -1    0    0  501    0  0.00000000000E+00  0.00000000000E+00 -0.69530616344E+03  0.69530616344E+03  0.25500000920E-02 0. -1.
    10030    2    1    2    0    0  0.00000000000E+00  0.00000000000E+00  0.10685731739E+04  0.24591855008E+04  0.22148915773E+04 0.  0.
        5    1    3    3  502    0  0.10151144782E+04 -0.26017337113E+03  0.13664166876E+03  0.10568068047E+04  0.46999998093E+01 0. -1.
       -5    1    3    3    0  502 -0.10151144782E+04  0.26017337113E+03  0.93193150513E+03  0.14023786961E+04  0.46999998093E+01 0.  1.
</event>
<event>
 5   0  0.4794967E-06  0.2221008E+04  0.7818609E-02  0.8509735E-01
        1   -1    0    0  501    0  0.00000000000E+00  0.00000000000E+00  0.10270395442E+04  0.10270395442E+04  0.50400001928E-02 0.  1.
       -1   -1    0    0    0  501  0.00000000000E+00  0.00000000000E+00 -0.12007514825E+04  0.12007514825E+04  0.50400001928E-02 0. -1.
    10030    2    1    2    0    0  0.00000000000E+00  0.00000000000E+00 -0.17371193829E+03  0.22277910268E+04  0.22210081093E+04 0.  0.
        5    1    3    3  502    0 -0.10531725752E+04 -0.10131887317E+03 -0.42516806777E+03  0.11402753891E+04  0.46999998093E+01 0. -1.
       -5    1    3    3    0  502  0.10531725752E+04  0.10131887317E+03  0.25145612948E+03  0.10875156377E+04  0.46999998093E+01 0.  1.
</event>
<event>
 5   0  0.4462201E-06  0.2149087E+04  0.7818609E-02  0.8539923E-01
        1   -1    0    0  501    0  0.00000000000E+00  0.00000000000E+00  0.11456547148E+04  0.11456547148E+04  0.50400001928E-02 0.  1.
       -1   -1    0    0    0  501  0.00000000000E+00  0.00000000000E+00 -0.10078458084E+04  0.10078458084E+04  0.50400001928E-02 0. -1.
    10030    2    1    2    0    0  0.00000000000E+00  0.00000000000E+00  0.13780890644E+03  0.21535005233E+04  0.21490865988E+04 0.  0.
        3    1    3    3  502    0 -0.30616433889E+03  0.99054677670E+03  0.35183835388E+03  0.10948560438E+04  0.10100000352E+00 0.  1.
       -3    1    3    3    0  502  0.30616433889E+03 -0.99054677670E+03 -0.21402944744E+03  0.10586444794E+04  0.10100000352E+00 0. -1.
</event>
<event>
 5   0  0.1035928E-05  0.2196222E+04  0.7818609E-02  0.8520002E-01
        2   -1    0    0  501    0  0.00000000000E+00  0.00000000000E+00  0.19312593870E+04  0.19312593870E+04  0.25500000920E-02 0.  1.
       -2   -1    0    0    0  501  0.00000000000E+00  0.00000000000E+00 -0.62438443459E+03  0.62438443460E+03  0.25500000920E-02 0. -1.
    10030    2    1    2    0    0  0.00000000000E+00  0.00000000000E+00  0.13068749524E+04  0.25556438216E+04  0.21962224846E+04 0.  0.
        3    1    3    3  502    0 -0.27278565328E+03  0.71585107501E+03 -0.26208085140E+03  0.80965496176E+03  0.10100000352E+00 0. -1.
       -3    1    3    3    0  502  0.27278565328E+03 -0.71585107501E+03  0.15689558038E+04  0.17459888599E+04  0.10100000352E+00 0.  1.
</event>
<event>
 5   0  0.1014015E-05  0.2190150E+04  0.7818609E-02  0.8522539E-01
        2   -1    0    0  501    0  0.00000000000E+00  0.00000000000E+00  0.20474216820E+04  0.20474216820E+04  0.25500000920E-02 0. -1.
       -2   -1    0    0    0  501  0.00000000000E+00  0.00000000000E+00 -0.58570718279E+03  0.58570718280E+03  0.25500000920E-02 0.  1.
    10030    2    1    2    0    0  0.00000000000E+00  0.00000000000E+00  0.14617144992E+04  0.26331288648E+04  0.21901503011E+04 0.  0.
        1    1    3    3  502    0  0.19167744035E+03 -0.68159670530E+03  0.17352119128E+04  0.18741063717E+04  0.50400001928E-02 0. -1.
       -1    1    3    3    0  502 -0.19167744035E+03  0.68159670530E+03 -0.27349741363E+03  0.75902249314E+03  0.50400001928E-02 0.  1.
</event>
<event>
 5   0  0.1014015E-05  0.2198235E+04  0.7818609E-02  0.8519163E-01
       -2   -1    0    0    0  501  0.00000000000E+00  0.00000000000E+00  0.80585398468E+03  0.80585398469E+03  0.25500000920E-02 0.  1.
        2   -1    0    0  501    0  0.00000000000E+00  0.00000000000E+00 -0.14991044926E+04  0.14991044926E+04  0.25500000920E-02 0. -1.
    10030    2    1    2    0    0  0.00000000000E+00  0.00000000000E+00 -0.69325050787E+03  0.23049584772E+04  0.21982350455E+04 0.  0.
        1    1    3    3  502    0 -0.40861111869E+03 -0.16004966950E+03  0.71000915320E+03  0.83468074177E+03  0.50400001928E-02 0.  1.
       -1    1    3    3    0  502  0.40861111869E+03  0.16004966950E+03 -0.14032596611E+04  0.14702777355E+04  0.50400001928E-02 0. -1.
</event>
<event>
 5   0  0.9963573E-06  0.2200149E+04  0.7818609E-02  0.8518366E-01
        2   -1    0    0  501    0  0.00000000000E+00  0.00000000000E+00  0.14965488246E+04  0.14965488246E+04  0.25500000920E-02 0. -1.
       -2   -1    0    0    0  501  0.00000000000E+00  0.00000000000E+00 -0.80863661666E+03  0.80863661667E+03  0.25500000920E-02 0.  1.
    10030    2    1    2    0    0  0.00000000000E+00  0.00000000000E+00  0.68791220792E+03  0.23051854412E+04  0.22001492478E+04 0.  0.
        2    1    3    3  502    0  0.66807844812E+03 -0.81518572247E+03  0.67413170411E+03  0.12511235468E+04  0.25500000920E-02 0.  1.
       -2    1    3    3    0  502 -0.66807844812E+03  0.81518572247E+03  0.13780503809E+02  0.10540618944E+04  0.25500000920E-02 0. -1.
</event>
<event>
 5   0  0.4408787E-06  0.2203103E+04  0.7818609E-02  0.8517138E-01
        1   -1    0    0  501    0  0.00000000000E+00  0.00000000000E+00  0.13744779212E+04  0.13744779212E+04  0.50400001928E-02 0.  1.
       -1   -1    0    0    0  501  0.00000000000E+00  0.00000000000E+00 -0.88281934277E+03  0.88281934279E+03  0.50400001928E-02 0. -1.
    10030    2    1    2    0    0  0.00000000000E+00  0.00000000000E+00  0.49165857844E+03  0.22572972640E+04  0.22031029890E+04 0.  0.
        1    1    3    3  502    0  0.72381288360E+03  0.49247598735E+03  0.93083948020E+03  0.12778496885E+04  0.50400001928E-02 0.  1.
       -1    1    3    3    0  502 -0.72381288360E+03 -0.49247598735E+03 -0.43918090177E+03  0.97944757546E+03  0.50400001928E-02 0. -1.
</event>
<event>
 5   0  0.1014015E-05  0.2199423E+04  0.7818609E-02  0.8518668E-01
        2   -1    0    0  501    0  0.00000000000E+00  0.00000000000E+00  0.10190476237E+04  0.10190476237E+04  0.25500000920E-02 0. -1.
       -2   -1    0    0    0  501  0.00000000000E+00  0.00000000000E+00 -0.11867601966E+04  0.11867601966E+04  0.25500000920E-02 0.  1.
    10030    2    1    2    0    0  0.00000000000E+00  0.00000000000E+00 -0.16771257287E+03  0.22058078203E+04  0.21994227955E+04 0.  0.
        1    1    3    3  502    0  0.18185714236E+03  0.22120377998E+03 -0.11487117197E+04  0.11838672846E+04  0.50400001928E-02 0.  1.
       -1    1    3    3    0  502 -0.18185714236E+03 -0.22120377998E+03  0.98099914683E+03  0.10219405357E+04  0.50400001928E-02 0. -1.
</event>
<event>
 5   0  0.9963173E-06  0.2200309E+04  0.7818609E-02  0.8518300E-01
       -2   -1    0    0    0  501  0.00000000000E+00  0.00000000000E+00  0.11777073887E+04  0.11777073888E+04  0.25500000920E-02 0. -1.
        2   -1    0    0  501    0  0.00000000000E+00  0.00000000000E+00 -0.10277081582E+04  0.10277081582E+04  0.25500000920E-02 0.  1.
    10030    2    1    2    0    0  0.00000000000E+00  0.00000000000E+00  0.14999923057E+03  0.22054155469E+04  0.22003086069E+04 0.  0.
        4    1    3    3  502    0  0.38948265139E+03 -0.95432982779E+03  0.46046434051E+03  0.11289247883E+04  0.12699999809E+01 0. -1.
       -4    1    3    3    0  502 -0.38948265139E+03  0.95432982779E+03 -0.31046510993E+03  0.10764907586E+04  0.12699999809E+01 0.  1.
</event>
<event>
 5   0  0.1035928E-05  0.2200035E+04  0.7818609E-02  0.8518414E-01
       -2   -1    0    0    0  501  0.00000000000E+00  0.00000000000E+00  0.10867303647E+04  0.10867303647E+04  0.25500000920E-02 0.  1.
        2   -1    0    0  501    0  0.00000000000E+00  0.00000000000E+00 -0.11134671099E+04  0.11134671099E+04  0.25500000920E-02 0. -1.
    10030    2    1    2    0    0  0.00000000000E+00  0.00000000000E+00 -0.26736745117E+02  0.22001974746E+04  0.22000350165E+04 0.  0.
        3    1    3    3  502    0 -0.31103178643E+03 -0.99949994977E+03 -0.35147259814E+03  0.11042073715E+04  0.10100000352E+00 0. -1.
       -3    1    3    3    0  502  0.31103178643E+03  0.99949994977E+03  0.32473585303E+03  0.10959901031E+04  0.10100000352E+00 0.  1.
</event>
<event>
 5   0  0.4462201E-06  0.2199592E+04  0.7818609E-02  0.8518598E-01
       -1   -1    0    0    0  501  0.00000000000E+00  0.00000000000E+00  0.13921784889E+04  0.13921784889E+04  0.50400001928E-02 0. -1.
        1   -1    0    0  501    0  0.00000000000E+00  0.00000000000E+00 -0.86881887930E+03  0.86881887931E+03  0.50400001928E-02 0.  1.
    10030    2    1    2    0    0  0.00000000000E+00  0.00000000000E+00  0.52335960960E+03  0.22609973682E+04  0.21995917390E+04 0.  0.
        3    1    3    3  502    0 -0.32273267118E+03  0.93483480945E+03 -0.23287366845E+03  0.10160229592E+04  0.10100000352E+00 0. -1.
       -3    1    3    3    0  502  0.32273267118E+03 -0.93483480945E+03  0.75623327805E+03  0.12449744090E+04  0.10100000352E+00 0.  1.
</event>
<event>
 5   0  0.4630615E-06  0.2167046E+04  0.7818609E-02  0.8532271E-01
        1   -1    0    0  501    0  0.00000000000E+00  0.00000000000E+00  0.84388655246E+03  0.84388655248E+03  0.50400001928E-02 0. -1.
       -1   -1    0    0    0  501  0.00000000000E+00  0.00000000000E+00 -0.13912086673E+04  0.13912086673E+04  0.50400001928E-02 0.  1.
    10030    2    1    2    0    0  0.00000000000E+00  0.00000000000E+00 -0.54732211485E+03  0.22350952198E+04  0.21670461795E+04 0.  0.
        2    1    3    3  502    0 -0.64156247822E+01 -0.89566957186E+03  0.35520408823E+03  0.96355336463E+03  0.25500000920E-02 0. -1.
       -2    1    3    3    0  502  0.64156247822E+01  0.89566957186E+03 -0.90252620307E+03  0.12715418552E+04  0.25500000920E-02 0.  1.
</event>
<event>
 5   0  0.1014015E-05  0.2199716E+04  0.7818609E-02  0.8518546E-01
       -2   -1    0    0    0  501  0.00000000000E+00  0.00000000000E+00  0.92461707243E+03  0.92461707243E+03  0.25500000920E-02 0. -1.
        2   -1    0    0  501    0  0.00000000000E+00  0.00000000000E+00 -0.13083125414E+04  0.13083125414E+04  0.25500000920E-02 0.  1.
    10030    2    1    2    0    0  0.00000000000E+00  0.00000000000E+00 -0.38369546896E+03  0.22329296138E+04  0.21997164470E+04 0.  0.
        1    1    3    3  502    0  0.50403322033E+03 -0.61738926790E+03 -0.96122911954E+03  0.12486714602E+04  0.50400001928E-02 0.  1.
       -1    1    3    3    0  502 -0.50403322033E+03  0.61738926790E+03  0.57753365059E+03  0.98425815359E+03  0.50400001928E-02 0. -1.
</event>
<event>
 5   0  0.9963173E-06  0.2200985E+04  0.7818609E-02  0.8518018E-01
       -2   -1    0    0    0  501  0.00000000000E+00  0.00000000000E+00  0.61042923384E+03  0.61042923385E+03  0.25500000920E-02 0. -1.
        2   -1    0    0  501    0  0.00000000000E+00  0.00000000000E+00 -0.19839878784E+04  0.19839878784E+04  0.25500000920E-02 0.  1.
    10030    2    1    2    0    0  0.00000000000E+00  0.00000000000E+00 -0.13735586445E+04  0.25944171122E+04  0.22009854162E+04 0.  0.
        4    1    3    3  502    0  0.22015512065E+03 -0.57490153590E+03 -0.17620332997E+04  0.18664787744E+04  0.12699999809E+01 0. -1.
       -4    1    3    3    0  502 -0.22015512065E+03  0.57490153590E+03  0.38847465514E+03  0.72793833785E+03  0.12699999809E+01 0.  1.
</event>
<event>
 5   0  0.1035928E-05  0.2196642E+04  0.7818609E-02  0.8519827E-01
        2   -1    0    0  501    0  0.00000000000E+00  0.00000000000E+00  0.20089027941E+04  0.20089027941E+04  0.25500000920E-02 0.  1.
       -2   -1    0    0    0  501  0.00000000000E+00  0.00000000000E+00 -0.60048148381E+03  0.60048148381E+03  0.25500000920E-02 0. -1.
    10030    2    1    2    0    0  0.00000000000E+00  0.00000000000E+00  0.14084213103E+04  0.26093842780E+04  0.21966419195E+04 0.  0.
        3    1    3    3  502    0  0.20515119973E+02 -0.14209059883E+03 -0.58928768263E+03  0.60652336437E+03  0.10100000352E+00 0. -1.
       -3    1    3    3    0  502 -0.20515119973E+02  0.14209059883E+03  0.19977089930E+04  0.20028609136E+04  0.10100000352E+00 0.  1.
</event>
<event>
 5   0  0.4408787E-06  0.2202734E+04  0.7818609E-02  0.8517291E-01
        1   -1    0    0  501    0  0.00000000000E+00  0.00000000000E+00  0.75605811483E+03  0.75605811485E+03  0.50400001928E-02 0.  1.
       -1   -1    0    0    0  501  0.00000000000E+00  0.00000000000E+00 -0.16043865978E+04  0.16043865978E+04  0.50400001928E-02 0. -1.
    10030    2    1    2    0    0  0.00000000000E+00  0.00000000000E+00 -0.84832848300E+03  0.23604447127E+04  0.22027342161E+04 0.  0.
        1    1    3    3  502    0 -0.10043508042E+04  0.98845907297E+00 -0.90850738300E+03  0.13542921324E+04  0.50400001928E-02 0. -1.
       -1    1    3    3    0  502  0.10043508042E+04 -0.98845907297E+00  0.60178899991E+02  0.10061525803E+04  0.50400001928E-02 0.  1.
</event>
<event>
 5   0  0.9963573E-06  0.2232405E+04  0.7818609E-02  0.8505060E-01
       -2   -1    0    0    0  501  0.00000000000E+00  0.00000000000E+00  0.12911724625E+04  0.12911724625E+04  0.25500000920E-02 0. -1.
        2   -1    0    0  501    0  0.00000000000E+00  0.00000000000E+00 -0.96494310120E+03  0.96494310121E+03  0.25500000920E-02 0.  1.
    10030    2    1    2    0    0  0.00000000000E+00  0.00000000000E+00  0.32622936132E+03  0.22561155637E+04  0.22324049455E+04 0.  0.
        2    1    3    3  502    0 -0.52392604595E+03 -0.94565064001E+03  0.44383154576E+03  0.11686488248E+04  0.25500000920E-02 0.  1.
       -2    1    3    3    0  502  0.52392604595E+03  0.94565064001E+03 -0.11760218445E+03  0.10874667390E+04  0.25500000920E-02 0. -1.
</event>
<event>
 5   0  0.4408787E-06  0.2195178E+04  0.7818609E-02  0.8520438E-01
       -1   -1    0    0    0  501  0.00000000000E+00  0.00000000000E+00  0.11691510797E+04  0.11691510797E+04  0.50400001928E-02 0.  1.
        1   -1    0    0  501    0  0.00000000000E+00  0.00000000000E+00 -0.10304067815E+04  0.10304067815E+04  0.50400001928E-02 0. -1.
    10030    2    1    2    0    0  0.00000000000E+00  0.00000000000E+00  0.13874429822E+03  0.21995578612E+04  0.21951776248E+04 0.  0.
        1    1    3    3  502    0  0.73726129688E+03 -0.24322094136E+03  0.84680083661E+03  0.11488177850E+04  0.50400001928E-02 0.  1.
       -1    1    3    3    0  502 -0.73726129688E+03  0.24322094136E+03 -0.70805653839E+03  0.10507400762E+04  0.50400001928E-02 0. -1.
</event>
<event>
 5   0  0.4630615E-06  0.2200482E+04  0.7818609E-02  0.8518227E-01
        1   -1    0    0  501    0  0.00000000000E+00  0.00000000000E+00  0.13123498718E+04  0.13123498718E+04  0.50400001928E-02 0. -1.
       -1   -1    0    0    0  501  0.00000000000E+00  0.00000000000E+00 -0.92241447455E+03  0.92241447457E+03  0.50400001928E-02 0.  1.
    10030    2    1    2    0    0  0.00000000000E+00  0.00000000000E+00  0.38993539728E+03  0.22347643464E+04  0.22004822358E+04 0.  0.
        2    1    3    3  502    0  0.86848088044E+02  0.35795692733E+02 -0.91833455821E+03  0.92312636341E+03  0.25500000920E-02 0.  1.
       -2    1    3    3    0  502 -0.86848088044E+02 -0.35795692733E+02  0.13082699555E+04  0.13116379830E+04  0.25500000920E-02 0. -1.
</event>
<event>
 5   0  0.1015876E-05  0.2199213E+04  0.7818609E-02  0.8518756E-01
        2   -1    0    0  501    0  0.00000000000E+00  0.00000000000E+00  0.11753208606E+04  0.11753208606E+04  0.25500000920E-02 0.  1.
       -2   -1    0    0    0  501  0.00000000000E+00  0.00000000000E+00 -0.10287694752E+04  0.10287694752E+04  0.25500000920E-02 0. -1.
    10030    2    1    2    0    0  0.00000000000E+00  0.00000000000E+00  0.14655138540E+03  0.22040903358E+04  0.21992127909E+04 0.  0.
        5    1    3    3  502    0  0.10971234192E+04  0.73694604799E+02  0.72071695329E+02  0.11019651133E+04  0.46999998093E+01 0.  1.
       -5    1    3    3    0  502 -0.10971234192E+04 -0.73694604799E+02  0.74479690075E+02  0.11021252224E+04  0.46999998093E+01 0. -1.
</event>
<event>
 5   0  0.4408787E-06  0.2197378E+04  0.7818609E-02  0.8519520E-01
        1   -1    0    0  501    0  0.00000000000E+00  0.00000000000E+00  0.11783044065E+04  0.11783044065E+04  0.50400001928E-02 0.  1.
       -1   -1    0    0    0  501  0.00000000000E+00  0.00000000000E+00 -0.10244533777E+04  0.10244533777E+04  0.50400001928E-02 0. -1.
    10030    2    1    2    0    0  0.00000000000E+00  0.00000000000E+00  0.15385102885E+03  0.22027577842E+04  0.21973783736E+04 0.  0.
        1    1    3    3  502    0 -0.93900907812E+03  0.41890368100E+02  0.64719874076E+03  0.11412094732E+04  0.50400001928E-02 0.  1.
       -1    1    3    3    0  502  0.93900907812E+03 -0.41890368100E+02 -0.49334771191E+03  0.10615483110E+04  0.50400001928E-02 0. -1.
</event>
<event>
 5   0  0.9963173E-06  0.2195027E+04  0.7818609E-02  0.8520501E-01
       -2   -1    0    0    0  501  0.00000000000E+00  0.00000000000E+00  0.10254063837E+04  0.10254063837E+04  0.25500000920E-02 0.  1.
        2   -1    0    0  501    0  0.00000000000E+00  0.00000000000E+00 -0.11746910693E+04  0.11746910693E+04  0.25500000920E-02 0. -1.
    10030    2    1    2    0    0  0.00000000000E+00  0.00000000000E+00 -0.14928468565E+03  0.22000974530E+04  0.21950268530E+04 0.  0.
        4    1    3    3  502    0 -0.10860147623E+04  0.43682987535E+02 -0.22730255607E+03  0.11104072822E+04  0.12699999809E+01 0. -1.
       -4    1    3    3    0  502  0.10860147623E+04 -0.43682987535E+02  0.78017870414E+02  0.10896901708E+04  0.12699999809E+01 0.  1.
</event>
<event>
 5   0  0.3546750E-06  0.2202149E+04  0.7818609E-02  0.8517534E-01
       -3   -1    0    0    0  501  0.00000000000E+00  0.00000000000E+00  0.97846568906E+03  0.97846569427E+03  0.10100000352E+00 0.  1.
        3   -1    0    0  501    0  0.00000000000E+00  0.00000000000E+00 -0.12390474367E+04  0.12390474408E+04  0.10100000352E+00 0. -1.
    10030    2    1    2    0    0  0.00000000000E+00  0.00000000000E+00 -0.26058174765E+03  0.22175131351E+04  0.22021493267E+04 0.  0.
        2    1    3    3  502    0 -0.80804453141E+03 -0.67832240290E+03 -0.44762144948E+03  0.11460463381E+04  0.25500000920E-02 0. -1.
       -2    1    3    3    0  502  0.80804453141E+03  0.67832240290E+03  0.18703970183E+03  0.10714667970E+04  0.25500000920E-02 0.  1.
</event>
<event>
 5   0  0.1035928E-05  0.2196210E+04  0.7818609E-02  0.8520007E-01
        2   -1    0    0  501    0  0.00000000000E+00  0.00000000000E+00  0.22578676492E+04  0.22578676492E+04  0.25500000920E-02 0.  1.
       -2   -1    0    0    0  501  0.00000000000E+00  0.00000000000E+00 -0.53405890732E+03  0.53405890733E+03  0.25500000920E-02 0. -1.
    10030    2    1    2    0    0  0.00000000000E+00  0.00000000000E+00  0.17238087418E+04  0.27919265565E+04  0.21962097619E+04 0.  0.
        3    1    3    3  502    0  0.25456279738E+02 -0.11182278834E+03  0.22502336970E+04  0.22531542467E+04  0.10100000352E+00 0.  1.
       -3    1    3    3    0  502 -0.25456279738E+02  0.11182278834E+03 -0.52642495516E+03  0.53877230978E+03  0.10100000352E+00 0. -1.
</event>
<event>
 5   0  0.1035928E-05  0.2199262E+04  0.7818609E-02  0.8518735E-01
       -2   -1    0    0    0  501  0.00000000000E+00  0.00000000000E+00  0.82766267889E+03  0.82766267890E+03  0.25500000920E-02 0.  1.
        2   -1    0    0  501    0  0.00000000000E+00  0.00000000000E+00 -0.14609679751E+04  0.14609679751E+04  0.25500000920E-02 0. -1.
    10030    2    1    2    0    0  0.00000000000E+00  0.00000000000E+00 -0.63330529625E+03  0.22886306540E+04  0.21992623019E+04 0.  0.
        3    1    3    3  502    0  0.45804511022E+03  0.11564006763E+03  0.71667844295E+03  0.85837401465E+03  0.10100000352E+00 0.  1.
       -3    1    3    3    0  502 -0.45804511022E+03 -0.11564006763E+03 -0.13499837392E+04  0.14302566394E+04  0.10100000352E+00 0. -1.
</event>
<event>
 5   0  0.4462201E-06  0.2200982E+04  0.7818609E-02  0.8518020E-01
       -1   -1    0    0    0  501  0.00000000000E+00  0.00000000000E+00  0.38585953874E+03  0.38585953877E+03  0.50400001928E-02 0. -1.
        1   -1    0    0  501    0  0.00000000000E+00  0.00000000000E+00 -0.31386554048E+04  0.31386554048E+04  0.50400001928E-02 0.  1.
    10030    2    1    2    0    0  0.00000000000E+00  0.00000000000E+00 -0.27527958660E+04  0.35245149436E+04  0.22009817144E+04 0.  0.
        3    1    3    3  502    0 -0.97592606376E+03 -0.68366115415E+01 -0.21907245039E+04  0.23982811101E+04  0.10100000352E+00 0.  1.
       -3    1    3    3    0  502  0.97592606376E+03  0.68366115415E+01 -0.56207136218E+03  0.11262338334E+04  0.10100000352E+00 0. -1.
</event>
<event>
 5   0  0.9963573E-06  0.2196066E+04  0.7818609E-02  0.8520068E-01
        2   -1    0    0  501    0  0.00000000000E+00  0.00000000000E+00  0.18998071677E+04  0.18998071677E+04  0.25500000920E-02 0.  1.
       -2   -1    0    0    0  501  0.00000000000E+00  0.00000000000E+00 -0.63463068977E+03  0.63463068977E+03  0.25500000920E-02 0. -1.
    10030    2    1    2    0    0  0.00000000000E+00  0.00000000000E+00  0.12651764779E+04  0.25344378574E+04  0.21960655120E+04 0.  0.
        2    1    3    3  502    0  0.82909951531E+03 -0.54134850962E+03  0.84901976983E+02  0.99381716672E+03  0.25500000920E-02 0. -1.
       -2    1    3    3    0  502 -0.82909951531E+03  0.54134850962E+03  0.11802745009E+04  0.15406206907E+04  0.25500000920E-02 0.  1.
</event>
<event>
 5   0  0.9963173E-06  0.2205684E+04  0.7818609E-02  0.8516066E-01
       -2   -1    0    0    0  501  0.00000000000E+00  0.00000000000E+00  0.19771386847E+04  0.19771386847E+04  0.25500000920E-02 0. -1.
        2   -1    0    0  501    0  0.00000000000E+00  0.00000000000E+00 -0.61516177764E+03  0.61516177765E+03  0.25500000920E-02 0.  1.
    10030    2    1    2    0    0  0.00000000000E+00  0.00000000000E+00  0.13619769071E+04  0.25923004623E+04  0.22056837016E+04 0.  0.
        4    1    3    3  502    0 -0.14225014066E+03 -0.80545931133E+03  0.15504261227E+04  0.17529468274E+04  0.12699999809E+01 0. -1.
       -4    1    3    3    0  502  0.14225014066E+03  0.80545931133E+03 -0.18844921567E+03  0.83935363495E+03  0.12699999809E+01 0.  1.
</event>
<event>
 5   0  0.9963173E-06  0.2168212E+04  0.7818609E-02  0.8531777E-01
       -2   -1    0    0    0  501  0.00000000000E+00  0.00000000000E+00  0.53631146727E+03  0.53631146728E+03  0.25500000920E-02 0. -1.
        2   -1    0    0  501    0  0.00000000000E+00  0.00000000000E+00 -0.21914237419E+04  0.21914237419E+04  0.25500000920E-02 0.  1.
    10030    2    1    2    0    0  0.00000000000E+00  0.00000000000E+00 -0.16551122746E+04  0.27277352092E+04  0.21682118738E+04 0.  0.
        4    1    3    3  502    0 -0.17002778561E+03  0.44749335666E+03 -0.20512551047E+04  0.21063733928E+04  0.12699999809E+01 0.  1.
       -4    1    3    3    0  502  0.17002778561E+03 -0.44749335666E+03  0.39614283012E+03  0.62136181641E+03  0.12699999809E+01 0. -1.
</event>
<event>
 5   0  0.4309945E-06  0.2199867E+04  0.7818609E-02  0.8518483E-01
        1   -1    0    0  501    0  0.00000000000E+00  0.00000000000E+00  0.19206315231E+04  0.19206315232E+04  0.50400001928E-02 0.  1.
       -1   -1    0    0    0  501  0.00000000000E+00  0.00000000000E+00 -0.62992492020E+03  0.62992492022E+03  0.50400001928E-02 0. -1.
    10030    2    1    2    0    0  0.00000000000E+00  0.00000000000E+00  0.12907066029E+04  0.25505564434E+04  0.21998669587E+04 0.  0.
        4    1    3    3  502    0 -0.28707199868E+03 -0.77326165413E+03 -0.19832103281E+03  0.84833764689E+03  0.12699999809E+01 0. -1.
       -4    1    3    3    0  502  0.28707199868E+03  0.77326165413E+03  0.14890276358E+04  0.17022187965E+04  0.12699999809E+01 0.  1.
</event>
<event>
 5   0  0.4462201E-06  0.2209255E+04  0.7818609E-02  0.8514586E-01
       -1   -1    0    0    0  501  0.00000000000E+00  0.00000000000E+00  0.13355649041E+04  0.13355649041E+04  0.50400001928E-02 0.  1.
        1   -1    0    0  501    0  0.00000000000E+00  0.00000000000E+00 -0.91362224133E+03  0.91362224134E+03  0.50400001928E-02 0. -1.
    10030    2    1    2    0    0  0.00000000000E+00  0.00000000000E+00  0.42194266277E+03  0.22491871455E+04  0.22092548981E+04 0.  0.
        3    1    3    3  502    0 -0.78260274200E+03 -0.27905571787E+03  0.95204506064E+03  0.12636174077E+04  0.10100000352E+00 0.  1.
       -3    1    3    3    0  502  0.78260274200E+03  0.27905571787E+03 -0.53010239787E+03  0.98556973771E+03  0.10100000352E+00 0. -1.
</event>
<event>
 5   0  0.4408787E-06  0.2191773E+04  0.7818609E-02  0.8521860E-01
        1   -1    0    0  501    0  0.00000000000E+00  0.00000000000E+00  0.19423026877E+04  0.19423026878E+04  0.50400001928E-02 0. -1.
       -1   -1    0    0    0  501  0.00000000000E+00  0.00000000000E+00 -0.61832112681E+03  0.61832112683E+03  0.50400001928E-02 0.  1.
    10030    2    1    2    0    0  0.00000000000E+00  0.00000000000E+00  0.13239815609E+04  0.25606238146E+04  0.21917726036E+04 0.  0.
        1    1    3    3  502    0  0.82722580571E+03 -0.40223818913E+03  0.13579505395E+04  0.16401608952E+04  0.50400001928E-02 0. -1.
       -1    1    3    3    0  502 -0.82722580571E+03  0.40223818913E+03 -0.33968978544E+02  0.92046291938E+03  0.50400001928E-02 0.  1.
</event>
<event>
 5   0  0.4309945E-06  0.2197000E+04  0.7818609E-02  0.8519678E-01
       -1   -1    0    0    0  501  0.00000000000E+00  0.00000000000E+00  0.12561636608E+04  0.12561636608E+04  0.50400001928E-02 0. -1.
        1   -1    0    0  501    0  0.00000000000E+00  0.00000000000E+00 -0.96062496373E+03  0.96062496375E+03  0.50400001928E-02 0.  1.
    10030    2    1    2    0    0  0.00000000000E+00  0.00000000000E+00  0.29553869708E+03  0.22167886246E+04  0.21969999282E+04 0.  0.
        4    1    3    3  502    0  0.66548545891E+03 -0.14962633861E+03 -0.72105647818E+03  0.99256384926E+03  0.12699999809E+01 0.  1.
       -4    1    3    3    0  502 -0.66548545891E+03  0.14962633861E+03  0.10165951753E+04  0.12242247753E+04  0.12699999809E+01 0. -1.
</event>
<event>
 5   0  0.4408787E-06  0.2200259E+04  0.7818609E-02  0.8518320E-01
       -1   -1    0    0    0  501  0.00000000000E+00  0.00000000000E+00  0.73656638520E+03  0.73656638522E+03  0.50400001928E-02 0.  1.
        1   -1    0    0  501    0  0.00000000000E+00  0.00000000000E+00 -0.16431448427E+04  0.16431448427E+04  0.50400001928E-02 0. -1.
    10030    2    1    2    0    0  0.00000000000E+00  0.00000000000E+00 -0.90657845753E+03  0.23797112280E+04  0.22002593095E+04 0.  0.
        1    1    3    3  502    0 -0.10681823412E+04 -0.16667548350E+03 -0.23298264240E+03  0.11059272773E+04  0.50400001928E-02 0.  1.
       -1    1    3    3    0  502  0.10681823412E+04  0.16667548350E+03 -0.67359581513E+03  0.12737839507E+04  0.50400001928E-02 0. -1.
</event>
<event>
 5   0  0.9963573E-06  0.2198436E+04  0.7818609E-02  0.8519079E-01
       -2   -1    0    0    0  501  0.00000000000E+00  0.00000000000E+00  0.61709183391E+03  0.61709183392E+03  0.25500000920E-02 0.  1.
        2   -1    0    0  501    0  0.00000000000E+00  0.00000000000E+00 -0.19580228182E+04  0.19580228182E+04  0.25500000920E-02 0. -1.
    10030    2    1    2    0    0  0.00000000000E+00  0.00000000000E+00 -0.13409309843E+04  0.25751146522E+04  0.21984357091E+04 0.  0.
        2    1    3    3  502    0  0.64858087729E+03  0.87161264916E+03 -0.86616729513E+03  0.13894644824E+04  0.25500000920E-02 0. -1.
       -2    1    3    3    0  502 -0.64858087729E+03 -0.87161264916E+03 -0.47476368918E+03  0.11856501698E+04  0.25500000920E-02 0.  1.
</event>
<event>
 5   0  0.4309945E-06  0.2197502E+04  0.7818609E-02  0.8519468E-01
        1   -1    0    0  501    0  0.00000000000E+00  0.00000000000E+00  0.54984000287E+03  0.54984000290E+03  0.50400001928E-02 0.  1.
       -1   -1    0    0    0  501  0.00000000000E+00  0.00000000000E+00 -0.21956460495E+04  0.21956460495E+04  0.50400001928E-02 0. -1.
    10030    2    1    2    0    0  0.00000000000E+00  0.00000000000E+00 -0.16458060466E+04  0.27454860524E+04  0.21975022459E+04 0.  0.
        4    1    3    3  502    0  0.55170837153E+03 -0.82752276017E+02  0.35972818590E+03  0.66380422342E+03  0.12699999809E+01 0.  1.
       -4    1    3    3    0  502 -0.55170837153E+03  0.82752276017E+02 -0.20055342325E+04  0.20816818290E+04  0.12699999809E+01 0. -1.
</event>
<event>
 5   0  0.9963573E-06  0.2200234E+04  0.7818609E-02  0.8518331E-01
        2   -1    0    0  501    0  0.00000000000E+00  0.00000000000E+00  0.13154769677E+04  0.13154769678E+04  0.25500000920E-02 0. -1.
       -2   -1    0    0    0  501  0.00000000000E+00  0.00000000000E+00 -0.92001422734E+03  0.92001422735E+03  0.25500000920E-02 0.  1.
    10030    2    1    2    0    0  0.00000000000E+00  0.00000000000E+00  0.39546274040E+03  0.22354911951E+04  0.22002341022E+04 0.  0.
        2    1    3    3  502    0  0.10269215553E+04  0.33653236501E+03 -0.11568669306E+02  0.10807200135E+04  0.25500000920E-02 0. -1.
       -2    1    3    3    0  502 -0.10269215553E+04 -0.33653236501E+03  0.40703140971E+03  0.11547711816E+04  0.25500000920E-02 0.  1.
</event>
<event>
 5   0  0.4408787E-06  0.2200289E+04  0.7818609E-02  0.8518308E-01
       -1   -1    0    0    0  501  0.00000000000E+00  0.00000000000E+00  0.10855412880E+04  0.10855412880E+04  0.50400001928E-02 0.  1.
        1   -1    0    0  501    0  0.00000000000E+00  0.00000000000E+00 -0.11149440281E+04  0.11149440281E+04  0.50400001928E-02 0. -1.
    10030    2    1    2    0    0  0.00000000000E+00  0.00000000000E+00 -0.29402740073E+02  0.22004853161E+04  0.22002888686E+04 0.  0.
        1    1    3    3  502    0 -0.40096231487E+03  0.40213818663E+03  0.92763106605E+03  0.10876512740E+04  0.50400001928E-02 0.  1.
       -1    1    3    3    0  502  0.40096231487E+03 -0.40213818663E+03 -0.95703380613E+03  0.11128340421E+04  0.50400001928E-02 0. -1.
</event>
<event>
 5   0  0.4462201E-06  0.2198459E+04  0.7818609E-02  0.8519070E-01
       -1   -1    0    0    0  501  0.00000000000E+00  0.00000000000E+00  0.79954719398E+03  0.79954719400E+03  0.50400001928E-02 0.  1.
        1   -1    0    0  501    0  0.00000000000E+00  0.00000000000E+00 -0.15112371523E+04  0.15112371523E+04  0.50400001928E-02 0. -1.
    10030    2    1    2    0    0  0.00000000000E+00  0.00000000000E+00 -0.71168995828E+03  0.23107843463E+04  0.21984589371E+04 0.  0.
        3    1    3    3  502    0 -0.42380580342E+02  0.98178499476E+03  0.16187293426E+03  0.99594214017E+03  0.10100000352E+00 0.  1.
       -3    1    3    3    0  502  0.42380580342E+02 -0.98178499476E+03 -0.87356289254E+03  0.13148422061E+04  0.10100000352E+00 0. -1.
</event>
<event>
 5   0  0.9963573E-06  0.2198560E+04  0.7818609E-02  0.8519028E-01
        2   -1    0    0  501    0  0.00000000000E+00  0.00000000000E+00  0.22287427777E+04  0.22287427777E+04  0.25500000920E-02 0. -1.
       -2   -1    0    0    0  501  0.00000000000E+00  0.00000000000E+00 -0.54219639516E+03  0.54219639517E+03  0.25500000920E-02 0.  1.
    10030    2    1    2    0    0  0.00000000000E+00  0.00000000000E+00  0.16865463826E+04  0.27709391729E+04  0.21985598012E+04 0.  0.
        2    1    3    3  502    0  0.79041847581E+02 -0.18553775500E+02 -0.53841239075E+03  0.54449954892E+03  0.25500000920E-02 0.  1.
       -2    1    3    3    0  502 -0.79041847581E+02  0.18553775500E+02  0.22249587733E+04  0.22264396240E+04  0.25500000920E-02 0. -1.
</event>
<event>
 5   0  0.1014015E-05  0.2199752E+04  0.7818609E-02  0.8518531E-01
       -2   -1    0    0    0  501  0.00000000000E+00  0.00000000000E+00  0.14843046613E+04  0.14843046613E+04  0.25500000920E-02 0. -1.
        2   -1    0    0  501    0  0.00000000000E+00  0.00000000000E+00 -0.81501257642E+03  0.81501257642E+03  0.25500000920E-02 0.  1.
    10030    2    1    2    0    0  0.00000000000E+00  0.00000000000E+00  0.66929208485E+03  0.22993172377E+04  0.21997517734E+04 0.  0.
        1    1    3    3  502    0  0.14017585347E+03  0.20465910697E+02  0.14747289567E+04  0.14815173368E+04  0.50400001928E-02 0. -1.
       -1    1    3    3    0  502 -0.14017585347E+03 -0.20465910697E+02 -0.80543687184E+03  0.81779990092E+03  0.50400001928E-02 0.  1.
</event>
<event>
 5   0  0.1015876E-05  0.2184119E+04  0.7818609E-02  0.8525067E-01
       -2   -1    0    0    0  501  0.00000000000E+00  0.00000000000E+00  0.10510759536E+04  0.10510759536E+04  0.25500000920E-02 0. -1.
        2   -1    0    0  501    0  0.00000000000E+00  0.00000000000E+00 -0.11346411069E+04  0.11346411069E+04  0.25500000920E-02 0.  1.
    10030    2    1    2    0    0  0.00000000000E+00  0.00000000000E+00 -0.83565153251E+02  0.21857170605E+04  0.21841190292E+04 0.  0.
        5    1    3    3  502    0  0.58425608443E+03 -0.73824698300E+03 -0.59554819255E+03  0.11140303047E+04  0.46999998093E+01 0.  1.
       -5    1    3    3    0  502 -0.58425608443E+03  0.73824698300E+03  0.51198303930E+03  0.10716867558E+04  0.46999998093E+01 0. -1.
</event>
<event>
 5   0  0.4309945E-06  0.2204809E+04  0.7818609E-02  0.8516429E-01
       -1   -1    0    0    0  501  0.00000000000E+00  0.00000000000E+00  0.13076653328E+04  0.13076653328E+04  0.50400001928E-02 0.  1.
        1   -1    0    0  501    0  0.00000000000E+00  0.00000000000E+00 -0.92936250656E+03  0.92936250657E+03  0.50400001928E-02 0. -1.
    10030    2    1    2    0    0  0.00000000000E+00  0.00000000000E+00  0.37830282620E+03  0.22370278393E+04  0.22048085009E+04 0.  0.
        4    1    3    3  502    0  0.15101863445E+03  0.10569499674E+04 -0.89347729248E+02  0.10714170482E+04  0.12699999809E+01 0. -1.
       -4    1    3    3    0  502 -0.15101863445E+03 -0.10569499674E+04  0.46765055545E+03  0.11656107911E+04  0.12699999809E+01 0.  1.
</event>
<event>
 5   0  0.4408787E-06  0.2186802E+04  0.7818609E-02  0.8523941E-01
       -1   -1    0    0    0  501  0.00000000000E+00  0.00000000000E+00  0.60431590819E+03  0.60431590821E+03  0.50400001928E-02 0. -1.
        1   -1    0    0  501    0  0.00000000000E+00  0.00000000000E+00 -0.19783130345E+04  0.19783130345E+04  0.50400001928E-02 0.  1.
    10030    2    1    2    0    0  0.00000000000E+00  0.00000000000E+00 -0.13739971263E+04  0.25826289427E+04  0.21868022665E+04 0.  0.
        1    1    3    3  502    0  0.93984910016E+03 -0.50560960556E+03 -0.40610593373E+03  0.11418754020E+04  0.50400001928E-02 0. -1.
       -1    1    3    3    0  502 -0.93984910016E+03  0.50560960556E+03 -0.96789119255E+03  0.14407535407E+04  0.50400001928E-02 0.  1.
</event>
<event>
 5   0  0.4462201E-06  0.2203143E+04  0.7818609E-02  0.8517121E-01
        1   -1    0    0  501    0  0.00000000000E+00  0.00000000000E+00  0.14325038878E+04  0.14325038878E+04  0.50400001928E-02 0. -1.
       -1   -1    0    0    0  501  0.00000000000E+00  0.00000000000E+00 -0.84709014812E+03  0.84709014813E+03  0.50400001928E-02 0.  1.
    10030    2    1    2    0    0  0.00000000000E+00  0.00000000000E+00  0.58541373967E+03  0.22795940359E+04  0.22031431461E+04 0.  0.
        3    1    3    3  502    0  0.87665843067E+03 -0.93503471282E+02 -0.39065566300E+03  0.96430532532E+03  0.10100000352E+00 0.  1.
       -3    1    3    3    0  502 -0.87665843067E+03  0.93503471282E+02  0.97606940268E+03  0.13152887106E+04  0.10100000352E+00 0. -1.
</event>
<event>
 5   0  0.1035928E-05  0.2206914E+04  0.7818609E-02  0.8515556E-01
        2   -1    0    0  501    0  0.00000000000E+00  0.00000000000E+00  0.70040089118E+03  0.70040089118E+03  0.25500000920E-02 0.  1.
       -2   -1    0    0    0  501  0.00000000000E+00  0.00000000000E+00 -0.17384570437E+04  0.17384570437E+04  0.25500000920E-02 0. -1.
    10030    2    1    2    0    0  0.00000000000E+00  0.00000000000E+00 -0.10380561525E+04  0.24388579349E+04  0.22069135576E+04 0.  0.
        3    1    3    3  502    0  0.27058172597E+03  0.95274887513E+03 -0.10566470492E+04  0.14482568440E+04  0.10100000352E+00 0. -1.
       -3    1    3    3    0  502 -0.27058172597E+03 -0.95274887513E+03  0.18590896717E+02  0.99060109082E+03  0.10100000352E+00 0.  1.
</event>
<event>
 5   0  0.9963573E-06  0.2200871E+04  0.7818609E-02  0.8518066E-01
       -2   -1    0    0    0  501  0.00000000000E+00  0.00000000000E+00  0.94961936978E+03  0.94961936978E+03  0.25500000920E-02 0.  1.
        2   -1    0    0  501    0  0.00000000000E+00  0.00000000000E+00 -0.12752042060E+04  0.12752042060E+04  0.25500000920E-02 0. -1.
    10030    2    1    2    0    0  0.00000000000E+00  0.00000000000E+00 -0.32558483626E+03  0.22248235758E+04  0.22008712952E+04 0.  0.
        2    1    3    3  502    0 -0.81347957352E+03  0.64926407743E+03 -0.52398443424E+03  0.11652693020E+04  0.25500000920E-02 0. -1.
       -2    1    3    3    0  502  0.81347957352E+03 -0.64926407743E+03  0.19839959798E+03  0.10595542739E+04  0.25500000920E-02 0.  1.
</event>
<event>
 5   0  0.4630615E-06  0.2198971E+04  0.7818609E-02  0.8518856E-01
        1   -1    0    0  501    0  0.00000000000E+00  0.00000000000E+00  0.13887416560E+04  0.13887416560E+04  0.50400001928E-02 0. -1.
       -1   -1    0    0    0  501  0.00000000000E+00  0.00000000000E+00 -0.87047779283E+03  0.87047779284E+03  0.50400001928E-02 0.  1.
    10030    2    1    2    0    0  0.00000000000E+00  0.00000000000E+00  0.51826386316E+03  0.22592194488E+04  0.21989713700E+04 0.  0.
        2    1    3    3  502    0 -0.63808721352E+03  0.39928200980E+03  0.10825180283E+04  0.13184941020E+04  0.25500000920E-02 0. -1.
       -2    1    3    3    0  502  0.63808721352E+03 -0.39928200980E+03 -0.56425416510E+03  0.94072534687E+03  0.25500000920E-02 0.  1.
</event>
<event>
 5   0  0.4630615E-06  0.2200652E+04  0.7818609E-02  0.8518157E-01
        1   -1    0    0  501    0  0.00000000000E+00  0.00000000000E+00  0.10820407806E+04  0.10820407806E+04  0.50400001928E-02 0. -1.
       -1   -1    0    0    0  501  0.00000000000E+00  0.00000000000E+00 -0.11189203941E+04  0.11189203941E+04  0.50400001928E-02 0.  1.
    10030    2    1    2    0    0  0.00000000000E+00  0.00000000000E+00 -0.36879613538E+02  0.22009611747E+04  0.22006521730E+04 0.  0.
        2    1    3    3  502    0 -0.28810186327E+03  0.87774222138E+03  0.57937600752E+03  0.10904635019E+04  0.25500000920E-02 0. -1.
       -2    1    3    3    0  502  0.28810186327E+03 -0.87774222138E+03 -0.61625562106E+03  0.11104976728E+04  0.25500000920E-02 0.  1.
</event>
<event>
 5   0  0.9963173E-06  0.2201638E+04  0.7818609E-02  0.8517747E-01
       -2   -1    0    0    0  501  0.00000000000E+00  0.00000000000E+00  0.48085305363E+03  0.48085305363E+03  0.25500000920E-02 0.  1.
        2   -1    0    0  501    0  0.00000000000E+00  0.00000000000E+00 -0.25201094539E+04  0.25201094539E+04  0.25500000920E-02 0. -1.
    10030    2    1    2    0    0  0.00000000000E+00  0.00000000000E+00 -0.20392564003E+04  0.30009625076E+04  0.22016378689E+04 0.  0.
        4    1    3    3  502    0  0.49058289080E+03  0.87986908359E+03 -0.16245555077E+04  0.19115499960E+04  0.12699999809E+01 0. -1.
       -4    1    3    3    0  502 -0.49058289080E+03 -0.87986908359E+03 -0.41470089265E+03  0.10894125115E+04  0.12699999809E+01 0.  1.
</event>
<event>
 5   0  0.4462201E-06  0.2179851E+04  0.7818609E-02  0.8526862E-01
       -1   -1    0    0    0  501  0.00000000000E+00  0.00000000000E+00  0.93018958225E+03  0.93018958226E+03  0.50400001928E-02 0.  1.
        1   -1    0    0  501    0  0.00000000000E+00  0.00000000000E+00 -0.12770920007E+04  0.12770920007E+04  0.50400001928E-02 0. -1.
    10030    2    1    2    0    0  0.00000000000E+00  0.00000000000E+00 -0.34690241841E+03  0.22072815829E+04  0.21798510725E+04 0.  0.
        3    1    3    3  502    0 -0.22189157063E+02 -0.62743325084E+03  0.72869936191E+03  0.96185633709E+03  0.10100000352E+00 0.  1.
       -3    1    3    3    0  502  0.22189157063E+02  0.62743325084E+03 -0.10756017803E+04  0.12454252458E+04  0.10100000352E+00 0. -1.
</event>
<event>
 5   0  0.1014015E-05  0.2201930E+04  0.7818609E-02  0.8517625E-01
        2   -1    0    0  501    0  0.00000000000E+00  0.00000000000E+00  0.28112207769E+04  0.28112207769E+04  0.25500000920E-02 0. -1.
       -2   -1    0    0    0  501  0.00000000000E+00  0.00000000000E+00 -0.43117361340E+03  0.43117361341E+03  0.25500000920E-02 0.  1.
    10030    2    1    2    0    0  0.00000000000E+00  0.00000000000E+00  0.23800471635E+04  0.32423943903E+04  0.22019302627E+04 0.  0.
        1    1    3    3  502    0  0.94706511427E+02 -0.17435467737E+03  0.27846758292E+04  0.27917357236E+04  0.50400001928E-02 0. -1.
       -1    1    3    3    0  502 -0.94706511427E+02  0.17435467737E+03 -0.40462866564E+03  0.45065866674E+03  0.50400001928E-02 0.  1.
</event>
<event>
 5   0  0.4630615E-06  0.2199652E+04  0.7818609E-02  0.8518573E-01
       -1   -1    0    0    0  501  0.00000000000E+00  0.00000000000E+00  0.12302268478E+04  0.12302268478E+04  0.50400001928E-02 0.  1.
        1   -1    0    0  501    0  0.00000000000E+00  0.00000000000E+00 -0.98324748414E+03  0.98324748416E+03  0.50400001928E-02 0. -1.
    10030    2    1    2    0    0  0.00000000000E+00  0.00000000000E+00  0.24697936369E+03  0.22134743320E+04  0.21996522026E+04 0.  0.
        2    1    3    3  502    0  0.91052049470E+03 -0.56932508847E+03 -0.11557171667E+03  0.10800627062E+04  0.25500000920E-02 0.  1.
       -2    1    3    3    0  502 -0.91052049470E+03  0.56932508847E+03  0.36255108036E+03  0.11334116258E+04  0.25500000920E-02 0. -1.
</event>
<event>
 5   0  0.4309945E-06  0.2205687E+04  0.7818609E-02  0.8516065E-01
       -1   -1    0    0    0  501  0.00000000000E+00  0.00000000000E+00  0.86323409518E+03  0.86323409520E+03  0.50400001928E-02 0. -1.
        1   -1    0    0  501    0  0.00000000000E+00  0.00000000000E+00 -0.14089612698E+04  0.14089612698E+04  0.50400001928E-02 0.  1.
    10030    2    1    2    0    0  0.00000000000E+00  0.00000000000E+00 -0.54572717459E+03  0.22721953650E+04  0.22056866567E+04 0.  0.
        4    1    3    3  502    0 -0.72745022680E+03  0.41082607957E+03 -0.10145023379E+04  0.13142216353E+04  0.12699999809E+01 0.  1.
       -4    1    3    3    0  502  0.72745022680E+03 -0.41082607957E+03  0.46877516332E+03  0.95797372969E+03  0.12699999809E+01 0. -1.
</event>
<event>
 5   0  0.9963173E-06  0.2200901E+04  0.7818609E-02  0.8518053E-01
       -2   -1    0    0    0  501  0.00000000000E+00  0.00000000000E+00  0.71664901695E+03  0.71664901696E+03  0.25500000920E-02 0.  1.
        2   -1    0    0  501    0  0.00000000000E+00  0.00000000000E+00 -0.16897971992E+04  0.16897971992E+04  0.25500000920E-02 0. -1.
    10030    2    1    2    0    0  0.00000000000E+00  0.00000000000E+00 -0.97314818223E+03  0.24064462161E+04  0.22009011806E+04 0.  0.
        4    1    3    3  502    0  0.53422193555E+03  0.93133063275E+03 -0.75039666841E+03  0.13099109118E+04  0.12699999809E+01 0. -1.
       -4    1    3    3    0  502 -0.53422193555E+03 -0.93133063275E+03 -0.22275151382E+03  0.10965353044E+04  0.12699999809E+01 0.  1.
</event>
<event>
 5   0  0.9963573E-06  0.2198100E+04  0.7818609E-02  0.8519219E-01
       -2   -1    0    0    0  501  0.00000000000E+00  0.00000000000E+00  0.61587707589E+03  0.61587707590E+03  0.25500000920E-02 0. -1.
        2   -1    0    0  501    0  0.00000000000E+00  0.00000000000E+00 -0.19612864053E+04  0.19612864053E+04  0.25500000920E-02 0.  1.
    10030    2    1    2    0    0  0.00000000000E+00  0.00000000000E+00 -0.13454093294E+04  0.25771634812E+04  0.21981003947E+04 0.  0.
        2    1    3    3  502    0 -0.10404747436E+04 -0.33758249109E+03 -0.54773165885E+03  0.12233395279E+04  0.25500000920E-02 0.  1.
       -2    1    3    3    0  502  0.10404747436E+04  0.33758249109E+03 -0.79767767056E+03  0.13538239533E+04  0.25500000920E-02 0. -1.
</event>
<event>
 5   0  0.4794967E-06  0.2195804E+04  0.7818609E-02  0.8520177E-01
        1   -1    0    0  501    0  0.00000000000E+00  0.00000000000E+00  0.12088310000E+04  0.12088310000E+04  0.50400001928E-02 0.  1.
       -1   -1    0    0    0  501  0.00000000000E+00  0.00000000000E+00 -0.99715221718E+03  0.99715221719E+03  0.50400001928E-02 0. -1.
    10030    2    1    2    0    0  0.00000000000E+00  0.00000000000E+00  0.21167878282E+03  0.22059832172E+04  0.21958037361E+04 0.  0.
        5    1    3    3  502    0  0.33743118505E+03  0.87563084458E+02  0.11517417354E+04  0.12033529048E+04  0.46999998093E+01 0.  1.
       -5    1    3    3    0  502 -0.33743118505E+03 -0.87563084458E+02 -0.94006295262E+03  0.10026303124E+04  0.46999998093E+01 0. -1.
</event>
<event>
 5   0  0.1015876E-05  0.2194994E+04  0.7818609E-02  0.8520514E-01
        2   -1    0    0  501    0  0.00000000000E+00  0.00000000000E+00  0.12605394765E+04  0.12605394765E+04  0.25500000920E-02 0.  1.
       -2   -1    0    0    0  501  0.00000000000E+00  0.00000000000E+00 -0.95554323780E+03  0.95554323780E+03  0.25500000920E-02 0. -1.
    10030    2    1    2    0    0  0.00000000000E+00  0.00000000000E+00  0.30499623873E+03  0.22160827143E+04  0.21949942804E+04 0.  0.
        5    1    3    3  502    0 -0.44486154360E+03 -0.14853007529E+03 -0.84926196122E+03  0.97017057521E+03  0.46999998093E+01 0. -1.
       -5    1    3    3    0  502  0.44486154360E+03  0.14853007529E+03  0.11542582000E+04  0.12459121391E+04  0.46999998093E+01 0.  1.
</event>
<event>
 5   0  0.9963573E-06  0.2201627E+04  0.7818609E-02  0.8517751E-01
        2   -1    0    0  501    0  0.00000000000E+00  0.00000000000E+00  0.53177145948E+03  0.53177145949E+03  0.25500000920E-02 0.  1.
       -2   -1    0    0    0  501  0.00000000000E+00  0.00000000000E+00 -0.22787806846E+04  0.22787806846E+04  0.25500000920E-02 0. -1.
    10030    2    1    2    0    0  0.00000000000E+00  0.00000000000E+00 -0.17470092251E+04  0.28105521441E+04  0.22016271533E+04 0.  0.
        2    1    3    3  502    0 -0.65874487654E+03 -0.62025294002E+03 -0.73086188128E+02  0.90774451961E+03  0.25500000920E-02 0.  1.
       -2    1    3    3    0  502  0.65874487654E+03  0.62025294002E+03 -0.16739230370E+04  0.19028076245E+04  0.25500000920E-02 0. -1.
</event>
<event>
 5   0  0.3546750E-06  0.2197181E+04  0.7818609E-02  0.8519602E-01
       -4   -1    0    0    0  501  0.00000000000E+00  0.00000000000E+00  0.10391476175E+04  0.10391483936E+04  0.12699999809E+01 0. -1.
        4   -1    0    0  501    0  0.00000000000E+00  0.00000000000E+00 -0.11614320264E+04  0.11614327208E+04  0.12699999809E+01 0.  1.
    10030    2    1    2    0    0  0.00000000000E+00  0.00000000000E+00 -0.12228440892E+03  0.22005811143E+04  0.21971808674E+04 0.  0.
        4    1    3    3  502    0 -0.93822805136E+03  0.55772984576E+03 -0.18609452737E+03  0.11072340508E+04  0.12699999809E+01 0.  1.
       -4    1    3    3    0  502  0.93822805136E+03 -0.55772984576E+03  0.63810118447E+02  0.10933470635E+04  0.12699999809E+01 0. -1.
</event>
<event>
 5   0  0.4462201E-06  0.2197895E+04  0.7818609E-02  0.8519305E-01
       -1   -1    0    0    0  501  0.00000000000E+00  0.00000000000E+00  0.97496545143E+03  0.97496545144E+03  0.50400001928E-02 0.  1.
        1   -1    0    0  501    0  0.00000000000E+00  0.00000000000E+00 -0.12386957582E+04  0.12386957582E+04  0.50400001928E-02 0. -1.
    10030    2    1    2    0    0  0.00000000000E+00  0.00000000000E+00 -0.26373030674E+03  0.22136612096E+04  0.21978949648E+04 0.  0.
        3    1    3    3  502    0 -0.72497809557E+03 -0.61793301312E+03 -0.68374753834E+03  0.11725805534E+04  0.10100000352E+00 0. -1.
       -3    1    3    3    0  502  0.72497809557E+03  0.61793301312E+03  0.42001723160E+03  0.10410806562E+04  0.10100000352E+00 0.  1.
</event>
<event>
 5   0  0.1014015E-05  0.2198933E+04  0.7818609E-02  0.8518872E-01
       -2   -1    0    0    0  501  0.00000000000E+00  0.00000000000E+00  0.89329134802E+03  0.89329134802E+03  0.25500000920E-02 0. -1.
        2   -1    0    0  501    0  0.00000000000E+00  0.00000000000E+00 -0.13532275561E+04  0.13532275561E+04  0.25500000920E-02 0.  1.
    10030    2    1    2    0    0  0.00000000000E+00  0.00000000000E+00 -0.45993620808E+03  0.22465189041E+04  0.21989328937E+04 0.  0.
        1    1    3    3  502    0  0.17736842545E+03  0.12963647394E+03  0.87063857169E+03  0.89792911538E+03  0.50400001928E-02 0. -1.
       -1    1    3    3    0  502 -0.17736842545E+03 -0.12963647394E+03 -0.13305747798E+04  0.13485897887E+04  0.50400001928E-02 0.  1.
</event>
<event>
 5   0  0.4462201E-06  0.2250297E+04  0.7818609E-02  0.8497780E-01
        1   -1    0    0  501    0  0.00000000000E+00  0.00000000000E+00  0.74686372538E+03  0.74686372540E+03  0.50400001928E-02 0. -1.
       -1   -1    0    0    0  501  0.00000000000E+00  0.00000000000E+00 -0.16950341620E+04  0.16950341620E+04  0.50400001928E-02 0.  1.
    10030    2    1    2    0    0  0.00000000000E+00  0.00000000000E+00 -0.94817043662E+03  0.24418978874E+04  0.22502973394E+04 0.  0.
        3    1    3    3  502    0  0.69786748555E+03 -0.63493125977E+03  0.19113829339E+03  0.96264769746E+03  0.10100000352E+00 0. -1.
       -3    1    3    3    0  502 -0.69786748555E+03  0.63493125977E+03 -0.11393087300E+04  0.14792501900E+04  0.10100000352E+00 0.  1.
</event>
<event>
 5   0  0.9963573E-06  0.2201561E+04  0.7818609E-02  0.8517779E-01
       -2   -1    0    0    0  501  0.00000000000E+00  0.00000000000E+00  0.21123877371E+04  0.21123877371E+04  0.25500000920E-02 0. -1.
        2   -1    0    0  501    0  0.00000000000E+00  0.00000000000E+00 -0.57362468098E+03  0.57362468099E+03  0.25500000920E-02 0.  1.
    10030    2    1    2    0    0  0.00000000000E+00  0.00000000000E+00  0.15387630561E+04  0.26860124181E+04  0.22015610296E+04 0.  0.
        2    1    3    3  502    0  0.91229934056E+03 -0.59527524433E+03  0.96257751072E+03  0.14536843424E+04  0.25500000920E-02 0. -1.
       -2    1    3    3    0  502 -0.91229934056E+03  0.59527524433E+03  0.57618554539E+03  0.12323280756E+04  0.25500000920E-02 0.  1.
</event>
<event>
 5   0  0.1035928E-05  0.2189768E+04  0.7818609E-02  0.8522699E-01
       -2   -1    0    0    0  501  0.00000000000E+00  0.00000000000E+00  0.53224957760E+03  0.53224957761E+03  0.25500000920E-02 0. -1.
        2   -1    0    0  501    0  0.00000000000E+00  0.00000000000E+00 -0.22522729948E+04  0.22522729948E+04  0.25500000920E-02 0.  1.
    10030    2    1    2    0    0  0.00000000000E+00  0.00000000000E+00 -0.17200234172E+04  0.27845225724E+04  0.21897683440E+04 0.  0.
        3    1    3    3  502    0  0.27748006731E+02  0.10543904149E+03  0.52532935208E+03  0.53652426012E+03  0.10100000352E+00 0. -1.
       -3    1    3    3    0  502 -0.27748006731E+02 -0.10543904149E+03 -0.22453527693E+04  0.22479983123E+04  0.10100000352E+00 0.  1.
</event>
<event>
 5   0  0.1014015E-05  0.2198997E+04  0.7818609E-02  0.8518846E-01
        2   -1    0    0  501    0  0.00000000000E+00  0.00000000000E+00  0.11738802566E+04  0.11738802566E+04  0.25500000920E-02 0.  1.
       -2   -1    0    0    0  501  0.00000000000E+00  0.00000000000E+00 -0.10298301803E+04  0.10298301803E+04  0.25500000920E-02 0. -1.
    10030    2    1    2    0    0  0.00000000000E+00  0.00000000000E+00  0.14405007630E+03  0.22037104370E+04  0.21989973319E+04 0.  0.
        1    1    3    3  502    0  0.19551839214E+03  0.72235102670E+03 -0.73523163132E+03  0.10490872219E+04  0.50400001928E-02 0. -1.
       -1    1    3    3    0  502 -0.19551839214E+03 -0.72235102670E+03  0.87928170762E+03  0.11546232151E+04  0.50400001928E-02 0.  1.
</event>
<event>
 5   0  0.1015876E-05  0.2199631E+04  0.7818609E-02  0.8518582E-01
        2   -1    0    0  501    0  0.00000000000E+00  0.00000000000E+00  0.15441078881E+04  0.15441078881E+04  0.25500000920E-02 0.  1.
       -2   -1    0    0    0  501  0.00000000000E+00  0.00000000000E+00 -0.78336106461E+03  0.78336106461E+03  0.25500000920E-02 0. -1.
    10030    2    1    2    0    0  0.00000000000E+00  0.00000000000E+00  0.76074682345E+03  0.23274689527E+04  0.21996308773E+04 0.  0.
        5    1    3    3  502    0 -0.66257045449E+03 -0.11559267168E+02  0.13091326137E+04  0.14673048470E+04  0.46999998093E+01 0.  1.
       -5    1    3    3    0  502  0.66257045449E+03  0.11559267168E+02 -0.54838579021E+03  0.86016410570E+03  0.46999998093E+01 0. -1.
</event>
<event>
 5   0  0.4309945E-06  0.2202363E+04  0.7818609E-02  0.8517445E-01
        1   -1    0    0  501    0  0.00000000000E+00  0.00000000000E+00  0.12977668672E+04  0.12977668672E+04  0.50400001928E-02 0.  1.
       -1   -1    0    0    0  501  0.00000000000E+00  0.00000000000E+00 -0.93437476208E+03  0.93437476209E+03  0.50400001928E-02 0. -1.
    10030    2    1    2    0    0  0.00000000000E+00  0.00000000000E+00  0.36339210513E+03  0.22321416293E+04  0.22023629200E+04 0.  0.
        4    1    3    3  502    0 -0.89240567263E+03  0.19645148120E+03 -0.44111908832E+03  0.10146766638E+04  0.12699999809E+01 0. -1.
       -4    1    3    3    0  502  0.89240567263E+03 -0.19645148120E+03  0.80451119345E+03  0.12174649655E+04  0.12699999809E+01 0.  1.
</event>
<event>
 5   0  0.4794967E-06  0.2197545E+04  0.7818609E-02  0.8519451E-01
        1   -1    0    0  501    0  0.00000000000E+00  0.00000000000E+00  0.98284546558E+03  0.98284546560E+03  0.50400001928E-02 0.  1.
       -1   -1    0    0    0  501  0.00000000000E+00  0.00000000000E+00 -0.12283729953E+04  0.12283729953E+04  0.50400001928E-02 0. -1.
    10030    2    1    2    0    0  0.00000000000E+00  0.00000000000E+00 -0.24552752967E+03  0.22112184609E+04  0.21975448377E+04 0.  0.
        5    1    3    3  502    0  0.48816203602E+03 -0.98376977238E+03 -0.88292758955E+02  0.11017816661E+04  0.46999998093E+01 0. -1.
       -5    1    3    3    0  502 -0.48816203602E+03  0.98376977238E+03 -0.15723477072E+03  0.11094367948E+04  0.46999998093E+01 0.  1.
</event>
<event>
 5   0  0.9963173E-06  0.2207321E+04  0.7818609E-02  0.8515387E-01
       -2   -1    0    0    0  501  0.00000000000E+00  0.00000000000E+00  0.91860673212E+03  0.91860673212E+03  0.25500000920E-02 0. -1.
        2   -1    0    0  501    0  0.00000000000E+00  0.00000000000E+00 -0.13259933640E+04  0.13259933640E+04  0.25500000920E-02 0.  1.
    10030    2    1    2    0    0  0.00000000000E+00  0.00000000000E+00 -0.40738663191E+03  0.22446000961E+04  0.22073209381E+04 0.  0.
        4    1    3    3  502    0  0.66107474957E+03 -0.49375883736E+03  0.54165723405E+03  0.98702167458E+03  0.12699999809E+01 0. -1.
       -4    1    3    3    0  502 -0.66107474957E+03  0.49375883736E+03 -0.94904386596E+03  0.12575784216E+04  0.12699999809E+01 0.  1.
</event>
<event>
 5   0  0.4309945E-06  0.2201623E+04  0.7818609E-02  0.8517753E-01
       -1   -1    0    0    0  501  0.00000000000E+00  0.00000000000E+00  0.15743178492E+04  0.15743178492E+04  0.50400001928E-02 0.  1.
        1   -1    0    0  501    0  0.00000000000E+00  0.00000000000E+00 -0.76972150717E+03  0.76972150718E+03  0.50400001928E-02 0. -1.
    10030    2    1    2    0    0  0.00000000000E+00  0.00000000000E+00  0.80459634204E+03  0.23440393564E+04  0.22016233172E+04 0.  0.
        4    1    3    3  502    0  0.18520372522E+03  0.10007569717E+04 -0.44324641508E+02  0.10187154769E+04  0.12699999809E+01 0. -1.
       -4    1    3    3    0  502 -0.18520372522E+03 -0.10007569717E+04  0.84892098355E+03  0.13253238794E+04  0.12699999809E+01 0.  1.
</event>
<event>
 5   0  0.4408787E-06  0.2204275E+04  0.7818609E-02  0.8516651E-01
        1   -1    0    0  501    0  0.00000000000E+00  0.00000000000E+00  0.86666907670E+03  0.86666907672E+03  0.50400001928E-02 0. -1.
       -1   -1    0    0    0  501  0.00000000000E+00  0.00000000000E+00 -0.14015815495E+04  0.14015815495E+04  0.50400001928E-02 0.  1.
    10030    2    1    2    0    0  0.00000000000E+00  0.00000000000E+00 -0.53491247276E+03  0.22682506262E+04  0.22042752890E+04 0.  0.
        1    1    3    3  502    0 -0.37064174039E+03 -0.31284467122E+03 -0.12858567885E+04  0.13742906420E+04  0.50400001928E-02 0.  1.
       -1    1    3    3    0  502  0.37064174039E+03  0.31284467122E+03  0.75094431574E+03  0.89395998423E+03  0.50400001928E-02 0. -1.
</event>
<event>
 5   0  0.1014015E-05  0.2202506E+04  0.7818609E-02  0.8517386E-01
        2   -1    0    0  501    0  0.00000000000E+00  0.00000000000E+00  0.15732618402E+04  0.15732618402E+04  0.25500000920E-02 0.  1.
       -2   -1    0    0    0  501  0.00000000000E+00  0.00000000000E+00 -0.77085575372E+03  0.77085575372E+03  0.25500000920E-02 0. -1.
    10030    2    1    2    0    0  0.00000000000E+00  0.00000000000E+00  0.80240608652E+03  0.23441175940E+04  0.22025057927E+04 0.  0.
        1    1    3    3  502    0  0.48959272003E+03 -0.88522115717E+03  0.86443514825E+03  0.13306260384E+04  0.50400001928E-02 0.  1.
       -1    1    3    3    0  502 -0.48959272003E+03  0.88522115717E+03 -0.62029061726E+02  0.10134915555E+04  0.50400001928E-02 0. -1.
</event>
<event>
 5   0  0.4794967E-06  0.2186874E+04  0.7818609E-02  0.8523911E-01
       -1   -1    0    0    0  501  0.00000000000E+00  0.00000000000E+00  0.95799145206E+03  0.95799145207E+03  0.50400001928E-02 0.  1.
        1   -1    0    0  501    0  0.00000000000E+00  0.00000000000E+00 -0.12480328719E+04  0.12480328719E+04  0.50400001928E-02 0. -1.
    10030    2    1    2    0    0  0.00000000000E+00  0.00000000000E+00 -0.29004141986E+03  0.22060243240E+04  0.21868743203E+04 0.  0.
        5    1    3    3  502    0  0.71962479404E+03 -0.12445955278E+03  0.67588218197E+03  0.99508232744E+03  0.46999998093E+01 0.  1.
       -5    1    3    3    0  502 -0.71962479404E+03  0.12445955278E+03 -0.96592360183E+03  0.12109419966E+04  0.46999998093E+01 0. -1.
</event>
<event>
 5   0  0.9963173E-06  0.2202276E+04  0.7818609E-02  0.8517481E-01
        2   -1    0    0  501    0  0.00000000000E+00  0.00000000000E+00  0.23610590902E+04  0.23610590902E+04  0.25500000920E-02 0. -1.
       -2   -1    0    0    0  501  0.00000000000E+00  0.00000000000E+00 -0.51354288501E+03  0.51354288502E+03  0.25500000920E-02 0.  1.
    10030    2    1    2    0    0  0.00000000000E+00  0.00000000000E+00  0.18475162052E+04  0.28746019752E+04  0.22022761833E+04 0.  0.
        4    1    3    3  502    0  0.79878902319E+03  0.15696475338E+03 -0.44093905896E+02  0.81525929790E+03  0.12699999809E+01 0.  1.
       -4    1    3    3    0  502 -0.79878902319E+03 -0.15696475338E+03  0.18916101111E+04  0.20593426773E+04  0.12699999809E+01 0. -1.
</event>
<event>
 5   0  0.1014015E-05  0.2198956E+04  0.7818609E-02  0.8518863E-01
        2   -1    0    0  501    0  0.00000000000E+00  0.00000000000E+00  0.20363746585E+04  0.20363746585E+04  0.25500000920E-02 0. -1.
       -2   -1    0    0    0  501  0.00000000000E+00  0.00000000000E+00 -0.59362938580E+03  0.59362938581E+03  0.25500000920E-02 0.  1.
    10030    2    1    2    0    0  0.00000000000E+00  0.00000000000E+00  0.14427452727E+04  0.26300040443E+04  0.21989559685E+04 0.  0.
        1    1    3    3  502    0 -0.98717534139E+03 -0.24716962128E+02  0.14315255733E+03  0.99780696408E+03  0.50400001928E-02 0.  1.
       -1    1    3    3    0  502  0.98717534139E+03  0.24716962128E+02  0.12995927154E+04  0.16321970802E+04  0.50400001928E-02 0. -1.
</event>
<event>
 5   0  0.1035928E-05  0.2196780E+04  0.7818609E-02  0.8519769E-01
        2   -1    0    0  501    0  0.00000000000E+00  0.00000000000E+00  0.75561200422E+03  0.75561200422E+03  0.25500000920E-02 0.  1.
       -2   -1    0    0    0  501  0.00000000000E+00  0.00000000000E+00 -0.15966670504E+04  0.15966670504E+04  0.25500000920E-02 0. -1.
    10030    2    1    2    0    0  0.00000000000E+00  0.00000000000E+00 -0.84105504613E+03  0.23522790546E+04  0.21967801802E+04 0.  0.
        3    1    3    3  502    0  0.10441402382E+04 -0.33731768262E+03 -0.36754017969E+03  0.11571939551E+04  0.10100000352E+00 0. -1.
       -3    1    3    3    0  502 -0.10441402382E+04  0.33731768262E+03 -0.47351486644E+03  0.11950850994E+04  0.10100000352E+00 0.  1.
</event>
<event>
 5   0  0.9963573E-06  0.2198656E+04  0.7818609E-02  0.8518988E-01
       -2   -1    0    0    0  501  0.00000000000E+00  0.00000000000E+00  0.75024945777E+03  0.75024945777E+03  0.25500000920E-02 0. -1.
        2   -1    0    0  501    0  0.00000000000E+00  0.00000000000E+00 -0.16108266945E+04  0.16108266945E+04  0.25500000920E-02 0.  1.
    10030    2    1    2    0    0  0.00000000000E+00  0.00000000000E+00 -0.86057723670E+03  0.23610761522E+04  0.21986558204E+04 0.  0.
        2    1    3    3  502    0 -0.77446382225E+03 -0.11373877639E+03  0.39860684470E+03  0.87841797448E+03  0.25500000920E-02 0.  1.
       -2    1    3    3    0  502  0.77446382225E+03  0.11373877639E+03 -0.12591840814E+04  0.14826581778E+04  0.25500000920E-02 0. -1.
</event>
<event>
 5   0  0.1014015E-05  0.2195851E+04  0.7818609E-02  0.8520157E-01
       -2   -1    0    0    0  501  0.00000000000E+00  0.00000000000E+00  0.18589986916E+04  0.18589986916E+04  0.25500000920E-02 0. -1.
        2   -1    0    0  501    0  0.00000000000E+00  0.00000000000E+00 -0.64843539835E+03  0.64843539835E+03  0.25500000920E-02 0.  1.
    10030    2    1    2    0    0  0.00000000000E+00  0.00000000000E+00  0.12105632933E+04  0.25074340900E+04  0.21958511399E+04 0.  0.
        1    1    3    3  502    0 -0.53069508729E+03  0.62436853348E+03 -0.22913685931E+03  0.85086840439E+03  0.50400001928E-02 0.  1.
       -1    1    3    3    0  502  0.53069508729E+03 -0.62436853348E+03  0.14397001526E+04  0.16565656856E+04  0.50400001928E-02 0. -1.
</event>
<event>
 5   0  0.1015876E-05  0.2197913E+04  0.7818609E-02  0.8519297E-01
       -2   -1    0    0    0  501  0.00000000000E+00  0.00000000000E+00  0.56292138628E+03  0.56292138628E+03  0.25500000920E-02 0. -1.
        2   -1    0    0  501    0  0.00000000000E+00  0.00000000000E+00 -0.21454238329E+04  0.21454238329E+04  0.25500000920E-02 0.  1.
    10030    2    1    2    0    0  0.00000000000E+00  0.00000000000E+00 -0.15825024467E+04  0.27083452192E+04  0.21979126081E+04 0.  0.
        5    1    3    3  502    0  0.80842832155E+03  0.46201090916E+03 -0.72030654563E+02  0.93392769338E+03  0.46999998093E+01 0. -1.
       -5    1    3    3    0  502 -0.80842832155E+03 -0.46201090916E+03 -0.15104717921E+04  0.17744175258E+04  0.46999998093E+01 0.  1.
</event>
<event>
 5   0  0.9963573E-06  0.2201379E+04  0.7818609E-02  0.8517855E-01
       -2   -1    0    0    0  501  0.00000000000E+00  0.00000000000E+00  0.41869152784E+03  0.41869152784E+03  0.25500000920E-02 0.  1.
        2   -1    0    0  501    0  0.00000000000E+00  0.00000000000E+00 -0.28935788123E+04  0.28935788123E+04  0.25500000920E-02 0. -1.
    10030    2    1    2    0    0  0.00000000000E+00  0.00000000000E+00 -0.24748872845E+04  0.33122703402E+04  0.22013785988E+04 0.  0.
        2    1    3    3  502    0 -0.65854506679E+03 -0.84224197414E+03 -0.16311400852E+04  0.19503002655E+04  0.25500000920E-02 0.  1.
       -2    1    3    3    0  502  0.65854506679E+03  0.84224197414E+03 -0.84374719927E+03  0.13619700747E+04  0.25500000920E-02 0. -1.
</event>
<event>
 5   0  0.4462201E-06  0.2195058E+04  0.7818609E-02  0.8520488E-01
        1   -1    0    0  501    0  0.00000000000E+00  0.00000000000E+00  0.18784360408E+04  0.18784360408E+04  0.50400001928E-02 0.  1.
       -1   -1    0    0    0  501  0.00000000000E+00  0.00000000000E+00 -0.64126196170E+03  0.64126196172E+03  0.50400001928E-02 0. -1.
    10030    2    1    2    0    0  0.00000000000E+00  0.00000000000E+00  0.12371740791E+04  0.25196980025E+04  0.21950577035E+04 0.  0.
        3    1    3    3  502    0  0.11064700606E+03 -0.96656557135E+03  0.12017338166E+04  0.15461746150E+04  0.10100000352E+00 0.  1.
       -3    1    3    3    0  502 -0.11064700606E+03  0.96656557135E+03  0.35440262412E+02  0.97352338753E+03  0.10100000352E+00 0. -1.
</event>
<event>
 5   0  0.4408787E-06  0.2193638E+04  0.7818609E-02  0.8521081E-01
        1   -1    0    0  501    0  0.00000000000E+00  0.00000000000E+00  0.13095379392E+04  0.13095379392E+04  0.50400001928E-02 0.  1.
       -1   -1    0    0    0  501  0.00000000000E+00  0.00000000000E+00 -0.91865354844E+03  0.91865354845E+03  0.50400001928E-02 0. -1.
    10030    2    1    2    0    0  0.00000000000E+00  0.00000000000E+00  0.39088439072E+03  0.22281914876E+04  0.21936377774E+04 0.  0.
        1    1    3    3  502    0 -0.45272365135E+02  0.95865734705E+03 -0.34390017428E+03  0.10194806648E+04  0.50400001928E-02 0. -1.
       -1    1    3    3    0  502  0.45272365135E+02 -0.95865734705E+03  0.73478456500E+03  0.12087108228E+04  0.50400001928E-02 0.  1.
</event>
<event>
 5   0  0.9963573E-06  0.2192162E+04  0.7818609E-02  0.8521698E-01
       -2   -1    0    0    0  501  0.00000000000E+00  0.00000000000E+00  0.58608842529E+03  0.58608842530E+03  0.25500000920E-02 0.  1.
        2   -1    0    0  501    0  0.00000000000E+00  0.00000000000E+00 -0.20498501688E+04  0.20498501688E+04  0.25500000920E-02 0. -1.
    10030    2    1    2    0    0  0.00000000000E+00  0.00000000000E+00 -0.14637617435E+04  0.26359385941E+04  0.21921619078E+04 0.  0.
        2    1    3    3  502    0 -0.94579130210E+03  0.50490240681E+03 -0.10059360464E+04  0.14701547391E+04  0.25500000920E-02 0. -1.
       -2    1    3    3    0  502  0.94579130210E+03 -0.50490240681E+03 -0.45782569711E+03  0.11657838550E+04  0.25500000920E-02 0.  1.
</event>
<event>
 5   0  0.1015876E-05  0.2200557E+04  0.7818609E-02  0.8518196E-01
        2   -1    0    0  501    0  0.00000000000E+00  0.00000000000E+00  0.12355322629E+04  0.12355322629E+04  0.25500000920E-02 0.  1.
       -2   -1    0    0    0  501  0.00000000000E+00  0.00000000000E+00 -0.97983128654E+03  0.97983128655E+03  0.25500000920E-02 0. -1.
    10030    2    1    2    0    0  0.00000000000E+00  0.00000000000E+00  0.25570097633E+03  0.22153635494E+04  0.22005573537E+04 0.  0.
        5    1    3    3  502    0  0.91486312470E+02 -0.10960736368E+04  0.15709614791E+03  0.11110573578E+04  0.46999998093E+01 0. -1.
       -5    1    3    3    0  502 -0.91486312470E+02  0.10960736368E+04  0.98604828411E+02  0.11043061916E+04  0.46999998093E+01 0.  1.
</event>
<event>
 5   0  0.1015876E-05  0.2204159E+04  0.7818609E-02  0.8516699E-01
       -2   -1    0    0    0  501  0.00000000000E+00  0.00000000000E+00  0.73698628492E+03  0.73698628492E+03  0.25500000920E-02 0. -1.
        2   -1    0    0  501    0  0.00000000000E+00  0.00000000000E+00 -0.16480348191E+04  0.16480348191E+04  0.25500000920E-02 0.  1.
    10030    2    1    2    0    0  0.00000000000E+00  0.00000000000E+00 -0.91104853416E+03  0.23850211040E+04  0.22041588498E+04 0.  0.
        5    1    3    3  502    0  0.86165676606E+03  0.65647932027E+03 -0.23605244010E+03  0.11086750312E+04  0.46999998093E+01 0.  1.
       -5    1    3    3    0  502 -0.86165676606E+03 -0.65647932027E+03 -0.67499609406E+03  0.12763460728E+04  0.46999998093E+01 0. -1.
</event>
<event>
 5   0  0.4309945E-06  0.2192692E+04  0.7818609E-02  0.8521476E-01
       -1   -1    0    0    0  501  0.00000000000E+00  0.00000000000E+00  0.59939172504E+03  0.59939172506E+03  0.50400001928E-02 0.  1.
        1   -1    0    0  501    0  0.00000000000E+00  0.00000000000E+00 -0.20053236790E+04  0.20053236790E+04  0.50400001928E-02 0. -1.
    10030    2    1    2    0    0  0.00000000000E+00  0.00000000000E+00 -0.14059319539E+04  0.26047154040E+04  0.21926918792E+04 0.  0.
        4    1    3    3  502    0 -0.90437736288E+03 -0.35708761268E+03 -0.13046653208E+04  0.16271334271E+04  0.12699999809E+01 0. -1.
       -4    1    3    3    0  502  0.90437736288E+03  0.35708761268E+03 -0.10126663315E+03  0.97758197687E+03  0.12699999809E+01 0.  1.
</event>
<event>
 5   0  0.4794967E-06  0.2203786E+04  0.7818609E-02  0.8516854E-01
        1   -1    0    0  501    0  0.00000000000E+00  0.00000000000E+00  0.11348645105E+04  0.11348645105E+04  0.50400001928E-02 0.  1.
       -1   -1    0    0    0  501  0.00000000000E+00  0.00000000000E+00 -0.10698796542E+04  0.10698796542E+04  0.50400001928E-02 0. -1.
    10030    2    1    2    0    0  0.00000000000E+00  0.00000000000E+00  0.64984856304E+02  0.22047441647E+04  0.22037862420E+04 0.  0.
        5    1    3    3  502    0 -0.19738233935E+03 -0.12667001296E+03  0.11095946471E+04  0.11341196810E+04  0.46999998093E+01 0.  1.
       -5    1    3    3    0  502  0.19738233935E+03  0.12667001296E+03 -0.10446097908E+04  0.10706244837E+04  0.46999998093E+01 0. -1.
</event>
<event>
 5   0  0.1014015E-05  0.2198386E+04  0.7818609E-02  0.8519100E-01
        2   -1    0    0  501    0  0.00000000000E+00  0.00000000000E+00  0.19885964870E+04  0.19885964870E+04  0.25500000920E-02 0. -1.
       -2   -1    0    0    0  501  0.00000000000E+00  0.00000000000E+00 -0.60757705962E+03  0.60757705962E+03  0.25500000920E-02 0.  1.
    10030    2    1    2    0    0  0.00000000000E+00  0.00000000000E+00  0.13810194273E+04  0.25961735466E+04  0.21983863230E+04 0.  0.
        1    1    3    3  502    0 -0.38060657255E+03  0.10302525919E+04  0.63844302221E+03  0.12703901994E+04  0.50400001928E-02 0.  1.
       -1    1    3    3    0  502  0.38060657255E+03 -0.10302525919E+04  0.74257640512E+03  0.13257833472E+04  0.50400001928E-02 0. -1.
</event>
<event>
 5   0  0.9963173E-06  0.2199057E+04  0.7818609E-02  0.8518821E-01
        2   -1    0    0  501    0  0.00000000000E+00  0.00000000000E+00  0.10590416591E+04  0.10590416591E+04  0.25500000920E-02 0. -1.
       -2   -1    0    0    0  501  0.00000000000E+00  0.00000000000E+00 -0.11415627551E+04  0.11415627551E+04  0.25500000920E-02 0.  1.
    10030    2    1    2    0    0  0.00000000000E+00  0.00000000000E+00 -0.82521096003E+02  0.22006044142E+04  0.21990566287E+04 0.  0.
        4    1    3    3  502    0  0.11136479936E+03 -0.10539046017E+04  0.25193692225E+03  0.10893075111E+04  0.12699999809E+01 0. -1.
       -4    1    3    3    0  502 -0.11136479936E+03  0.10539046017E+04 -0.33445801825E+03  0.11112969031E+04  0.12699999809E+01 0.  1.
</event>
<event>
 5   0  0.9963573E-06  0.2215573E+04  0.7818609E-02  0.8511974E-01
       -2   -1    0    0    0  501  0.00000000000E+00  0.00000000000E+00  0.81051380870E+03  0.81051380871E+03  0.25500000920E-02 0. -1.
        2   -1    0    0  501    0  0.00000000000E+00  0.00000000000E+00 -0.15140903025E+04  0.15140903025E+04  0.25500000920E-02 0.  1.
    10030    2    1    2    0    0  0.00000000000E+00  0.00000000000E+00 -0.70357649379E+03  0.23246041112E+04  0.22155731519E+04 0.  0.
        2    1    3    3  502    0 -0.85067829070E+03 -0.64698987213E+03 -0.45998266253E+02  0.10697501061E+04  0.25500000920E-02 0. -1.
       -2    1    3    3    0  502  0.85067829070E+03  0.64698987213E+03 -0.65757822754E+03  0.12548540051E+04  0.25500000920E-02 0.  1.
</event>
<event>
 5   0  0.9963573E-06  0.2203450E+04  0.7818609E-02  0.8516994E-01
        2   -1    0    0  501    0  0.00000000000E+00  0.00000000000E+00  0.12258795429E+04  0.12258795429E+04  0.25500000920E-02 0.  1.
       -2   -1    0    0    0  501  0.00000000000E+00  0.00000000000E+00 -0.99014458258E+03  0.99014458258E+03  0.25500000920E-02 0. -1.
    10030    2    1    2    0    0  0.00000000000E+00  0.00000000000E+00  0.23573496029E+03  0.22160241255E+04  0.22034500115E+04 0.  0.
        2    1    3    3  502    0  0.98750754070E+03 -0.72466219571E+02 -0.36797882627E+03  0.10563289793E+04  0.25500000920E-02 0. -1.
       -2    1    3    3    0  502 -0.98750754070E+03  0.72466219571E+02  0.60371378656E+03  0.11596951462E+04  0.25500000920E-02 0.  1.
</event>
<event>
 5   0  0.4630615E-06  0.2201106E+04  0.7818609E-02  0.8517968E-01
       -1   -1    0    0    0  501  0.00000000000E+00  0.00000000000E+00  0.87089799354E+03  0.87089799356E+03  0.50400001928E-02 0.  1.
        1   -1    0    0  501    0  0.00000000000E+00  0.00000000000E+00 -0.13907682835E+04  0.13907682835E+04  0.50400001928E-02 0. -1.
    10030    2    1    2    0    0  0.00000000000E+00  0.00000000000E+00 -0.51987028996E+03  0.22616662771E+04  0.22011063651E+04 0.  0.
        2    1    3    3  502    0 -0.92954788498E+03  0.55158577584E+03 -0.47085629502E+02  0.10819072026E+04  0.25500000920E-02 0.  1.
       -2    1    3    3    0  502  0.92954788498E+03 -0.55158577584E+03 -0.47278466046E+03  0.11797590745E+04  0.25500000920E-02 0. -1.
</event>
<event>
 5   0  0.4462201E-06  0.2203378E+04  0.7818609E-02  0.8517024E-01
       -1   -1    0    0    0  501  0.00000000000E+00  0.00000000000E+00  0.71455913624E+03  0.71455913626E+03  0.50400001928E-02 0. -1.
        1   -1    0    0  501    0  0.00000000000E+00  0.00000000000E+00 -0.16985552601E+04  0.16985552601E+04  0.50400001928E-02 0.  1.
    10030    2    1    2    0    0  0.00000000000E+00  0.00000000000E+00 -0.98399612390E+03  0.24131143964E+04  0.22033775705E+04 0.  0.
        3    1    3    3  502    0  0.38769861802E+03 -0.44401740235E+03 -0.15113220365E+04  0.16222071324E+04  0.10100000352E+00 0.  1.
       -3    1    3    3    0  502 -0.38769861802E+03  0.44401740235E+03  0.52732591262E+03  0.79090726405E+03  0.10100000352E+00 0. -1.
</event>
<event>
 5   0  0.1015876E-05  0.2200546E+04  0.7818609E-02  0.8518201E-01
        2   -1    0    0  501    0  0.00000000000E+00  0.00000000000E+00  0.17127244194E+04  0.17127244194E+04  0.25500000920E-02 0.  1.
       -2   -1    0    0    0  501  0.00000000000E+00  0.00000000000E+00 -0.70682730991E+03  0.70682730992E+03  0.25500000920E-02 0. -1.
    10030    2    1    2    0    0  0.00000000000E+00  0.00000000000E+00  0.10058971095E+04  0.24195517293E+04  0.22005457450E+04 0.  0.
        5    1    3    3  502    0 -0.43684548202E+03 -0.99216601676E+03  0.29621789266E+03  0.11238302852E+04  0.46999998093E+01 0. -1.
       -5    1    3    3    0  502  0.43684548202E+03  0.99216601676E+03  0.70967921681E+03  0.12957214441E+04  0.46999998093E+01 0.  1.
</event>
<event>
 5   0  0.1014015E-05  0.2197443E+04  0.7818609E-02  0.8519493E-01
       -2   -1    0    0    0  501  0.00000000000E+00  0.00000000000E+00  0.77821502797E+03  0.77821502797E+03  0.25500000920E-02 0.  1.
        2   -1    0    0  501    0  0.00000000000E+00  0.00000000000E+00 -0.15512274618E+04  0.15512274618E+04  0.25500000920E-02 0. -1.
    10030    2    1    2    0    0  0.00000000000E+00  0.00000000000E+00 -0.77301243379E+03  0.23294424897E+04  0.21974426250E+04 0.  0.
        1    1    3    3  502    0  0.40724046551E+03 -0.10194937049E+04 -0.43363238557E+03  0.11803597998E+04  0.50400001928E-02 0. -1.
       -1    1    3    3    0  502 -0.40724046551E+03  0.10194937049E+04 -0.33938004821E+03  0.11490826899E+04  0.50400001928E-02 0.  1.
</event>
<event>
 5   0  0.4309945E-06  0.2192925E+04  0.7818609E-02  0.8521379E-01
        1   -1    0    0  501    0  0.00000000000E+00  0.00000000000E+00  0.11751210684E+04  0.11751210685E+04  0.50400001928E-02 0.  1.
       -1   -1    0    0    0  501  0.00000000000E+00  0.00000000000E+00 -0.10230688619E+04  0.10230688619E+04  0.50400001928E-02 0. -1.
    10030    2    1    2    0    0  0.00000000000E+00  0.00000000000E+00  0.15205220658E+03  0.21981899303E+04  0.21929247813E+04 0.  0.
        4    1    3    3  502    0  0.62425980609E+03 -0.68841480260E+03  0.65932779787E+03  0.11394428480E+04  0.12699999809E+01 0.  1.
       -4    1    3    3    0  502 -0.62425980609E+03  0.68841480260E+03 -0.50727559130E+03  0.10587470823E+04  0.12699999809E+01 0. -1.
</event>
<event>
 5   0  0.4462201E-06  0.2200552E+04  0.7818609E-02  0.8518198E-01
        1   -1    0    0  501    0  0.00000000000E+00  0.00000000000E+00  0.20719852862E+04  0.20719852862E+04  0.50400001928E-02 0.  1.
       -1   -1    0    0    0  501  0.00000000000E+00  0.00000000000E+00 -0.58427418394E+03  0.58427418396E+03  0.50400001928E-02 0. -1.
    10030    2    1    2    0    0  0.00000000000E+00  0.00000000000E+00  0.14877111023E+04  0.26562594702E+04  0.22005522146E+04 0.  0.
        3    1    3    3  502    0  0.76268227913E+03  0.19025252875E+03  0.16731776257E+04  0.18486220979E+04  0.10100000352E+00 0.  1.
       -3    1    3    3    0  502 -0.76268227913E+03 -0.19025252875E+03 -0.18546652341E+03  0.80763737228E+03  0.10100000352E+00 0. -1.
</event>
<event>
 5   0  0.1015876E-05  0.2218888E+04  0.7818609E-02  0.8510607E-01
        2   -1    0    0  501    0  0.00000000000E+00  0.00000000000E+00  0.21590213975E+04  0.21590213975E+04  0.25500000920E-02 0.  1.
       -2   -1    0    0    0  501  0.00000000000E+00  0.00000000000E+00 -0.57010388818E+03  0.57010388819E+03  0.25500000920E-02 0. -1.
    10030    2    1    2    0    0  0.00000000000E+00  0.00000000000E+00  0.15889175093E+04  0.27291252857E+04  0.22188884545E+04 0.  0.
        5    1    3    3  502    0 -0.10384236620E+04 -0.78510291417E+02  0.32392096452E+03  0.10906119608E+04  0.46999998093E+01 0. -1.
       -5    1    3    3    0  502  0.10384236620E+04  0.78510291417E+02  0.12649965448E+04  0.16385133250E+04  0.46999998093E+01 0.  1.
</event>
<event>
 5   0  0.1015876E-05  0.2201832E+04  0.7818609E-02  0.8517666E-01
        2   -1    0    0  501    0  0.00000000000E+00  0.00000000000E+00  0.12093857096E+04  0.12093857096E+04  0.25500000920E-02 0. -1.
       -2   -1    0    0    0  501  0.00000000000E+00  0.00000000000E+00 -0.10021753484E+04  0.10021753484E+04  0.25500000920E-02 0.  1.
    10030    2    1    2    0    0  0.00000000000E+00  0.00000000000E+00  0.20721036124E+03  0.22115610580E+04  0.22018324594E+04 0.  0.
        5    1    3    3  502    0  0.33003949414E+03  0.10263859056E+04 -0.12009023206E+03  0.10848215746E+04  0.46999998093E+01 0.  1.
       -5    1    3    3    0  502 -0.33003949414E+03 -0.10263859056E+04  0.32730059331E+03  0.11267394833E+04  0.46999998093E+01 0. -1.
</event>
<event>
 5   0  0.9963573E-06  0.2206551E+04  0.7818609E-02  0.8515707E-01
       -2   -1    0    0    0  501  0.00000000000E+00  0.00000000000E+00  0.10707494751E+04  0.10707494751E+04  0.25500000920E-02 0. -1.
        2   -1    0    0  501    0  0.00000000000E+00  0.00000000000E+00 -0.11367892595E+04  0.11367892595E+04  0.25500000920E-02 0.  1.
    10030    2    1    2    0    0  0.00000000000E+00  0.00000000000E+00 -0.66039784423E+02  0.22075387346E+04  0.22065507046E+04 0.  0.
        2    1    3    3  502    0  0.54358544284E+02  0.25260401789E+03  0.10400520401E+04  0.10716678064E+04  0.25500000920E-02 0. -1.
       -2    1    3    3    0  502 -0.54358544284E+02 -0.25260401789E+03 -0.11060918245E+04  0.11358709282E+04  0.25500000920E-02 0.  1.
</event>
<event>
 5   0  0.9963173E-06  0.2202935E+04  0.7818609E-02  0.8517208E-01
       -2   -1    0    0    0  501  0.00000000000E+00  0.00000000000E+00  0.74928778826E+03  0.74928778826E+03  0.25500000920E-02 0. -1.
        2   -1    0    0  501    0  0.00000000000E+00  0.00000000000E+00 -0.16191781407E+04  0.16191781407E+04  0.25500000920E-02 0.  1.
    10030    2    1    2    0    0  0.00000000000E+00  0.00000000000E+00 -0.86989035241E+03  0.23684659289E+04  0.22029347769E+04 0.  0.
        4    1    3    3  502    0  0.98086688444E+03 -0.33460234549E+03 -0.83603224467E+03  0.13315442545E+04  0.12699999809E+01 0. -1.
       -4    1    3    3    0  502 -0.98086688444E+03  0.33460234549E+03 -0.33858107736E+02  0.10369216745E+04  0.12699999809E+01 0.  1.
</event>
<event>
 5   0  0.4408787E-06  0.2194936E+04  0.7818609E-02  0.8520539E-01
        1   -1    0    0  501    0  0.00000000000E+00  0.00000000000E+00  0.82503986114E+03  0.82503986116E+03  0.50400001928E-02 0. -1.
       -1   -1    0    0    0  501  0.00000000000E+00  0.00000000000E+00 -0.14598518061E+04  0.14598518061E+04  0.50400001928E-02 0.  1.
    10030    2    1    2    0    0  0.00000000000E+00  0.00000000000E+00 -0.63481194495E+03  0.22848916673E+04  0.21949359275E+04 0.  0.
        1    1    3    3  502    0 -0.36474208532E+03  0.30941247063E+03 -0.13456440890E+04  0.14281214514E+04  0.50400001928E-02 0.  1.
       -1    1    3    3    0  502  0.36474208532E+03 -0.30941247063E+03  0.71083214401E+03  0.85677021585E+03  0.50400001928E-02 0. -1.
</event>
<event>
 5   0  0.4408787E-06  0.2210096E+04  0.7818609E-02  0.8514238E-01
        1   -1    0    0  501    0  0.00000000000E+00  0.00000000000E+00  0.18205605932E+04  0.18205605932E+04  0.50400001928E-02 0.  1.
       -1   -1    0    0    0  501  0.00000000000E+00  0.00000000000E+00 -0.67074443791E+03  0.67074443793E+03  0.50400001928E-02 0. -1.
    10030    2    1    2    0    0  0.00000000000E+00  0.00000000000E+00  0.11498161553E+04  0.24913050311E+04  0.22100958276E+04 0.  0.
        1    1    3    3  502    0 -0.46102110878E+03  0.90357732346E+03  0.10690172788E+04  0.14736995571E+04  0.50400001928E-02 0.  1.
       -1    1    3    3    0  502  0.46102110878E+03 -0.90357732346E+03  0.80798876441E+02  0.10176054740E+04  0.50400001928E-02 0. -1.
</event>
<event>
 5   0  0.4462201E-06  0.2210049E+04  0.7818609E-02  0.8514257E-01
       -1   -1    0    0    0  501  0.00000000000E+00  0.00000000000E+00  0.40966100904E+03  0.40966100907E+03  0.50400001928E-02 0. -1.
        1   -1    0    0  501    0  0.00000000000E+00  0.00000000000E+00 -0.29807063293E+04  0.29807063293E+04  0.50400001928E-02 0.  1.
    10030    2    1    2    0    0  0.00000000000E+00  0.00000000000E+00 -0.25710453202E+04  0.33903673383E+04  0.22100490153E+04 0.  0.
        3    1    3    3  502    0  0.25365989689E+02 -0.32158526556E+03 -0.29068662511E+04  0.29247105717E+04  0.10100000352E+00 0.  1.
       -3    1    3    3    0  502 -0.25365989689E+02  0.32158526556E+03  0.33582093088E+03  0.46565676659E+03  0.10100000352E+00 0. -1.
</event>
<event>
 5   0  0.1014015E-05  0.2197788E+04  0.7818609E-02  0.8519349E-01
       -2   -1    0    0    0  501  0.00000000000E+00  0.00000000000E+00  0.90108106731E+03  0.90108106732E+03  0.25500000920E-02 0. -1.
        2   -1    0    0  501    0  0.00000000000E+00  0.00000000000E+00 -0.13401323793E+04  0.13401323793E+04  0.25500000920E-02 0.  1.
    10030    2    1    2    0    0  0.00000000000E+00  0.00000000000E+00 -0.43905131201E+03  0.22412134466E+04  0.21977879012E+04 0.  0.
        1    1    3    3  502    0  0.61669962714E+03  0.86910842141E+03  0.53914313082E+02  0.10670401265E+04  0.50400001928E-02 0.  1.
       -1    1    3    3    0  502 -0.61669962714E+03 -0.86910842141E+03 -0.49296562509E+03  0.11741733202E+04  0.50400001928E-02 0. -1.
</event>
<event>
 5   0  0.3546750E-06  0.2200557E+04  0.7818609E-02  0.8518197E-01
       -3   -1    0    0    0  501  0.00000000000E+00  0.00000000000E+00  0.12042085216E+04  0.12042085259E+04  0.10100000352E+00 0.  1.
        3   -1    0    0  501    0  0.00000000000E+00  0.00000000000E+00 -0.10053177925E+04  0.10053177976E+04  0.10100000352E+00 0. -1.
    10030    2    1    2    0    0  0.00000000000E+00  0.00000000000E+00  0.19889072914E+03  0.22095263234E+04  0.22005565323E+04 0.  0.
        5    1    3    3  502    0  0.10266926630E+04 -0.24037820800E+03  0.41490855458E+03  0.11331596118E+04  0.46999998093E+01 0. -1.
       -5    1    3    3    0  502 -0.10266926630E+04  0.24037820800E+03 -0.21601782544E+03  0.10763667117E+04  0.46999998093E+01 0.  1.
</event>
<event>
 5   0  0.9963173E-06  0.2197067E+04  0.7818609E-02  0.8519650E-01
       -2   -1    0    0    0  501  0.00000000000E+00  0.00000000000E+00  0.86053854478E+03  0.86053854478E+03  0.25500000920E-02 0. -1.
        2   -1    0    0  501    0  0.00000000000E+00  0.00000000000E+00 -0.14023489914E+04  0.14023489914E+04  0.25500000920E-02 0.  1.
    10030    2    1    2    0    0  0.00000000000E+00  0.00000000000E+00 -0.54181044658E+03  0.22628875361E+04  0.21970665537E+04 0.  0.
        4    1    3    3  502    0 -0.24420955520E+02  0.68027426931E+03 -0.11589447301E+04  0.13440699256E+04  0.12699999809E+01 0.  1.
       -4    1    3    3    0  502  0.24420955520E+02 -0.68027426931E+03  0.61713428356E+03  0.91881761052E+03  0.12699999809E+01 0. -1.
</event>
<event>
 5   0  0.4309945E-06  0.2221870E+04  0.7818609E-02  0.8509380E-01
       -1   -1    0    0    0  501  0.00000000000E+00  0.00000000000E+00  0.13040417645E+04  0.13040417645E+04  0.50400001928E-02 0. -1.
        1   -1    0    0  501    0  0.00000000000E+00  0.00000000000E+00 -0.94642403145E+03  0.94642403146E+03  0.50400001928E-02 0.  1.
    10030    2    1    2    0    0  0.00000000000E+00  0.00000000000E+00  0.35761773309E+03  0.22504657960E+04  0.22218699008E+04 0.  0.
        4    1    3    3  502    0 -0.48293349533E+03 -0.91857630652E+03 -0.22273720697E+03  0.10614238871E+04  0.12699999809E+01 0.  1.
       -4    1    3    3    0  502  0.48293349533E+03  0.91857630652E+03  0.58035494006E+03  0.11890419089E+04  0.12699999809E+01 0. -1.
</event>
<event>
 5   0  0.4794967E-06  0.2199248E+04  0.7818609E-02  0.8518741E-01
       -1   -1    0    0    0  501  0.00000000000E+00  0.00000000000E+00  0.59715614497E+03  0.59715614499E+03  0.50400001928E-02 0. -1.
        1   -1    0    0  501    0  0.00000000000E+00  0.00000000000E+00 -0.20248851349E+04  0.20248851349E+04  0.50400001928E-02 0.  1.
    10030    2    1    2    0    0  0.00000000000E+00  0.00000000000E+00 -0.14277289899E+04  0.26220412799E+04  0.21992476906E+04 0.  0.
        5    1    3    3  502    0  0.83059844170E+03 -0.56406470018E+03 -0.12485004861E+04  0.16021355470E+04  0.46999998093E+01 0.  1.
       -5    1    3    3    0  502 -0.83059844170E+03  0.56406470018E+03 -0.17922850385E+03  0.10199057329E+04  0.46999998093E+01 0. -1.
</event>
<event>
 5   0  0.1014015E-05  0.2194904E+04  0.7818609E-02  0.8520552E-01
        2   -1    0    0  501    0  0.00000000000E+00  0.00000000000E+00  0.11114660648E+04  0.11114660648E+04  0.25500000920E-02 0. -1.
       -2   -1    0    0    0  501  0.00000000000E+00  0.00000000000E+00 -0.10836145837E+04  0.10836145837E+04  0.25500000920E-02 0.  1.
    10030    2    1    2    0    0  0.00000000000E+00  0.00000000000E+00  0.27851481069E+02  0.21950806485E+04  0.21949039497E+04 0.  0.
        1    1    3    3  502    0 -0.68065169203E+03  0.70924283721E+03 -0.47405688710E+03  0.10913487345E+04  0.50400001928E-02 0.  1.
       -1    1    3    3    0  502  0.68065169203E+03 -0.70924283721E+03  0.50190836817E+03  0.11037319140E+04  0.50400001928E-02 0. -1.
</event>
<event>
 5   0  0.4462201E-06  0.2215633E+04  0.7818609E-02  0.8511949E-01
        1   -1    0    0  501    0  0.00000000000E+00  0.00000000000E+00  0.13623489817E+04  0.13623489817E+04  0.50400001928E-02 0.  1.
       -1   -1    0    0    0  501  0.00000000000E+00  0.00000000000E+00 -0.90083918586E+03  0.90083918587E+03  0.50400001928E-02 0. -1.
    10030    2    1    2    0    0  0.00000000000E+00  0.00000000000E+00  0.46150979580E+03  0.22631881675E+04  0.22156329547E+04 0.  0.
        3    1    3    3  502    0  0.71620559956E+03  0.29302525020E+03 -0.57900417309E+03  0.96646784776E+03  0.10100000352E+00 0. -1.
       -3    1    3    3    0  502 -0.71620559956E+03 -0.29302525020E+03  0.10405139689E+04  0.12967203198E+04  0.10100000352E+00 0.  1.
</event>
<event>
 5   0  0.9963573E-06  0.2197255E+04  0.7818609E-02  0.8519572E-01
       -2   -1    0    0    0  501  0.00000000000E+00  0.00000000000E+00  0.70673079705E+03  0.70673079705E+03  0.25500000920E-02 0.  1.
        2   -1    0    0  501    0  0.00000000000E+00  0.00000000000E+00 -0.17078389434E+04  0.17078389434E+04  0.25500000920E-02 0. -1.
    10030    2    1    2    0    0  0.00000000000E+00  0.00000000000E+00 -0.10011081463E+04  0.24145697404E+04  0.21972549945E+04 0.  0.
        2    1    3    3  502    0  0.52528290205E+03 -0.81424266267E+03  0.68407192862E+02  0.97138704178E+03  0.25500000920E-02 0.  1.
       -2    1    3    3    0  502 -0.52528290205E+03  0.81424266267E+03 -0.10695153392E+04  0.14431826986E+04  0.25500000920E-02 0. -1.
</event>
<event>
 5   0  0.9963573E-06  0.2187624E+04  0.7818609E-02  0.8523597E-01
       -2   -1    0    0    0  501  0.00000000000E+00  0.00000000000E+00  0.15040784093E+04  0.15040784093E+04  0.25500000920E-02 0. -1.
        2   -1    0    0  501    0  0.00000000000E+00  0.00000000000E+00 -0.79545367354E+03  0.79545367354E+03  0.25500000920E-02 0.  1.
    10030    2    1    2    0    0  0.00000000000E+00  0.00000000000E+00  0.70862473574E+03  0.22995320828E+04  0.21876240042E+04 0.  0.
        2    1    3    3  502    0 -0.10184503445E+04 -0.39400411495E+03  0.42032916788E+03  0.11701098052E+04  0.25500000920E-02 0. -1.
       -2    1    3    3    0  502  0.10184503445E+04  0.39400411495E+03  0.28829556787E+03  0.11294222776E+04  0.25500000920E-02 0.  1.
</event>
<event>
 5   0  0.9963173E-06  0.2192488E+04  0.7818609E-02  0.8521561E-01
        2   -1    0    0  501    0  0.00000000000E+00  0.00000000000E+00  0.18627325336E+04  0.18627325336E+04  0.25500000920E-02 0.  1.
       -2   -1    0    0    0  501  0.00000000000E+00  0.00000000000E+00 -0.64515480868E+03  0.64515480869E+03  0.25500000920E-02 0. -1.
    10030    2    1    2    0    0  0.00000000000E+00  0.00000000000E+00  0.12175777249E+04  0.25078873423E+04  0.21924879488E+04 0.  0.
        4    1    3    3  502    0  0.77909164550E+03  0.57594148556E+03  0.22116516175E+02  0.96911461658E+03  0.12699999809E+01 0. -1.
       -4    1    3    3    0  502 -0.77909164550E+03 -0.57594148556E+03  0.11954612088E+04  0.15387727257E+04  0.12699999809E+01 0.  1.
</event>
<event>
 5   0  0.1035928E-05  0.2208340E+04  0.7818609E-02  0.8514965E-01
        2   -1    0    0  501    0  0.00000000000E+00  0.00000000000E+00  0.18052727277E+04  0.18052727277E+04  0.25500000920E-02 0.  1.
       -2   -1    0    0    0  501  0.00000000000E+00  0.00000000000E+00 -0.67535008114E+03  0.67535008115E+03  0.25500000920E-02 0. -1.
    10030    2    1    2    0    0  0.00000000000E+00  0.00000000000E+00  0.11299226466E+04  0.24806228089E+04  0.22083397231E+04 0.  0.
        3    1    3    3  502    0  0.94449733066E+03  0.21841545176E+03  0.11587285909E+04  0.15107721452E+04  0.10100000352E+00 0.  1.
       -3    1    3    3    0  502 -0.94449733066E+03 -0.21841545176E+03 -0.28805944302E+02  0.96985066367E+03  0.10100000352E+00 0. -1.
</event>
<event>
 5   0  0.1014015E-05  0.2196899E+04  0.7818609E-02  0.8519720E-01
        2   -1    0    0  501    0  0.00000000000E+00  0.00000000000E+00  0.10178448461E+04  0.10178448461E+04  0.25500000920E-02 0. -1.
       -2   -1    0    0    0  501  0.00000000000E+00  0.00000000000E+00 -0.11854370145E+04  0.11854370145E+04  0.25500000920E-02 0.  1.
    10030    2    1    2    0    0  0.00000000000E+00  0.00000000000E+00 -0.16759216833E+03  0.22032818606E+04  0.21968986828E+04 0.  0.
        1    1    3    3  502    0 -0.49341805007E+03  0.52281731106E+03 -0.91674620331E+03  0.11649991048E+04  0.50400001928E-02 0.  1.
       -1    1    3    3    0  502  0.49341805007E+03 -0.52281731106E+03  0.74915403498E+03  0.10382827558E+04  0.50400001928E-02 0. -1.
</event>
<event>
 5   0  0.1015876E-05  0.2199679E+04  0.7818609E-02  0.8518562E-01
       -2   -1    0    0    0  501  0.00000000000E+00  0.00000000000E+00  0.58282899596E+03  0.58282899596E+03  0.25500000920E-02 0.  1.
        2   -1    0    0  501    0  0.00000000000E+00  0.00000000000E+00 -0.20754741176E+04  0.20754741176E+04  0.25500000920E-02 0. -1.
    10030    2    1    2    0    0  0.00000000000E+00  0.00000000000E+00 -0.14926451216E+04  0.26583031136E+04  0.21996786093E+04 0.  0.
        5    1    3    3  502    0 -0.24148261395E+03 -0.85037980063E+03 -0.15370935394E+04  0.17731718182E+04  0.46999998093E+01 0. -1.
       -5    1    3    3    0  502  0.24148261395E+03  0.85037980063E+03  0.44448417728E+02  0.88513129534E+03  0.46999998093E+01 0.  1.
</event>
<event>
 5   0  0.4309945E-06  0.2194826E+04  0.7818609E-02  0.8520585E-01
        1   -1    0    0  501    0  0.00000000000E+00  0.00000000000E+00  0.16505481286E+04  0.16505481286E+04  0.50400001928E-02 0. -1.
       -1   -1    0    0    0  501  0.00000000000E+00  0.00000000000E+00 -0.72964560865E+03  0.72964560866E+03  0.50400001928E-02 0.  1.
    10030    2    1    2    0    0  0.00000000000E+00  0.00000000000E+00  0.92090251996E+03  0.23801937373E+04  0.21948259101E+04 0.  0.
        4    1    3    3  502    0  0.41220760250E+03 -0.19790575066E+03 -0.62141692406E+03  0.77151953968E+03  0.12699999809E+01 0.  1.
       -4    1    3    3    0  502 -0.41220760250E+03  0.19790575066E+03  0.15423194440E+04  0.16086741976E+04  0.12699999809E+01 0. -1.
</event>
<event>
 5   0  0.4794967E-06  0.2200123E+04  0.7818609E-02  0.8518377E-01
        1   -1    0    0  501    0  0.00000000000E+00  0.00000000000E+00  0.13439184983E+04  0.13439184983E+04  0.50400001928E-02 0. -1.
       -1   -1    0    0    0  501  0.00000000000E+00  0.00000000000E+00 -0.90045265941E+03  0.90045265942E+03  0.50400001928E-02 0.  1.
    10030    2    1    2    0    0  0.00000000000E+00  0.00000000000E+00  0.44346583893E+03  0.22443711578E+04  0.22001227110E+04 0.  0.
        5    1    3    3  502    0 -0.15025234214E+03 -0.10062436538E+04 -0.20502368205E+03  0.10378626390E+04  0.46999998093E+01 0.  1.
       -5    1    3    3    0  502  0.15025234214E+03  0.10062436538E+04  0.64848952098E+03  0.12065085188E+04  0.46999998093E+01 0. -1.
</event>
<event>
 5   0  0.9963173E-06  0.2205098E+04  0.7818609E-02  0.8516309E-01
        2   -1    0    0  501    0  0.00000000000E+00  0.00000000000E+00  0.30155519966E+04  0.30155519966E+04  0.25500000920E-02 0. -1.
       -2   -1    0    0    0  501  0.00000000000E+00  0.00000000000E+00 -0.40311485820E+03  0.40311485821E+03  0.25500000920E-02 0.  1.
    10030    2    1    2    0    0  0.00000000000E+00  0.00000000000E+00  0.26124371384E+04  0.34186668549E+04  0.22050975630E+04 0.  0.
        4    1    3    3  502    0 -0.32278060651E+03 -0.58602750842E+03 -0.52434682905E+02  0.67109356235E+03  0.12699999809E+01 0.  1.
       -4    1    3    3    0  502  0.32278060651E+03  0.58602750842E+03  0.26648718213E+04  0.27475732925E+04  0.12699999809E+01 0. -1.
</event>
<event>
 5   0  0.9963573E-06  0.2195364E+04  0.7818609E-02  0.8520360E-01
        2   -1    0    0  501    0  0.00000000000E+00  0.00000000000E+00  0.14758806567E+04  0.14758806567E+04  0.25500000920E-02 0.  1.
       -2   -1    0    0    0  501  0.00000000000E+00  0.00000000000E+00 -0.81639790710E+03  0.81639790711E+03  0.25500000920E-02 0. -1.
    10030    2    1    2    0    0  0.00000000000E+00  0.00000000000E+00  0.65948274962E+03  0.22922785638E+04  0.21953640967E+04 0.  0.
        2    1    3    3  502    0  0.73387631922E+03  0.67468882929E+03 -0.15002755382E+03  0.10081109737E+04  0.25500000920E-02 0. -1.
       -2    1    3    3    0  502 -0.73387631922E+03 -0.67468882929E+03  0.80951030344E+03  0.12841675902E+04  0.25500000920E-02 0.  1.
</event>
<event>
 5   0  0.4794967E-06  0.2201754E+04  0.7818609E-02  0.8517699E-01
       -1   -1    0    0    0  501  0.00000000000E+00  0.00000000000E+00  0.12052193914E+04  0.12052193914E+04  0.50400001928E-02 0. -1.
        1   -1    0    0  501    0  0.00000000000E+00  0.00000000000E+00 -0.10055678107E+04  0.10055678107E+04  0.50400001928E-02 0.  1.
    10030    2    1    2    0    0  0.00000000000E+00  0.00000000000E+00  0.19965158073E+03  0.22107872021E+04  0.22017536873E+04 0.  0.
        5    1    3    3  502    0  0.32814545443E+03 -0.87828597113E+02  0.11512679473E+04  0.12003471490E+04  0.46999998093E+01 0. -1.
       -5    1    3    3    0  502 -0.32814545443E+03  0.87828597113E+02 -0.95161636658E+03  0.10104400531E+04  0.46999998093E+01 0.  1.
</event>
<event>
 5   0  0.4309945E-06  0.2198992E+04  0.7818609E-02  0.8518848E-01
       -1   -1    0    0    0  501  0.00000000000E+00  0.00000000000E+00  0.98115007035E+03  0.98115007036E+03  0.50400001928E-02 0.  1.
        1   -1    0    0  501    0  0.00000000000E+00  0.00000000000E+00 -0.12321173277E+04  0.12321173277E+04  0.50400001928E-02 0. -1.
    10030    2    1    2    0    0  0.00000000000E+00  0.00000000000E+00 -0.25096725731E+03  0.22132673980E+04  0.21989924991E+04 0.  0.
        4    1    3    3  502    0 -0.41554148566E+03  0.33396931434E+03 -0.10933288469E+04  0.12163797966E+04  0.12699999809E+01 0. -1.
       -4    1    3    3    0  502  0.41554148566E+03 -0.33396931434E+03  0.84236158963E+03  0.99688760139E+03  0.12699999809E+01 0.  1.
</event>
<event>
 5   0  0.1015876E-05  0.2198441E+04  0.7818609E-02  0.8519077E-01
        2   -1    0    0  501    0  0.00000000000E+00  0.00000000000E+00  0.12206879800E+04  0.12206879800E+04  0.25500000920E-02 0. -1.
       -2   -1    0    0    0  501  0.00000000000E+00  0.00000000000E+00 -0.98983995219E+03  0.98983995219E+03  0.25500000920E-02 0.  1.
    10030    2    1    2    0    0  0.00000000000E+00  0.00000000000E+00  0.23084802782E+03  0.22105279322E+04  0.21984410220E+04 0.  0.
        5    1    3    3  502    0 -0.27901306884E+03  0.18220755508E+03 -0.93781564933E+03  0.99527291123E+03  0.46999998093E+01 0.  1.
       -5    1    3    3    0  502  0.27901306884E+03 -0.18220755508E+03  0.11686636771E+04  0.12152550210E+04  0.46999998093E+01 0. -1.
</event>
<event>
 5   0  0.4630615E-06  0.2198248E+04  0.7818609E-02  0.8519158E-01
        1   -1    0    0  501    0  0.00000000000E+00  0.00000000000E+00  0.28866590197E+04  0.28866590197E+04  0.50400001928E-02 0.  1.
       -1   -1    0    0    0  501  0.00000000000E+00  0.00000000000E+00 -0.41850247879E+03  0.41850247882E+03  0.50400001928E-02 0. -1.
    10030    2    1    2    0    0  0.00000000000E+00  0.00000000000E+00  0.24681565409E+04  0.33051614985E+04  0.21982483529E+04 0.  0.
        2    1    3    3  502    0 -0.61138692167E+03 -0.63668042884E+03  0.22187763122E+04  0.23879121132E+04  0.25500000920E-02 0.  1.
       -2    1    3    3    0  502  0.61138692167E+03  0.63668042884E+03  0.24938022865E+03  0.91724938534E+03  0.25500000920E-02 0. -1.
</event>
<event>
 5   0  0.4462201E-06  0.2200384E+04  0.7818609E-02  0.8518268E-01
       -1   -1    0    0    0  501  0.00000000000E+00  0.00000000000E+00  0.12531597406E+04  0.12531597406E+04  0.50400001928E-02 0. -1.
        1   -1    0    0  501    0  0.00000000000E+00  0.00000000000E+00 -0.96589618039E+03  0.96589618040E+03  0.50400001928E-02 0.  1.
    10030    2    1    2    0    0  0.00000000000E+00  0.00000000000E+00  0.28726356022E+03  0.22190559210E+04  0.22003837910E+04 0.  0.
        3    1    3    3  502    0 -0.30910159965E+03  0.86944869250E+03  0.74782959065E+03  0.11877432107E+04  0.10100000352E+00 0. -1.
       -3    1    3    3    0  502  0.30910159965E+03 -0.86944869250E+03 -0.46056603043E+03  0.10313127103E+04  0.10100000352E+00 0.  1.
</event>
<event>
 5   0  0.4408787E-06  0.2201794E+04  0.7818609E-02  0.8517682E-01
       -1   -1    0    0    0  501  0.00000000000E+00  0.00000000000E+00  0.64796526618E+03  0.64796526620E+03  0.50400001928E-02 0. -1.
        1   -1    0    0  501    0  0.00000000000E+00  0.00000000000E+00 -0.18704301470E+04  0.18704301470E+04  0.50400001928E-02 0.  1.
    10030    2    1    2    0    0  0.00000000000E+00  0.00000000000E+00 -0.12224648808E+04  0.25183954132E+04  0.22017936035E+04 0.  0.
        1    1    3    3  502    0 -0.95791102049E+03  0.46677631904E+03 -0.29487478228E+03  0.11056332088E+04  0.50400001928E-02 0. -1.
       -1    1    3    3    0  502  0.95791102049E+03 -0.46677631904E+03 -0.92759009849E+03  0.14127622043E+04  0.50400001928E-02 0.  1.
</event>
<event>
 5   0  0.1014015E-05  0.2202387E+04  0.7818609E-02  0.8517435E-01
       -2   -1    0    0    0  501  0.00000000000E+00  0.00000000000E+00  0.15433785579E+04  0.15433785579E+04  0.25500000920E-02 0.  1.
        2   -1    0    0  501    0  0.00000000000E+00  0.00000000000E+00 -0.78569641349E+03  0.78569641350E+03  0.25500000920E-02 0. -1.
    10030    2    1    2    0    0  0.00000000000E+00  0.00000000000E+00  0.75768214442E+03  0.23290749714E+04  0.22023868848E+04 0.  0.
        1    1    3    3  502    0  0.73710261384E+03  0.43989082065E+03  0.11083042144E+04  0.14018425122E+04  0.50400001928E-02 0. -1.
       -1    1    3    3    0  502 -0.73710261384E+03 -0.43989082065E+03 -0.35062206996E+03  0.92723245920E+03  0.50400001928E-02 0.  1.
</event>
<event>
 5   0  0.1035928E-05  0.2188126E+04  0.7818609E-02  0.8523387E-01
        2   -1    0    0  501    0  0.00000000000E+00  0.00000000000E+00  0.15795866515E+04  0.15795866515E+04  0.25500000920E-02 0.  1.
       -2   -1    0    0    0  501  0.00000000000E+00  0.00000000000E+00 -0.75777649377E+03  0.75777649377E+03  0.25500000920E-02 0. -1.
    10030    2    1    2    0    0  0.00000000000E+00  0.00000000000E+00  0.82181015770E+03  0.23373631452E+04  0.21881258048E+04 0.  0.
        3    1    3    3  502    0  0.27746426560E+03 -0.10581587668E+04  0.39280132648E+03  0.11623163454E+04  0.10100000352E+00 0. -1.
       -3    1    3    3    0  502 -0.27746426560E+03  0.10581587668E+04  0.42900883122E+03  0.11750467999E+04  0.10100000352E+00 0.  1.
</event>
<event>
 5   0  0.1015876E-05  0.2199975E+04  0.7818609E-02  0.8518439E-01
       -2   -1    0    0    0  501  0.00000000000E+00  0.00000000000E+00  0.87659358788E+03  0.87659358788E+03  0.25500000920E-02 0. -1.
        2   -1    0    0  501    0  0.00000000000E+00  0.00000000000E+00 -0.13803118667E+04  0.13803118667E+04  0.25500000920E-02 0.  1.
    10030    2    1    2    0    0  0.00000000000E+00  0.00000000000E+00 -0.50371827887E+03  0.22569054546E+04  0.21999750286E+04 0.  0.
        5    1    3    3  502    0  0.87406151598E+03  0.32057792017E+03 -0.85284903421E+03  0.12625875422E+04  0.46999998093E+01 0. -1.
       -5    1    3    3    0  502 -0.87406151598E+03 -0.32057792017E+03  0.34913075534E+03  0.99431791241E+03  0.46999998093E+01 0.  1.
</event>
<event>
 5   0  0.9963173E-06  0.2197834E+04  0.7818609E-02  0.8519330E-01
        2   -1    0    0  501    0  0.00000000000E+00  0.00000000000E+00  0.12748986504E+04  0.12748986504E+04  0.25500000920E-02 0.  1.
       -2   -1    0    0    0  501  0.00000000000E+00  0.00000000000E+00 -0.94722732092E+03  0.94722732093E+03  0.25500000920E-02 0. -1.
    10030    2    1    2    0    0  0.00000000000E+00  0.00000000000E+00  0.32767132951E+03  0.22221259714E+04  0.21978342368E+04 0.  0.
        4    1    3    3  502    0 -0.17588730714E+03 -0.47245782179E+02 -0.93186208268E+03  0.94949305568E+03  0.12699999809E+01 0. -1.
       -4    1    3    3    0  502  0.17588730714E+03  0.47245782179E+02  0.12595334122E+04  0.12726329157E+04  0.12699999809E+01 0.  1.
</event>
<event>
 5   0  0.1014015E-05  0.2196904E+04  0.7818609E-02  0.8519718E-01
        2   -1    0    0  501    0  0.00000000000E+00  0.00000000000E+00  0.14514168552E+04  0.14514168553E+04  0.25500000920E-02 0. -1.
       -2   -1    0    0    0  501  0.00000000000E+00  0.00000000000E+00 -0.83132375273E+03  0.83132375273E+03  0.25500000920E-02 0.  1.
    10030    2    1    2    0    0  0.00000000000E+00  0.00000000000E+00  0.62009310252E+03  0.22827406080E+04  0.21969044648E+04 0.  0.
        1    1    3    3  502    0  0.44706049577E+03  0.29817145032E+03 -0.68541856510E+03  0.87095804151E+03  0.50400001928E-02 0.  1.
       -1    1    3    3    0  502 -0.44706049577E+03 -0.29817145032E+03  0.13055116676E+04  0.14117825665E+04  0.50400001928E-02 0. -1.
</event>
<event>
 5   0  0.4630615E-06  0.2205588E+04  0.7818609E-02  0.8516106E-01
        1   -1    0    0  501    0  0.00000000000E+00  0.00000000000E+00  0.17149805957E+04  0.17149805957E+04  0.50400001928E-02 0. -1.
       -1   -1    0    0    0  501  0.00000000000E+00  0.00000000000E+00 -0.70913606440E+03  0.70913606442E+03  0.50400001928E-02 0.  1.
    10030    2    1    2    0    0  0.00000000000E+00  0.00000000000E+00  0.10058445313E+04  0.24241166601E+04  0.22055879853E+04 0.  0.
        2    1    3    3  502    0 -0.28403487854E+03 -0.38677276906E+03  0.15942178334E+04  0.16648722135E+04  0.25500000920E-02 0. -1.
       -2    1    3    3    0  502  0.28403487854E+03  0.38677276906E+03 -0.58837330206E+03  0.75924444661E+03  0.25500000920E-02 0.  1.
</event>
<event>
 5   0  0.4462201E-06  0.2207111E+04  0.7818609E-02  0.8515474E-01
        1   -1    0    0  501    0  0.00000000000E+00  0.00000000000E+00  0.96112862397E+03  0.96112862398E+03  0.50400001928E-02 0. -1.
       -1   -1    0    0    0  501  0.00000000000E+00  0.00000000000E+00 -0.12670884048E+04  0.12670884048E+04  0.50400001928E-02 0.  1.
    10030    2    1    2    0    0  0.00000000000E+00  0.00000000000E+00 -0.30595978079E+03  0.22282170288E+04  0.22071111752E+04 0.  0.
        3    1    3    3  502    0  0.37939383954E+03  0.63318655063E+03 -0.98117210107E+03  0.12278288136E+04  0.10100000352E+00 0.  1.
       -3    1    3    3    0  502 -0.37939383954E+03 -0.63318655063E+03  0.67521232028E+03  0.10003882152E+04  0.10100000352E+00 0. -1.
</event>
<event>
 5   0  0.1035928E-05  0.2175779E+04  0.7818609E-02  0.8528577E-01
       -2   -1    0    0    0  501  0.00000000000E+00  0.00000000000E+00  0.59523805846E+03  0.59523805847E+03  0.25500000920E-02 0. -1.
        2   -1    0    0  501    0  0.00000000000E+00  0.00000000000E+00 -0.19882866369E+04  0.19882866369E+04  0.25500000920E-02 0.  1.
    10030    2    1    2    0    0  0.00000000000E+00  0.00000000000E+00 -0.13930485785E+04  0.25835246954E+04  0.21757792879E+04 0.  0.
        3    1    3    3  502    0  0.16613932766E+03 -0.62494202644E+03 -0.17353137961E+04  0.18518825000E+04  0.10100000352E+00 0.  1.
       -3    1    3    3    0  502 -0.16613932766E+03  0.62494202644E+03  0.34226521768E+03  0.73164219537E+03  0.10100000352E+00 0. -1.
</event>
<event>
 5   0  0.1035928E-05  0.2202419E+04  0.7818609E-02  0.8517422E-01
        2   -1    0    0  501    0  0.00000000000E+00  0.00000000000E+00  0.23220560203E+04  0.23220560203E+04  0.25500000920E-02 0. -1.
       -2   -1    0    0    0  501  0.00000000000E+00  0.00000000000E+00 -0.52223662656E+03  0.52223662656E+03  0.25500000920E-02 0.  1.
    10030    2    1    2    0    0  0.00000000000E+00  0.00000000000E+00  0.17998193938E+04  0.28442926469E+04  0.22024193086E+04 0.  0.
        3    1    3    3  502    0 -0.58510738834E+03 -0.53660033765E+03  0.18854503840E+04  0.20457794942E+04  0.10100000352E+00 0. -1.
       -3    1    3    3    0  502  0.58510738834E+03  0.53660033765E+03 -0.85630990255E+02  0.79851315264E+03  0.10100000352E+00 0.  1.
</event>
<event>
 5   0  0.4630615E-06  0.2191728E+04  0.7818609E-02  0.8521879E-01
       -1   -1    0    0    0  501  0.00000000000E+00  0.00000000000E+00  0.10657445349E+04  0.10657445350E+04  0.50400001928E-02 0. -1.
        1   -1    0    0  501    0  0.00000000000E+00  0.00000000000E+00 -0.11268348006E+04  0.11268348006E+04  0.50400001928E-02 0.  1.
    10030    2    1    2    0    0  0.00000000000E+00  0.00000000000E+00 -0.61090265662E+02  0.21925793356E+04  0.21917281132E+04 0.  0.
        2    1    3    3  502    0  0.38729708766E+03 -0.98877596956E+03  0.24019086439E+03  0.10887463449E+04  0.25500000920E-02 0.  1.
       -2    1    3    3    0  502 -0.38729708766E+03  0.98877596956E+03 -0.30128113005E+03  0.11038329907E+04  0.25500000920E-02 0. -1.
</event>
<event>
 5   0  0.4408787E-06  0.2201567E+04  0.7818609E-02  0.8517776E-01
        1   -1    0    0  501    0  0.00000000000E+00  0.00000000000E+00  0.12829183373E+04  0.12829183373E+04  0.50400001928E-02 0.  1.
       -1   -1    0    0    0  501  0.00000000000E+00  0.00000000000E+00 -0.94450635293E+03  0.94450635294E+03  0.50400001928E-02 0. -1.
    10030    2    1    2    0    0  0.00000000000E+00  0.00000000000E+00  0.33841198436E+03  0.22274246902E+04  0.22015671872E+04 0.  0.
        1    1    3    3  502    0  0.42242430919E+03  0.10159813192E+04  0.13620104649E+03  0.11086979133E+04  0.50400001928E-02 0.  1.
       -1    1    3    3    0  502 -0.42242430919E+03 -0.10159813192E+04  0.20221093787E+03  0.11187267769E+04  0.50400001928E-02 0. -1.
</event>
<event>
 5   0  0.1015876E-05  0.2200714E+04  0.7818609E-02  0.8518131E-01
       -2   -1    0    0    0  501  0.00000000000E+00  0.00000000000E+00  0.57659421521E+03  0.57659421522E+03  0.25500000920E-02 0. -1.
        2   -1    0    0  501    0  0.00000000000E+00  0.00000000000E+00 -0.20998909686E+04  0.20998909686E+04  0.25500000920E-02 0.  1.
    10030    2    1    2    0    0  0.00000000000E+00  0.00000000000E+00 -0.15232967534E+04  0.26764851838E+04  0.22007135071E+04 0.  0.
        5    1    3    3  502    0  0.70965081860E+03  0.53473294642E+03 -0.15509726507E+04  0.17874791919E+04  0.46999998093E+01 0.  1.
       -5    1    3    3    0  502 -0.70965081860E+03 -0.53473294642E+03  0.27675897319E+02  0.88900599189E+03  0.46999998093E+01 0. -1.
</event>
<event>
 5   0  0.4309945E-06  0.2202170E+04  0.7818609E-02  0.8517525E-01
        1   -1    0    0  501    0  0.00000000000E+00  0.00000000000E+00  0.17834217869E+04  0.17834217869E+04  0.50400001928E-02 0. -1.
       -1   -1    0    0    0  501  0.00000000000E+00  0.00000000000E+00 -0.67981036150E+03  0.67981036152E+03  0.50400001928E-02 0.  1.
    10030    2    1    2    0    0  0.00000000000E+00  0.00000000000E+00  0.11036114254E+04  0.24632321484E+04  0.22021703928E+04 0.  0.
        4    1    3    3  502    0 -0.35944897691E+03 -0.36980632975E+03  0.16399786439E+04  0.17191544008E+04  0.12699999809E+01 0. -1.
       -4    1    3    3    0  502  0.35944897691E+03  0.36980632975E+03 -0.53636721848E+03  0.74407774761E+03  0.12699999809E+01 0.  1.
</event>
<event>
 5   0  0.4408787E-06  0.2152939E+04  0.7818609E-02  0.8538275E-01
        1   -1    0    0  501    0  0.00000000000E+00  0.00000000000E+00  0.81380804296E+03  0.81380804297E+03  0.50400001928E-02 0. -1.
       -1   -1    0    0    0  501  0.00000000000E+00  0.00000000000E+00 -0.14239071638E+04  0.14239071638E+04  0.50400001928E-02 0.  1.
    10030    2    1    2    0    0  0.00000000000E+00  0.00000000000E+00 -0.61009912079E+03  0.22377152067E+04  0.21529394811E+04 0.  0.
        1    1    3    3  502    0 -0.30190321927E+03 -0.15233215355E+03 -0.13672684101E+04  0.14084649602E+04  0.50400001928E-02 0.  1.
       -1    1    3    3    0  502  0.30190321927E+03  0.15233215355E+03  0.75716928927E+03  0.82925024658E+03  0.50400001928E-02 0. -1.
</event>
<event>
 5   0  0.9963173E-06  0.2198658E+04  0.7818609E-02  0.8518987E-01
        2   -1    0    0  501    0  0.00000000000E+00  0.00000000000E+00  0.17395889906E+04  0.17395889906E+04  0.25500000920E-02 0.  1.
       -2   -1    0    0    0  501  0.00000000000E+00  0.00000000000E+00 -0.69471833149E+03  0.69471833150E+03  0.25500000920E-02 0. -1.
    10030    2    1    2    0    0  0.00000000000E+00  0.00000000000E+00  0.10448706591E+04  0.24343073221E+04  0.21986581008E+04 0.  0.
        4    1    3    3  502    0 -0.49200883605E+03 -0.10945385751E+03 -0.55924473364E+03  0.75286727029E+03  0.12699999809E+01 0. -1.
       -4    1    3    3    0  502  0.49200883605E+03  0.10945385751E+03  0.16041153928E+04  0.16814400518E+04  0.12699999809E+01 0.  1.
</event>
<event>
 5   0  0.4408787E-06  0.2214466E+04  0.7818609E-02  0.8512431E-01
        1   -1    0    0  501    0  0.00000000000E+00  0.00000000000E+00  0.13303872786E+04  0.13303872786E+04  0.50400001928E-02 0. -1.
       -1   -1    0    0    0  501  0.00000000000E+00  0.00000000000E+00 -0.92150958837E+03  0.92150958838E+03  0.50400001928E-02 0.  1.
    10030    2    1    2    0    0  0.00000000000E+00  0.00000000000E+00  0.40887769027E+03  0.22518968670E+04  0.22144657446E+04 0.  0.
        1    1    3    3  502    0 -0.73479076303E+03 -0.77030474509E+03  0.51401486513E+03  0.11821582582E+04  0.50400001928E-02 0.  1.
       -1    1    3    3    0  502  0.73479076303E+03  0.77030474509E+03 -0.10513717486E+03  0.10697386089E+04  0.50400001928E-02 0. -1.
</event>
<event>
 5   0  0.4408787E-06  0.2206859E+04  0.7818609E-02  0.8515579E-01
        1   -1    0    0  501    0  0.00000000000E+00  0.00000000000E+00  0.75265688106E+03  0.75265688107E+03  0.50400001928E-02 0.  1.
       -1   -1    0    0    0  501  0.00000000000E+00  0.00000000000E+00 -0.16176784491E+04  0.16176784491E+04  0.50400001928E-02 0. -1.
    10030    2    1    2    0    0  0.00000000000E+00  0.00000000000E+00 -0.86502156804E+03  0.23703353302E+04  0.22068591401E+04 0.  0.
        1    1    3    3  502    0 -0.99626899081E+03 -0.43454251408E+03 -0.63680485245E+03  0.12597220006E+04  0.50400001928E-02 0.  1.
       -1    1    3    3    0  502  0.99626899081E+03  0.43454251408E+03 -0.22821671559E+03  0.11106133296E+04  0.50400001928E-02 0. -1.
</event>
<event>
 5   0  0.4408787E-06  0.2199928E+04  0.7818609E-02  0.8518458E-01
        1   -1    0    0  501    0  0.00000000000E+00  0.00000000000E+00  0.16535368128E+04  0.16535368128E+04  0.50400001928E-02 0. -1.
       -1   -1    0    0    0  501  0.00000000000E+00  0.00000000000E+00 -0.73171708441E+03  0.73171708442E+03  0.50400001928E-02 0.  1.
    10030    2    1    2    0    0  0.00000000000E+00  0.00000000000E+00  0.92181972838E+03  0.23852538972E+04  0.21999283040E+04 0.  0.
        1    1    3    3  502    0  0.15001474719E+03 -0.10862257623E+04  0.36682227084E+03  0.11562652850E+04  0.50400001928E-02 0.  1.
       -1    1    3    3    0  502 -0.15001474719E+03  0.10862257623E+04  0.55499745754E+03  0.12289886122E+04  0.50400001928E-02 0. -1.
</event>
<event>
 5   0  0.4794967E-06  0.2199805E+04  0.7818609E-02  0.8518509E-01
        1   -1    0    0  501    0  0.00000000000E+00  0.00000000000E+00  0.97534821439E+03  0.97534821441E+03  0.50400001928E-02 0. -1.
       -1   -1    0    0    0  501  0.00000000000E+00  0.00000000000E+00 -0.12403631351E+04  0.12403631352E+04  0.50400001928E-02 0.  1.
    10030    2    1    2    0    0  0.00000000000E+00  0.00000000000E+00 -0.26501492075E+03  0.22157113496E+04  0.21998054178E+04 0.  0.
        5    1    3    3  502    0  0.57727244984E+03  0.60393614607E+03  0.58805431336E+03  0.10216713343E+04  0.46999998093E+01 0. -1.
       -5    1    3    3    0  502 -0.57727244984E+03 -0.60393614607E+03 -0.85306923410E+03  0.11940400153E+04  0.46999998093E+01 0.  1.
</event>
<event>
 5   0  0.4794967E-06  0.2198397E+04  0.7818609E-02  0.8519095E-01
       -1   -1    0    0    0  501  0.00000000000E+00  0.00000000000E+00  0.93084861213E+03  0.93084861215E+03  0.50400001928E-02 0.  1.
        1   -1    0    0  501    0  0.00000000000E+00  0.00000000000E+00 -0.12979960812E+04  0.12979960812E+04  0.50400001928E-02 0. -1.
    10030    2    1    2    0    0  0.00000000000E+00  0.00000000000E+00 -0.36714746907E+03  0.22288446934E+04  0.21983974625E+04 0.  0.
        5    1    3    3  502    0  0.10450237876E+04 -0.21773040496E+03  0.82229969974E+02  0.10706377090E+04  0.46999998093E+01 0.  1.
       -5    1    3    3    0  502 -0.10450237876E+04  0.21773040496E+03 -0.44937743904E+03  0.11582069844E+04  0.46999998093E+01 0. -1.
</event>
<event>
 5   0  0.4630615E-06  0.2201586E+04  0.7818609E-02  0.8517768E-01
       -1   -1    0    0    0  501  0.00000000000E+00  0.00000000000E+00  0.61225346571E+03  0.61225346573E+03  0.50400001928E-02 0. -1.
        1   -1    0    0  501    0  0.00000000000E+00  0.00000000000E+00 -0.19791553762E+04  0.19791553762E+04  0.50400001928E-02 0.  1.
    10030    2    1    2    0    0  0.00000000000E+00  0.00000000000E+00 -0.13669019105E+04  0.25914088420E+04  0.22015855544E+04 0.  0.
        2    1    3    3  502    0  0.51391730221E+03  0.96709833567E+03 -0.55261897827E+03  0.12266938981E+04  0.25500000920E-02 0. -1.
       -2    1    3    3    0  502 -0.51391730221E+03 -0.96709833567E+03 -0.81428293224E+03  0.13647149439E+04  0.25500000920E-02 0.  1.
</event>
<event>
 5   0  0.4630615E-06  0.2245346E+04  0.7818609E-02  0.8499788E-01
       -1   -1    0    0    0  501  0.00000000000E+00  0.00000000000E+00  0.12888903690E+04  0.12888903690E+04  0.50400001928E-02 0.  1.
        1   -1    0    0  501    0  0.00000000000E+00  0.00000000000E+00 -0.97789125053E+03  0.97789125055E+03  0.50400001928E-02 0. -1.
    10030    2    1    2    0    0  0.00000000000E+00  0.00000000000E+00  0.31099911846E+03  0.22667816196E+04  0.22453459553E+04 0.  0.
        2    1    3    3  502    0 -0.22518613626E+03 -0.57219593806E+03 -0.79276397645E+03  0.10032904414E+04  0.25500000920E-02 0. -1.
       -2    1    3    3    0  502  0.22518613626E+03  0.57219593806E+03  0.11037630949E+04  0.12634911781E+04  0.25500000920E-02 0.  1.
</event>
<event>
 5   0  0.4630615E-06  0.2199656E+04  0.7818609E-02  0.8518571E-01
        1   -1    0    0  501    0  0.00000000000E+00  0.00000000000E+00  0.12661049376E+04  0.12661049376E+04  0.50400001928E-02 0.  1.
       -1   -1    0    0    0  501  0.00000000000E+00  0.00000000000E+00 -0.95538844564E+03  0.95538844565E+03  0.50400001928E-02 0. -1.
    10030    2    1    2    0    0  0.00000000000E+00  0.00000000000E+00  0.31071649194E+03  0.22214933832E+04  0.21996563626E+04 0.  0.
        2    1    3    3  502    0  0.40444752755E+03 -0.95993359885E+03 -0.20109280589E+03  0.10608904907E+04  0.25500000920E-02 0. -1.
       -2    1    3    3    0  502 -0.40444752755E+03  0.95993359885E+03  0.51180929783E+03  0.11606028925E+04  0.25500000920E-02 0.  1.
</event>
<event>
 5   0  0.1015876E-05  0.2200803E+04  0.7818609E-02  0.8518094E-01
        2   -1    0    0  501    0  0.00000000000E+00  0.00000000000E+00  0.10594962199E+04  0.10594962199E+04  0.25500000920E-02 0. -1.
       -2   -1    0    0    0  501  0.00000000000E+00  0.00000000000E+00 -0.11428861453E+04  0.11428861453E+04  0.25500000920E-02 0.  1.
    10030    2    1    2    0    0  0.00000000000E+00  0.00000000000E+00 -0.83389925372E+02  0.22023823652E+04  0.22008030814E+04 0.  0.
        5    1    3    3  502    0  0.23616604155E+03  0.10596636114E+04 -0.22126757204E+03  0.11079904318E+04  0.46999998093E+01 0. -1.
       -5    1    3    3    0  502 -0.23616604155E+03 -0.10596636114E+04  0.13787764667E+03  0.10943919334E+04  0.46999998093E+01 0.  1.
</event>
<event>
 5   0  0.4408787E-06  0.2195476E+04  0.7818609E-02  0.8520314E-01
        1   -1    0    0  501    0  0.00000000000E+00  0.00000000000E+00  0.18356903507E+04  0.18356903507E+04  0.50400001928E-02 0. -1.
       -1   -1    0    0    0  501  0.00000000000E+00  0.00000000000E+00 -0.65644432621E+03  0.65644432623E+03  0.50400001928E-02 0.  1.
    10030    2    1    2    0    0  0.00000000000E+00  0.00000000000E+00  0.11792460245E+04  0.24921346769E+04  0.21954758167E+04 0.  0.
        1    1    3    3  502    0  0.30171525009E+03 -0.54762540166E+03  0.16138176227E+04  0.17307030341E+04  0.50400001928E-02 0. -1.
       -1    1    3    3    0  502 -0.30171525009E+03  0.54762540166E+03 -0.43457159826E+03  0.76143164285E+03  0.50400001928E-02 0.  1.
</event>
<event>
 5   0  0.3546750E-06  0.2200762E+04  0.7818609E-02  0.8518111E-01
        3   -1    0    0  501    0  0.00000000000E+00  0.00000000000E+00  0.83429947278E+03  0.83429947890E+03  0.10100000352E+00 0. -1.
       -3   -1    0    0    0  501  0.00000000000E+00  0.00000000000E+00 -0.14513239437E+04  0.14513239472E+04  0.10100000352E+00 0.  1.
    10030    2    1    2    0    0  0.00000000000E+00  0.00000000000E+00 -0.61702447090E+03  0.22856234261E+04  0.22007624243E+04 0.  0.
        4    1    3    3  502    0 -0.22749014349E+03  0.93229217981E+03 -0.86771350860E+03  0.12937730944E+04  0.12699999809E+01 0.  1.
       -4    1    3    3    0  502  0.22749014349E+03 -0.93229217981E+03  0.25068903770E+03  0.99185033168E+03  0.12699999809E+01 0. -1.
</event>
<event>
 5   0  0.1035928E-05  0.2201403E+04  0.7818609E-02  0.8517844E-01
        2   -1    0    0  501    0  0.00000000000E+00  0.00000000000E+00  0.11859302050E+04  0.11859302050E+04  0.25500000920E-02 0. -1.
       -2   -1    0    0    0  501  0.00000000000E+00  0.00000000000E+00 -0.10215978199E+04  0.10215978199E+04  0.25500000920E-02 0.  1.
    10030    2    1    2    0    0  0.00000000000E+00  0.00000000000E+00  0.16433238509E+03  0.22075280249E+04  0.22014029272E+04 0.  0.
        3    1    3    3  502    0  0.91809047513E+03 -0.58828379998E+03  0.23283654298E+03  0.11149801863E+04  0.10100000352E+00 0. -1.
       -3    1    3    3    0  502 -0.91809047513E+03  0.58828379998E+03 -0.68504157889E+02  0.10925478386E+04  0.10100000352E+00 0.  1.
</event>
<event>
 5   0  0.4309945E-06  0.2209603E+04  0.7818609E-02  0.8514442E-01
        1   -1    0    0  501    0  0.00000000000E+00  0.00000000000E+00  0.10855805044E+04  0.10855805044E+04  0.50400001928E-02 0. -1.
       -1   -1    0    0    0  501  0.00000000000E+00  0.00000000000E+00 -0.11243630611E+04  0.11243630611E+04  0.50400001928E-02 0.  1.
    10030    2    1    2    0    0  0.00000000000E+00  0.00000000000E+00 -0.38782556728E+02  0.22099435655E+04  0.22096032395E+04 0.  0.
        4    1    3    3  502    0 -0.38400309804E+03 -0.30044542115E+02 -0.10550332379E+04  0.11231463840E+04  0.12699999809E+01 0.  1.
       -4    1    3    3    0  502  0.38400309804E+03  0.30044542115E+02  0.10162506812E+04  0.10867971815E+04  0.12699999809E+01 0. -1.
</event>
<event>
 5   0  0.9963173E-06  0.2209674E+04  0.7818609E-02  0.8514412E-01
       -2   -1    0    0    0  501  0.00000000000E+00  0.00000000000E+00  0.10921518632E+04  0.10921518632E+04  0.25500000920E-02 0. -1.
        2   -1    0    0  501    0  0.00000000000E+00  0.00000000000E+00 -0.11176699356E+04  0.11176699356E+04  0.25500000920E-02 0.  1.
    10030    2    1    2    0    0  0.00000000000E+00  0.00000000000E+00 -0.25518072315E+02  0.22098217988E+04  0.22096744580E+04 0.  0.
        4    1    3    3  502    0 -0.57362512471E+03  0.67373681953E+03 -0.67438958039E+03  0.11125511245E+04  0.12699999809E+01 0.  1.
       -4    1    3    3    0  502  0.57362512471E+03 -0.67373681953E+03  0.64887150807E+03  0.10972706743E+04  0.12699999809E+01 0. -1.
</event>
<event>
 5   0  0.1014015E-05  0.2192134E+04  0.7818609E-02  0.8521709E-01
        2   -1    0    0  501    0  0.00000000000E+00  0.00000000000E+00  0.11778521021E+04  0.11778521021E+04  0.25500000920E-02 0. -1.
       -2   -1    0    0    0  501  0.00000000000E+00  0.00000000000E+00 -0.10199605583E+04  0.10199605583E+04  0.25500000920E-02 0.  1.
    10030    2    1    2    0    0  0.00000000000E+00  0.00000000000E+00  0.15789154385E+03  0.21978126604E+04  0.21921338350E+04 0.  0.
        1    1    3    3  502    0  0.71904570510E+03  0.82704488723E+03  0.60658012313E+02  0.10975925319E+04  0.50400001928E-02 0.  1.
       -1    1    3    3    0  502 -0.71904570510E+03 -0.82704488723E+03  0.97233531540E+02  0.11002201285E+04  0.50400001928E-02 0. -1.
</event>
<event>
 5   0  0.4462201E-06  0.2204808E+04  0.7818609E-02  0.8516430E-01
        1   -1    0    0  501    0  0.00000000000E+00  0.00000000000E+00  0.14008556122E+04  0.14008556122E+04  0.50400001928E-02 0.  1.
       -1   -1    0    0    0  501  0.00000000000E+00  0.00000000000E+00 -0.86753699014E+03  0.86753699015E+03  0.50400001928E-02 0. -1.
    10030    2    1    2    0    0  0.00000000000E+00  0.00000000000E+00  0.53331862205E+03  0.22683926023E+04  0.22048075303E+04 0.  0.
        3    1    3    3  502    0  0.57220194506E+03  0.20819345753E+03 -0.67882914078E+03  0.91190382951E+03  0.10100000352E+00 0. -1.
       -3    1    3    3    0  502 -0.57220194506E+03 -0.20819345753E+03  0.12121477628E+04  0.13564887728E+04  0.10100000352E+00 0.  1.
</event>
<event>
 5   0  0.1035928E-05  0.2203209E+04  0.7818609E-02  0.8517094E-01
        2   -1    0    0  501    0  0.00000000000E+00  0.00000000000E+00  0.82631837435E+03  0.82631837436E+03  0.25500000920E-02 0. -1.
       -2   -1    0    0    0  501  0.00000000000E+00  0.00000000000E+00 -0.14686011346E+04  0.14686011346E+04  0.25500000920E-02 0.  1.
    10030    2    1    2    0    0  0.00000000000E+00  0.00000000000E+00 -0.64228276024E+03  0.22949195090E+04  0.22032086620E+04 0.  0.
        3    1    3    3  502    0  0.75518397817E+03  0.72251676997E+03  0.41486282252E+02  0.10459705759E+04  0.10100000352E+00 0. -1.
       -3    1    3    3    0  502 -0.75518397817E+03 -0.72251676997E+03 -0.68376904249E+03  0.12489489331E+04  0.10100000352E+00 0.  1.
</event>
<event>
 5   0  0.4309945E-06  0.2194091E+04  0.7818609E-02  0.8520892E-01
        1   -1    0    0  501    0  0.00000000000E+00  0.00000000000E+00  0.15328322712E+04  0.15328322712E+04  0.50400001928E-02 0.  1.
       -1   -1    0    0    0  501  0.00000000000E+00  0.00000000000E+00 -0.78515347335E+03  0.78515347337E+03  0.50400001928E-02 0. -1.
    10030    2    1    2    0    0  0.00000000000E+00  0.00000000000E+00  0.74767879781E+03  0.23179857445E+04  0.21940907746E+04 0.  0.
        4    1    3    3  502    0 -0.67743798067E+03 -0.36577343920E+03  0.11995041482E+04  0.14253154882E+04  0.12699999809E+01 0.  1.
       -4    1    3    3    0  502  0.67743798067E+03  0.36577343920E+03 -0.45182535035E+03  0.89267025636E+03  0.12699999809E+01 0. -1.
</event>
<event>
 5   0  0.9963573E-06  0.2198616E+04  0.7818609E-02  0.8519005E-01
        2   -1    0    0  501    0  0.00000000000E+00  0.00000000000E+00  0.10349100834E+04  0.10349100834E+04  0.25500000920E-02 0. -1.
       -2   -1    0    0    0  501  0.00000000000E+00  0.00000000000E+00 -0.11677126364E+04  0.11677126364E+04  0.25500000920E-02 0.  1.
    10030    2    1    2    0    0  0.00000000000E+00  0.00000000000E+00 -0.13280255296E+03  0.22026227198E+04  0.21986155479E+04 0.  0.
        2    1    3    3  502    0  0.16916198901E+03  0.40543234879E+03 -0.10759513819E+04  0.11621800825E+04  0.25500000920E-02 0.  1.
       -2    1    3    3    0  502 -0.16916198901E+03 -0.40543234879E+03  0.94314882892E+03  0.10404426373E+04  0.25500000920E-02 0. -1.
</event>
<event>
 5   0  0.4309945E-06  0.2197889E+04  0.7818609E-02  0.8519307E-01
       -1   -1    0    0    0  501  0.00000000000E+00  0.00000000000E+00  0.73996556285E+03  0.73996556286E+03  0.50400001928E-02 0.  1.
        1   -1    0    0  501    0  0.00000000000E+00  0.00000000000E+00 -0.16320744846E+04  0.16320744846E+04  0.50400001928E-02 0. -1.
    10030    2    1    2    0    0  0.00000000000E+00  0.00000000000E+00 -0.89210892171E+03  0.23720400474E+04  0.21978889095E+04 0.  0.
        4    1    3    3  502    0 -0.38648094137E+03  0.30116036060E+03  0.61556030841E+03  0.78675357452E+03  0.12699999809E+01 0.  1.
       -4    1    3    3    0  502  0.38648094137E+03 -0.30116036060E+03 -0.15076692301E+04  0.15852864729E+04  0.12699999809E+01 0. -1.
</event>
<event>
 5   0  0.4309945E-06  0.2201582E+04  0.7818609E-02  0.8517770E-01
        1   -1    0    0  501    0  0.00000000000E+00  0.00000000000E+00  0.96282320283E+03  0.96282320284E+03  0.50400001928E-02 0.  1.
       -1   -1    0    0    0  501  0.00000000000E+00  0.00000000000E+00 -0.12585286335E+04  0.12585286335E+04  0.50400001928E-02 0. -1.
    10030    2    1    2    0    0  0.00000000000E+00  0.00000000000E+00 -0.29570543067E+03  0.22213518364E+04  0.22015817675E+04 0.  0.
        4    1    3    3  502    0  0.73895816150E+03 -0.37133996594E+03  0.58516021883E+03  0.10130975419E+04  0.12699999809E+01 0.  1.
       -4    1    3    3    0  502 -0.73895816150E+03  0.37133996594E+03 -0.88086564950E+03  0.12082542945E+04  0.12699999809E+01 0. -1.
</event>
<event>
 5   0  0.4630615E-06  0.2192721E+04  0.7818609E-02  0.8521464E-01
       -1   -1    0    0    0  501  0.00000000000E+00  0.00000000000E+00  0.20988229971E+04  0.20988229971E+04  0.50400001928E-02 0.  1.
        1   -1    0    0  501    0  0.00000000000E+00  0.00000000000E+00 -0.57270504647E+03  0.57270504649E+03  0.50400001928E-02 0. -1.
    10030    2    1    2    0    0  0.00000000000E+00  0.00000000000E+00  0.15261179506E+04  0.26715280436E+04  0.21927211607E+04 0.  0.
        2    1    3    3  502    0  0.14739013568E+03 -0.90330341967E+03  0.27663124364E+02  0.91566706206E+03  0.25500000920E-02 0. -1.
       -2    1    3    3    0  502 -0.14739013568E+03  0.90330341967E+03  0.14984548262E+04  0.17558609815E+04  0.25500000920E-02 0.  1.
</event>
<event>
 5   0  0.9963573E-06  0.2199545E+04  0.7818609E-02  0.8518617E-01
       -2   -1    0    0    0  501  0.00000000000E+00  0.00000000000E+00  0.74588790868E+03  0.74588790869E+03  0.25500000920E-02 0.  1.
        2   -1    0    0  501    0  0.00000000000E+00  0.00000000000E+00 -0.16215574416E+04  0.16215574416E+04  0.25500000920E-02 0. -1.
    10030    2    1    2    0    0  0.00000000000E+00  0.00000000000E+00 -0.87566953291E+03  0.23674453503E+04  0.21995454884E+04 0.  0.
        2    1    3    3  502    0 -0.34584054224E+03  0.10228489408E+03  0.68043015270E+03  0.77009939158E+03  0.25500000920E-02 0.  1.
       -2    1    3    3    0  502  0.34584054224E+03 -0.10228489408E+03 -0.15560996856E+04  0.15973459587E+04  0.25500000920E-02 0. -1.
</event>
<event>
 5   0  0.1014015E-05  0.2198693E+04  0.7818609E-02  0.8518972E-01
        2   -1    0    0  501    0  0.00000000000E+00  0.00000000000E+00  0.89428557410E+03  0.89428557411E+03  0.25500000920E-02 0. -1.
       -2   -1    0    0    0  501  0.00000000000E+00  0.00000000000E+00 -0.13514283568E+04  0.13514283568E+04  0.25500000920E-02 0.  1.
    10030    2    1    2    0    0  0.00000000000E+00  0.00000000000E+00 -0.45714278272E+03  0.22457139309E+04  0.21986931427E+04 0.  0.
        1    1    3    3  502    0  0.22959027886E+03  0.59591171524E+03 -0.11425492725E+04  0.13089084416E+04  0.50400001928E-02 0.  1.
       -1    1    3    3    0  502 -0.22959027886E+03 -0.59591171524E+03  0.68540648978E+03  0.93680548929E+03  0.50400001928E-02 0. -1.
</event>
<event>
 5   0  0.3546750E-06  0.2198289E+04  0.7818609E-02  0.8519140E-01
        4   -1    0    0  501    0  0.00000000000E+00  0.00000000000E+00  0.10493280898E+04  0.10493288583E+04  0.12699999809E+01 0. -1.
       -4   -1    0    0    0  501  0.00000000000E+00  0.00000000000E+00 -0.11513247742E+04  0.11513254747E+04  0.12699999809E+01 0.  1.
    10030    2    1    2    0    0  0.00000000000E+00  0.00000000000E+00 -0.10199668445E+03  0.22006543330E+04  0.21982893735E+04 0.  0.
        2    1    3    3  502    0 -0.24963972136E+03 -0.80014141962E+03  0.66080300246E+03  0.10673363528E+04  0.25500000920E-02 0. -1.
       -2    1    3    3    0  502  0.24963972136E+03  0.80014141962E+03 -0.76279968691E+03  0.11333179802E+04  0.25500000920E-02 0.  1.
</event>
<event>
 5   0  0.1014015E-05  0.2201538E+04  0.7818609E-02  0.8517788E-01
        2   -1    0    0  501    0  0.00000000000E+00  0.00000000000E+00  0.19410928916E+04  0.19410928916E+04  0.25500000920E-02 0.  1.
       -2   -1    0    0    0  501  0.00000000000E+00  0.00000000000E+00 -0.62423184256E+03  0.62423184257E+03  0.25500000920E-02 0. -1.
    10030    2    1    2    0    0  0.00000000000E+00  0.00000000000E+00  0.13168610491E+04  0.25653247342E+04  0.22015376375E+04 0.  0.
        1    1    3    3  502    0 -0.13995898372E+03 -0.43864681101E+03  0.18234936049E+04  0.18807255167E+04  0.50400001928E-02 0.  1.
       -1    1    3    3    0  502  0.13995898372E+03  0.43864681101E+03 -0.50663255585E+03  0.68459921751E+03  0.50400001928E-02 0. -1.
</event>
<event>
 5   0  0.4408787E-06  0.2197665E+04  0.7818609E-02  0.8519401E-01
        1   -1    0    0  501    0  0.00000000000E+00  0.00000000000E+00  0.16321854392E+04  0.16321854392E+04  0.50400001928E-02 0. -1.
       -1   -1    0    0    0  501  0.00000000000E+00  0.00000000000E+00 -0.73976428133E+03  0.73976428135E+03  0.50400001928E-02 0.  1.
    10030    2    1    2    0    0  0.00000000000E+00  0.00000000000E+00  0.89242115782E+03  0.23719497205E+04  0.21976646591E+04 0.  0.
        1    1    3    3  502    0 -0.89088600711E+03  0.57519677008E+03  0.13544713330E+03  0.10690533794E+04  0.50400001928E-02 0. -1.
       -1    1    3    3    0  502  0.89088600711E+03 -0.57519677008E+03  0.75697402452E+03  0.13028963412E+04  0.50400001928E-02 0.  1.
</event>
<event>
 5   0  0.1015876E-05  0.2197487E+04  0.7818609E-02  0.8519475E-01
        2   -1    0    0  501    0  0.00000000000E+00  0.00000000000E+00  0.18625681510E+04  0.18625681510E+04  0.25500000920E-02 0.  1.
       -2   -1    0    0    0  501  0.00000000000E+00  0.00000000000E+00 -0.64815749546E+03  0.64815749546E+03  0.25500000920E-02 0. -1.
    10030    2    1    2    0    0  0.00000000000E+00  0.00000000000E+00  0.12144106555E+04  0.25107256464E+04  0.21974872085E+04 0.  0.
        5    1    3    3  502    0  0.55477044592E+03  0.31846523867E+03 -0.41345484474E+03  0.76168061190E+03  0.46999998093E+01 0. -1.
       -5    1    3    3    0  502 -0.55477044592E+03 -0.31846523867E+03  0.16278655002E+04  0.17490450345E+04  0.46999998093E+01 0.  1.
</event>
<event>
 5   0  0.3546750E-06  0.2200880E+04  0.7818609E-02  0.8518062E-01
        3   -1    0    0  501    0  0.00000000000E+00  0.00000000000E+00  0.15047382074E+04  0.15047382108E+04  0.10100000352E+00 0.  1.
       -3   -1    0    0    0  501  0.00000000000E+00  0.00000000000E+00 -0.80476976216E+03  0.80476976850E+03  0.10100000352E+00 0. -1.
    10030    2    1    2    0    0  0.00000000000E+00  0.00000000000E+00  0.69996844522E+03  0.23095079793E+04  0.22008796610E+04 0.  0.
        3    1    3    3  502    0 -0.71512677519E+03 -0.17554940402E+03 -0.50814578898E+03  0.89467091766E+03  0.10100000352E+00 0. -1.
       -3    1    3    3    0  502  0.71512677519E+03  0.17554940402E+03  0.12081142342E+04  0.14148370616E+04  0.10100000352E+00 0.  1.
</event>
<event>
 5   0  0.9963173E-06  0.2183403E+04  0.7818609E-02  0.8525368E-01
       -2   -1    0    0    0  501  0.00000000000E+00  0.00000000000E+00  0.67559691675E+03  0.67559691675E+03  0.25500000920E-02 0.  1.
        2   -1    0    0  501    0  0.00000000000E+00  0.00000000000E+00 -0.17640880702E+04  0.17640880702E+04  0.25500000920E-02 0. -1.
    10030    2    1    2    0    0  0.00000000000E+00  0.00000000000E+00 -0.10884911535E+04  0.24396849870E+04  0.21834032712E+04 0.  0.
        4    1    3    3  502    0 -0.73367452569E+03 -0.64475962544E+03  0.66063681033E+00  0.97672684697E+03  0.12699999809E+01 0.  1.
       -4    1    3    3    0  502  0.73367452569E+03  0.64475962544E+03 -0.10891517903E+04  0.14629581400E+04  0.12699999809E+01 0. -1.
</event>
<event>
 5   0  0.9963173E-06  0.2208677E+04  0.7818609E-02  0.8514825E-01
       -2   -1    0    0    0  501  0.00000000000E+00  0.00000000000E+00  0.76728972390E+03  0.76728972391E+03  0.25500000920E-02 0.  1.
        2   -1    0    0  501    0  0.00000000000E+00  0.00000000000E+00 -0.15894436392E+04  0.15894436392E+04  0.25500000920E-02 0. -1.
    10030    2    1    2    0    0  0.00000000000E+00  0.00000000000E+00 -0.82215391526E+03  0.23567333631E+04  0.22086772250E+04 0.  0.
        4    1    3    3  502    0 -0.68195817262E+01  0.14782818953E+03  0.75666105779E+03  0.77099756782E+03  0.12699999809E+01 0.  1.
       -4    1    3    3    0  502  0.68195817262E+01 -0.14782818953E+03 -0.15788149731E+04  0.15857357953E+04  0.12699999809E+01 0. -1.
</event>
<event>
 5   0  0.4630615E-06  0.2198714E+04  0.7818609E-02  0.8518964E-01
       -1   -1    0    0    0  501  0.00000000000E+00  0.00000000000E+00  0.72382777025E+03  0.72382777027E+03  0.50400001928E-02 0.  1.
        1   -1    0    0  501    0  0.00000000000E+00  0.00000000000E+00 -0.16697142516E+04  0.16697142516E+04  0.50400001928E-02 0. -1.
    10030    2    1    2    0    0  0.00000000000E+00  0.00000000000E+00 -0.94588648132E+03  0.23935420218E+04  0.21987137546E+04 0.  0.
        2    1    3    3  502    0  0.18552149406E+03  0.91758765929E+03  0.15449691862E+03  0.94881749305E+03  0.25500000920E-02 0.  1.
       -2    1    3    3    0  502 -0.18552149406E+03 -0.91758765929E+03 -0.11003833999E+04  0.14447245288E+04  0.25500000920E-02 0. -1.
</event>
<event>
 5   0  0.4408787E-06  0.2193717E+04  0.7818609E-02  0.8521048E-01
       -1   -1    0    0    0  501  0.00000000000E+00  0.00000000000E+00  0.63760279420E+03  0.63760279422E+03  0.50400001928E-02 0. -1.
        1   -1    0    0  501    0  0.00000000000E+00  0.00000000000E+00 -0.18869084915E+04  0.18869084915E+04  0.50400001928E-02 0.  1.
    10030    2    1    2    0    0  0.00000000000E+00  0.00000000000E+00 -0.12493056973E+04  0.25245112857E+04  0.21937165967E+04 0.  0.
        1    1    3    3  502    0  0.41762326753E+03 -0.20703361792E+03 -0.17672599863E+04  0.18276979980E+04  0.50400001928E-02 0.  1.
       -1    1    3    3    0  502 -0.41762326753E+03  0.20703361792E+03  0.51795428899E+03  0.69681328778E+03  0.50400001928E-02 0. -1.
</event>
<event>
 5   0  0.4794967E-06  0.2192769E+04  0.7818609E-02  0.8521444E-01
        1   -1    0    0  501    0  0.00000000000E+00  0.00000000000E+00  0.19674614321E+04  0.19674614321E+04  0.50400001928E-02 0.  1.
       -1   -1    0    0    0  501  0.00000000000E+00  0.00000000000E+00 -0.61096949549E+03  0.61096949551E+03  0.50400001928E-02 0. -1.
    10030    2    1    2    0    0  0.00000000000E+00  0.00000000000E+00  0.13564919366E+04  0.25784309276E+04  0.21927689514E+04 0.  0.
        5    1    3    3  502    0 -0.60982971765E+03 -0.30308565838E+02  0.17490230493E+04  0.18525427419E+04  0.46999998093E+01 0.  1.
       -5    1    3    3    0  502  0.60982971765E+03  0.30308565838E+02 -0.39253111268E+03  0.72588818569E+03  0.46999998093E+01 0. -1.
</event>
<event>
 5   0  0.9963173E-06  0.2199179E+04  0.7818609E-02  0.8518770E-01
        2   -1    0    0  501    0  0.00000000000E+00  0.00000000000E+00  0.16841607255E+04  0.16841607255E+04  0.25500000920E-02 0.  1.
       -2   -1    0    0    0  501  0.00000000000E+00  0.00000000000E+00 -0.71792263995E+03  0.71792263996E+03  0.25500000920E-02 0. -1.
    10030    2    1    2    0    0  0.00000000000E+00  0.00000000000E+00  0.96623808552E+03  0.24020833654E+04  0.21991790415E+04 0.  0.
        4    1    3    3  502    0  0.28996282501E+03  0.68936683477E+03 -0.39735010515E+03  0.84687294899E+03  0.12699999809E+01 0. -1.
       -4    1    3    3    0  502 -0.28996282501E+03 -0.68936683477E+03  0.13635881907E+04  0.15552104164E+04  0.12699999809E+01 0.  1.
</event>
<event>
 5   0  0.1015876E-05  0.2198199E+04  0.7818609E-02  0.8519178E-01
       -2   -1    0    0    0  501  0.00000000000E+00  0.00000000000E+00  0.66472295107E+03  0.66472295108E+03  0.25500000920E-02 0.  1.
        2   -1    0    0  501    0  0.00000000000E+00  0.00000000000E+00 -0.18173286717E+04  0.18173286717E+04  0.25500000920E-02 0. -1.
    10030    2    1    2    0    0  0.00000000000E+00  0.00000000000E+00 -0.11526057206E+04  0.24820516227E+04  0.21981993337E+04 0.  0.
        5    1    3    3  502    0  0.96188438109E+03 -0.68917579916E+02 -0.11716730183E+04  0.15175015477E+04  0.46999998093E+01 0. -1.
       -5    1    3    3    0  502 -0.96188438109E+03  0.68917579916E+02  0.19067297742E+02  0.96455007504E+03  0.46999998093E+01 0.  1.
</event>
<event>
 5   0  0.1014015E-05  0.2176199E+04  0.7818609E-02  0.8528400E-01
        2   -1    0    0  501    0  0.00000000000E+00  0.00000000000E+00  0.25015193690E+04  0.25015193690E+04  0.25500000920E-02 0.  1.
       -2   -1    0    0    0  501  0.00000000000E+00  0.00000000000E+00 -0.47329652862E+03  0.47329652863E+03  0.25500000920E-02 0. -1.
    10030    2    1    2    0    0  0.00000000000E+00  0.00000000000E+00  0.20282228404E+04  0.29748158976E+04  0.21761989189E+04 0.  0.
        1    1    3    3  502    0 -0.16166541043E+03  0.10480784866E+04  0.68107279778E+03  0.12603429593E+04  0.50400001928E-02 0. -1.
       -1    1    3    3    0  502  0.16166541043E+03 -0.10480784866E+04  0.13471500426E+04  0.17144729384E+04  0.50400001928E-02 0.  1.
</event>
<event>
 5   0  0.1014015E-05  0.2200769E+04  0.7818609E-02  0.8518108E-01
        2   -1    0    0  501    0  0.00000000000E+00  0.00000000000E+00  0.12817680312E+04  0.12817680312E+04  0.25500000920E-02 0. -1.
       -2   -1    0    0    0  501  0.00000000000E+00  0.00000000000E+00 -0.94466890315E+03  0.94466890315E+03  0.25500000920E-02 0.  1.
    10030    2    1    2    0    0  0.00000000000E+00  0.00000000000E+00  0.33709912801E+03  0.22264369343E+04  0.22007693201E+04 0.  0.
        1    1    3    3  502    0 -0.33542691550E+03  0.17275746151E+03  0.12142832899E+04  0.12715503389E+04  0.50400001928E-02 0. -1.
       -1    1    3    3    0  502  0.33542691550E+03 -0.17275746151E+03 -0.87718416192E+03  0.95488659541E+03  0.50400001928E-02 0.  1.
</event>
<event>
 5   0  0.4794967E-06  0.2196717E+04  0.7818609E-02  0.8519796E-01
        1   -1    0    0  501    0  0.00000000000E+00  0.00000000000E+00  0.75793808575E+03  0.75793808576E+03  0.50400001928E-02 0. -1.
       -1   -1    0    0    0  501  0.00000000000E+00  0.00000000000E+00 -0.15916750804E+04  0.15916750804E+04  0.50400001928E-02 0.  1.
    10030    2    1    2    0    0  0.00000000000E+00  0.00000000000E+00 -0.83373699467E+03  0.23496131662E+04  0.21967167898E+04 0.  0.
        5    1    3    3  502    0 -0.67275072828E+03  0.15918205544E+03  0.49602093217E+03  0.85087679738E+03  0.46999998093E+01 0. -1.
       -5    1    3    3    0  502  0.67275072828E+03 -0.15918205544E+03 -0.13297579268E+04  0.14987363688E+04  0.46999998093E+01 0.  1.
</event>
<event>
 5   0  0.4794967E-06  0.2191771E+04  0.7818609E-02  0.8521861E-01
        1   -1    0    0  501    0  0.00000000000E+00  0.00000000000E+00  0.94544576705E+03  0.94544576706E+03  0.50400001928E-02 0.  1.
       -1   -1    0    0    0  501  0.00000000000E+00  0.00000000000E+00 -0.12702633245E+04  0.12702633245E+04  0.50400001928E-02 0. -1.
    10030    2    1    2    0    0  0.00000000000E+00  0.00000000000E+00 -0.32481755743E+03  0.22157090916E+04  0.21917710494E+04 0.  0.
        5    1    3    3  502    0  0.97830915597E+02  0.22321380029E+03  0.91769276335E+03  0.94951428983E+03  0.46999998093E+01 0.  1.
       -5    1    3    3    0  502 -0.97830915597E+02 -0.22321380029E+03 -0.12425103208E+04  0.12661948017E+04  0.46999998093E+01 0. -1.
</event>
<event>
 5   0  0.9963173E-06  0.2201536E+04  0.7818609E-02  0.8517789E-01
        2   -1    0    0  501    0  0.00000000000E+00  0.00000000000E+00  0.19308479789E+04  0.19308479789E+04  0.25500000920E-02 0.  1.
       -2   -1    0    0    0  501  0.00000000000E+00  0.00000000000E+00 -0.62754279651E+03  0.62754279651E+03  0.25500000920E-02 0. -1.
    10030    2    1    2    0    0  0.00000000000E+00  0.00000000000E+00  0.13033051824E+04  0.25583907754E+04  0.22015355916E+04 0.  0.
        4    1    3    3  502    0  0.17024350156E+03 -0.30154406258E+03 -0.56259718416E+03  0.66062763795E+03  0.12699999809E+01 0. -1.
       -4    1    3    3    0  502 -0.17024350156E+03  0.30154406258E+03  0.18659023665E+04  0.18977631374E+04  0.12699999809E+01 0.  1.
</event>
<event>
 5   0  0.4309945E-06  0.2201049E+04  0.7818609E-02  0.8517992E-01
       -1   -1    0    0    0  501  0.00000000000E+00  0.00000000000E+00  0.60930602587E+03  0.60930602589E+03  0.50400001928E-02 0. -1.
        1   -1    0    0  501    0  0.00000000000E+00  0.00000000000E+00 -0.19877595765E+04  0.19877595765E+04  0.50400001928E-02 0.  1.
    10030    2    1    2    0    0  0.00000000000E+00  0.00000000000E+00 -0.13784535506E+04  0.25970656024E+04  0.22010487391E+04 0.  0.
        4    1    3    3  502    0  0.25951191983E+03 -0.29863965251E+03 -0.19009440591E+04  0.19416802021E+04  0.12699999809E+01 0.  1.
       -4    1    3    3    0  502 -0.25951191983E+03  0.29863965251E+03  0.52249050845E+03  0.65538540029E+03  0.12699999809E+01 0. -1.
</event>
<event>
 5   0  0.9963173E-06  0.2197078E+04  0.7818609E-02  0.8519645E-01
        2   -1    0    0  501    0  0.00000000000E+00  0.00000000000E+00  0.12521606465E+04  0.12521606465E+04  0.25500000920E-02 0.  1.
       -2   -1    0    0    0  501  0.00000000000E+00  0.00000000000E+00 -0.96376436515E+03  0.96376436516E+03  0.25500000920E-02 0. -1.
    10030    2    1    2    0    0  0.00000000000E+00  0.00000000000E+00  0.28839628135E+03  0.22159250117E+04  0.21970778871E+04 0.  0.
        4    1    3    3  502    0 -0.73783847565E+03  0.35280068938E+03 -0.59551839287E+03  0.10116905217E+04  0.12699999809E+01 0. -1.
       -4    1    3    3    0  502  0.73783847565E+03 -0.35280068938E+03  0.88391467422E+03  0.12042344899E+04  0.12699999809E+01 0.  1.
</event>
<event>
 5   0  0.4462201E-06  0.2201598E+04  0.7818609E-02  0.8517763E-01
       -1   -1    0    0    0  501  0.00000000000E+00  0.00000000000E+00  0.98537400616E+03  0.98537400618E+03  0.50400001928E-02 0. -1.
        1   -1    0    0  501    0  0.00000000000E+00  0.00000000000E+00 -0.12297446363E+04  0.12297446363E+04  0.50400001928E-02 0.  1.
    10030    2    1    2    0    0  0.00000000000E+00  0.00000000000E+00 -0.24437063012E+03  0.22151186425E+04  0.22015979641E+04 0.  0.
        3    1    3    3  502    0 -0.92657531206E+03 -0.57944831173E+03 -0.25511875756E+03  0.11222244631E+04  0.10100000352E+00 0. -1.
       -3    1    3    3    0  502  0.92657531206E+03  0.57944831173E+03  0.10748127437E+02  0.10928941794E+04  0.10100000352E+00 0.  1.
</event>
<event>
 5   0  0.4309945E-06  0.2199636E+04  0.7818609E-02  0.8518580E-01
       -1   -1    0    0    0  501  0.00000000000E+00  0.00000000000E+00  0.80715458437E+03  0.80715458438E+03  0.50400001928E-02 0.  1.
        1   -1    0    0  501    0  0.00000000000E+00  0.00000000000E+00 -0.14985973210E+04  0.14985973210E+04  0.50400001928E-02 0. -1.
    10030    2    1    2    0    0  0.00000000000E+00  0.00000000000E+00 -0.69144273663E+03  0.23057519054E+04  0.21996360588E+04 0.  0.
        4    1    3    3  502    0 -0.52506562892E+03  0.69493502227E+03  0.35821811299E+03  0.94178045702E+03  0.12699999809E+01 0.  1.
       -4    1    3    3    0  502  0.52506562892E+03 -0.69493502227E+03 -0.10496608496E+04  0.13639714484E+04  0.12699999809E+01 0. -1.
</event>
<event>
 5   0  0.4630615E-06  0.2196598E+04  0.7818609E-02  0.8519845E-01
        1   -1    0    0  501    0  0.00000000000E+00  0.00000000000E+00  0.16801225008E+04  0.16801225008E+04  0.50400001928E-02 0.  1.
       -1   -1    0    0    0  501  0.00000000000E+00  0.00000000000E+00 -0.71796010299E+03  0.71796010301E+03  0.50400001928E-02 0. -1.
    10030    2    1    2    0    0  0.00000000000E+00  0.00000000000E+00  0.96216239778E+03  0.23980826038E+04  0.21965982097E+04 0.  0.
        2    1    3    3  502    0 -0.85150359637E+03  0.49904362152E+03  0.10071049480E+04  0.14100933611E+04  0.25500000920E-02 0.  1.
       -2    1    3    3    0  502  0.85150359637E+03 -0.49904362152E+03 -0.44942550188E+02  0.98798924267E+03  0.25500000920E-02 0. -1.
</event>
<event>
 5   0  0.1014015E-05  0.2201591E+04  0.7818609E-02  0.8517766E-01
       -2   -1    0    0    0  501  0.00000000000E+00  0.00000000000E+00  0.14173269996E+04  0.14173269996E+04  0.25500000920E-02 0.  1.
        2   -1    0    0  501    0  0.00000000000E+00  0.00000000000E+00 -0.85495526843E+03  0.85495526843E+03  0.25500000920E-02 0. -1.
    10030    2    1    2    0    0  0.00000000000E+00  0.00000000000E+00  0.56237173112E+03  0.22722822680E+04  0.22015914111E+04 0.  0.
        1    1    3    3  502    0 -0.21732995266E+03  0.18391845275E+03  0.13786690780E+04  0.14077594724E+04  0.50400001928E-02 0.  1.
       -1    1    3    3    0  502  0.21732995266E+03 -0.18391845275E+03 -0.81629734684E+03  0.86452279558E+03  0.50400001928E-02 0. -1.
</event>
<event>
 5   0  0.4408787E-06  0.2199789E+04  0.7818609E-02  0.8518516E-01
       -1   -1    0    0    0  501  0.00000000000E+00  0.00000000000E+00  0.67732199039E+03  0.67732199040E+03  0.50400001928E-02 0.  1.
        1   -1    0    0  501    0  0.00000000000E+00  0.00000000000E+00 -0.17861044581E+04  0.17861044581E+04  0.50400001928E-02 0. -1.
    10030    2    1    2    0    0  0.00000000000E+00  0.00000000000E+00 -0.11087824677E+04  0.24634264485E+04  0.21997889232E+04 0.  0.
        1    1    3    3  502    0 -0.54087489732E+03 -0.51637284256E+03 -0.14576441316E+04  0.16382652354E+04  0.50400001928E-02 0. -1.
       -1    1    3    3    0  502  0.54087489732E+03  0.51637284256E+03  0.34886166388E+03  0.82516121312E+03  0.50400001928E-02 0.  1.
</event>
<event>
 5   0  0.1014015E-05  0.2199212E+04  0.7818609E-02  0.8518756E-01
       -2   -1    0    0    0  501  0.00000000000E+00  0.00000000000E+00  0.11453752398E+04  0.11453752398E+04  0.25500000920E-02 0. -1.
        2   -1    0    0  501    0  0.00000000000E+00  0.00000000000E+00 -0.10556658446E+04  0.10556658446E+04  0.25500000920E-02 0.  1.
    10030    2    1    2    0    0  0.00000000000E+00  0.00000000000E+00  0.89709395248E+02  0.22010410844E+04  0.21992121497E+04 0.  0.
        1    1    3    3  502    0  0.76287320453E+03 -0.59415097273E+03 -0.47916703499E+03  0.10791626161E+04  0.50400001928E-02 0.  1.
       -1    1    3    3    0  502 -0.76287320453E+03  0.59415097273E+03  0.56887643024E+03  0.11218784682E+04  0.50400001928E-02 0. -1.
</event>
<event>
 5   0  0.9963573E-06  0.2205672E+04  0.7818609E-02  0.8516071E-01
       -2   -1    0    0    0  501  0.00000000000E+00  0.00000000000E+00  0.53709814656E+03  0.53709814657E+03  0.25500000920E-02 0. -1.
        2   -1    0    0  501    0  0.00000000000E+00  0.00000000000E+00 -0.22644780182E+04  0.22644780182E+04  0.25500000920E-02 0.  1.
    10030    2    1    2    0    0  0.00000000000E+00  0.00000000000E+00 -0.17273798716E+04  0.28015761648E+04  0.22056717313E+04 0.  0.
        2    1    3    3  502    0  0.88562907292E+03 -0.63329779758E+03 -0.64062425315E+03  0.12632515145E+04  0.25500000920E-02 0. -1.
       -2    1    3    3    0  502 -0.88562907292E+03  0.63329779758E+03 -0.10867556185E+04  0.15383246502E+04  0.25500000920E-02 0.  1.
</event>
<event>
 5   0  0.9963173E-06  0.2197726E+04  0.7818609E-02  0.8519375E-01
        2   -1    0    0  501    0  0.00000000000E+00  0.00000000000E+00  0.15378753951E+04  0.15378753951E+04  0.25500000920E-02 0. -1.
       -2   -1    0    0    0  501  0.00000000000E+00  0.00000000000E+00 -0.78517385321E+03  0.78517385322E+03  0.25500000920E-02 0.  1.
    10030    2    1    2    0    0  0.00000000000E+00  0.00000000000E+00  0.75270154185E+03  0.23230492483E+04  0.21977256878E+04 0.  0.
        4    1    3    3  502    0  0.20145781100E+03  0.32605937667E+03  0.14649307140E+04  0.15142402638E+04  0.12699999809E+01 0. -1.
       -4    1    3    3    0  502 -0.20145781100E+03 -0.32605937667E+03 -0.71222917219E+03  0.80880898446E+03  0.12699999809E+01 0.  1.
</event>
<event>
 5   0  0.4309945E-06  0.2198735E+04  0.7818609E-02  0.8518955E-01
        1   -1    0    0  501    0  0.00000000000E+00  0.00000000000E+00  0.12944057796E+04  0.12944057796E+04  0.50400001928E-02 0.  1.
       -1   -1    0    0    0  501  0.00000000000E+00  0.00000000000E+00 -0.93371686094E+03  0.93371686095E+03  0.50400001928E-02 0. -1.
    10030    2    1    2    0    0  0.00000000000E+00  0.00000000000E+00  0.36068891863E+03  0.22281226405E+04  0.21987346373E+04 0.  0.
        4    1    3    3  502    0 -0.27963529822E+03  0.43159461334E+03 -0.80430988281E+03  0.95466528729E+03  0.12699999809E+01 0. -1.
       -4    1    3    3    0  502  0.27963529822E+03 -0.43159461334E+03  0.11649988014E+04  0.12734573532E+04  0.12699999809E+01 0.  1.
</event>
<event>
 5   0  0.4408787E-06  0.2200448E+04  0.7818609E-02  0.8518242E-01
       -1   -1    0    0    0  501  0.00000000000E+00  0.00000000000E+00  0.76359070555E+03  0.76359070557E+03  0.50400001928E-02 0. -1.
        1   -1    0    0  501    0  0.00000000000E+00  0.00000000000E+00 -0.15852644471E+04  0.15852644471E+04  0.50400001928E-02 0.  1.
    10030    2    1    2    0    0  0.00000000000E+00  0.00000000000E+00 -0.82167374156E+03  0.23488551527E+04  0.22004483158E+04 0.  0.
        1    1    3    3  502    0  0.17671746034E+03  0.56233054037E+03  0.58082283001E+03  0.82752634841E+03  0.50400001928E-02 0. -1.
       -1    1    3    3    0  502 -0.17671746034E+03 -0.56233054037E+03 -0.14024965716E+04  0.15213288043E+04  0.50400001928E-02 0.  1.
</event>
<event>
 5   0  0.9963173E-06  0.2199450E+04  0.7818609E-02  0.8518657E-01
        2   -1    0    0  501    0  0.00000000000E+00  0.00000000000E+00  0.11017696705E+04  0.11017696705E+04  0.25500000920E-02 0. -1.
       -2   -1    0    0    0  501  0.00000000000E+00  0.00000000000E+00 -0.10976836646E+04  0.10976836646E+04  0.25500000920E-02 0.  1.
    10030    2    1    2    0    0  0.00000000000E+00  0.00000000000E+00  0.40860059871E+01  0.21994533351E+04  0.21994495397E+04 0.  0.
        4    1    3    3  502    0  0.25103974848E+03 -0.75373074225E+03  0.76247969669E+03  0.11011393590E+04  0.12699999809E+01 0. -1.
       -4    1    3    3    0  502 -0.25103974848E+03  0.75373074225E+03 -0.75839369071E+03  0.10983139761E+04  0.12699999809E+01 0.  1.
</event>
<event>
 5   0  0.1015876E-05  0.2200232E+04  0.7818609E-02  0.8518331E-01
        2   -1    0    0  501    0  0.00000000000E+00  0.00000000000E+00  0.13778460244E+04  0.13778460244E+04  0.25500000920E-02 0.  1.
       -2   -1    0    0    0  501  0.00000000000E+00  0.00000000000E+00 -0.87836764544E+03  0.87836764544E+03  0.25500000920E-02 0. -1.
    10030    2    1    2    0    0  0.00000000000E+00  0.00000000000E+00  0.49947837897E+03  0.22562136698E+04  0.22002321407E+04 0.  0.
        5    1    3    3  502    0  0.82773804321E+02 -0.46166450867E+03 -0.77069178635E+03  0.90220482197E+03  0.46999998093E+01 0. -1.
       -5    1    3    3    0  502 -0.82773804321E+02  0.46166450867E+03  0.12701701653E+04  0.13540088479E+04  0.46999998093E+01 0.  1.
</event>
<event>
 5   0  0.4630615E-06  0.2199726E+04  0.7818609E-02  0.8518542E-01
        1   -1    0    0  501    0  0.00000000000E+00  0.00000000000E+00  0.12656619342E+04  0.12656619342E+04  0.50400001928E-02 0.  1.
       -1   -1    0    0    0  501  0.00000000000E+00  0.00000000000E+00 -0.95578353065E+03  0.95578353066E+03  0.50400001928E-02 0. -1.
    10030    2    1    2    0    0  0.00000000000E+00  0.00000000000E+00  0.30987840356E+03  0.22214454649E+04  0.21997261940E+04 0.  0.
        2    1    3    3  502    0  0.31226593788E+03  0.13504963262E+03 -0.90130867258E+03  0.96338244872E+03  0.25500000920E-02 0. -1.
       -2    1    3    3    0  502 -0.31226593788E+03 -0.13504963262E+03  0.12111870761E+04  0.12580630162E+04  0.25500000920E-02 0.  1.
</event>
<event>
 5   0  0.4462201E-06  0.2199658E+04  0.7818609E-02  0.8518570E-01
        1   -1    0    0  501    0  0.00000000000E+00  0.00000000000E+00  0.18501200538E+04  0.18501200538E+04  0.50400001928E-02 0. -1.
       -1   -1    0    0    0  501  0.00000000000E+00  0.00000000000E+00 -0.65380851850E+03  0.65380851852E+03  0.50400001928E-02 0.  1.
    10030    2    1    2    0    0  0.00000000000E+00  0.00000000000E+00  0.11963115353E+04  0.25039285724E+04  0.21996583839E+04 0.  0.
        3    1    3    3  502    0  0.10712895555E+03 -0.90385020295E+03 -0.10466491395E+03  0.91617495977E+03  0.10100000352E+00 0.  1.
       -3    1    3    3    0  502 -0.10712895555E+03  0.90385020295E+03  0.13009764493E+04  0.15877536126E+04  0.10100000352E+00 0. -1.
</event>
<event>
 5   0  0.9963573E-06  0.2210918E+04  0.7818609E-02  0.8513897E-01
        2   -1    0    0  501    0  0.00000000000E+00  0.00000000000E+00  0.10065307290E+04  0.10065307290E+04  0.25500000920E-02 0. -1.
       -2   -1    0    0    0  501  0.00000000000E+00  0.00000000000E+00 -0.12141107091E+04  0.12141107091E+04  0.25500000920E-02 0.  1.
    10030    2    1    2    0    0  0.00000000000E+00  0.00000000000E+00 -0.20757998003E+03  0.22206414381E+04  0.22109181234E+04 0.  0.
        2    1    3    3  502    0 -0.21498301997E+03 -0.28555246270E+03  0.94688978842E+03  0.10121058143E+04  0.25500000920E-02 0. -1.
       -2    1    3    3    0  502  0.21498301997E+03  0.28555246270E+03 -0.11544697685E+04  0.12085356238E+04  0.25500000920E-02 0.  1.
</event>
<event>
 5   0  0.9963173E-06  0.2193868E+04  0.7818609E-02  0.8520985E-01
       -2   -1    0    0    0  501  0.00000000000E+00  0.00000000000E+00  0.46286113633E+03  0.46286113633E+03  0.25500000920E-02 0.  1.
        2   -1    0    0  501    0  0.00000000000E+00  0.00000000000E+00 -0.25996225424E+04  0.25996225424E+04  0.25500000920E-02 0. -1.
    10030    2    1    2    0    0  0.00000000000E+00  0.00000000000E+00 -0.21367614061E+04  0.30624836788E+04  0.21938680398E+04 0.  0.
        4    1    3    3  502    0 -0.54265351374E+03 -0.91604261869E+03 -0.14367993994E+04  0.17882955691E+04  0.12699999809E+01 0. -1.
       -4    1    3    3    0  502  0.54265351374E+03  0.91604261869E+03 -0.69996200669E+03  0.12741881097E+04  0.12699999809E+01 0.  1.
</event>
<event>
 5   0  0.4408787E-06  0.2197681E+04  0.7818609E-02  0.8519394E-01
       -1   -1    0    0    0  501  0.00000000000E+00  0.00000000000E+00  0.56845465739E+03  0.56845465742E+03  0.50400001928E-02 0.  1.
        1   -1    0    0  501    0  0.00000000000E+00  0.00000000000E+00 -0.21240922102E+04  0.21240922102E+04  0.50400001928E-02 0. -1.
    10030    2    1    2    0    0  0.00000000000E+00  0.00000000000E+00 -0.15556375528E+04  0.26925468676E+04  0.21976806953E+04 0.  0.
        1    1    3    3  502    0  0.16147294333E+03 -0.95453813740E+03 -0.14147144598E+04  0.17142443145E+04  0.50400001928E-02 0. -1.
       -1    1    3    3    0  502 -0.16147294333E+03  0.95453813740E+03 -0.14092309302E+03  0.97830255308E+03  0.50400001928E-02 0.  1.
</event>
<event>
 5   0  0.4408787E-06  0.2200788E+04  0.7818609E-02  0.8518100E-01
       -1   -1    0    0    0  501  0.00000000000E+00  0.00000000000E+00  0.88053622874E+03  0.88053622876E+03  0.50400001928E-02 0.  1.
        1   -1    0    0  501    0  0.00000000000E+00  0.00000000000E+00 -0.13751471888E+04  0.13751471888E+04  0.50400001928E-02 0. -1.
    10030    2    1    2    0    0  0.00000000000E+00  0.00000000000E+00 -0.49461096006E+03  0.22556834176E+04  0.22007879676E+04 0.  0.
        1    1    3    3  502    0 -0.65921799049E+03  0.56457171626E+03 -0.94060788413E+03  0.12798643575E+04  0.50400001928E-02 0.  1.
       -1    1    3    3    0  502  0.65921799049E+03 -0.56457171626E+03  0.44599692407E+03  0.97581906012E+03  0.50400001928E-02 0. -1.
</event>
<event>
 5   0  0.1035928E-05  0.2214477E+04  0.7818609E-02  0.8512427E-01
        2   -1    0    0  501    0  0.00000000000E+00  0.00000000000E+00  0.22260255069E+04  0.22260255069E+04  0.25500000920E-02 0. -1.
       -2   -1    0    0    0  501  0.00000000000E+00  0.00000000000E+00 -0.55074688529E+03  0.55074688530E+03  0.25500000920E-02 0.  1.
    10030    2    1    2    0    0  0.00000000000E+00  0.00000000000E+00  0.16752786216E+04  0.27767723922E+04  0.22144765653E+04 0.  0.
        3    1    3    3  502    0 -0.18616398961E+03 -0.46410370348E+03  0.20763729548E+04  0.21357373285E+04  0.10100000352E+00 0. -1.
       -3    1    3    3    0  502  0.18616398961E+03  0.46410370348E+03 -0.40109433319E+03  0.64103506373E+03  0.10100000352E+00 0.  1.
</event>
<event>
 5   0  0.4309945E-06  0.2197057E+04  0.7818609E-02  0.8519654E-01
        1   -1    0    0  501    0  0.00000000000E+00  0.00000000000E+00  0.13717168175E+04  0.13717168175E+04  0.50400001928E-02 0. -1.
       -1   -1    0    0    0  501  0.00000000000E+00  0.00000000000E+00 -0.87974749834E+03  0.87974749836E+03  0.50400001928E-02 0.  1.
    10030    2    1    2    0    0  0.00000000000E+00  0.00000000000E+00  0.49196931918E+03  0.22514643159E+04  0.21970566116E+04 0.  0.
        4    1    3    3  502    0 -0.20288687180E+03 -0.85148739534E+03 -0.43420616281E+03  0.97710310198E+03  0.12699999809E+01 0.  1.
       -4    1    3    3    0  502  0.20288687180E+03  0.85148739534E+03  0.92617548199E+03  0.12743612139E+04  0.12699999809E+01 0. -1.
</event>
<event>
 5   0  0.4408787E-06  0.2198428E+04  0.7818609E-02  0.8519083E-01
        1   -1    0    0  501    0  0.00000000000E+00  0.00000000000E+00  0.11538206187E+04  0.11538206187E+04  0.50400001928E-02 0.  1.
       -1   -1    0    0    0  501  0.00000000000E+00  0.00000000000E+00 -0.10471915012E+04  0.10471915012E+04  0.50400001928E-02 0. -1.
    10030    2    1    2    0    0  0.00000000000E+00  0.00000000000E+00  0.10662911755E+03  0.22010121199E+04  0.21984277526E+04 0.  0.
        1    1    3    3  502    0 -0.13812530576E+03  0.54215033465E+03  0.10006115877E+04  0.11463983317E+04  0.50400001928E-02 0.  1.
       -1    1    3    3    0  502  0.13812530576E+03 -0.54215033465E+03 -0.89398247011E+03  0.10546137882E+04  0.50400001928E-02 0. -1.
</event>
<event>
 5   0  0.4408787E-06  0.2202032E+04  0.7818609E-02  0.8517583E-01
       -1   -1    0    0    0  501  0.00000000000E+00  0.00000000000E+00  0.62307680141E+03  0.62307680143E+03  0.50400001928E-02 0.  1.
        1   -1    0    0  501    0  0.00000000000E+00  0.00000000000E+00 -0.19455654480E+04  0.19455654480E+04  0.50400001928E-02 0. -1.
    10030    2    1    2    0    0  0.00000000000E+00  0.00000000000E+00 -0.13224886466E+04  0.25686422494E+04  0.22020324215E+04 0.  0.
        1    1    3    3  502    0  0.10554017291E+04  0.30525281171E+03 -0.74523631000E+03  0.13275651572E+04  0.50400001928E-02 0. -1.
       -1    1    3    3    0  502 -0.10554017291E+04 -0.30525281171E+03 -0.57725233661E+03  0.12410770923E+04  0.50400001928E-02 0.  1.
</event>
<event>
 5   0  0.4462201E-06  0.2199342E+04  0.7818609E-02  0.8518702E-01
       -1   -1    0    0    0  501  0.00000000000E+00  0.00000000000E+00  0.18075894850E+04  0.18075894850E+04  0.50400001928E-02 0. -1.
        1   -1    0    0  501    0  0.00000000000E+00  0.00000000000E+00 -0.66899951526E+03  0.66899951528E+03  0.50400001928E-02 0.  1.
    10030    2    1    2    0    0  0.00000000000E+00  0.00000000000E+00  0.11385899698E+04  0.24765890003E+04  0.21993421646E+04 0.  0.
        3    1    3    3  502    0  0.45251749681E+03 -0.95596785337E+03  0.90829271316E+03  0.13941457186E+04  0.10100000352E+00 0. -1.
       -3    1    3    3    0  502 -0.45251749681E+03  0.95596785337E+03  0.23029725659E+03  0.10824432817E+04  0.10100000352E+00 0.  1.
</event>
<event>
 5   0  0.1015876E-05  0.2199434E+04  0.7818609E-02  0.8518664E-01
       -2   -1    0    0    0  501  0.00000000000E+00  0.00000000000E+00  0.98134126303E+03  0.98134126304E+03  0.25500000920E-02 0. -1.
        2   -1    0    0  501    0  0.00000000000E+00  0.00000000000E+00 -0.12323716502E+04  0.12323716502E+04  0.25500000920E-02 0.  1.
    10030    2    1    2    0    0  0.00000000000E+00  0.00000000000E+00 -0.25103038713E+03  0.22137129132E+04  0.21994337014E+04 0.  0.
        5    1    3    3  502    0  0.93165308743E+03  0.53790048307E+03  0.10409005281E+03  0.10808197047E+04  0.46999998093E+01 0. -1.
       -5    1    3    3    0  502 -0.93165308743E+03 -0.53790048307E+03 -0.35512043994E+03  0.11328932085E+04  0.46999998093E+01 0.  1.
</event>
<event>
 5   0  0.4309945E-06  0.2204771E+04  0.7818609E-02  0.8516445E-01
        1   -1    0    0  501    0  0.00000000000E+00  0.00000000000E+00  0.12577571837E+04  0.12577571837E+04  0.50400001928E-02 0. -1.
       -1   -1    0    0    0  501  0.00000000000E+00  0.00000000000E+00 -0.96620701596E+03  0.96620701598E+03  0.50400001928E-02 0.  1.
    10030    2    1    2    0    0  0.00000000000E+00  0.00000000000E+00  0.29155016773E+03  0.22239641997E+04  0.22047710224E+04 0.  0.
        4    1    3    3  502    0 -0.70499243806E+03  0.41789840275E+02  0.99960194412E+03  0.12239143712E+04  0.12699999809E+01 0. -1.
       -4    1    3    3    0  502  0.70499243806E+03 -0.41789840275E+02 -0.70805177639E+03  0.10000498285E+04  0.12699999809E+01 0.  1.
</event>
<event>
 5   0  0.4408787E-06  0.2196841E+04  0.7818609E-02  0.8519744E-01
        1   -1    0    0  501    0  0.00000000000E+00  0.00000000000E+00  0.84701920393E+03  0.84701920395E+03  0.50400001928E-02 0. -1.
       -1   -1    0    0    0  501  0.00000000000E+00  0.00000000000E+00 -0.14244397665E+04  0.14244397665E+04  0.50400001928E-02 0.  1.
    10030    2    1    2    0    0  0.00000000000E+00  0.00000000000E+00 -0.57742056254E+03  0.22714589704E+04  0.21968412205E+04 0.  0.
        1    1    3    3  502    0 -0.91685105546E+03  0.27412504707E+03 -0.84625423741E+03  0.12774610106E+04  0.50400001928E-02 0.  1.
       -1    1    3    3    0  502  0.91685105546E+03 -0.27412504707E+03  0.26883367486E+03  0.99399795980E+03  0.50400001928E-02 0. -1.
</event>
<event>
 5   0  0.4408787E-06  0.2210553E+04  0.7818609E-02  0.8514049E-01
        1   -1    0    0  501    0  0.00000000000E+00  0.00000000000E+00  0.20221986893E+04  0.20221986893E+04  0.50400001928E-02 0.  1.
       -1   -1    0    0    0  501  0.00000000000E+00  0.00000000000E+00 -0.60411274594E+03  0.60411274596E+03  0.50400001928E-02 0. -1.
    10030    2    1    2    0    0  0.00000000000E+00  0.00000000000E+00  0.14180859433E+04  0.26263114352E+04  0.22105528748E+04 0.  0.
        1    1    3    3  502    0 -0.76666682446E+03 -0.41979885583E+03  0.15127561541E+04  0.17471234303E+04  0.50400001928E-02 0.  1.
       -1    1    3    3    0  502  0.76666682446E+03  0.41979885583E+03 -0.94670210780E+02  0.87918800487E+03  0.50400001928E-02 0. -1.
</event>
<event>
 5   0  0.1015876E-05  0.2226536E+04  0.7818609E-02  0.8507464E-01
       -2   -1    0    0    0  501  0.00000000000E+00  0.00000000000E+00  0.13156442149E+04  0.13156442149E+04  0.25500000920E-02 0.  1.
        2   -1    0    0  501    0  0.00000000000E+00  0.00000000000E+00 -0.94202172588E+03  0.94202172589E+03  0.25500000920E-02 0. -1.
    10030    2    1    2    0    0  0.00000000000E+00  0.00000000000E+00  0.37362248899E+03  0.22576659408E+04  0.22265358151E+04 0.  0.
        5    1    3    3  502    0  0.46560521748E+03  0.41238455748E+03 -0.74940395448E+03  0.97389815627E+03  0.46999998093E+01 0. -1.
       -5    1    3    3    0  502 -0.46560521748E+03 -0.41238455748E+03  0.11230264435E+04  0.12837677845E+04  0.46999998093E+01 0.  1.
</event>
<event>
 5   0  0.9963173E-06  0.2212470E+04  0.7818609E-02  0.8513256E-01
        2   -1    0    0  501    0  0.00000000000E+00  0.00000000000E+00  0.19510893207E+04  0.19510893207E+04  0.25500000920E-02 0. -1.
       -2   -1    0    0    0  501  0.00000000000E+00  0.00000000000E+00 -0.62721673892E+03  0.62721673892E+03  0.25500000920E-02 0.  1.
    10030    2    1    2    0    0  0.00000000000E+00  0.00000000000E+00  0.13238725818E+04  0.25783060596E+04  0.22124700053E+04 0.  0.
        4    1    3    3  502    0  0.36009644895E+02 -0.65515114771E+03  0.16998419692E+04  0.18220823401E+04  0.12699999809E+01 0. -1.
       -4    1    3    3    0  502 -0.36009644895E+02  0.65515114771E+03 -0.37596938740E+03  0.75622371956E+03  0.12699999809E+01 0.  1.
</event>
<event>
 5   0  0.4794967E-06  0.2199657E+04  0.7818609E-02  0.8518571E-01
       -1   -1    0    0    0  501  0.00000000000E+00  0.00000000000E+00  0.12918090224E+04  0.12918090224E+04  0.50400001928E-02 0.  1.
        1   -1    0    0  501    0  0.00000000000E+00  0.00000000000E+00 -0.93637925849E+03  0.93637925850E+03  0.50400001928E-02 0. -1.
    10030    2    1    2    0    0  0.00000000000E+00  0.00000000000E+00  0.35542976389E+03  0.22281882809E+04  0.21996574047E+04 0.  0.
        5    1    3    3  502    0 -0.71900536881E+03  0.65857872147E+01  0.10207285827E+04  0.12485675883E+04  0.46999998093E+01 0.  1.
       -5    1    3    3    0  502  0.71900536881E+03 -0.65857872147E+01 -0.66529881885E+03  0.97962069258E+03  0.46999998093E+01 0. -1.
</event>
<event>
 5   0  0.9963173E-06  0.2199404E+04  0.7818609E-02  0.8518676E-01
       -2   -1    0    0    0  501  0.00000000000E+00  0.00000000000E+00  0.69770642069E+03  0.69770642070E+03  0.25500000920E-02 0. -1.
        2   -1    0    0  501    0  0.00000000000E+00  0.00000000000E+00 -0.17333149122E+04  0.17333149122E+04  0.25500000920E-02 0.  1.
    10030    2    1    2    0    0  0.00000000000E+00  0.00000000000E+00 -0.10356084915E+04  0.24310213329E+04  0.21994044133E+04 0.  0.
        4    1    3    3  502    0 -0.86851273900E+03  0.29835459639E+03  0.15089713873E+03  0.93064569110E+03  0.12699999809E+01 0. -1.
       -4    1    3    3    0  502  0.86851273900E+03 -0.29835459639E+03 -0.11865056302E+04  0.15003756418E+04  0.12699999809E+01 0.  1.
</event>
<event>
 5   0  0.4462201E-06  0.2202717E+04  0.7818609E-02  0.8517298E-01
       -1   -1    0    0    0  501  0.00000000000E+00  0.00000000000E+00  0.10339036232E+04  0.10339036232E+04  0.50400001928E-02 0. -1.
        1   -1    0    0  501    0  0.00000000000E+00  0.00000000000E+00 -0.11732148074E+04  0.11732148074E+04  0.50400001928E-02 0.  1.
    10030    2    1    2    0    0  0.00000000000E+00  0.00000000000E+00 -0.13931118414E+03  0.22071184306E+04  0.22027174491E+04 0.  0.
        3    1    3    3  502    0  0.68924858779E+03 -0.85776902288E+03 -0.11622120539E+03  0.11064983919E+04  0.10100000352E+00 0.  1.
       -3    1    3    3    0  502 -0.68924858779E+03  0.85776902288E+03 -0.23089978750E+02  0.11006200388E+04  0.10100000352E+00 0. -1.
</event>
<event>
 5   0  0.9963573E-06  0.2203199E+04  0.7818609E-02  0.8517098E-01
       -2   -1    0    0    0  501  0.00000000000E+00  0.00000000000E+00  0.10702624752E+04  0.10702624752E+04  0.25500000920E-02 0. -1.
        2   -1    0    0  501    0  0.00000000000E+00  0.00000000000E+00 -0.11338542017E+04  0.11338542017E+04  0.25500000920E-02 0.  1.
    10030    2    1    2    0    0  0.00000000000E+00  0.00000000000E+00 -0.63591726478E+02  0.22041166769E+04  0.22031991326E+04 0.  0.
        2    1    3    3  502    0 -0.71231336600E+03 -0.16696567200E+03 -0.85570046099E+03  0.11258290927E+04  0.25500000920E-02 0.  1.
       -2    1    3    3    0  502  0.71231336600E+03  0.16696567200E+03  0.79210873451E+03  0.10782875842E+04  0.25500000920E-02 0. -1.
</event>
<event>
 5   0  0.1014015E-05  0.2196511E+04  0.7818609E-02  0.8519882E-01
        2   -1    0    0  501    0  0.00000000000E+00  0.00000000000E+00  0.18831034133E+04  0.18831034133E+04  0.25500000920E-02 0. -1.
       -2   -1    0    0    0  501  0.00000000000E+00  0.00000000000E+00 -0.64051999666E+03  0.64051999667E+03  0.25500000920E-02 0.  1.
    10030    2    1    2    0    0  0.00000000000E+00  0.00000000000E+00  0.12425834167E+04  0.25236234100E+04  0.21965112265E+04 0.  0.
        1    1    3    3  502    0  0.91545450519E+03  0.22542801775E+03 -0.25880348191E+02  0.94315668619E+03  0.50400001928E-02 0.  1.
       -1    1    3    3    0  502 -0.91545450519E+03 -0.22542801775E+03  0.12684637648E+04  0.15804667238E+04  0.50400001928E-02 0. -1.
</event>
<event>
 5   0  0.4309945E-06  0.2200890E+04  0.7818609E-02  0.8518058E-01
       -1   -1    0    0    0  501  0.00000000000E+00  0.00000000000E+00  0.77027380895E+03  0.77027380896E+03  0.50400001928E-02 0.  1.
        1   -1    0    0  501    0  0.00000000000E+00  0.00000000000E+00 -0.15721414774E+04  0.15721414774E+04  0.50400001928E-02 0. -1.
    10030    2    1    2    0    0  0.00000000000E+00  0.00000000000E+00 -0.80186766845E+03  0.23424152864E+04  0.22008901872E+04 0.  0.
        4    1    3    3  502    0  0.40947745025E+03  0.96703476122E+03 -0.75094213044E+03  0.12910242863E+04  0.12699999809E+01 0. -1.
       -4    1    3    3    0  502 -0.40947745025E+03 -0.96703476122E+03 -0.50925538008E+02  0.10513910001E+04  0.12699999809E+01 0.  1.
</event>
<event>
 5   0  0.1014015E-05  0.2199724E+04  0.7818609E-02  0.8518543E-01
       -2   -1    0    0    0  501  0.00000000000E+00  0.00000000000E+00  0.12076678232E+04  0.12076678232E+04  0.25500000920E-02 0. -1.
        2   -1    0    0  501    0  0.00000000000E+00  0.00000000000E+00 -0.10016795274E+04  0.10016795274E+04  0.25500000920E-02 0.  1.
    10030    2    1    2    0    0  0.00000000000E+00  0.00000000000E+00  0.20598829589E+03  0.22093473506E+04  0.21997237412E+04 0.  0.
        1    1    3    3  502    0  0.23899098184E+03 -0.49630198957E+03 -0.85314955676E+03  0.10155277054E+04  0.50400001928E-02 0.  1.
       -1    1    3    3    0  502 -0.23899098184E+03  0.49630198957E+03  0.10591378527E+04  0.11938196452E+04  0.50400001928E-02 0. -1.
</event>
<event>
 5   0  0.4630615E-06  0.2200772E+04  0.7818609E-02  0.8518107E-01
       -1   -1    0    0    0  501  0.00000000000E+00  0.00000000000E+00  0.10858180529E+04  0.10858180529E+04  0.50400001928E-02 0. -1.
        1   -1    0    0  501    0  0.00000000000E+00  0.00000000000E+00 -0.11151493603E+04  0.11151493603E+04  0.50400001928E-02 0.  1.
    10030    2    1    2    0    0  0.00000000000E+00  0.00000000000E+00 -0.29331307389E+02  0.22009674132E+04  0.22007719619E+04 0.  0.
        2    1    3    3  502    0  0.78858495330E+03  0.75435561042E+03  0.12652298523E+03  0.10986021488E+04  0.25500000920E-02 0. -1.
       -2    1    3    3    0  502 -0.78858495330E+03 -0.75435561042E+03 -0.15585429262E+03  0.11023652644E+04  0.25500000920E-02 0.  1.
</event>
<event>
 5   0  0.9963173E-06  0.2204153E+04  0.7818609E-02  0.8516702E-01
        2   -1    0    0  501    0  0.00000000000E+00  0.00000000000E+00  0.14628342270E+04  0.14628342271E+04  0.25500000920E-02 0. -1.
       -2   -1    0    0    0  501  0.00000000000E+00  0.00000000000E+00 -0.83028696669E+03  0.83028696669E+03  0.25500000920E-02 0.  1.
    10030    2    1    2    0    0  0.00000000000E+00  0.00000000000E+00  0.63254726036E+03  0.22931211937E+04  0.22041526201E+04 0.  0.
        4    1    3    3  502    0  0.55133154596E+02  0.14077664492E+03 -0.81944606454E+03  0.83327738123E+03  0.12699999809E+01 0.  1.
       -4    1    3    3    0  502 -0.55133154596E+02 -0.14077664492E+03  0.14519933249E+04  0.14598438125E+04  0.12699999809E+01 0. -1.
</event>
<event>
 5   0  0.1035928E-05  0.2205158E+04  0.7818609E-02  0.8516284E-01
        2   -1    0    0  501    0  0.00000000000E+00  0.00000000000E+00  0.11546039924E+04  0.11546039924E+04  0.25500000920E-02 0. -1.
       -2   -1    0    0    0  501  0.00000000000E+00  0.00000000000E+00 -0.10528986590E+04  0.10528986590E+04  0.25500000920E-02 0.  1.
    10030    2    1    2    0    0  0.00000000000E+00  0.00000000000E+00  0.10170533335E+03  0.22075026514E+04  0.22051584934E+04 0.  0.
        3    1    3    3  502    0 -0.17628445969E+03  0.34998764278E+03  0.10825370900E+04  0.11512836845E+04  0.10100000352E+00 0. -1.
       -3    1    3    3    0  502  0.17628445969E+03 -0.34998764278E+03 -0.98083175666E+03  0.10562189668E+04  0.10100000352E+00 0.  1.
</event>
<event>
 5   0  0.4630615E-06  0.2201814E+04  0.7818609E-02  0.8517673E-01
        1   -1    0    0  501    0  0.00000000000E+00  0.00000000000E+00  0.85754469768E+03  0.85754469770E+03  0.50400001928E-02 0. -1.
       -1   -1    0    0    0  501  0.00000000000E+00  0.00000000000E+00 -0.14133331216E+04  0.14133331216E+04  0.50400001928E-02 0.  1.
    10030    2    1    2    0    0  0.00000000000E+00  0.00000000000E+00 -0.55578842387E+03  0.22708778193E+04  0.22018140925E+04 0.  0.
        2    1    3    3  502    0  0.65529893384E+03 -0.60100330741E+03 -0.94738919501E+03  0.12992951763E+04  0.25500000920E-02 0. -1.
       -2    1    3    3    0  502 -0.65529893384E+03  0.60100330741E+03  0.39160077114E+03  0.97158264300E+03  0.25500000920E-02 0.  1.
</event>
<event>
 5   0  0.4309945E-06  0.2194502E+04  0.7818609E-02  0.8520720E-01
       -1   -1    0    0    0  501  0.00000000000E+00  0.00000000000E+00  0.10396894648E+04  0.10396894648E+04  0.50400001928E-02 0. -1.
        1   -1    0    0  501    0  0.00000000000E+00  0.00000000000E+00 -0.11579995245E+04  0.11579995245E+04  0.50400001928E-02 0.  1.
    10030    2    1    2    0    0  0.00000000000E+00  0.00000000000E+00 -0.11831005977E+03  0.21976889893E+04  0.21945021357E+04 0.  0.
        4    1    3    3  502    0  0.58841745933E+03 -0.16429851556E+03 -0.97192208903E+03  0.11479822598E+04  0.12699999809E+01 0.  1.
       -4    1    3    3    0  502 -0.58841745933E+03  0.16429851556E+03  0.85361202925E+03  0.10497067295E+04  0.12699999809E+01 0. -1.
</event>
<event>
 5   0  0.4462201E-06  0.2198180E+04  0.7818609E-02  0.8519186E-01
       -1   -1    0    0    0  501  0.00000000000E+00  0.00000000000E+00  0.74960372406E+03  0.74960372408E+03  0.50400001928E-02 0. -1.
        1   -1    0    0  501    0  0.00000000000E+00  0.00000000000E+00 -0.16115166433E+04  0.16115166433E+04  0.50400001928E-02 0.  1.
    10030    2    1    2    0    0  0.00000000000E+00  0.00000000000E+00 -0.86191291927E+03  0.23611203674E+04  0.21981800447E+04 0.  0.
        3    1    3    3  502    0 -0.42216889803E+03 -0.16572398458E+03  0.64440738883E+03  0.78800501934E+03  0.10100000352E+00 0. -1.
       -3    1    3    3    0  502  0.42216889803E+03  0.16572398458E+03 -0.15063203081E+04  0.15731153481E+04  0.10100000352E+00 0.  1.
</event>
<event>
 5   0  0.4462201E-06  0.2201862E+04  0.7818609E-02  0.8517654E-01
        1   -1    0    0  501    0  0.00000000000E+00  0.00000000000E+00  0.10333989754E+04  0.10333989754E+04  0.50400001928E-02 0.  1.
       -1   -1    0    0    0  501  0.00000000000E+00  0.00000000000E+00 -0.11728758678E+04  0.11728758679E+04  0.50400001928E-02 0. -1.
    10030    2    1    2    0    0  0.00000000000E+00  0.00000000000E+00 -0.13947689247E+03  0.22062748432E+04  0.22018616851E+04 0.  0.
        3    1    3    3  502    0  0.50667906367E+03 -0.97720211533E+03 -0.89805120749E+02  0.11044060022E+04  0.10100000352E+00 0. -1.
       -3    1    3    3    0  502 -0.50667906367E+03  0.97720211533E+03 -0.49671771721E+02  0.11018688410E+04  0.10100000352E+00 0.  1.
</event>
<event>
 5   0  0.1014015E-05  0.2192372E+04  0.7818609E-02  0.8521610E-01
        2   -1    0    0  501    0  0.00000000000E+00  0.00000000000E+00  0.13256363828E+04  0.13256363828E+04  0.25500000920E-02 0.  1.
       -2   -1    0    0    0  501  0.00000000000E+00  0.00000000000E+00 -0.90645090146E+03  0.90645090147E+03  0.25500000920E-02 0. -1.
    10030    2    1    2    0    0  0.00000000000E+00  0.00000000000E+00  0.41918548135E+03  0.22320872843E+04  0.21923724996E+04 0.  0.
        1    1    3    3  502    0 -0.81416942228E+02  0.88864699698E+02 -0.89968482933E+03  0.90772156826E+03  0.50400001928E-02 0. -1.
       -1    1    3    3    0  502  0.81416942228E+02 -0.88864699698E+02  0.13188703107E+04  0.13243657160E+04  0.50400001928E-02 0.  1.
</event>
<event>
 5   0  0.1015876E-05  0.2199539E+04  0.7818609E-02  0.8518620E-01
       -2   -1    0    0    0  501  0.00000000000E+00  0.00000000000E+00  0.11817194016E+04  0.11817194016E+04  0.25500000920E-02 0.  1.
        2   -1    0    0  501    0  0.00000000000E+00  0.00000000000E+00 -0.10235029766E+04  0.10235029766E+04  0.25500000920E-02 0. -1.
    10030    2    1    2    0    0  0.00000000000E+00  0.00000000000E+00  0.15821642503E+03  0.22052223782E+04  0.21995393382E+04 0.  0.
        5    1    3    3  502    0  0.64063629007E+03  0.33667142006E+03 -0.75110663859E+03  0.10430463910E+04  0.46999998093E+01 0. -1.
       -5    1    3    3    0  502 -0.64063629007E+03 -0.33667142006E+03  0.90932306362E+03  0.11621759872E+04  0.46999998093E+01 0.  1.
</event>
<event>
 5   0  0.9963573E-06  0.2205764E+04  0.7818609E-02  0.8516033E-01
       -2   -1    0    0    0  501  0.00000000000E+00  0.00000000000E+00  0.96588025514E+03  0.96588025515E+03  0.25500000920E-02 0. -1.
        2   -1    0    0  501    0  0.00000000000E+00  0.00000000000E+00 -0.12593161832E+04  0.12593161832E+04  0.25500000920E-02 0.  1.
    10030    2    1    2    0    0  0.00000000000E+00  0.00000000000E+00 -0.29343592810E+03  0.22251964384E+04  0.22057639369E+04 0.  0.
        2    1    3    3  502    0  0.10212872831E+04 -0.20193333602E+03  0.22055513055E+03  0.10641660361E+04  0.25500000920E-02 0.  1.
       -2    1    3    3    0  502 -0.10212872831E+04  0.20193333602E+03 -0.51399105865E+03  0.11610304023E+04  0.25500000920E-02 0. -1.
</event>
<event>
 5   0  0.4408787E-06  0.2198175E+04  0.7818609E-02  0.8519188E-01
        1   -1    0    0  501    0  0.00000000000E+00  0.00000000000E+00  0.94329112087E+03  0.94329112088E+03  0.50400001928E-02 0.  1.
       -1   -1    0    0    0  501  0.00000000000E+00  0.00000000000E+00 -0.12806158373E+04  0.12806158373E+04  0.50400001928E-02 0. -1.
    10030    2    1    2    0    0  0.00000000000E+00  0.00000000000E+00 -0.33732471645E+03  0.22239069582E+04  0.21981751965E+04 0.  0.
        1    1    3    3  502    0 -0.10137722242E+04  0.42266269614E+03 -0.20932829737E+03  0.11181217346E+04  0.50400001928E-02 0. -1.
       -1    1    3    3    0  502  0.10137722242E+04 -0.42266269614E+03 -0.12799641908E+03  0.11057852236E+04  0.50400001928E-02 0.  1.
</event>
<event>
 5   0  0.9963573E-06  0.2196729E+04  0.7818609E-02  0.8519791E-01
       -2   -1    0    0    0  501  0.00000000000E+00  0.00000000000E+00  0.12648159966E+04  0.12648159966E+04  0.25500000920E-02 0.  1.
        2   -1    0    0  501    0  0.00000000000E+00  0.00000000000E+00 -0.95381854949E+03  0.95381854950E+03  0.25500000920E-02 0. -1.
    10030    2    1    2    0    0  0.00000000000E+00  0.00000000000E+00  0.31099744708E+03  0.22186345461E+04  0.21967293500E+04 0.  0.
        2    1    3    3  502    0 -0.40079764999E+03 -0.66729110594E+03  0.93813805240E+03  0.12190238643E+04  0.25500000920E-02 0.  1.
       -2    1    3    3    0  502  0.40079764999E+03  0.66729110594E+03 -0.62714060532E+03  0.99961068180E+03  0.25500000920E-02 0. -1.
</event>
<event>
 5   0  0.4408787E-06  0.2199812E+04  0.7818609E-02  0.8518507E-01
       -1   -1    0    0    0  501  0.00000000000E+00  0.00000000000E+00  0.22426773008E+04  0.22426773008E+04  0.50400001928E-02 0.  1.
        1   -1    0    0  501    0  0.00000000000E+00  0.00000000000E+00 -0.53944132973E+03  0.53944132975E+03  0.50400001928E-02 0. -1.
    10030    2    1    2    0    0  0.00000000000E+00  0.00000000000E+00  0.17032359711E+04  0.27821186306E+04  0.21998116513E+04 0.  0.
        1    1    3    3  502    0  0.81882361995E+03  0.44024323876E+03  0.15950107293E+04  0.18461704841E+04  0.50400001928E-02 0.  1.
       -1    1    3    3    0  502 -0.81882361995E+03 -0.44024323876E+03  0.10822524180E+03  0.93594814645E+03  0.50400001928E-02 0. -1.
</event>
<event>
 5   0  0.4794967E-06  0.2192604E+04  0.7818609E-02  0.8521513E-01
        1   -1    0    0  501    0  0.00000000000E+00  0.00000000000E+00  0.17864719521E+04  0.17864719521E+04  0.50400001928E-02 0. -1.
       -1   -1    0    0    0  501  0.00000000000E+00  0.00000000000E+00 -0.67276640669E+03  0.67276640671E+03  0.50400001928E-02 0.  1.
    10030    2    1    2    0    0  0.00000000000E+00  0.00000000000E+00  0.11137055454E+04  0.24592383588E+04  0.21926042196E+04 0.  0.
        5    1    3    3  502    0 -0.59158433881E+03  0.74781017715E+03 -0.49918667257E+02  0.95483299813E+03  0.46999998093E+01 0.  1.
       -5    1    3    3    0  502  0.59158433881E+03 -0.74781017715E+03  0.11636242127E+04  0.15044053607E+04  0.46999998093E+01 0. -1.
</event>
<event>
 5   0  0.9963173E-06  0.2196992E+04  0.7818609E-02  0.8519681E-01
        2   -1    0    0  501    0  0.00000000000E+00  0.00000000000E+00  0.14370893364E+04  0.14370893364E+04  0.25500000920E-02 0.  1.
       -2   -1    0    0    0  501  0.00000000000E+00  0.00000000000E+00 -0.83967868504E+03  0.83967868504E+03  0.25500000920E-02 0. -1.
    10030    2    1    2    0    0  0.00000000000E+00  0.00000000000E+00  0.59741065135E+03  0.22767680214E+04  0.21969918382E+04 0.  0.
        4    1    3    3  502    0 -0.71656016606E+03 -0.61327500921E+03 -0.28488344073E+03  0.98525372174E+03  0.12699999809E+01 0. -1.
       -4    1    3    3    0  502  0.71656016606E+03  0.61327500921E+03  0.88229409208E+03  0.12915142997E+04  0.12699999809E+01 0.  1.
</event>
<event>
 5   0  0.4408787E-06  0.2200953E+04  0.7818609E-02  0.8518032E-01
        1   -1    0    0  501    0  0.00000000000E+00  0.00000000000E+00  0.11263703963E+04  0.11263703963E+04  0.50400001928E-02 0. -1.
       -1   -1    0    0    0  501  0.00000000000E+00  0.00000000000E+00 -0.10751777763E+04  0.10751777763E+04  0.50400001928E-02 0.  1.
    10030    2    1    2    0    0  0.00000000000E+00  0.00000000000E+00  0.51192620003E+02  0.22015481726E+04  0.22009529009E+04 0.  0.
        1    1    3    3  502    0 -0.85604830976E+03  0.68505090826E+03  0.12014680547E+03  0.11029726699E+04  0.50400001928E-02 0. -1.
       -1    1    3    3    0  502  0.85604830976E+03 -0.68505090826E+03 -0.68954185469E+02  0.10985755028E+04  0.50400001928E-02 0.  1.
</event>
<event>
 5   0  0.3546750E-06  0.2201225E+04  0.7818609E-02  0.8517918E-01
       -3   -1    0    0    0  501  0.00000000000E+00  0.00000000000E+00  0.76335027563E+03  0.76335028231E+03  0.10100000352E+00 0. -1.
        3   -1    0    0  501    0  0.00000000000E+00  0.00000000000E+00 -0.15868833958E+04  0.15868833990E+04  0.10100000352E+00 0.  1.
    10030    2    1    2    0    0  0.00000000000E+00  0.00000000000E+00 -0.82353312019E+03  0.23502336813E+04  0.22012250128E+04 0.  0.
        4    1    3    3  502    0  0.15641504837E+03  0.12118879655E+03 -0.15677359455E+04  0.15801740409E+04  0.12699999809E+01 0.  1.
       -4    1    3    3    0  502 -0.15641504837E+03 -0.12118879655E+03  0.74420282531E+03  0.77005964046E+03  0.12699999809E+01 0. -1.
</event>
<event>
 5   0  0.4408787E-06  0.2208264E+04  0.7818609E-02  0.8514996E-01
        1   -1    0    0  501    0  0.00000000000E+00  0.00000000000E+00  0.11479605274E+04  0.11479605275E+04  0.50400001928E-02 0. -1.
       -1   -1    0    0    0  501  0.00000000000E+00  0.00000000000E+00 -0.10619770648E+04  0.10619770648E+04  0.50400001928E-02 0.  1.
    10030    2    1    2    0    0  0.00000000000E+00  0.00000000000E+00  0.85983462639E+02  0.22099375923E+04  0.22082642518E+04 0.  0.
        1    1    3    3  502    0 -0.97672636978E+02  0.27264113108E+02  0.11432904063E+04  0.11477788241E+04  0.50400001928E-02 0. -1.
       -1    1    3    3    0  502  0.97672636978E+02 -0.27264113108E+02 -0.10573069436E+04  0.10621587682E+04  0.50400001928E-02 0.  1.
</event>
<event>
 5   0  0.4630615E-06  0.2201464E+04  0.7818609E-02  0.8517819E-01
       -1   -1    0    0    0  501  0.00000000000E+00  0.00000000000E+00  0.10659960728E+04  0.10659960728E+04  0.50400001928E-02 0.  1.
        1   -1    0    0  501    0  0.00000000000E+00  0.00000000000E+00 -0.11366000716E+04  0.11366000716E+04  0.50400001928E-02 0. -1.
    10030    2    1    2    0    0  0.00000000000E+00  0.00000000000E+00 -0.70603998774E+02  0.22025961444E+04  0.22014642515E+04 0.  0.
        2    1    3    3  502    0  0.68699384450E+02  0.56957421583E+03  0.90458337241E+03  0.10711701407E+04  0.25500000920E-02 0.  1.
       -2    1    3    3    0  502 -0.68699384450E+02 -0.56957421583E+03 -0.97518737118E+03  0.11314260036E+04  0.25500000920E-02 0. -1.
</event>
<event>
 5   0  0.4309945E-06  0.2198776E+04  0.7818609E-02  0.8518938E-01
       -1   -1    0    0    0  501  0.00000000000E+00  0.00000000000E+00  0.63297830811E+03  0.63297830813E+03  0.50400001928E-02 0.  1.
        1   -1    0    0  501    0  0.00000000000E+00  0.00000000000E+00 -0.19094714820E+04  0.19094714820E+04  0.50400001928E-02 0. -1.
    10030    2    1    2    0    0  0.00000000000E+00  0.00000000000E+00 -0.12764931739E+04  0.25424497901E+04  0.21987760487E+04 0.  0.
        4    1    3    3  502    0 -0.80346109454E+03 -0.47187748611E+03  0.36418221346E+02  0.93249449976E+03  0.12699999809E+01 0.  1.
       -4    1    3    3    0  502  0.80346109454E+03  0.47187748611E+03 -0.13129113952E+04  0.16099552903E+04  0.12699999809E+01 0. -1.
</event>
<event>
 5   0  0.4794967E-06  0.2202389E+04  0.7818609E-02  0.8517435E-01
        1   -1    0    0  501    0  0.00000000000E+00  0.00000000000E+00  0.13344407875E+04  0.13344407875E+04  0.50400001928E-02 0.  1.
       -1   -1    0    0    0  501  0.00000000000E+00  0.00000000000E+00 -0.90871682636E+03  0.90871682638E+03  0.50400001928E-02 0. -1.
    10030    2    1    2    0    0  0.00000000000E+00  0.00000000000E+00  0.42572396114E+03  0.22431576139E+04  0.22023885192E+04 0.  0.
        5    1    3    3  502    0 -0.10807337104E+04 -0.13650796168E+03  0.48673247292E+02  0.10904177876E+04  0.46999998093E+01 0. -1.
       -5    1    3    3    0  502  0.10807337104E+04  0.13650796168E+03  0.37705071384E+03  0.11527398263E+04  0.46999998093E+01 0.  1.
</event>
<event>
 5   0  0.1014015E-05  0.2138940E+04  0.7818609E-02  0.8544282E-01
        2   -1    0    0  501    0  0.00000000000E+00  0.00000000000E+00  0.24261931994E+04  0.24261931994E+04  0.25500000920E-02 0.  1.
       -2   -1    0    0    0  501  0.00000000000E+00  0.00000000000E+00 -0.47142394242E+03  0.47142394243E+03  0.25500000920E-02 0. -1.
    10030    2    1    2    0    0  0.00000000000E+00  0.00000000000E+00  0.19547692569E+04  0.28976171418E+04  0.21389395159E+04 0.  0.
        1    1    3    3  502    0  0.13836883908E+03  0.19037802440E+03 -0.43590751154E+03  0.49538377694E+03  0.50400001928E-02 0. -1.
       -1    1    3    3    0  502 -0.13836883908E+03 -0.19037802440E+03  0.23906767685E+04  0.24022333649E+04  0.50400001928E-02 0.  1.
</event>
<event>
 5   0  0.4630615E-06  0.2199712E+04  0.7818609E-02  0.8518548E-01
        1   -1    0    0  501    0  0.00000000000E+00  0.00000000000E+00  0.12214530065E+04  0.12214530065E+04  0.50400001928E-02 0. -1.
       -1   -1    0    0    0  501  0.00000000000E+00  0.00000000000E+00 -0.99036419838E+03  0.99036419840E+03  0.50400001928E-02 0.  1.
    10030    2    1    2    0    0  0.00000000000E+00  0.00000000000E+00  0.23108880810E+03  0.22118172049E+04  0.21997120972E+04 0.  0.
        2    1    3    3  502    0 -0.10449816012E+04  0.25222216291E+03  0.34937685769E+03  0.11303392213E+04  0.25500000920E-02 0. -1.
       -2    1    3    3    0  502  0.10449816012E+04 -0.25222216291E+03 -0.11828804959E+03  0.10814779836E+04  0.25500000920E-02 0.  1.
</event>
<event>
 5   0  0.1035928E-05  0.2198953E+04  0.7818609E-02  0.8518864E-01
       -2   -1    0    0    0  501  0.00000000000E+00  0.00000000000E+00  0.74447855289E+03  0.74447855290E+03  0.25500000920E-02 0. -1.
        2   -1    0    0  501    0  0.00000000000E+00  0.00000000000E+00 -0.16237514745E+04  0.16237514745E+04  0.25500000920E-02 0.  1.
    10030    2    1    2    0    0  0.00000000000E+00  0.00000000000E+00 -0.87927292164E+03  0.23682300274E+04  0.21989526125E+04 0.  0.
        3    1    3    3  502    0 -0.71765187348E+03 -0.29573386244E+03  0.39900286199E+03  0.87274625349E+03  0.10100000352E+00 0. -1.
       -3    1    3    3    0  502  0.71765187348E+03  0.29573386244E+03 -0.12782757836E+04  0.14954837739E+04  0.10100000352E+00 0.  1.
</event>
<event>
 5   0  0.4309945E-06  0.2200618E+04  0.7818609E-02  0.8518171E-01
        1   -1    0    0  501    0  0.00000000000E+00  0.00000000000E+00  0.97724232600E+03  0.97724232601E+03  0.50400001928E-02 0. -1.
       -1   -1    0    0    0  501  0.00000000000E+00  0.00000000000E+00 -0.12388735190E+04  0.12388735190E+04  0.50400001928E-02 0.  1.
    10030    2    1    2    0    0  0.00000000000E+00  0.00000000000E+00 -0.26163119300E+03  0.22161158450E+04  0.22006177672E+04 0.  0.
        4    1    3    3  502    0 -0.23231495697E+03  0.75812177168E+03 -0.89905061633E+03  0.11987545552E+04  0.12699999809E+01 0.  1.
       -4    1    3    3    0  502  0.23231495697E+03 -0.75812177168E+03  0.63741942333E+03  0.10173612898E+04  0.12699999809E+01 0. -1.
</event>
<event>
 5   0  0.1014015E-05  0.2199983E+04  0.7818609E-02  0.8518435E-01
       -2   -1    0    0    0  501  0.00000000000E+00  0.00000000000E+00  0.58693482440E+03  0.58693482441E+03  0.25500000920E-02 0.  1.
        2   -1    0    0  501    0  0.00000000000E+00  0.00000000000E+00 -0.20615261892E+04  0.20615261892E+04  0.25500000920E-02 0. -1.
    10030    2    1    2    0    0  0.00000000000E+00  0.00000000000E+00 -0.14745913648E+04  0.26484610136E+04  0.21999831925E+04 0.  0.
        1    1    3    3  502    0 -0.21331901074E+03 -0.82231164202E+03 -0.15785140034E+04  0.17925980854E+04  0.50400001928E-02 0. -1.
       -1    1    3    3    0  502  0.21331901074E+03  0.82231164202E+03  0.10392263862E+03  0.85586292815E+03  0.50400001928E-02 0.  1.
</event>
<event>
 5   0  0.4462201E-06  0.2199650E+04  0.7818609E-02  0.8518574E-01
       -1   -1    0    0    0  501  0.00000000000E+00  0.00000000000E+00  0.10977598670E+04  0.10977598670E+04  0.50400001928E-02 0. -1.
        1   -1    0    0  501    0  0.00000000000E+00  0.00000000000E+00 -0.11018942657E+04  0.11018942657E+04  0.50400001928E-02 0.  1.
    10030    2    1    2    0    0  0.00000000000E+00  0.00000000000E+00 -0.41343986726E+01  0.21996541327E+04  0.21996502472E+04 0.  0.
        3    1    3    3  502    0  0.67164291376E+03 -0.84813718279E+03  0.19585840863E+03  0.10994550518E+04  0.10100000352E+00 0. -1.
       -3    1    3    3    0  502 -0.67164291376E+03  0.84813718279E+03 -0.19999280730E+03  0.11001990809E+04  0.10100000352E+00 0.  1.
</event>
<event>
 5   0  0.9963173E-06  0.2196951E+04  0.7818609E-02  0.8519698E-01
       -2   -1    0    0    0  501  0.00000000000E+00  0.00000000000E+00  0.12184130416E+04  0.12184130416E+04  0.25500000920E-02 0. -1.
        2   -1    0    0  501    0  0.00000000000E+00  0.00000000000E+00 -0.99034395973E+03  0.99034395974E+03  0.25500000920E-02 0.  1.
    10030    2    1    2    0    0  0.00000000000E+00  0.00000000000E+00  0.22806908182E+03  0.22087570013E+04  0.21969506104E+04 0.  0.
        4    1    3    3  502    0  0.76081937335E+03  0.55725819572E+03  0.68032304757E+03  0.11628516146E+04  0.12699999809E+01 0. -1.
       -4    1    3    3    0  502 -0.76081937335E+03 -0.55725819572E+03 -0.45225396574E+03  0.10459053867E+04  0.12699999809E+01 0.  1.
</event>
<event>
 5   0  0.9963173E-06  0.2199800E+04  0.7818609E-02  0.8518511E-01
       -2   -1    0    0    0  501  0.00000000000E+00  0.00000000000E+00  0.51303510185E+03  0.51303510185E+03  0.25500000920E-02 0.  1.
        2   -1    0    0  501    0  0.00000000000E+00  0.00000000000E+00 -0.23580837391E+04  0.23580837391E+04  0.25500000920E-02 0. -1.
    10030    2    1    2    0    0  0.00000000000E+00  0.00000000000E+00 -0.18450486372E+04  0.28711188410E+04  0.21997997466E+04 0.  0.
        4    1    3    3  502    0 -0.62608137783E+03  0.60878073041E+02 -0.21001447219E+04  0.21923260473E+04  0.12699999809E+01 0. -1.
       -4    1    3    3    0  502  0.62608137783E+03 -0.60878073041E+02  0.25509608470E+03  0.67879279370E+03  0.12699999809E+01 0.  1.
</event>
<event>
 5   0  0.1015876E-05  0.2201936E+04  0.7818609E-02  0.8517623E-01
        2   -1    0    0  501    0  0.00000000000E+00  0.00000000000E+00  0.13300278374E+04  0.13300278374E+04  0.25500000920E-02 0. -1.
       -2   -1    0    0    0  501  0.00000000000E+00  0.00000000000E+00 -0.91135702743E+03  0.91135702743E+03  0.25500000920E-02 0.  1.
    10030    2    1    2    0    0  0.00000000000E+00  0.00000000000E+00  0.41867080995E+03  0.22413848648E+04  0.22019357087E+04 0.  0.
        5    1    3    3  502    0 -0.11911552813E+03 -0.91124766971E+03 -0.40778288759E+03  0.10054202097E+04  0.46999998093E+01 0.  1.
       -5    1    3    3    0  502  0.11911552813E+03  0.91124766971E+03  0.82645369753E+03  0.12359646551E+04  0.46999998093E+01 0. -1.
</event>
<event>
 5   0  0.9963573E-06  0.2202735E+04  0.7818609E-02  0.8517291E-01
       -2   -1    0    0    0  501  0.00000000000E+00  0.00000000000E+00  0.90204902156E+03  0.90204902157E+03  0.25500000920E-02 0.  1.
        2   -1    0    0  501    0  0.00000000000E+00  0.00000000000E+00 -0.13447275473E+04  0.13447275473E+04  0.25500000920E-02 0. -1.
    10030    2    1    2    0    0  0.00000000000E+00  0.00000000000E+00 -0.44267852577E+03  0.22467765689E+04  0.22027348169E+04 0.  0.
        2    1    3    3  502    0 -0.10302412956E+04 -0.25602422614E+03  0.77894118218E+02  0.10644308457E+04  0.25500000920E-02 0. -1.
       -2    1    3    3    0  502  0.10302412956E+04  0.25602422614E+03 -0.52057264399E+03  0.11823457232E+04  0.25500000920E-02 0.  1.
</event>
<event>
 5   0  0.1035928E-05  0.2195131E+04  0.7818609E-02  0.8520457E-01
        2   -1    0    0  501    0  0.00000000000E+00  0.00000000000E+00  0.19042866419E+04  0.19042866419E+04  0.25500000920E-02 0.  1.
       -2   -1    0    0    0  501  0.00000000000E+00  0.00000000000E+00 -0.63259936286E+03  0.63259936286E+03  0.25500000920E-02 0. -1.
    10030    2    1    2    0    0  0.00000000000E+00  0.00000000000E+00  0.12716872790E+04  0.25368860048E+04  0.21951314461E+04 0.  0.
        3    1    3    3  502    0 -0.62255373100E+03 -0.56262664350E+03  0.14534699877E+04  0.16783017915E+04  0.10100000352E+00 0.  1.
       -3    1    3    3    0  502  0.62255373100E+03  0.56262664350E+03 -0.18178270864E+03  0.85858421330E+03  0.10100000352E+00 0. -1.
</event>
<event>
 5   0  0.1035928E-05  0.2203947E+04  0.7818609E-02  0.8516787E-01
        2   -1    0    0  501    0  0.00000000000E+00  0.00000000000E+00  0.12193196734E+04  0.12193196734E+04  0.25500000920E-02 0.  1.
       -2   -1    0    0    0  501  0.00000000000E+00  0.00000000000E+00 -0.99592079396E+03  0.99592079396E+03  0.25500000920E-02 0. -1.
    10030    2    1    2    0    0  0.00000000000E+00  0.00000000000E+00  0.22339887949E+03  0.22152404674E+04  0.22039472020E+04 0.  0.
        3    1    3    3  502    0 -0.25300295741E+03 -0.10064711156E+03 -0.96157614523E+03  0.99938432587E+03  0.10100000352E+00 0. -1.
       -3    1    3    3    0  502  0.25300295741E+03  0.10064711156E+03  0.11849750247E+04  0.12158561415E+04  0.10100000352E+00 0.  1.
</event>
<event>
 5   0  0.9963573E-06  0.2201848E+04  0.7818609E-02  0.8517659E-01
        2   -1    0    0  501    0  0.00000000000E+00  0.00000000000E+00  0.20501181895E+04  0.20501181895E+04  0.25500000920E-02 0. -1.
       -2   -1    0    0    0  501  0.00000000000E+00  0.00000000000E+00 -0.59120178482E+03  0.59120178482E+03  0.25500000920E-02 0.  1.
    10030    2    1    2    0    0  0.00000000000E+00  0.00000000000E+00  0.14589164047E+04  0.26413199743E+04  0.22018478901E+04 0.  0.
        2    1    3    3  502    0 -0.89770908417E+03 -0.66990799907E+02  0.14897236378E+04  0.17405877984E+04  0.25500000920E-02 0. -1.
       -2    1    3    3    0  502  0.89770908417E+03  0.66990799907E+02 -0.30807233096E+02  0.90073217590E+03  0.25500000920E-02 0.  1.
</event>
<event>
 5   0  0.3546750E-06  0.2195495E+04  0.7818609E-02  0.8520306E-01
       -3   -1    0    0    0  501  0.00000000000E+00  0.00000000000E+00  0.64277839009E+03  0.64277839802E+03  0.10100000352E+00 0.  1.
        3   -1    0    0  501    0  0.00000000000E+00  0.00000000000E+00 -0.18747505884E+04  0.18747505911E+04  0.10100000352E+00 0. -1.
    10030    2    1    2    0    0  0.00000000000E+00  0.00000000000E+00 -0.12319721983E+04  0.25175289892E+04  0.21954946399E+04 0.  0.
        3    1    3    3  502    0 -0.28008316664E+03 -0.92848002792E+02  0.59645171477E+03  0.66544871336E+03  0.10100000352E+00 0.  1.
       -3    1    3    3    0  502  0.28008316664E+03  0.92848002792E+02 -0.18284239131E+04  0.18520802758E+04  0.10100000352E+00 0. -1.
</event>
<event>
 5   0  0.3546750E-06  0.2197425E+04  0.7818609E-02  0.8519500E-01
       -4   -1    0    0    0  501  0.00000000000E+00  0.00000000000E+00  0.15057040094E+04  0.15057045450E+04  0.12699999809E+01 0. -1.
        4   -1    0    0  501    0  0.00000000000E+00  0.00000000000E+00 -0.80172986923E+03  0.80173087512E+03  0.12699999809E+01 0.  1.
    10030    2    1    2    0    0  0.00000000000E+00  0.00000000000E+00  0.70397414022E+03  0.23074354202E+04  0.21974254545E+04 0.  0.
        2    1    3    3  502    0 -0.95464525421E+03 -0.71123539984E+02 -0.21423315240E+03  0.98096990928E+03  0.25500000920E-02 0.  1.
       -2    1    3    3    0  502  0.95464525421E+03  0.71123539984E+02  0.91820729262E+03  0.13264655109E+04  0.25500000920E-02 0. -1.
</event>
<event>
 5   0  0.1035928E-05  0.2195223E+04  0.7818609E-02  0.8520419E-01
        2   -1    0    0  501    0  0.00000000000E+00  0.00000000000E+00  0.24044499622E+04  0.24044499622E+04  0.25500000920E-02 0.  1.
       -2   -1    0    0    0  501  0.00000000000E+00  0.00000000000E+00 -0.50105074132E+03  0.50105074133E+03  0.25500000920E-02 0. -1.
    10030    2    1    2    0    0  0.00000000000E+00  0.00000000000E+00  0.19033992209E+04  0.29055007035E+04  0.21952233928E+04 0.  0.
        3    1    3    3  502    0  0.72733525239E+02 -0.15784469485E+03 -0.48272370525E+03  0.51305681868E+03  0.10100000352E+00 0. -1.
       -3    1    3    3    0  502 -0.72733525239E+02  0.15784469485E+03  0.23861229261E+04  0.23924438849E+04  0.10100000352E+00 0.  1.
</event>
<event>
 5   0  0.4309945E-06  0.2199636E+04  0.7818609E-02  0.8518580E-01
       -1   -1    0    0    0  501  0.00000000000E+00  0.00000000000E+00  0.11325840796E+04  0.11325840796E+04  0.50400001928E-02 0.  1.
        1   -1    0    0  501    0  0.00000000000E+00  0.00000000000E+00 -0.10679997836E+04  0.10679997836E+04  0.50400001928E-02 0. -1.
    10030    2    1    2    0    0  0.00000000000E+00  0.00000000000E+00  0.64584296007E+02  0.22005838632E+04  0.21996359262E+04 0.  0.
        4    1    3    3  502    0  0.36882400384E+03  0.61774355089E+03 -0.79990748525E+03  0.10758679465E+04  0.12699999809E+01 0. -1.
       -4    1    3    3    0  502 -0.36882400384E+03 -0.61774355089E+03  0.86449178125E+03  0.11247159167E+04  0.12699999809E+01 0.  1.
</event>
<event>
 5   0  0.1014015E-05  0.2197071E+04  0.7818609E-02  0.8519648E-01
        2   -1    0    0  501    0  0.00000000000E+00  0.00000000000E+00  0.14237990210E+04  0.14237990210E+04  0.25500000920E-02 0. -1.
       -2   -1    0    0    0  501  0.00000000000E+00  0.00000000000E+00 -0.84757747668E+03  0.84757747668E+03  0.25500000920E-02 0.  1.
    10030    2    1    2    0    0  0.00000000000E+00  0.00000000000E+00  0.57622154436E+03  0.22713764977E+04  0.21970707604E+04 0.  0.
        1    1    3    3  502    0  0.75019153824E+03  0.80049505372E+03  0.22962626059E+03  0.11208514151E+04  0.50400001928E-02 0. -1.
       -1    1    3    3    0  502 -0.75019153824E+03 -0.80049505372E+03  0.34659528376E+03  0.11505250827E+04  0.50400001928E-02 0.  1.
</event>
<event>
 5   0  0.9963573E-06  0.2200155E+04  0.7818609E-02  0.8518364E-01
        2   -1    0    0  501    0  0.00000000000E+00  0.00000000000E+00  0.24220830709E+04  0.24220830709E+04  0.25500000920E-02 0. -1.
       -2   -1    0    0    0  501  0.00000000000E+00  0.00000000000E+00 -0.49964028079E+03  0.49964028080E+03  0.25500000920E-02 0.  1.
    10030    2    1    2    0    0  0.00000000000E+00  0.00000000000E+00  0.19224427901E+04  0.29217233517E+04  0.22001547815E+04 0.  0.
        2    1    3    3  502    0 -0.36310323449E+03  0.30482579129E+02  0.23396166264E+04  0.23678215949E+04  0.25500000920E-02 0. -1.
       -2    1    3    3    0  502  0.36310323449E+03 -0.30482579129E+02 -0.41717383630E+03  0.55390175684E+03  0.25500000920E-02 0.  1.
</event>
<event>
 5   0  0.4630615E-06  0.2205951E+04  0.7818609E-02  0.8515955E-01
        1   -1    0    0  501    0  0.00000000000E+00  0.00000000000E+00  0.18933463907E+04  0.18933463907E+04  0.50400001928E-02 0. -1.
       -1   -1    0    0    0  501  0.00000000000E+00  0.00000000000E+00 -0.64254244851E+03  0.64254244852E+03  0.50400001928E-02 0.  1.
    10030    2    1    2    0    0  0.00000000000E+00  0.00000000000E+00  0.12508039422E+04  0.25358888393E+04  0.22059514281E+04 0.  0.
        2    1    3    3  502    0  0.62496472335E+03  0.89039551021E+03  0.41603444020E+03  0.11646758027E+04  0.25500000920E-02 0.  1.
       -2    1    3    3    0  502 -0.62496472335E+03 -0.89039551021E+03  0.83476950203E+03  0.13712130365E+04  0.25500000920E-02 0. -1.
</event>
<event>
 5   0  0.1015876E-05  0.2202562E+04  0.7818609E-02  0.8517362E-01
        2   -1    0    0  501    0  0.00000000000E+00  0.00000000000E+00  0.10753351254E+04  0.10753351254E+04  0.25500000920E-02 0.  1.
       -2   -1    0    0    0  501  0.00000000000E+00  0.00000000000E+00 -0.11278533926E+04  0.11278533926E+04  0.25500000920E-02 0. -1.
    10030    2    1    2    0    0  0.00000000000E+00  0.00000000000E+00 -0.52518267226E+02  0.22031885180E+04  0.22025624798E+04 0.  0.
        5    1    3    3  502    0 -0.45069187185E+03  0.10048091385E+04 -0.20451348278E+02  0.11014558165E+04  0.46999998093E+01 0.  1.
       -5    1    3    3    0  502  0.45069187185E+03 -0.10048091385E+04 -0.32066918948E+02  0.11017327015E+04  0.46999998093E+01 0. -1.
</event>
<event>
 5   0  0.4462201E-06  0.2206510E+04  0.7818609E-02  0.8515723E-01
       -1   -1    0    0    0  501  0.00000000000E+00  0.00000000000E+00  0.56324343482E+03  0.56324343484E+03  0.50400001928E-02 0. -1.
        1   -1    0    0  501    0  0.00000000000E+00  0.00000000000E+00 -0.21610052797E+04  0.21610052797E+04  0.50400001928E-02 0.  1.
    10030    2    1    2    0    0  0.00000000000E+00  0.00000000000E+00 -0.15977618449E+04  0.27242487145E+04  0.22065104001E+04 0.  0.
        3    1    3    3  502    0  0.20441500358E+03 -0.86949737590E+03  0.64898854592E+00  0.89320300703E+03  0.10100000352E+00 0. -1.
       -3    1    3    3    0  502 -0.20441500358E+03  0.86949737590E+03 -0.15984108334E+04  0.18310457075E+04  0.10100000352E+00 0.  1.
</event>
<event>
 5   0  0.4462201E-06  0.2200820E+04  0.7818609E-02  0.8518087E-01
       -1   -1    0    0    0  501  0.00000000000E+00  0.00000000000E+00  0.10783328969E+04  0.10783328969E+04  0.50400001928E-02 0.  1.
        1   -1    0    0  501    0  0.00000000000E+00  0.00000000000E+00 -0.11229396036E+04  0.11229396036E+04  0.50400001928E-02 0. -1.
    10030    2    1    2    0    0  0.00000000000E+00  0.00000000000E+00 -0.44606706692E+02  0.22012725005E+04  0.22008204977E+04 0.  0.
        3    1    3    3  502    0  0.30372072071E+03 -0.87463440449E+03 -0.61712801335E+03  0.11126898098E+04  0.10100000352E+00 0. -1.
       -3    1    3    3    0  502 -0.30372072071E+03  0.87463440449E+03  0.57252130665E+03  0.10885826907E+04  0.10100000352E+00 0.  1.
</event>
<event>
 5   0  0.4309945E-06  0.2206821E+04  0.7818609E-02  0.8515595E-01
        1   -1    0    0  501    0  0.00000000000E+00  0.00000000000E+00  0.17761389371E+04  0.17761389371E+04  0.50400001928E-02 0.  1.
       -1   -1    0    0    0  501  0.00000000000E+00  0.00000000000E+00 -0.68548373252E+03  0.68548373254E+03  0.50400001928E-02 0. -1.
    10030    2    1    2    0    0  0.00000000000E+00  0.00000000000E+00  0.10906552045E+04  0.24616226696E+04  0.22068206525E+04 0.  0.
        4    1    3    3  502    0  0.93447414707E+02 -0.12493521828E+03  0.17637724618E+04  0.17706598030E+04  0.12699999809E+01 0.  1.
       -4    1    3    3    0  502 -0.93447414707E+02  0.12493521828E+03 -0.67311725726E+03  0.69096286659E+03  0.12699999809E+01 0. -1.
</event>
<event>
 5   0  0.9963173E-06  0.2199294E+04  0.7818609E-02  0.8518722E-01
       -2   -1    0    0    0  501  0.00000000000E+00  0.00000000000E+00  0.68300668186E+03  0.68300668187E+03  0.25500000920E-02 0.  1.
        2   -1    0    0  501    0  0.00000000000E+00  0.00000000000E+00 -0.17704419228E+04  0.17704419228E+04  0.25500000920E-02 0. -1.
    10030    2    1    2    0    0  0.00000000000E+00  0.00000000000E+00 -0.10874352409E+04  0.24534486047E+04  0.21992941260E+04 0.  0.
        4    1    3    3  502    0 -0.12522253969E+03  0.57085322945E+03 -0.15828489284E+04  0.16872955986E+04  0.12699999809E+01 0. -1.
       -4    1    3    3    0  502  0.12522253969E+03 -0.57085322945E+03  0.49541368749E+03  0.76615300605E+03  0.12699999809E+01 0.  1.
</event>
<event>
 5   0  0.9963573E-06  0.2198406E+04  0.7818609E-02  0.8519092E-01
       -2   -1    0    0    0  501  0.00000000000E+00  0.00000000000E+00  0.12281538836E+04  0.12281538836E+04  0.25500000920E-02 0. -1.
        2   -1    0    0  501    0  0.00000000000E+00  0.00000000000E+00 -0.98379129690E+03  0.98379129690E+03  0.25500000920E-02 0.  1.
    10030    2    1    2    0    0  0.00000000000E+00  0.00000000000E+00  0.24436258666E+03  0.22119451805E+04  0.21984058787E+04 0.  0.
        2    1    3    3  502    0 -0.23505737010E+03  0.99094922502E+03  0.53826747276E+03  0.11519393239E+04  0.25500000920E-02 0. -1.
       -2    1    3    3    0  502  0.23505737010E+03 -0.99094922502E+03 -0.29390488610E+03  0.10600058565E+04  0.25500000920E-02 0.  1.
</event>
<event>
 5   0  0.9963173E-06  0.2199878E+04  0.7818609E-02  0.8518479E-01
       -2   -1    0    0    0  501  0.00000000000E+00  0.00000000000E+00  0.10185832112E+04  0.10185832112E+04  0.25500000920E-02 0.  1.
        2   -1    0    0  501    0  0.00000000000E+00  0.00000000000E+00 -0.11877932424E+04  0.11877932424E+04  0.25500000920E-02 0. -1.
    10030    2    1    2    0    0  0.00000000000E+00  0.00000000000E+00 -0.16921003115E+03  0.22063764536E+04  0.21998784103E+04 0.  0.
        4    1    3    3  502    0  0.50503938953E+03 -0.47715955830E+03 -0.93983627741E+03  0.11687770832E+04  0.12699999809E+01 0. -1.
       -4    1    3    3    0  502 -0.50503938953E+03  0.47715955830E+03  0.77062624626E+03  0.10375993704E+04  0.12699999809E+01 0.  1.
</event>
<event>
 5   0  0.1014015E-05  0.2199067E+04  0.7818609E-02  0.8518816E-01
       -2   -1    0    0    0  501  0.00000000000E+00  0.00000000000E+00  0.67855930449E+03  0.67855930450E+03  0.25500000920E-02 0.  1.
        2   -1    0    0  501    0  0.00000000000E+00  0.00000000000E+00 -0.17816782901E+04  0.17816782901E+04  0.25500000920E-02 0. -1.
    10030    2    1    2    0    0  0.00000000000E+00  0.00000000000E+00 -0.11031189856E+04  0.24602375946E+04  0.21990674218E+04 0.  0.
        1    1    3    3  502    0 -0.38409886784E+03 -0.53513524367E+03  0.43338040329E+03  0.78849238632E+03  0.50400001928E-02 0.  1.
       -1    1    3    3    0  502  0.38409886784E+03  0.53513524367E+03 -0.15364993889E+04  0.16717452083E+04  0.50400001928E-02 0. -1.
</event>
<event>
 5   0  0.1035928E-05  0.2199494E+04  0.7818609E-02  0.8518639E-01
        2   -1    0    0  501    0  0.00000000000E+00  0.00000000000E+00  0.19084294425E+04  0.19084294425E+04  0.25500000920E-02 0.  1.
       -2   -1    0    0    0  501  0.00000000000E+00  0.00000000000E+00 -0.63373744620E+03  0.63373744621E+03  0.25500000920E-02 0. -1.
    10030    2    1    2    0    0  0.00000000000E+00  0.00000000000E+00  0.12746919963E+04  0.25421668887E+04  0.21994937610E+04 0.  0.
        3    1    3    3  502    0  0.65520003587E+03  0.39903032119E+02  0.16571775434E+04  0.17824468462E+04  0.10100000352E+00 0.  1.
       -3    1    3    3    0  502 -0.65520003587E+03 -0.39903032119E+02 -0.38248554713E+03  0.75972004248E+03  0.10100000352E+00 0. -1.
</event>
<event>
 5   0  0.4408787E-06  0.2225563E+04  0.7818609E-02  0.8507863E-01
       -1   -1    0    0    0  501  0.00000000000E+00  0.00000000000E+00  0.73866795884E+03  0.73866795886E+03  0.50400001928E-02 0. -1.
        1   -1    0    0  501    0  0.00000000000E+00  0.00000000000E+00 -0.16763721771E+04  0.16763721771E+04  0.50400001928E-02 0.  1.
    10030    2    1    2    0    0  0.00000000000E+00  0.00000000000E+00 -0.93770421827E+03  0.24150401360E+04  0.22255627732E+04 0.  0.
        1    1    3    3  502    0 -0.17008485901E+03 -0.97977526782E+03  0.73058292574E+02  0.99710879489E+03  0.50400001928E-02 0. -1.
       -1    1    3    3    0  502  0.17008485901E+03  0.97977526782E+03 -0.10107625108E+04  0.14179313411E+04  0.50400001928E-02 0.  1.
</event>
<event>
 5   0  0.9963573E-06  0.2201670E+04  0.7818609E-02  0.8517733E-01
        2   -1    0    0  501    0  0.00000000000E+00  0.00000000000E+00  0.16610748843E+04  0.16610748843E+04  0.25500000920E-02 0. -1.
       -2   -1    0    0    0  501  0.00000000000E+00  0.00000000000E+00 -0.72955016153E+03  0.72955016153E+03  0.25500000920E-02 0.  1.
    10030    2    1    2    0    0  0.00000000000E+00  0.00000000000E+00  0.93152472282E+03  0.23906250459E+04  0.22016697756E+04 0.  0.
        2    1    3    3  502    0 -0.87557106786E+03 -0.36196180578E+03  0.10744015213E+04  0.14324732712E+04  0.25500000920E-02 0. -1.
       -2    1    3    3    0  502  0.87557106786E+03  0.36196180578E+03 -0.14287679851E+03  0.95815177466E+03  0.25500000920E-02 0.  1.
</event>
<event>
 5   0  0.4630615E-06  0.2202906E+04  0.7818609E-02  0.8517220E-01
       -1   -1    0    0    0  501  0.00000000000E+00  0.00000000000E+00  0.50367942188E+03  0.50367942190E+03  0.50400001928E-02 0. -1.
        1   -1    0    0  501    0  0.00000000000E+00  0.00000000000E+00 -0.24086717456E+04  0.24086717456E+04  0.50400001928E-02 0.  1.
    10030    2    1    2    0    0  0.00000000000E+00  0.00000000000E+00 -0.19049923237E+04  0.29123511675E+04  0.22029057105E+04 0.  0.
        2    1    3    3  502    0 -0.10997927732E+04  0.46265286596E+02 -0.90105887917E+03  0.14225300434E+04  0.25500000920E-02 0.  1.
       -2    1    3    3    0  502  0.10997927732E+04 -0.46265286596E+02 -0.10039334445E+04  0.14898211241E+04  0.25500000920E-02 0. -1.
</event>
<event>
 5   0  0.9963573E-06  0.2149438E+04  0.7818609E-02  0.8539773E-01
       -2   -1    0    0    0  501  0.00000000000E+00  0.00000000000E+00  0.11810138231E+04  0.11810138231E+04  0.25500000920E-02 0. -1.
        2   -1    0    0  501    0  0.00000000000E+00  0.00000000000E+00 -0.97799100669E+03  0.97799100670E+03  0.25500000920E-02 0.  1.
    10030    2    1    2    0    0  0.00000000000E+00  0.00000000000E+00  0.20302281639E+03  0.21590048298E+04  0.21494379710E+04 0.  0.
        2    1    3    3  502    0  0.18340078155E+03  0.67815760975E+03 -0.71542726354E+03  0.10026812852E+04  0.25500000920E-02 0.  1.
       -2    1    3    3    0  502 -0.18340078155E+03 -0.67815760975E+03  0.91845007993E+03  0.11563235445E+04  0.25500000920E-02 0. -1.
</event>
<event>
 5   0  0.9963173E-06  0.2190958E+04  0.7818609E-02  0.8522201E-01
        2   -1    0    0  501    0  0.00000000000E+00  0.00000000000E+00  0.26409746988E+04  0.26409746988E+04  0.25500000920E-02 0. -1.
       -2   -1    0    0    0  501  0.00000000000E+00  0.00000000000E+00 -0.45440591908E+03  0.45440591909E+03  0.25500000920E-02 0.  1.
    10030    2    1    2    0    0  0.00000000000E+00  0.00000000000E+00  0.21865687798E+04  0.30953806179E+04  0.21909582701E+04 0.  0.
        4    1    3    3  502    0  0.68717664198E+03  0.77144621392E+03  0.57856841409E+03  0.11840962887E+04  0.12699999809E+01 0.  1.
       -4    1    3    3    0  502 -0.68717664198E+03 -0.77144621392E+03  0.16080003657E+04  0.19112843292E+04  0.12699999809E+01 0. -1.
</event>
<event>
 5   0  0.4408787E-06  0.2204917E+04  0.7818609E-02  0.8516384E-01
       -1   -1    0    0    0  501  0.00000000000E+00  0.00000000000E+00  0.15975500858E+04  0.15975500859E+04  0.50400001928E-02 0.  1.
        1   -1    0    0  501    0  0.00000000000E+00  0.00000000000E+00 -0.76079891904E+03  0.76079891906E+03  0.50400001928E-02 0. -1.
    10030    2    1    2    0    0  0.00000000000E+00  0.00000000000E+00  0.83675116681E+03  0.23583490049E+04  0.22049166682E+04 0.  0.
        1    1    3    3  502    0 -0.20998658714E+03  0.10822282165E+04  0.40756804186E+03  0.11753399457E+04  0.50400001928E-02 0. -1.
       -1    1    3    3    0  502  0.20998658714E+03 -0.10822282165E+04  0.42918312495E+03  0.11830090592E+04  0.50400001928E-02 0.  1.
</event>
<event>
 5   0  0.4462201E-06  0.2202460E+04  0.7818609E-02  0.8517405E-01
        1   -1    0    0  501    0  0.00000000000E+00  0.00000000000E+00  0.59170268332E+03  0.59170268334E+03  0.50400001928E-02 0.  1.
       -1   -1    0    0    0  501  0.00000000000E+00  0.00000000000E+00 -0.20495217434E+04  0.20495217434E+04  0.50400001928E-02 0. -1.
    10030    2    1    2    0    0  0.00000000000E+00  0.00000000000E+00 -0.14578190601E+04  0.26412244267E+04  0.22024600020E+04 0.  0.
        3    1    3    3  502    0  0.10162211850E+04  0.33102803334E+03 -0.10471481170E+04  0.14962634276E+04  0.10100000352E+00 0. -1.
       -3    1    3    3    0  502 -0.10162211850E+04 -0.33102803334E+03 -0.41067094310E+03  0.11449609991E+04  0.10100000352E+00 0.  1.
</event>
<event>
 5   0  0.1035928E-05  0.2200020E+04  0.7818609E-02  0.8518420E-01
        2   -1    0    0  501    0  0.00000000000E+00  0.00000000000E+00  0.18073778046E+04  0.18073778046E+04  0.25500000920E-02 0.  1.
       -2   -1    0    0    0  501  0.00000000000E+00  0.00000000000E+00 -0.66949011261E+03  0.66949011261E+03  0.25500000920E-02 0. -1.
    10030    2    1    2    0    0  0.00000000000E+00  0.00000000000E+00  0.11378876919E+04  0.24768679172E+04  0.22000196089E+04 0.  0.
        3    1    3    3  502    0  0.10125447864E+04 -0.25916910679E+03  0.18285165681E+03  0.10610609356E+04  0.10100000352E+00 0. -1.
       -3    1    3    3    0  502 -0.10125447864E+04  0.25916910679E+03  0.95503603513E+03  0.14158069816E+04  0.10100000352E+00 0.  1.
</event>
<event>
 5   0  0.4794967E-06  0.2181372E+04  0.7818609E-02  0.8526222E-01
       -1   -1    0    0    0  501  0.00000000000E+00  0.00000000000E+00  0.88969727053E+03  0.88969727054E+03  0.50400001928E-02 0. -1.
        1   -1    0    0  501    0  0.00000000000E+00  0.00000000000E+00 -0.13370799206E+04  0.13370799206E+04  0.50400001928E-02 0.  1.
    10030    2    1    2    0    0  0.00000000000E+00  0.00000000000E+00 -0.44738265007E+03  0.22267771911E+04  0.21813723716E+04 0.  0.
        5    1    3    3  502    0 -0.91259298708E+03  0.26667194474E+03 -0.76926347860E+03  0.12229997039E+04  0.46999998093E+01 0.  1.
       -5    1    3    3    0  502  0.91259298708E+03 -0.26667194474E+03  0.32188082853E+03  0.10037774873E+04  0.46999998093E+01 0. -1.
</event>
<event>
 5   0  0.4309945E-06  0.2208006E+04  0.7818609E-02  0.8515103E-01
       -1   -1    0    0    0  501  0.00000000000E+00  0.00000000000E+00  0.61015036145E+03  0.61015036147E+03  0.50400001928E-02 0. -1.
        1   -1    0    0  501    0  0.00000000000E+00  0.00000000000E+00 -0.19975776238E+04  0.19975776238E+04  0.50400001928E-02 0.  1.
    10030    2    1    2    0    0  0.00000000000E+00  0.00000000000E+00 -0.13874272623E+04  0.26077279852E+04  0.22080060772E+04 0.  0.
        4    1    3    3  502    0 -0.76780779296E+03  0.68876549892E+03 -0.22889893664E+03  0.10565619033E+04  0.12699999809E+01 0. -1.
       -4    1    3    3    0  502  0.76780779296E+03 -0.68876549892E+03 -0.11585283257E+04  0.15511660819E+04  0.12699999809E+01 0.  1.
</event>
<event>
 5   0  0.9963173E-06  0.2201766E+04  0.7818609E-02  0.8517693E-01
       -2   -1    0    0    0  501  0.00000000000E+00  0.00000000000E+00  0.50882851444E+03  0.50882851445E+03  0.25500000920E-02 0. -1.
        2   -1    0    0  501    0  0.00000000000E+00  0.00000000000E+00 -0.23818304840E+04  0.23818304840E+04  0.25500000920E-02 0.  1.
    10030    2    1    2    0    0  0.00000000000E+00  0.00000000000E+00 -0.18730019696E+04  0.28906589984E+04  0.22017658975E+04 0.  0.
        4    1    3    3  502    0  0.46810807053E+03 -0.56906907355E+03  0.13731848800E+03  0.74954836816E+03  0.12699999809E+01 0. -1.
       -4    1    3    3    0  502 -0.46810807053E+03  0.56906907355E+03 -0.20103204576E+04  0.21411106303E+04  0.12699999809E+01 0.  1.
</event>
<event>
 5   0  0.1014015E-05  0.2202106E+04  0.7818609E-02  0.8517552E-01
        2   -1    0    0  501    0  0.00000000000E+00  0.00000000000E+00  0.96439676285E+03  0.96439676286E+03  0.25500000920E-02 0.  1.
       -2   -1    0    0    0  501  0.00000000000E+00  0.00000000000E+00 -0.12570738201E+04  0.12570738201E+04  0.25500000920E-02 0. -1.
    10030    2    1    2    0    0  0.00000000000E+00  0.00000000000E+00 -0.29267705720E+03  0.22214705829E+04  0.22021061943E+04 0.  0.
        1    1    3    3  502    0  0.36086479559E+03  0.83694849673E+03 -0.76951804405E+03  0.11928387179E+04  0.50400001928E-02 0. -1.
       -1    1    3    3    0  502 -0.36086479559E+03 -0.83694849673E+03  0.47684098685E+03  0.10286318650E+04  0.50400001928E-02 0.  1.
</event>
<event>
 5   0  0.4630615E-06  0.2205550E+04  0.7818609E-02  0.8516122E-01
        1   -1    0    0  501    0  0.00000000000E+00  0.00000000000E+00  0.14277768959E+04  0.14277768959E+04  0.50400001928E-02 0. -1.
       -1   -1    0    0    0  501  0.00000000000E+00  0.00000000000E+00 -0.85175240032E+03  0.85175240034E+03  0.50400001928E-02 0.  1.
    10030    2    1    2    0    0  0.00000000000E+00  0.00000000000E+00  0.57602449555E+03  0.22795292962E+04  0.22055497258E+04 0.  0.
        2    1    3    3  502    0 -0.18123745656E+03 -0.88277682806E+03 -0.36889359665E+03  0.97376816002E+03  0.25500000920E-02 0.  1.
       -2    1    3    3    0  502  0.18123745656E+03  0.88277682806E+03  0.94491809219E+03  0.13057611362E+04  0.25500000920E-02 0. -1.
</event>
<event>
 5   0  0.9963573E-06  0.2200091E+04  0.7818609E-02  0.8518390E-01
        2   -1    0    0  501    0  0.00000000000E+00  0.00000000000E+00  0.15704864710E+04  0.15704864710E+04  0.25500000920E-02 0. -1.
       -2   -1    0    0    0  501  0.00000000000E+00  0.00000000000E+00 -0.77052549006E+03  0.77052549007E+03  0.25500000920E-02 0.  1.
    10030    2    1    2    0    0  0.00000000000E+00  0.00000000000E+00  0.79996098092E+03  0.23410119611E+04  0.22000907779E+04 0.  0.
        2    1    3    3  502    0  0.30931111020E+03 -0.67595011705E+03  0.12627937954E+04  0.14653429952E+04  0.25500000920E-02 0. -1.
       -2    1    3    3    0  502 -0.30931111020E+03  0.67595011705E+03 -0.46283281452E+03  0.87566896590E+03  0.25500000920E-02 0.  1.
</event>
<event>
 5   0  0.1014015E-05  0.2197381E+04  0.7818609E-02  0.8519519E-01
        2   -1    0    0  501    0  0.00000000000E+00  0.00000000000E+00  0.21754320748E+04  0.21754320748E+04  0.25500000920E-02 0.  1.
       -2   -1    0    0    0  501  0.00000000000E+00  0.00000000000E+00 -0.55488777085E+03  0.55488777086E+03  0.25500000920E-02 0. -1.
    10030    2    1    2    0    0  0.00000000000E+00  0.00000000000E+00  0.16205443040E+04  0.27303198457E+04  0.21973808542E+04 0.  0.
        1    1    3    3  502    0 -0.39340814607E+03 -0.10147875777E+04  0.62365674904E+03  0.12543968821E+04  0.50400001928E-02 0.  1.
       -1    1    3    3    0  502  0.39340814607E+03  0.10147875777E+04  0.99688755495E+03  0.14759229636E+04  0.50400001928E-02 0. -1.
</event>
<event>
 5   0  0.1035928E-05  0.2193300E+04  0.7818609E-02  0.8521222E-01
       -2   -1    0    0    0  501  0.00000000000E+00  0.00000000000E+00  0.88136616251E+03  0.88136616251E+03  0.25500000920E-02 0. -1.
        2   -1    0    0  501    0  0.00000000000E+00  0.00000000000E+00 -0.13645189057E+04  0.13645189057E+04  0.25500000920E-02 0.  1.
    10030    2    1    2    0    0  0.00000000000E+00  0.00000000000E+00 -0.48315274318E+03  0.22458850682E+04  0.21932996071E+04 0.  0.
        3    1    3    3  502    0  0.10124621599E+04  0.14622975885E+03  0.16309223563E+03  0.10358869895E+04  0.10100000352E+00 0. -1.
       -3    1    3    3    0  502 -0.10124621599E+04 -0.14622975885E+03 -0.64624497881E+03  0.12099980787E+04  0.10100000352E+00 0.  1.
</event>
<event>
 5   0  0.9963573E-06  0.2199906E+04  0.7818609E-02  0.8518467E-01
       -2   -1    0    0    0  501  0.00000000000E+00  0.00000000000E+00  0.11695573668E+04  0.11695573668E+04  0.25500000920E-02 0. -1.
        2   -1    0    0  501    0  0.00000000000E+00  0.00000000000E+00 -0.10344907074E+04  0.10344907074E+04  0.25500000920E-02 0.  1.
    10030    2    1    2    0    0  0.00000000000E+00  0.00000000000E+00  0.13506665941E+03  0.22040480742E+04  0.21999056595E+04 0.  0.
        2    1    3    3  502    0  0.40497142991E+03 -0.93162450055E+03 -0.35512613608E+03  0.10761229677E+04  0.25500000920E-02 0.  1.
       -2    1    3    3    0  502 -0.40497142991E+03  0.93162450055E+03  0.49019279550E+03  0.11279251065E+04  0.25500000920E-02 0. -1.
</event>
<event>
 5   0  0.4794967E-06  0.2212785E+04  0.7818609E-02  0.8513126E-01
       -1   -1    0    0    0  501  0.00000000000E+00  0.00000000000E+00  0.10651765948E+04  0.10651765948E+04  0.50400001928E-02 0. -1.
        1   -1    0    0  501    0  0.00000000000E+00  0.00000000000E+00 -0.11492028187E+04  0.11492028187E+04  0.50400001928E-02 0.  1.
    10030    2    1    2    0    0  0.00000000000E+00  0.00000000000E+00 -0.84026223939E+02  0.22143794136E+04  0.22127846214E+04 0.  0.
        5    1    3    3  502    0  0.83720518445E+02 -0.38453475117E+03 -0.10767824103E+04  0.11464547741E+04  0.46999998093E+01 0.  1.
       -5    1    3    3    0  502 -0.83720518445E+02  0.38453475117E+03  0.99275618631E+03  0.10679246394E+04  0.46999998093E+01 0. -1.
</event>
<event>
 5   0  0.9963173E-06  0.2199036E+04  0.7818609E-02  0.8518830E-01
       -2   -1    0    0    0  501  0.00000000000E+00  0.00000000000E+00  0.87613283946E+03  0.87613283946E+03  0.25500000920E-02 0.  1.
        2   -1    0    0  501    0  0.00000000000E+00  0.00000000000E+00 -0.13798584318E+04  0.13798584318E+04  0.25500000920E-02 0. -1.
    10030    2    1    2    0    0  0.00000000000E+00  0.00000000000E+00 -0.50372559230E+03  0.22559912712E+04  0.21990355030E+04 0.  0.
        4    1    3    3  502    0 -0.32284091935E+03  0.10388249620E+04 -0.41585967114E+03  0.11646134293E+04  0.12699999809E+01 0. -1.
       -4    1    3    3    0  502  0.32284091935E+03 -0.10388249620E+04 -0.87865921155E+02  0.10913778419E+04  0.12699999809E+01 0.  1.
</event>
<event>
 5   0  0.4462201E-06  0.2197300E+04  0.7818609E-02  0.8519553E-01
        1   -1    0    0  501    0  0.00000000000E+00  0.00000000000E+00  0.10194906079E+04  0.10194906079E+04  0.50400001928E-02 0. -1.
       -1   -1    0    0    0  501  0.00000000000E+00  0.00000000000E+00 -0.11839557154E+04  0.11839557154E+04  0.50400001928E-02 0.  1.
    10030    2    1    2    0    0  0.00000000000E+00  0.00000000000E+00 -0.16446510754E+03  0.22034463234E+04  0.21972999177E+04 0.  0.
        3    1    3    3  502    0 -0.95228734055E+03  0.41303256061E+03  0.27875307342E+03  0.10747792151E+04  0.10100000352E+00 0. -1.
       -3    1    3    3    0  502  0.95228734055E+03 -0.41303256061E+03 -0.44321818096E+03  0.11286671082E+04  0.10100000352E+00 0.  1.
</event>
<event>
 5   0  0.4408787E-06  0.2190755E+04  0.7818609E-02  0.8522286E-01
       -1   -1    0    0    0  501  0.00000000000E+00  0.00000000000E+00  0.91315412924E+03  0.91315412926E+03  0.50400001928E-02 0.  1.
        1   -1    0    0  501    0  0.00000000000E+00  0.00000000000E+00 -0.13139644546E+04  0.13139644546E+04  0.50400001928E-02 0. -1.
    10030    2    1    2    0    0  0.00000000000E+00  0.00000000000E+00 -0.40081032536E+03  0.22271185839E+04  0.21907551825E+04 0.  0.
        1    1    3    3  502    0 -0.50226783518E+03 -0.96859860903E+03 -0.29894615338E+03  0.11312935279E+04  0.50400001928E-02 0. -1.
       -1    1    3    3    0  502  0.50226783518E+03  0.96859860903E+03 -0.10186417198E+03  0.10958250559E+04  0.50400001928E-02 0.  1.
</event>
<event>
 5   0  0.1035928E-05  0.2199837E+04  0.7818609E-02  0.8518496E-01
       -2   -1    0    0    0  501  0.00000000000E+00  0.00000000000E+00  0.12669595993E+04  0.12669595993E+04  0.25500000920E-02 0.  1.
        2   -1    0    0  501    0  0.00000000000E+00  0.00000000000E+00 -0.95490050571E+03  0.95490050571E+03  0.25500000920E-02 0. -1.
    10030    2    1    2    0    0  0.00000000000E+00  0.00000000000E+00  0.31205909357E+03  0.22218601050E+04  0.21998366867E+04 0.  0.
        3    1    3    3  502    0  0.61191108108E+03 -0.83527072875E+03 -0.21877585446E+03  0.10582888293E+04  0.10100000352E+00 0. -1.
       -3    1    3    3    0  502 -0.61191108108E+03  0.83527072875E+03  0.53083494804E+03  0.11635712757E+04  0.10100000352E+00 0.  1.
</event>
<event>
 5   0  0.3546750E-06  0.2201065E+04  0.7818609E-02  0.8517985E-01
        3   -1    0    0  501    0  0.00000000000E+00  0.00000000000E+00  0.21384274789E+04  0.21384274812E+04  0.10100000352E+00 0.  1.
       -3   -1    0    0    0  501  0.00000000000E+00  0.00000000000E+00 -0.56638428709E+03  0.56638429610E+03  0.10100000352E+00 0. -1.
    10030    2    1    2    0    0  0.00000000000E+00  0.00000000000E+00  0.15720431918E+04  0.27048117773E+04  0.22010649591E+04 0.  0.
        4    1    3    3  502    0  0.11474084431E+03 -0.83861714841E+03  0.16503654160E+04  0.18547646218E+04  0.12699999809E+01 0.  1.
       -4    1    3    3    0  502 -0.11474084431E+03  0.83861714841E+03 -0.78322224240E+02  0.85004715556E+03  0.12699999809E+01 0. -1.
</event>
<event>
 5   0  0.4462201E-06  0.2199119E+04  0.7818609E-02  0.8518795E-01
       -1   -1    0    0    0  501  0.00000000000E+00  0.00000000000E+00  0.64901865856E+03  0.64901865858E+03  0.50400001928E-02 0. -1.
        1   -1    0    0  501    0  0.00000000000E+00  0.00000000000E+00 -0.18628610463E+04  0.18628610463E+04  0.50400001928E-02 0.  1.
    10030    2    1    2    0    0  0.00000000000E+00  0.00000000000E+00 -0.12138423878E+04  0.25118797049E+04  0.21991194396E+04 0.  0.
        3    1    3    3  502    0 -0.56012960303E+03  0.94616947013E+03 -0.61497598014E+03  0.12598322526E+04  0.10100000352E+00 0.  1.
       -3    1    3    3    0  502  0.56012960303E+03 -0.94616947013E+03 -0.59886640764E+03  0.12520474523E+04  0.10100000352E+00 0. -1.
</event>
<event>
 5   0  0.4309945E-06  0.2223180E+04  0.7818609E-02  0.8508842E-01
        1   -1    0    0  501    0  0.00000000000E+00  0.00000000000E+00  0.98494496479E+03  0.98494496480E+03  0.50400001928E-02 0.  1.
       -1   -1    0    0    0  501  0.00000000000E+00  0.00000000000E+00 -0.12545188634E+04  0.12545188634E+04  0.50400001928E-02 0. -1.
    10030    2    1    2    0    0  0.00000000000E+00  0.00000000000E+00 -0.26957389862E+03  0.22394638282E+04  0.22231797388E+04 0.  0.
        4    1    3    3  502    0 -0.62518846857E+03 -0.85343751081E+03 -0.47848137650E+03  0.11611038914E+04  0.12699999809E+01 0. -1.
       -4    1    3    3    0  502  0.62518846857E+03  0.85343751081E+03  0.20890747787E+03  0.10783599368E+04  0.12699999809E+01 0.  1.
</event>
<event>
 5   0  0.4794967E-06  0.2196830E+04  0.7818609E-02  0.8519749E-01
       -1   -1    0    0    0  501  0.00000000000E+00  0.00000000000E+00  0.11344071670E+04  0.11344071670E+04  0.50400001928E-02 0.  1.
        1   -1    0    0  501    0  0.00000000000E+00  0.00000000000E+00 -0.10635651703E+04  0.10635651703E+04  0.50400001928E-02 0. -1.
    10030    2    1    2    0    0  0.00000000000E+00  0.00000000000E+00  0.70841996736E+02  0.21979723373E+04  0.21968304002E+04 0.  0.
        5    1    3    3  502    0  0.77775850723E+03  0.40864267322E+03  0.69500318872E+03  0.11202449073E+04  0.46999998093E+01 0.  1.
       -5    1    3    3    0  502 -0.77775850723E+03 -0.40864267322E+03 -0.62416119198E+03  0.10777274301E+04  0.46999998093E+01 0. -1.
</event>
<event>
 5   0  0.4309945E-06  0.2198764E+04  0.7818609E-02  0.8518943E-01
       -1   -1    0    0    0  501  0.00000000000E+00  0.00000000000E+00  0.63297629262E+03  0.63297629264E+03  0.50400001928E-02 0.  1.
        1   -1    0    0  501    0  0.00000000000E+00  0.00000000000E+00 -0.19094558951E+04  0.19094558951E+04  0.50400001928E-02 0. -1.
    10030    2    1    2    0    0  0.00000000000E+00  0.00000000000E+00 -0.12764796025E+04  0.25424321878E+04  0.21987635739E+04 0.  0.
        4    1    3    3  502    0  0.76118376474E+03  0.59957031148E+03 -0.12387969253E+04  0.15727379684E+04  0.12699999809E+01 0. -1.
       -4    1    3    3    0  502 -0.76118376474E+03 -0.59957031148E+03 -0.37682677214E+02  0.96969421942E+03  0.12699999809E+01 0.  1.
</event>
<event>
 5   0  0.1035928E-05  0.2195547E+04  0.7818609E-02  0.8520284E-01
        2   -1    0    0  501    0  0.00000000000E+00  0.00000000000E+00  0.67974595316E+03  0.67974595316E+03  0.25500000920E-02 0.  1.
       -2   -1    0    0    0  501  0.00000000000E+00  0.00000000000E+00 -0.17728783853E+04  0.17728783853E+04  0.25500000920E-02 0. -1.
    10030    2    1    2    0    0  0.00000000000E+00  0.00000000000E+00 -0.10931324322E+04  0.24526243385E+04  0.21955472283E+04 0.  0.
        3    1    3    3  502    0  0.43657344064E+03 -0.48105406234E+03 -0.15351106012E+04  0.16669055007E+04  0.10100000352E+00 0. -1.
       -3    1    3    3    0  502 -0.43657344064E+03  0.48105406234E+03  0.44197816907E+03  0.78571883781E+03  0.10100000352E+00 0.  1.
</event>
<event>
 5   0  0.4408787E-06  0.2200005E+04  0.7818609E-02  0.8518426E-01
       -1   -1    0    0    0  501  0.00000000000E+00  0.00000000000E+00  0.55611042454E+03  0.55611042457E+03  0.50400001928E-02 0. -1.
        1   -1    0    0  501    0  0.00000000000E+00  0.00000000000E+00 -0.21758366083E+04  0.21758366084E+04  0.50400001928E-02 0.  1.
    10030    2    1    2    0    0  0.00000000000E+00  0.00000000000E+00 -0.16197261838E+04  0.27319470329E+04  0.22000049273E+04 0.  0.
        1    1    3    3  502    0 -0.33994008765E+03 -0.83466317891E+03 -0.26664275083E+02  0.90162789942E+03  0.50400001928E-02 0. -1.
       -1    1    3    3    0  502  0.33994008765E+03  0.83466317891E+03 -0.15930619087E+04  0.18303191335E+04  0.50400001928E-02 0.  1.
</event>
<event>
 5   0  0.1035928E-05  0.2213273E+04  0.7818609E-02  0.8512924E-01
       -2   -1    0    0    0  501  0.00000000000E+00  0.00000000000E+00  0.10633302196E+04  0.10633302196E+04  0.25500000920E-02 0. -1.
        2   -1    0    0  501    0  0.00000000000E+00  0.00000000000E+00 -0.11517061954E+04  0.11517061954E+04  0.25500000920E-02 0.  1.
    10030    2    1    2    0    0  0.00000000000E+00  0.00000000000E+00 -0.88375975775E+02  0.22150364149E+04  0.22132726914E+04 0.  0.
        3    1    3    3  502    0  0.11082471406E+03 -0.71740341784E+03 -0.88013452758E+03  0.11408709734E+04  0.10100000352E+00 0.  1.
       -3    1    3    3    0  502 -0.11082471406E+03  0.71740341784E+03  0.79175855181E+03  0.10741654415E+04  0.10100000352E+00 0. -1.
</event>
<event>
 5   0  0.9963173E-06  0.2198525E+04  0.7818609E-02  0.8519042E-01
        2   -1    0    0  501    0  0.00000000000E+00  0.00000000000E+00  0.98838655912E+03  0.98838655912E+03  0.25500000920E-02 0.  1.
       -2   -1    0    0    0  501  0.00000000000E+00  0.00000000000E+00 -0.12225766524E+04  0.12225766524E+04  0.25500000920E-02 0. -1.
    10030    2    1    2    0    0  0.00000000000E+00  0.00000000000E+00 -0.23419009325E+03  0.22109632115E+04  0.21985252609E+04 0.  0.
        4    1    3    3  502    0  0.11695283280E+03 -0.53571806568E+03  0.84103045137E+03  0.10039948426E+04  0.12699999809E+01 0.  1.
       -4    1    3    3    0  502 -0.11695283280E+03  0.53571806568E+03 -0.10752205446E+04  0.12069683689E+04  0.12699999809E+01 0. -1.
</event>
<event>
 5   0  0.4309945E-06  0.2155255E+04  0.7818609E-02  0.8537286E-01
       -1   -1    0    0    0  501  0.00000000000E+00  0.00000000000E+00  0.16690599292E+04  0.16690599292E+04  0.50400001928E-02 0. -1.
        1   -1    0    0  501    0  0.00000000000E+00  0.00000000000E+00 -0.69576980281E+03  0.69576980283E+03  0.50400001928E-02 0.  1.
    10030    2    1    2    0    0  0.00000000000E+00  0.00000000000E+00  0.97329012641E+03  0.23648297321E+04  0.21552554353E+04 0.  0.
        4    1    3    3  502    0 -0.81504073978E+03  0.56243542909E+03  0.95301007350E+03  0.13743561520E+04  0.12699999809E+01 0.  1.
       -4    1    3    3    0  502  0.81504073978E+03 -0.56243542909E+03  0.20280052914E+02  0.99047358008E+03  0.12699999809E+01 0. -1.
</event>
<event>
 5   0  0.4408787E-06  0.2197289E+04  0.7818609E-02  0.8519557E-01
        1   -1    0    0  501    0  0.00000000000E+00  0.00000000000E+00  0.99255899074E+03  0.99255899076E+03  0.50400001928E-02 0.  1.
       -1   -1    0    0    0  501  0.00000000000E+00  0.00000000000E+00 -0.12160683130E+04  0.12160683130E+04  0.50400001928E-02 0. -1.
    10030    2    1    2    0    0  0.00000000000E+00  0.00000000000E+00 -0.22350932222E+03  0.22086273037E+04  0.21972888180E+04 0.  0.
        1    1    3    3  502    0  0.79105343269E+03 -0.20447254013E+03 -0.85001386647E+03  0.11790242263E+04  0.50400001928E-02 0. -1.
       -1    1    3    3    0  502 -0.79105343269E+03  0.20447254013E+03  0.62650454425E+03  0.10296030774E+04  0.50400001928E-02 0.  1.
</event>
<event>
 5   0  0.9963573E-06  0.2198168E+04  0.7818609E-02  0.8519191E-01
        2   -1    0    0  501    0  0.00000000000E+00  0.00000000000E+00  0.47467279708E+03  0.47467279709E+03  0.25500000920E-02 0. -1.
       -2   -1    0    0    0  501  0.00000000000E+00  0.00000000000E+00 -0.25448800575E+04  0.25448800575E+04  0.25500000920E-02 0.  1.
    10030    2    1    2    0    0  0.00000000000E+00  0.00000000000E+00 -0.20702072604E+04  0.30195528546E+04  0.21981677235E+04 0.  0.
        2    1    3    3  502    0 -0.56125158192E+03  0.45191899069E+03 -0.21751250221E+04  0.22913757820E+04  0.25500000920E-02 0.  1.
       -2    1    3    3    0  502  0.56125158192E+03 -0.45191899069E+03  0.10491776170E+03  0.72817707261E+03  0.25500000920E-02 0. -1.
</event>
<event>
 5   0  0.1035928E-05  0.2205913E+04  0.7818609E-02  0.8515971E-01
        2   -1    0    0  501    0  0.00000000000E+00  0.00000000000E+00  0.27855797072E+04  0.27855797072E+04  0.25500000920E-02 0.  1.
       -2   -1    0    0    0  501  0.00000000000E+00  0.00000000000E+00 -0.43671805574E+03  0.43671805574E+03  0.25500000920E-02 0. -1.
    10030    2    1    2    0    0  0.00000000000E+00  0.00000000000E+00  0.23488616515E+04  0.32222977629E+04  0.22059129211E+04 0.  0.
        3    1    3    3  502    0  0.42208506280E+03 -0.68883177939E+01  0.26629031351E+04  0.26961558498E+04  0.10100000352E+00 0.  1.
       -3    1    3    3    0  502 -0.42208506280E+03  0.68883177939E+01 -0.31404148363E+03  0.52614191317E+03  0.10100000352E+00 0. -1.
</event>
<event>
 5   0  0.4309945E-06  0.2222222E+04  0.7818609E-02  0.8509235E-01
        1   -1    0    0  501    0  0.00000000000E+00  0.00000000000E+00  0.13625762701E+04  0.13625762701E+04  0.50400001928E-02 0. -1.
       -1   -1    0    0    0  501  0.00000000000E+00  0.00000000000E+00 -0.90605436572E+03  0.90605436574E+03  0.50400001928E-02 0.  1.
    10030    2    1    2    0    0  0.00000000000E+00  0.00000000000E+00  0.45652190438E+03  0.22686306358E+04  0.22222224715E+04 0.  0.
        4    1    3    3  502    0 -0.52339703304E+02  0.57710975229E+03  0.11960949925E+04  0.13290748492E+04  0.12699999809E+01 0. -1.
       -4    1    3    3    0  502  0.52339703304E+02 -0.57710975229E+03 -0.73957308811E+03  0.93955578668E+03  0.12699999809E+01 0.  1.
</event>
<event>
 5   0  0.4630615E-06  0.2200756E+04  0.7818609E-02  0.8518113E-01
       -1   -1    0    0    0  501  0.00000000000E+00  0.00000000000E+00  0.13930396850E+04  0.13930396851E+04  0.50400001928E-02 0.  1.
        1   -1    0    0  501    0  0.00000000000E+00  0.00000000000E+00 -0.86920141009E+03  0.86920141010E+03  0.50400001928E-02 0. -1.
    10030    2    1    2    0    0  0.00000000000E+00  0.00000000000E+00  0.52383827495E+03  0.22622410952E+04  0.22007562869E+04 0.  0.
        2    1    3    3  502    0  0.37877502648E+03  0.22438492529E+02 -0.79982593927E+03  0.88526580176E+03  0.25500000920E-02 0. -1.
       -2    1    3    3    0  502 -0.37877502648E+03 -0.22438492529E+02  0.13236642142E+04  0.13769752934E+04  0.25500000920E-02 0.  1.
</event>
<event>
 5   0  0.4408787E-06  0.2198314E+04  0.7818609E-02  0.8519130E-01
       -1   -1    0    0    0  501  0.00000000000E+00  0.00000000000E+00  0.14765031138E+04  0.14765031138E+04  0.50400001928E-02 0. -1.
        1   -1    0    0  501    0  0.00000000000E+00  0.00000000000E+00 -0.81824824709E+03  0.81824824710E+03  0.50400001928E-02 0.  1.
    10030    2    1    2    0    0  0.00000000000E+00  0.00000000000E+00  0.65825486671E+03  0.22947513609E+04  0.21983139764E+04 0.  0.
        1    1    3    3  502    0 -0.69033772928E+03 -0.27343540096E+02 -0.56326270505E+03  0.89139145418E+03  0.50400001928E-02 0.  1.
       -1    1    3    3    0  502  0.69033772928E+03  0.27343540096E+02  0.12215175718E+04  0.14033599067E+04  0.50400001928E-02 0. -1.
</event>
<event>
 5   0  0.9963573E-06  0.2201988E+04  0.7818609E-02  0.8517601E-01
        2   -1    0    0  501    0  0.00000000000E+00  0.00000000000E+00  0.28155414365E+04  0.28155414365E+04  0.25500000920E-02 0. -1.
       -2   -1    0    0    0  501  0.00000000000E+00  0.00000000000E+00 -0.43053437590E+03  0.43053437591E+03  0.25500000920E-02 0.  1.
    10030    2    1    2    0    0  0.00000000000E+00  0.00000000000E+00  0.23850070606E+04  0.32460758124E+04  0.22019876250E+04 0.  0.
        2    1    3    3  502    0 -0.85114449182E+02  0.58260782903E+03  0.25639538700E+04  0.26306911258E+04  0.25500000920E-02 0. -1.
       -2    1    3    3    0  502  0.85114449182E+02 -0.58260782903E+03 -0.17894680939E+03  0.61538468661E+03  0.25500000920E-02 0.  1.
</event>
<event>
 5   0  0.4794967E-06  0.2203154E+04  0.7818609E-02  0.8517116E-01
       -1   -1    0    0    0  501  0.00000000000E+00  0.00000000000E+00  0.66383086259E+03  0.66383086260E+03  0.50400001928E-02 0.  1.
        1   -1    0    0  501    0  0.00000000000E+00  0.00000000000E+00 -0.18279841222E+04  0.18279841222E+04  0.50400001928E-02 0. -1.
    10030    2    1    2    0    0  0.00000000000E+00  0.00000000000E+00 -0.11641532596E+04  0.24918149848E+04  0.22031543538E+04 0.  0.
        5    1    3    3  502    0 -0.84377089225E+03  0.64292101489E+03 -0.24626905202E+03  0.10890212514E+04  0.46999998093E+01 0.  1.
       -5    1    3    3    0  502  0.84377089225E+03 -0.64292101489E+03 -0.91788420762E+03  0.14027937335E+04  0.46999998093E+01 0. -1.
</event>
<event>
 5   0  0.4462201E-06  0.2196331E+04  0.7818609E-02  0.8519957E-01
        1   -1    0    0  501    0  0.00000000000E+00  0.00000000000E+00  0.19080011705E+04  0.19080011705E+04  0.50400001928E-02 0. -1.
       -1   -1    0    0    0  501  0.00000000000E+00  0.00000000000E+00 -0.63205789476E+03  0.63205789478E+03  0.50400001928E-02 0.  1.
    10030    2    1    2    0    0  0.00000000000E+00  0.00000000000E+00  0.12759432757E+04  0.25400590653E+04  0.21963307611E+04 0.  0.
        3    1    3    3  502    0  0.39940051977E+03 -0.88745970834E+02  0.18165652349E+04  0.18620703224E+04  0.10100000352E+00 0. -1.
       -3    1    3    3    0  502 -0.39940051977E+03  0.88745970834E+02 -0.54062195920E+03  0.67798874290E+03  0.10100000352E+00 0.  1.
</event>
<event>
 5   0  0.1035928E-05  0.2234544E+04  0.7818609E-02  0.8504186E-01
       -2   -1    0    0    0  501  0.00000000000E+00  0.00000000000E+00  0.14030347958E+04  0.14030347958E+04  0.25500000920E-02 0. -1.
        2   -1    0    0  501    0  0.00000000000E+00  0.00000000000E+00 -0.88971215788E+03  0.88971215789E+03  0.25500000920E-02 0.  1.
    10030    2    1    2    0    0  0.00000000000E+00  0.00000000000E+00  0.51332263789E+03  0.22927469537E+04  0.22345443524E+04 0.  0.
        3    1    3    3  502    0  0.47056138161E+03 -0.25309089202E+03 -0.75012745635E+03  0.92096374764E+03  0.10100000352E+00 0.  1.
       -3    1    3    3    0  502 -0.47056138161E+03  0.25309089202E+03  0.12634500942E+04  0.13717832060E+04  0.10100000352E+00 0. -1.
</event>
<event>
 5   0  0.1035928E-05  0.2201030E+04  0.7818609E-02  0.8518000E-01
       -2   -1    0    0    0  501  0.00000000000E+00  0.00000000000E+00  0.50133872073E+03  0.50133872074E+03  0.25500000920E-02 0. -1.
        2   -1    0    0  501    0  0.00000000000E+00  0.00000000000E+00 -0.24157983432E+04  0.24157983432E+04  0.25500000920E-02 0.  1.
    10030    2    1    2    0    0  0.00000000000E+00  0.00000000000E+00 -0.19144596225E+04  0.29171370640E+04  0.22010299870E+04 0.  0.
        3    1    3    3  502    0  0.10719543212E+04 -0.23156823612E+03 -0.10788687660E+04  0.15383977831E+04  0.10100000352E+00 0.  1.
       -3    1    3    3    0  502 -0.10719543212E+04  0.23156823612E+03 -0.83559085650E+03  0.13787392808E+04  0.10100000352E+00 0. -1.
</event>
<event>
 5   0  0.4408787E-06  0.2184678E+04  0.7818609E-02  0.8524833E-01
        1   -1    0    0  501    0  0.00000000000E+00  0.00000000000E+00  0.19903025948E+04  0.19903025948E+04  0.50400001928E-02 0. -1.
       -1   -1    0    0    0  501  0.00000000000E+00  0.00000000000E+00 -0.59950922423E+03  0.59950922425E+03  0.50400001928E-02 0.  1.
    10030    2    1    2    0    0  0.00000000000E+00  0.00000000000E+00  0.13907933706E+04  0.25898118191E+04  0.21846782506E+04 0.  0.
        1    1    3    3  502    0 -0.81519008430E+03 -0.60531320252E+03  0.21787373947E+03  0.10384642088E+04  0.50400001928E-02 0.  1.
       -1    1    3    3    0  502  0.81519008430E+03  0.60531320252E+03  0.11729196311E+04  0.15513476103E+04  0.50400001928E-02 0. -1.
</event>
<event>
 5   0  0.1014015E-05  0.2195863E+04  0.7818609E-02  0.8520152E-01
       -2   -1    0    0    0  501  0.00000000000E+00  0.00000000000E+00  0.78003751943E+03  0.78003751943E+03  0.25500000920E-02 0. -1.
        2   -1    0    0  501    0  0.00000000000E+00  0.00000000000E+00 -0.15453790517E+04  0.15453790517E+04  0.25500000920E-02 0.  1.
    10030    2    1    2    0    0  0.00000000000E+00  0.00000000000E+00 -0.76534153225E+03  0.23254165711E+04  0.21958630577E+04 0.  0.
        1    1    3    3  502    0 -0.81829842014E+03  0.59636172384E+03 -0.83220804466E+03  0.13106600779E+04  0.50400001928E-02 0.  1.
       -1    1    3    3    0  502  0.81829842014E+03 -0.59636172384E+03  0.66866512413E+02  0.10147564932E+04  0.50400001928E-02 0. -1.
</event>
<event>
 5   0  0.4630615E-06  0.2199578E+04  0.7818609E-02  0.8518604E-01
       -1   -1    0    0    0  501  0.00000000000E+00  0.00000000000E+00  0.66722697305E+03  0.66722697307E+03  0.50400001928E-02 0.  1.
        1   -1    0    0  501    0  0.00000000000E+00  0.00000000000E+00 -0.18127808361E+04  0.18127808361E+04  0.50400001928E-02 0. -1.
    10030    2    1    2    0    0  0.00000000000E+00  0.00000000000E+00 -0.11455538631E+04  0.24800078092E+04  0.21995783870E+04 0.  0.
        2    1    3    3  502    0 -0.15261585051E+03 -0.51084938936E+03  0.51177317854E+03  0.73903347875E+03  0.25500000920E-02 0.  1.
       -2    1    3    3    0  502  0.15261585051E+03  0.51084938936E+03 -0.16573270416E+04  0.17409743304E+04  0.25500000920E-02 0. -1.
</event>
<event>
 5   0  0.4408787E-06  0.2200716E+04  0.7818609E-02  0.8518130E-01
        1   -1    0    0  501    0  0.00000000000E+00  0.00000000000E+00  0.88014957928E+03  0.88014957930E+03  0.50400001928E-02 0.  1.
       -1   -1    0    0    0  501  0.00000000000E+00  0.00000000000E+00 -0.13756607905E+04  0.13756607905E+04  0.50400001928E-02 0. -1.
    10030    2    1    2    0    0  0.00000000000E+00  0.00000000000E+00 -0.49551121124E+03  0.22558103698E+04  0.22007155800E+04 0.  0.
        1    1    3    3  502    0  0.74672909802E+03  0.39734010454E+03 -0.96915285786E+03  0.12863672751E+04  0.50400001928E-02 0. -1.
       -1    1    3    3    0  502 -0.74672909802E+03 -0.39734010454E+03  0.47364164662E+03  0.96944309474E+03  0.50400001928E-02 0.  1.
</event>
<event>
 5   0  0.3546750E-06  0.2202037E+04  0.7818609E-02  0.8517581E-01
        4   -1    0    0  501    0  0.00000000000E+00  0.00000000000E+00  0.11688192479E+04  0.11688199379E+04  0.12699999809E+01 0. -1.
       -4   -1    0    0    0  501  0.00000000000E+00  0.00000000000E+00 -0.10371497870E+04  0.10371505646E+04  0.12699999809E+01 0.  1.
    10030    2    1    2    0    0  0.00000000000E+00  0.00000000000E+00  0.13166946089E+03  0.22059705025E+04  0.22020374681E+04 0.  0.
        3    1    3    3  502    0 -0.19644324592E+03 -0.10826745603E+04  0.10421882952E+03  0.11052763125E+04  0.10100000352E+00 0. -1.
       -3    1    3    3    0  502  0.19644324592E+03  0.10826745603E+04  0.27450631371E+02  0.11006941899E+04  0.10100000352E+00 0.  1.
</event>
<event>
 5   0  0.1014015E-05  0.2202809E+04  0.7818609E-02  0.8517260E-01
        2   -1    0    0  501    0  0.00000000000E+00  0.00000000000E+00  0.81578962829E+03  0.81578962830E+03  0.25500000920E-02 0.  1.
       -2   -1    0    0    0  501  0.00000000000E+00  0.00000000000E+00 -0.14870149549E+04  0.14870149549E+04  0.25500000920E-02 0. -1.
    10030    2    1    2    0    0  0.00000000000E+00  0.00000000000E+00 -0.67122532661E+03  0.23028045832E+04  0.22028085503E+04 0.  0.
        1    1    3    3  502    0 -0.33017143036E+03  0.10398229309E+04 -0.17760070917E+03  0.11053447033E+04  0.50400001928E-02 0.  1.
       -1    1    3    3    0  502  0.33017143036E+03 -0.10398229309E+04 -0.49362461745E+03  0.11974598799E+04  0.50400001928E-02 0. -1.
</event>
<event>
 5   0  0.4309945E-06  0.2148583E+04  0.7818609E-02  0.8540139E-01
        1   -1    0    0  501    0  0.00000000000E+00  0.00000000000E+00  0.91752969991E+03  0.91752969992E+03  0.50400001928E-02 0.  1.
       -1   -1    0    0    0  501  0.00000000000E+00  0.00000000000E+00 -0.12578369342E+04  0.12578369342E+04  0.50400001928E-02 0. -1.
    10030    2    1    2    0    0  0.00000000000E+00  0.00000000000E+00 -0.34030723428E+03  0.21753666341E+04  0.21485834820E+04 0.  0.
        4    1    3    3  502    0 -0.98495869237E+03  0.42831480907E+03 -0.19288184509E+03  0.10912388466E+04  0.12699999809E+01 0. -1.
       -4    1    3    3    0  502  0.98495869237E+03 -0.42831480907E+03 -0.14742538919E+03  0.10841277875E+04  0.12699999809E+01 0.  1.
</event>
<event>
 5   0  0.4630615E-06  0.2201374E+04  0.7818609E-02  0.8517856E-01
        1   -1    0    0  501    0  0.00000000000E+00  0.00000000000E+00  0.65763660196E+03  0.65763660198E+03  0.50400001928E-02 0.  1.
       -1   -1    0    0    0  501  0.00000000000E+00  0.00000000000E+00 -0.18422216037E+04  0.18422216037E+04  0.50400001928E-02 0. -1.
    10030    2    1    2    0    0  0.00000000000E+00  0.00000000000E+00 -0.11845850017E+04  0.24998582057E+04  0.22013744393E+04 0.  0.
        2    1    3    3  502    0 -0.50723593291E+02 -0.34648917389E+02  0.65568854145E+03  0.65855971164E+03  0.25500000920E-02 0.  1.
       -2    1    3    3    0  502  0.50723593291E+02  0.34648917389E+02 -0.18402735432E+04  0.18412984941E+04  0.25500000920E-02 0. -1.
</event>
<event>
 5   0  0.9963573E-06  0.2199640E+04  0.7818609E-02  0.8518578E-01
        2   -1    0    0  501    0  0.00000000000E+00  0.00000000000E+00  0.18963596409E+04  0.18963596409E+04  0.25500000920E-02 0. -1.
       -2   -1    0    0    0  501  0.00000000000E+00  0.00000000000E+00 -0.63785558326E+03  0.63785558327E+03  0.25500000920E-02 0.  1.
    10030    2    1    2    0    0  0.00000000000E+00  0.00000000000E+00  0.12585040576E+04  0.25342152242E+04  0.21996395930E+04 0.  0.
        2    1    3    3  502    0 -0.75795174245E+03 -0.77942768868E+03  0.43783191673E+03  0.11720474193E+04  0.25500000920E-02 0. -1.
       -2    1    3    3    0  502  0.75795174245E+03  0.77942768868E+03  0.82067214091E+03  0.13621678049E+04  0.25500000920E-02 0.  1.
</event>
<event>
 5   0  0.4462201E-06  0.2184087E+04  0.7818609E-02  0.8525081E-01
        1   -1    0    0  501    0  0.00000000000E+00  0.00000000000E+00  0.11137734828E+04  0.11137734828E+04  0.50400001928E-02 0.  1.
       -1   -1    0    0    0  501  0.00000000000E+00  0.00000000000E+00 -0.10707377319E+04  0.10707377319E+04  0.50400001928E-02 0. -1.
    10030    2    1    2    0    0  0.00000000000E+00  0.00000000000E+00  0.43035750915E+02  0.21845112148E+04  0.21840872628E+04 0.  0.
        3    1    3    3  502    0  0.11496366965E+03  0.70955371620E+03 -0.80075858324E+03  0.10760564299E+04  0.10100000352E+00 0. -1.
       -3    1    3    3    0  502 -0.11496366965E+03 -0.70955371620E+03  0.84379433415E+03  0.11084547849E+04  0.10100000352E+00 0.  1.
</event>
<event>
 5   0  0.1015876E-05  0.2197976E+04  0.7818609E-02  0.8519271E-01
       -2   -1    0    0    0  501  0.00000000000E+00  0.00000000000E+00  0.55717556932E+03  0.55717556933E+03  0.25500000920E-02 0.  1.
        2   -1    0    0  501    0  0.00000000000E+00  0.00000000000E+00 -0.21676729609E+04  0.21676729609E+04  0.25500000920E-02 0. -1.
    10030    2    1    2    0    0  0.00000000000E+00  0.00000000000E+00 -0.16104973915E+04  0.27248485302E+04  0.21979758107E+04 0.  0.
        5    1    3    3  502    0 -0.16472688543E+03  0.14676808927E+03  0.52942625197E+03  0.57357655556E+03  0.46999998093E+01 0.  1.
       -5    1    3    3    0  502  0.16472688543E+03 -0.14676808927E+03 -0.21399236435E+04  0.21512719746E+04  0.46999998093E+01 0. -1.
</event>
<event>
 5   0  0.4462201E-06  0.2201539E+04  0.7818609E-02  0.8517788E-01
       -1   -1    0    0    0  501  0.00000000000E+00  0.00000000000E+00  0.10494405461E+04  0.10494405461E+04  0.50400001928E-02 0.  1.
        1   -1    0    0  501    0  0.00000000000E+00  0.00000000000E+00 -0.11546095084E+04  0.11546095084E+04  0.50400001928E-02 0. -1.
    10030    2    1    2    0    0  0.00000000000E+00  0.00000000000E+00 -0.10516896235E+03  0.22040500545E+04  0.22015394914E+04 0.  0.
        3    1    3    3  502    0 -0.71583875691E+03  0.69937335410E+03 -0.51152387641E+03  0.11239238856E+04  0.10100000352E+00 0. -1.
       -3    1    3    3    0  502  0.71583875691E+03 -0.69937335410E+03  0.40635491406E+03  0.10801261689E+04  0.10100000352E+00 0.  1.
</event>
<event>
 5   0  0.9963573E-06  0.2199152E+04  0.7818609E-02  0.8518781E-01
       -2   -1    0    0    0  501  0.00000000000E+00  0.00000000000E+00  0.85532163547E+03  0.85532163548E+03  0.25500000920E-02 0.  1.
        2   -1    0    0  501    0  0.00000000000E+00  0.00000000000E+00 -0.14135827555E+04  0.14135827555E+04  0.25500000920E-02 0. -1.
    10030    2    1    2    0    0  0.00000000000E+00  0.00000000000E+00 -0.55826111999E+03  0.22689043909E+04  0.21991524861E+04 0.  0.
        2    1    3    3  502    0 -0.67542026374E+03  0.86766441298E+03 -0.28513299880E+03  0.11359290881E+04  0.25500000920E-02 0. -1.
       -2    1    3    3    0  502  0.67542026374E+03 -0.86766441298E+03 -0.27312812119E+03  0.11329753028E+04  0.25500000920E-02 0.  1.
</event>
<event>
 5   0  0.9963573E-06  0.2194337E+04  0.7818609E-02  0.8520789E-01
        2   -1    0    0  501    0  0.00000000000E+00  0.00000000000E+00  0.24943910959E+04  0.24943910959E+04  0.25500000920E-02 0. -1.
       -2   -1    0    0    0  501  0.00000000000E+00  0.00000000000E+00 -0.48259400020E+03  0.48259400021E+03  0.25500000920E-02 0.  1.
    10030    2    1    2    0    0  0.00000000000E+00  0.00000000000E+00  0.20117970957E+04  0.29769850961E+04  0.21943365075E+04 0.  0.
        2    1    3    3  502    0 -0.81509224009E+03 -0.64106497483E+03  0.51969170137E+03  0.11599220346E+04  0.25500000920E-02 0.  1.
       -2    1    3    3    0  502  0.81509224009E+03  0.64106497483E+03  0.14921053943E+04  0.18170630615E+04  0.25500000920E-02 0. -1.
</event>
<event>
 5   0  0.4408787E-06  0.2199808E+04  0.7818609E-02  0.8518508E-01
       -1   -1    0    0    0  501  0.00000000000E+00  0.00000000000E+00  0.10569504494E+04  0.10569504494E+04  0.50400001928E-02 0. -1.
        1   -1    0    0  501    0  0.00000000000E+00  0.00000000000E+00 -0.11446032611E+04  0.11446032611E+04  0.50400001928E-02 0.  1.
    10030    2    1    2    0    0  0.00000000000E+00  0.00000000000E+00 -0.87652811664E+02  0.22015537105E+04  0.21998081109E+04 0.  0.
        1    1    3    3  502    0  0.64447628064E+03 -0.29002229408E+03  0.79965097527E+03  0.10671945885E+04  0.50400001928E-02 0. -1.
       -1    1    3    3    0  502 -0.64447628064E+03  0.29002229408E+03 -0.88730378693E+03  0.11343591220E+04  0.50400001928E-02 0.  1.
</event>
<event>
 5   0  0.1035928E-05  0.2202093E+04  0.7818609E-02  0.8517557E-01
       -2   -1    0    0    0  501  0.00000000000E+00  0.00000000000E+00  0.70797369490E+03  0.70797369490E+03  0.25500000920E-02 0. -1.
        2   -1    0    0  501    0  0.00000000000E+00  0.00000000000E+00 -0.17123564729E+04  0.17123564729E+04  0.25500000920E-02 0.  1.
    10030    2    1    2    0    0  0.00000000000E+00  0.00000000000E+00 -0.10043827780E+04  0.24203301678E+04  0.22020929491E+04 0.  0.
        3    1    3    3  502    0 -0.25258774112E+03  0.11438177097E+03  0.66897110505E+03  0.72415889561E+03  0.10100000352E+00 0. -1.
       -3    1    3    3    0  502  0.25258774112E+03 -0.11438177097E+03 -0.16733538830E+04  0.16961712722E+04  0.10100000352E+00 0.  1.
</event>
<event>
 5   0  0.9963573E-06  0.2199245E+04  0.7818609E-02  0.8518742E-01
       -2   -1    0    0    0  501  0.00000000000E+00  0.00000000000E+00  0.73513797466E+03  0.73513797467E+03  0.25500000920E-02 0.  1.
        2   -1    0    0  501    0  0.00000000000E+00  0.00000000000E+00 -0.16448205106E+04  0.16448205106E+04  0.25500000920E-02 0. -1.
    10030    2    1    2    0    0  0.00000000000E+00  0.00000000000E+00 -0.90968253592E+03  0.23799584853E+04  0.21992453422E+04 0.  0.
        2    1    3    3  502    0 -0.10110755051E+04 -0.13786915423E+03 -0.11430643363E+02  0.10204960756E+04  0.25500000920E-02 0. -1.
       -2    1    3    3    0  502  0.10110755051E+04  0.13786915423E+03 -0.89825189256E+03  0.13594624096E+04  0.25500000920E-02 0.  1.
</event>
<event>
 5   0  0.4462201E-06  0.2202590E+04  0.7818609E-02  0.8517351E-01
        1   -1    0    0  501    0  0.00000000000E+00  0.00000000000E+00  0.17274021504E+04  0.17274021504E+04  0.50400001928E-02 0. -1.
       -1   -1    0    0    0  501  0.00000000000E+00  0.00000000000E+00 -0.70212390462E+03  0.70212390464E+03  0.50400001928E-02 0.  1.
    10030    2    1    2    0    0  0.00000000000E+00  0.00000000000E+00  0.10252782457E+04  0.24295260550E+04  0.22025896964E+04 0.  0.
        3    1    3    3  502    0  0.72213786134E+03  0.51897844679E+03 -0.20393134604E+03  0.91236490677E+03  0.10100000352E+00 0.  1.
       -3    1    3    3    0  502 -0.72213786134E+03 -0.51897844679E+03  0.12292095918E+04  0.15171611482E+04  0.10100000352E+00 0. -1.
</event>
<event>
 5   0  0.4462201E-06  0.2202116E+04  0.7818609E-02  0.8517548E-01
        1   -1    0    0  501    0  0.00000000000E+00  0.00000000000E+00  0.74011391766E+03  0.74011391768E+03  0.50400001928E-02 0. -1.
       -1   -1    0    0    0  501  0.00000000000E+00  0.00000000000E+00 -0.16380291867E+04  0.16380291867E+04  0.50400001928E-02 0.  1.
    10030    2    1    2    0    0  0.00000000000E+00  0.00000000000E+00 -0.89791526902E+03  0.23781431044E+04  0.22021155270E+04 0.  0.
        3    1    3    3  502    0  0.42637836182E+03 -0.64484639039E+02  0.64512508613E+03  0.77597884189E+03  0.10100000352E+00 0. -1.
       -3    1    3    3    0  502 -0.42637836182E+03  0.64484639039E+02 -0.15430403551E+04  0.16021642625E+04  0.10100000352E+00 0.  1.
</event>
<event>
 5   0  0.4309945E-06  0.2200705E+04  0.7818609E-02  0.8518135E-01
        1   -1    0    0  501    0  0.00000000000E+00  0.00000000000E+00  0.13195594771E+04  0.13195594772E+04  0.50400001928E-02 0.  1.
       -1   -1    0    0    0  501  0.00000000000E+00  0.00000000000E+00 -0.91756033464E+03  0.91756033465E+03  0.50400001928E-02 0. -1.
    10030    2    1    2    0    0  0.00000000000E+00  0.00000000000E+00  0.40199914251E+03  0.22371198118E+04  0.22007048284E+04 0.  0.
        4    1    3    3  502    0 -0.44414768488E+03 -0.76890441172E+03  0.86159294822E+03  0.12372652026E+04  0.12699999809E+01 0.  1.
       -4    1    3    3    0  502  0.44414768488E+03  0.76890441172E+03 -0.45959380571E+03  0.99985460917E+03  0.12699999809E+01 0. -1.
</event>
<event>
 5   0  0.1035928E-05  0.2202366E+04  0.7818609E-02  0.8517444E-01
       -2   -1    0    0    0  501  0.00000000000E+00  0.00000000000E+00  0.19205298441E+04  0.19205298441E+04  0.25500000920E-02 0.  1.
        2   -1    0    0  501    0  0.00000000000E+00  0.00000000000E+00 -0.63139041737E+03  0.63139041738E+03  0.25500000920E-02 0. -1.
    10030    2    1    2    0    0  0.00000000000E+00  0.00000000000E+00  0.12891394267E+04  0.25519202614E+04  0.22023661274E+04 0.  0.
        3    1    3    3  502    0  0.57895583439E+03  0.23713907778E+03 -0.40544790332E+03  0.74552854600E+03  0.10100000352E+00 0. -1.
       -3    1    3    3    0  502 -0.57895583439E+03 -0.23713907778E+03  0.16945873300E+04  0.18063917154E+04  0.10100000352E+00 0.  1.
</event>
<event>
 5   0  0.9963573E-06  0.2208207E+04  0.7818609E-02  0.8515020E-01
        2   -1    0    0  501    0  0.00000000000E+00  0.00000000000E+00  0.20859606992E+04  0.20859606992E+04  0.25500000920E-02 0.  1.
       -2   -1    0    0    0  501  0.00000000000E+00  0.00000000000E+00 -0.58440414449E+03  0.58440414450E+03  0.25500000920E-02 0. -1.
    10030    2    1    2    0    0  0.00000000000E+00  0.00000000000E+00  0.15015565547E+04  0.26703648437E+04  0.22082065826E+04 0.  0.
        2    1    3    3  502    0  0.90340277593E+03  0.63404071133E+03  0.78705456902E+03  0.13555807220E+04  0.25500000920E-02 0.  1.
       -2    1    3    3    0  502 -0.90340277593E+03 -0.63404071133E+03  0.71450198570E+03  0.13147841217E+04  0.25500000920E-02 0. -1.
</event>
<event>
 5   0  0.9963173E-06  0.2203114E+04  0.7818609E-02  0.8517133E-01
       -2   -1    0    0    0  501  0.00000000000E+00  0.00000000000E+00  0.75277795696E+03  0.75277795696E+03  0.25500000920E-02 0. -1.
        2   -1    0    0  501    0  0.00000000000E+00  0.00000000000E+00 -0.16119330732E+04  0.16119330732E+04  0.25500000920E-02 0.  1.
    10030    2    1    2    0    0  0.00000000000E+00  0.00000000000E+00 -0.85915511629E+03  0.23647110302E+04  0.22031138742E+04 0.  0.
        4    1    3    3  502    0 -0.43982113069E+03 -0.61016577654E+03  0.43423948307E+03  0.86851047399E+03  0.12699999809E+01 0.  1.
       -4    1    3    3    0  502  0.43982113069E+03  0.61016577654E+03 -0.12933945994E+04  0.14962005562E+04  0.12699999809E+01 0. -1.
</event>
<event>
 5   0  0.4630615E-06  0.2201451E+04  0.7818609E-02  0.8517825E-01
        1   -1    0    0  501    0  0.00000000000E+00  0.00000000000E+00  0.19348749434E+04  0.19348749434E+04  0.50400001928E-02 0.  1.
       -1   -1    0    0    0  501  0.00000000000E+00  0.00000000000E+00 -0.62618831640E+03  0.62618831642E+03  0.50400001928E-02 0. -1.
    10030    2    1    2    0    0  0.00000000000E+00  0.00000000000E+00  0.13086866270E+04  0.25610632598E+04  0.22014505066E+04 0.  0.
        2    1    3    3  502    0 -0.17688226431E+03 -0.10248600476E+04  0.23493793729E+03  0.10662182173E+04  0.25500000920E-02 0. -1.
       -2    1    3    3    0  502  0.17688226431E+03  0.10248600476E+04  0.10737486897E+04  0.14948450425E+04  0.25500000920E-02 0.  1.
</event>
<event>
 5   0  0.3546750E-06  0.2200425E+04  0.7818609E-02  0.8518251E-01
       -3   -1    0    0    0  501  0.00000000000E+00  0.00000000000E+00  0.73468584170E+03  0.73468584864E+03  0.10100000352E+00 0.  1.
        3   -1    0    0  501    0  0.00000000000E+00  0.00000000000E+00 -0.16475990392E+04  0.16475990423E+04  0.10100000352E+00 0. -1.
    10030    2    1    2    0    0  0.00000000000E+00  0.00000000000E+00 -0.91291319748E+03  0.23822848909E+04  0.22004251397E+04 0.  0.
        3    1    3    3  502    0 -0.45884048351E+03  0.40629479245E+03 -0.14456775625E+04  0.15702208993E+04  0.10100000352E+00 0. -1.
       -3    1    3    3    0  502  0.45884048351E+03 -0.40629479245E+03  0.53276436501E+03  0.81206399163E+03  0.10100000352E+00 0.  1.
</event>
<event>
 5   0  0.1014015E-05  0.2187018E+04  0.7818609E-02  0.8523851E-01
       -2   -1    0    0    0  501  0.00000000000E+00  0.00000000000E+00  0.51630292456E+03  0.51630292457E+03  0.25500000920E-02 0.  1.
        2   -1    0    0  501    0  0.00000000000E+00  0.00000000000E+00 -0.23160079803E+04  0.23160079803E+04  0.25500000920E-02 0. -1.
    10030    2    1    2    0    0  0.00000000000E+00  0.00000000000E+00 -0.17997050557E+04  0.28323109048E+04  0.21870177809E+04 0.  0.
        1    1    3    3  502    0 -0.85947399825E+03 -0.31569211027E+03 -0.12562483999E+03  0.92419622516E+03  0.50400001928E-02 0.  1.
       -1    1    3    3    0  502  0.85947399825E+03  0.31569211027E+03 -0.16740802157E+04  0.19081146797E+04  0.50400001928E-02 0. -1.
</event>
<event>
 5   0  0.9963573E-06  0.2213969E+04  0.7818609E-02  0.8512636E-01
        2   -1    0    0  501    0  0.00000000000E+00  0.00000000000E+00  0.11972057832E+04  0.11972057832E+04  0.25500000920E-02 0. -1.
       -2   -1    0    0    0  501  0.00000000000E+00  0.00000000000E+00 -0.10235619946E+04  0.10235619946E+04  0.25500000920E-02 0.  1.
    10030    2    1    2    0    0  0.00000000000E+00  0.00000000000E+00  0.17364378859E+03  0.22207677778E+04  0.22139686894E+04 0.  0.
        2    1    3    3  502    0 -0.57609701062E+03  0.39474383742E+03  0.94835645818E+03  0.11777480353E+04  0.25500000920E-02 0. -1.
       -2    1    3    3    0  502  0.57609701062E+03 -0.39474383742E+03 -0.77471266960E+03  0.10430197425E+04  0.25500000920E-02 0.  1.
</event>
<event>
 5   0  0.4408787E-06  0.2203516E+04  0.7818609E-02  0.8516966E-01
        1   -1    0    0  501    0  0.00000000000E+00  0.00000000000E+00  0.21132815527E+04  0.21132815527E+04  0.50400001928E-02 0. -1.
       -1   -1    0    0    0  501  0.00000000000E+00  0.00000000000E+00 -0.57440082994E+03  0.57440082996E+03  0.50400001928E-02 0.  1.
    10030    2    1    2    0    0  0.00000000000E+00  0.00000000000E+00  0.15388807228E+04  0.26876823827E+04  0.22035159884E+04 0.  0.
        1    1    3    3  502    0  0.84230543021E+03  0.55050525357E+03  0.13167368712E+04  0.16572056179E+04  0.50400001928E-02 0. -1.
       -1    1    3    3    0  502 -0.84230543021E+03 -0.55050525357E+03  0.22214385161E+03  0.10304767648E+04  0.50400001928E-02 0.  1.
</event>
<event>
 5   0  0.4462201E-06  0.2206589E+04  0.7818609E-02  0.8515691E-01
       -1   -1    0    0    0  501  0.00000000000E+00  0.00000000000E+00  0.75168085657E+03  0.75168085659E+03  0.50400001928E-02 0. -1.
        1   -1    0    0  501    0  0.00000000000E+00  0.00000000000E+00 -0.16193817648E+04  0.16193817648E+04  0.50400001928E-02 0.  1.
    10030    2    1    2    0    0  0.00000000000E+00  0.00000000000E+00 -0.86770090823E+03  0.23710626214E+04  0.22065885635E+04 0.  0.
        3    1    3    3  502    0 -0.86988957155E+03 -0.20865733425E+01  0.29536890231E+03  0.91867024505E+03  0.10100000352E+00 0. -1.
       -3    1    3    3    0  502  0.86988957155E+03  0.20865733425E+01 -0.11630698105E+04  0.14523923764E+04  0.10100000352E+00 0.  1.
</event>
<event>
 5   0  0.4309945E-06  0.2195596E+04  0.7818609E-02  0.8520263E-01
        1   -1    0    0  501    0  0.00000000000E+00  0.00000000000E+00  0.19873506551E+04  0.19873506551E+04  0.50400001928E-02 0.  1.
       -1   -1    0    0    0  501  0.00000000000E+00  0.00000000000E+00 -0.60641570348E+03  0.60641570350E+03  0.50400001928E-02 0. -1.
    10030    2    1    2    0    0  0.00000000000E+00  0.00000000000E+00  0.13809349516E+04  0.25937663586E+04  0.21955961793E+04 0.  0.
        4    1    3    3  502    0 -0.84714800044E+03  0.49230280432E+03  0.10556556669E+03  0.98547830395E+03  0.12699999809E+01 0. -1.
       -4    1    3    3    0  502  0.84714800044E+03 -0.49230280432E+03  0.12753693849E+04  0.16082880546E+04  0.12699999809E+01 0.  1.
</event>
<event>
 5   0  0.4408787E-06  0.2200220E+04  0.7818609E-02  0.8518337E-01
       -1   -1    0    0    0  501  0.00000000000E+00  0.00000000000E+00  0.73491450311E+03  0.73491450312E+03  0.50400001928E-02 0.  1.
        1   -1    0    0  501    0  0.00000000000E+00  0.00000000000E+00 -0.16467789132E+04  0.16467789132E+04  0.50400001928E-02 0. -1.
    10030    2    1    2    0    0  0.00000000000E+00  0.00000000000E+00 -0.91186441011E+03  0.23816934163E+04  0.22002197224E+04 0.  0.
        1    1    3    3  502    0  0.16774538897E+03  0.62230972671E+03 -0.14210003154E+04  0.15603364406E+04  0.50400001928E-02 0. -1.
       -1    1    3    3    0  502 -0.16774538897E+03 -0.62230972671E+03  0.50913590531E+03  0.82135697573E+03  0.50400001928E-02 0.  1.
</event>
<event>
 5   0  0.1035928E-05  0.2202994E+04  0.7818609E-02  0.8517183E-01
       -2   -1    0    0    0  501  0.00000000000E+00  0.00000000000E+00  0.75957082830E+03  0.75957082830E+03  0.25500000920E-02 0. -1.
        2   -1    0    0  501    0  0.00000000000E+00  0.00000000000E+00 -0.15973442600E+04  0.15973442600E+04  0.25500000920E-02 0.  1.
    10030    2    1    2    0    0  0.00000000000E+00  0.00000000000E+00 -0.83777343172E+03  0.23569150883E+04  0.22029944191E+04 0.  0.
        3    1    3    3  502    0  0.63738764752E+03 -0.30221787180E+03 -0.13239840188E+04  0.15001774386E+04  0.10100000352E+00 0.  1.
       -3    1    3    3    0  502 -0.63738764752E+03  0.30221787180E+03  0.48621058704E+03  0.85673764969E+03  0.10100000352E+00 0. -1.
</event>
<event>
 5   0  0.4630615E-06  0.2210613E+04  0.7818609E-02  0.8514024E-01
        1   -1    0    0  501    0  0.00000000000E+00  0.00000000000E+00  0.33132436130E+03  0.33132436134E+03  0.50400001928E-02 0. -1.
       -1   -1    0    0    0  501  0.00000000000E+00  0.00000000000E+00 -0.36873321301E+04  0.36873321301E+04  0.50400001928E-02 0.  1.
    10030    2    1    2    0    0  0.00000000000E+00  0.00000000000E+00 -0.33560077688E+04  0.40186564915E+04  0.22106134560E+04 0.  0.
        2    1    3    3  502    0 -0.66477686769E+03  0.85653614431E+03 -0.12875990933E+04  0.16832985105E+04  0.25500000920E-02 0.  1.
       -2    1    3    3    0  502  0.66477686769E+03 -0.85653614431E+03 -0.20684086756E+04  0.23353579810E+04  0.25500000920E-02 0. -1.
</event>
<event>
 5   0  0.1014015E-05  0.2203043E+04  0.7818609E-02  0.8517163E-01
        2   -1    0    0  501    0  0.00000000000E+00  0.00000000000E+00  0.13002150973E+04  0.13002150973E+04  0.25500000920E-02 0.  1.
       -2   -1    0    0    0  501  0.00000000000E+00  0.00000000000E+00 -0.93319162144E+03  0.93319162144E+03  0.25500000920E-02 0. -1.
    10030    2    1    2    0    0  0.00000000000E+00  0.00000000000E+00  0.36702347586E+03  0.22334067187E+04  0.22030431996E+04 0.  0.
        1    1    3    3  502    0  0.39262359882E+03 -0.41478777664E+03 -0.77135498161E+03  0.95978679803E+03  0.50400001928E-02 0. -1.
       -1    1    3    3    0  502 -0.39262359882E+03  0.41478777664E+03  0.11383784575E+04  0.12736199207E+04  0.50400001928E-02 0.  1.
</event>
<event>
 5   0  0.4630615E-06  0.2200093E+04  0.7818609E-02  0.8518389E-01
        1   -1    0    0  501    0  0.00000000000E+00  0.00000000000E+00  0.11580872069E+04  0.11580872069E+04  0.50400001928E-02 0. -1.
       -1   -1    0    0    0  501  0.00000000000E+00  0.00000000000E+00 -0.10449145693E+04  0.10449145693E+04  0.50400001928E-02 0.  1.
    10030    2    1    2    0    0  0.00000000000E+00  0.00000000000E+00  0.11317263762E+03  0.22030017762E+04  0.22000929026E+04 0.  0.
        2    1    3    3  502    0  0.40895600496E+03  0.56944865505E+02  0.10775492725E+04  0.11539498110E+04  0.25500000920E-02 0. -1.
       -2    1    3    3    0  502 -0.40895600496E+03 -0.56944865505E+02 -0.96437663489E+03  0.10490519652E+04  0.25500000920E-02 0.  1.
</event>
<event>
 5   0  0.4462201E-06  0.2169064E+04  0.7818609E-02  0.8531416E-01
       -1   -1    0    0    0  501  0.00000000000E+00  0.00000000000E+00  0.80353591834E+03  0.80353591836E+03  0.50400001928E-02 0. -1.
        1   -1    0    0  501    0  0.00000000000E+00  0.00000000000E+00 -0.14637918944E+04  0.14637918944E+04  0.50400001928E-02 0.  1.
    10030    2    1    2    0    0  0.00000000000E+00  0.00000000000E+00 -0.66025597606E+03  0.22673278128E+04  0.21690637281E+04 0.  0.
        3    1    3    3  502    0  0.21162778028E+03  0.92831566612E+03  0.21267806308E+03  0.97559636226E+03  0.10100000352E+00 0. -1.
       -3    1    3    3    0  502 -0.21162778028E+03 -0.92831566612E+03 -0.87293403914E+03  0.12917314505E+04  0.10100000352E+00 0.  1.
</event>
<event>
 5   0  0.9963173E-06  0.2200162E+04  0.7818609E-02  0.8518361E-01
        2   -1    0    0  501    0  0.00000000000E+00  0.00000000000E+00  0.24616065735E+04  0.24616065735E+04  0.25500000920E-02 0.  1.
       -2   -1    0    0    0  501  0.00000000000E+00  0.00000000000E+00 -0.49162128518E+03  0.49162128519E+03  0.25500000920E-02 0. -1.
    10030    2    1    2    0    0  0.00000000000E+00  0.00000000000E+00  0.19699852884E+04  0.29532278587E+04  0.22001619825E+04 0.  0.
        4    1    3    3  502    0 -0.25726065852E+03 -0.50149598363E+03  0.22530686090E+04  0.23224988779E+04  0.12699999809E+01 0.  1.
       -4    1    3    3    0  502  0.25726065852E+03  0.50149598363E+03 -0.28308332060E+03  0.63072898088E+03  0.12699999809E+01 0. -1.
</event>
<event>
 5   0  0.4309945E-06  0.2180585E+04  0.7818609E-02  0.8526553E-01
        1   -1    0    0  501    0  0.00000000000E+00  0.00000000000E+00  0.15333912074E+04  0.15333912074E+04  0.50400001928E-02 0.  1.
       -1   -1    0    0    0  501  0.00000000000E+00  0.00000000000E+00 -0.77523463702E+03  0.77523463704E+03  0.50400001928E-02 0. -1.
    10030    2    1    2    0    0  0.00000000000E+00  0.00000000000E+00  0.75815657036E+03  0.23086258444E+04  0.21805852206E+04 0.  0.
        4    1    3    3  502    0 -0.12813581074E+02  0.10797261339E+04  0.53881378670E+03  0.12067703268E+04  0.12699999809E+01 0.  1.
       -4    1    3    3    0  502  0.12813581074E+02 -0.10797261339E+04  0.21934278366E+03  0.11018555176E+04  0.12699999809E+01 0. -1.
</event>
<event>
 5   0  0.9963573E-06  0.2197974E+04  0.7818609E-02  0.8519272E-01
       -2   -1    0    0    0  501  0.00000000000E+00  0.00000000000E+00  0.11099865126E+04  0.11099865126E+04  0.25500000920E-02 0.  1.
        2   -1    0    0  501    0  0.00000000000E+00  0.00000000000E+00 -0.10880963414E+04  0.10880963415E+04  0.25500000920E-02 0. -1.
    10030    2    1    2    0    0  0.00000000000E+00  0.00000000000E+00  0.21890171183E+02  0.21980828541E+04  0.21979738519E+04 0.  0.
        2    1    3    3  502    0 -0.55802542421E+02  0.10655397366E+04 -0.25228538663E+03  0.10964199790E+04  0.25500000920E-02 0. -1.
       -2    1    3    3    0  502  0.55802542421E+02 -0.10655397366E+04  0.27417555782E+03  0.11016628751E+04  0.25500000920E-02 0.  1.
</event>
<event>
 5   0  0.4462201E-06  0.2199074E+04  0.7818609E-02  0.8518814E-01
        1   -1    0    0  501    0  0.00000000000E+00  0.00000000000E+00  0.22340462482E+04  0.22340462482E+04  0.50400001928E-02 0.  1.
       -1   -1    0    0    0  501  0.00000000000E+00  0.00000000000E+00 -0.54116222693E+03  0.54116222695E+03  0.50400001928E-02 0. -1.
    10030    2    1    2    0    0  0.00000000000E+00  0.00000000000E+00  0.16928840213E+04  0.27752084752E+04  0.21990738440E+04 0.  0.
        3    1    3    3  502    0  0.63102521359E+02  0.10708855677E+04  0.54198165994E+03  0.12018826720E+04  0.10100000352E+00 0. -1.
       -3    1    3    3    0  502 -0.63102521359E+02 -0.10708855677E+04  0.11509023613E+04  0.15733258032E+04  0.10100000352E+00 0.  1.
</event>
<event>
 5   0  0.1035928E-05  0.2200005E+04  0.7818609E-02  0.8518426E-01
       -2   -1    0    0    0  501  0.00000000000E+00  0.00000000000E+00  0.10210152866E+04  0.10210152866E+04  0.25500000920E-02 0. -1.
        2   -1    0    0  501    0  0.00000000000E+00  0.00000000000E+00 -0.11850997521E+04  0.11850997521E+04  0.25500000920E-02 0.  1.
    10030    2    1    2    0    0  0.00000000000E+00  0.00000000000E+00 -0.16408446551E+03  0.22061150387E+04  0.22000045119E+04 0.  0.
        3    1    3    3  502    0 -0.23475111602E+03 -0.60050516343E+03  0.81166288431E+03  0.10365863137E+04  0.10100000352E+00 0. -1.
       -3    1    3    3    0  502  0.23475111602E+03  0.60050516343E+03 -0.97574734982E+03  0.11695287250E+04  0.10100000352E+00 0.  1.
</event>
<event>
 5   0  0.4630615E-06  0.2200136E+04  0.7818609E-02  0.8518372E-01
       -1   -1    0    0    0  501  0.00000000000E+00  0.00000000000E+00  0.64674274119E+03  0.64674274121E+03  0.50400001928E-02 0.  1.
        1   -1    0    0  501    0  0.00000000000E+00  0.00000000000E+00 -0.18711446637E+04  0.18711446637E+04  0.50400001928E-02 0. -1.
    10030    2    1    2    0    0  0.00000000000E+00  0.00000000000E+00 -0.12244019225E+04  0.25178874049E+04  0.22001356586E+04 0.  0.
        2    1    3    3  502    0  0.91478627583E+03  0.47849888898E+03 -0.17738905771E+03  0.10475027422E+04  0.25500000920E-02 0.  1.
       -2    1    3    3    0  502 -0.91478627583E+03 -0.47849888898E+03 -0.10470128648E+04  0.14703846627E+04  0.25500000920E-02 0. -1.
</event>
<event>
 5   0  0.9963573E-06  0.2208466E+04  0.7818609E-02  0.8514912E-01
        2   -1    0    0  501    0  0.00000000000E+00  0.00000000000E+00  0.15925238852E+04  0.15925238852E+04  0.25500000920E-02 0.  1.
       -2   -1    0    0    0  501  0.00000000000E+00  0.00000000000E+00 -0.76565941354E+03  0.76565941355E+03  0.25500000920E-02 0. -1.
    10030    2    1    2    0    0  0.00000000000E+00  0.00000000000E+00  0.82686447165E+03  0.23581832987E+04  0.22084663493E+04 0.  0.
        2    1    3    3  502    0 -0.76183806704E+03  0.50695977673E+03  0.10733291106E+04  0.14104753934E+04  0.25500000920E-02 0.  1.
       -2    1    3    3    0  502  0.76183806704E+03 -0.50695977673E+03 -0.24646463898E+03  0.94770790536E+03  0.25500000920E-02 0. -1.
</event>
<event>
 5   0  0.1014015E-05  0.2193980E+04  0.7818609E-02  0.8520938E-01
       -2   -1    0    0    0  501  0.00000000000E+00  0.00000000000E+00  0.10354118877E+04  0.10354118877E+04  0.25500000920E-02 0. -1.
        2   -1    0    0  501    0  0.00000000000E+00  0.00000000000E+00 -0.11622302906E+04  0.11622302906E+04  0.25500000920E-02 0.  1.
    10030    2    1    2    0    0  0.00000000000E+00  0.00000000000E+00 -0.12681840292E+03  0.21976421782E+04  0.21939799991E+04 0.  0.
        1    1    3    3  502    0 -0.66627213420E+03 -0.35021389744E+03 -0.86275046220E+03  0.11449483354E+04  0.50400001928E-02 0.  1.
       -1    1    3    3    0  502  0.66627213420E+03  0.35021389744E+03  0.73593205928E+03  0.10526938428E+04  0.50400001928E-02 0. -1.
</event>
<event>
 5   0  0.4462201E-06  0.2201623E+04  0.7818609E-02  0.8517753E-01
        1   -1    0    0  501    0  0.00000000000E+00  0.00000000000E+00  0.17585167590E+04  0.17585167590E+04  0.50400001928E-02 0.  1.
       -1   -1    0    0    0  501  0.00000000000E+00  0.00000000000E+00 -0.68909570878E+03  0.68909570879E+03  0.50400001928E-02 0. -1.
    10030    2    1    2    0    0  0.00000000000E+00  0.00000000000E+00  0.10694210502E+04  0.24476124678E+04  0.22016233578E+04 0.  0.
        3    1    3    3  502    0 -0.17866358330E+02  0.78565319063E+03  0.13916928727E+04  0.15982425363E+04  0.10100000352E+00 0.  1.
       -3    1    3    3    0  502  0.17866358330E+02 -0.78565319063E+03 -0.32227182251E+03  0.84936993147E+03  0.10100000352E+00 0. -1.
</event>
<event>
 5   0  0.4309945E-06  0.2200380E+04  0.7818609E-02  0.8518270E-01
        1   -1    0    0  501    0  0.00000000000E+00  0.00000000000E+00  0.11474591759E+04  0.11474591759E+04  0.50400001928E-02 0.  1.
       -1   -1    0    0    0  501  0.00000000000E+00  0.00000000000E+00 -0.10548681988E+04  0.10548681988E+04  0.50400001928E-02 0. -1.
    10030    2    1    2    0    0  0.00000000000E+00  0.00000000000E+00  0.92590977096E+02  0.22023273748E+04  0.22003801436E+04 0.  0.
        4    1    3    3  502    0  0.20920256513E+03  0.65803782487E+03  0.90357964855E+03  0.11372059120E+04  0.12699999809E+01 0.  1.
       -4    1    3    3    0  502 -0.20920256513E+03 -0.65803782487E+03 -0.81098867145E+03  0.10651214627E+04  0.12699999809E+01 0. -1.
</event>
<event>
 5   0  0.9963573E-06  0.2200517E+04  0.7818609E-02  0.8518213E-01
       -2   -1    0    0    0  501  0.00000000000E+00  0.00000000000E+00  0.10244778910E+04  0.10244778910E+04  0.25500000920E-02 0.  1.
        2   -1    0    0  501    0  0.00000000000E+00  0.00000000000E+00 -0.11816443157E+04  0.11816443157E+04  0.25500000920E-02 0. -1.
    10030    2    1    2    0    0  0.00000000000E+00  0.00000000000E+00 -0.15716642471E+03  0.22061222067E+04  0.22005167361E+04 0.  0.
        2    1    3    3  502    0 -0.11407242739E+03 -0.54621701322E+03 -0.10292618770E+04  0.11707884334E+04  0.25500000920E-02 0. -1.
       -2    1    3    3    0  502  0.11407242739E+03  0.54621701322E+03  0.87209545229E+03  0.10353337733E+04  0.25500000920E-02 0.  1.
</event>
<event>
 5   0  0.9963173E-06  0.2205204E+04  0.7818609E-02  0.8516265E-01
        2   -1    0    0  501    0  0.00000000000E+00  0.00000000000E+00  0.15455340944E+04  0.15455340944E+04  0.25500000920E-02 0.  1.
       -2   -1    0    0    0  501  0.00000000000E+00  0.00000000000E+00 -0.78660881581E+03  0.78660881581E+03  0.25500000920E-02 0. -1.
    10030    2    1    2    0    0  0.00000000000E+00  0.00000000000E+00  0.75892527858E+03  0.23321429102E+04  0.22052036131E+04 0.  0.
        4    1    3    3  502    0 -0.55867612914E+03 -0.14045468176E+03 -0.61480603292E+03  0.84251682827E+03  0.12699999809E+01 0. -1.
       -4    1    3    3    0  502  0.55867612914E+03  0.14045468176E+03  0.13737313115E+04  0.14896260819E+04  0.12699999809E+01 0.  1.
</event>
<event>
 5   0  0.1035928E-05  0.2199852E+04  0.7818609E-02  0.8518490E-01
       -2   -1    0    0    0  501  0.00000000000E+00  0.00000000000E+00  0.10760450981E+04  0.10760450981E+04  0.25500000920E-02 0.  1.
        2   -1    0    0  501    0  0.00000000000E+00  0.00000000000E+00 -0.11243371650E+04  0.11243371650E+04  0.25500000920E-02 0. -1.
    10030    2    1    2    0    0  0.00000000000E+00  0.00000000000E+00 -0.48292066862E+02  0.22003822631E+04  0.21998522633E+04 0.  0.
        3    1    3    3  502    0 -0.75727509009E+03  0.59233850808E+03 -0.55860333095E+03  0.11119209332E+04  0.10100000352E+00 0. -1.
       -3    1    3    3    0  502  0.75727509009E+03 -0.59233850808E+03  0.51031126409E+03  0.10884613299E+04  0.10100000352E+00 0.  1.
</event>
<event>
 5   0  0.1015876E-05  0.2206642E+04  0.7818609E-02  0.8515669E-01
       -2   -1    0    0    0  501  0.00000000000E+00  0.00000000000E+00  0.10354065278E+04  0.10354065278E+04  0.25500000920E-02 0. -1.
        2   -1    0    0  501    0  0.00000000000E+00  0.00000000000E+00 -0.11756903471E+04  0.11756903471E+04  0.25500000920E-02 0.  1.
    10030    2    1    2    0    0  0.00000000000E+00  0.00000000000E+00 -0.14028381922E+03  0.22110968749E+04  0.22066422094E+04 0.  0.
        5    1    3    3  502    0 -0.14236845963E+03 -0.48315734392E+03  0.91346369337E+03  0.10431432339E+04  0.46999998093E+01 0. -1.
       -5    1    3    3    0  502  0.14236845963E+03  0.48315734392E+03 -0.10537475126E+04  0.11679536410E+04  0.46999998093E+01 0.  1.
</event>
<event>
 5   0  0.4309945E-06  0.2219676E+04  0.7818609E-02  0.8510283E-01
       -1   -1    0    0    0  501  0.00000000000E+00  0.00000000000E+00  0.92249383789E+03  0.92249383791E+03  0.50400001928E-02 0. -1.
        1   -1    0    0  501    0  0.00000000000E+00  0.00000000000E+00 -0.13352282742E+04  0.13352282742E+04  0.50400001928E-02 0.  1.
    10030    2    1    2    0    0  0.00000000000E+00  0.00000000000E+00 -0.41273443626E+03  0.22577221121E+04  0.22196755214E+04 0.  0.
        4    1    3    3  502    0 -0.43271423587E+03  0.12352518564E+03  0.82553592152E+03  0.94021872563E+03  0.12699999809E+01 0. -1.
       -4    1    3    3    0  502  0.43271423587E+03 -0.12352518564E+03 -0.12382703578E+04  0.13175033864E+04  0.12699999809E+01 0.  1.
</event>
<event>
 5   0  0.4462201E-06  0.2200456E+04  0.7818609E-02  0.8518239E-01
        1   -1    0    0  501    0  0.00000000000E+00  0.00000000000E+00  0.10863966517E+04  0.10863966517E+04  0.50400001928E-02 0. -1.
       -1   -1    0    0    0  501  0.00000000000E+00  0.00000000000E+00 -0.11142350211E+04  0.11142350211E+04  0.50400001928E-02 0.  1.
    10030    2    1    2    0    0  0.00000000000E+00  0.00000000000E+00 -0.27838369403E+02  0.22006316728E+04  0.22004555857E+04 0.  0.
        3    1    3    3  502    0  0.40508694942E+03 -0.41675990194E+03 -0.94818714089E+03  0.11121344868E+04  0.10100000352E+00 0.  1.
       -3    1    3    3    0  502 -0.40508694942E+03  0.41675990194E+03  0.92034877149E+03  0.10884971860E+04  0.10100000352E+00 0. -1.
</event>
<event>
 5   0  0.4408787E-06  0.2192086E+04  0.7818609E-02  0.8521729E-01
       -1   -1    0    0    0  501  0.00000000000E+00  0.00000000000E+00  0.49007013267E+03  0.49007013269E+03  0.50400001928E-02 0. -1.
        1   -1    0    0  501    0  0.00000000000E+00  0.00000000000E+00 -0.24513030780E+04  0.24513030780E+04  0.50400001928E-02 0.  1.
    10030    2    1    2    0    0  0.00000000000E+00  0.00000000000E+00 -0.19612329453E+04  0.29413732107E+04  0.21920861522E+04 0.  0.
        1    1    3    3  502    0 -0.36800071473E+03 -0.56495845286E+03 -0.21401087788E+04  0.22438066237E+04  0.50400001928E-02 0.  1.
       -1    1    3    3    0  502  0.36800071473E+03  0.56495845286E+03  0.17887583345E+03  0.69756658701E+03  0.50400001928E-02 0. -1.
</event>
<event>
 5   0  0.9963173E-06  0.2201430E+04  0.7818609E-02  0.8517833E-01
       -2   -1    0    0    0  501  0.00000000000E+00  0.00000000000E+00  0.98943918062E+03  0.98943918062E+03  0.25500000920E-02 0. -1.
        2   -1    0    0  501    0  0.00000000000E+00  0.00000000000E+00 -0.12245058450E+04  0.12245058450E+04  0.25500000920E-02 0.  1.
    10030    2    1    2    0    0  0.00000000000E+00  0.00000000000E+00 -0.23506666442E+03  0.22139450257E+04  0.22014304985E+04 0.  0.
        4    1    3    3  502    0  0.78970170254E+02 -0.30402803849E+03  0.94340595550E+03  0.99432678016E+03  0.12699999809E+01 0. -1.
       -4    1    3    3    0  502 -0.78970170254E+02  0.30402803849E+03 -0.11784726199E+04  0.12196182455E+04  0.12699999809E+01 0.  1.
</event>
<event>
 5   0  0.9963173E-06  0.2191886E+04  0.7818609E-02  0.8521813E-01
        2   -1    0    0  501    0  0.00000000000E+00  0.00000000000E+00  0.16813247509E+04  0.16813247509E+04  0.25500000920E-02 0. -1.
       -2   -1    0    0    0  501  0.00000000000E+00  0.00000000000E+00 -0.71437211630E+03  0.71437211630E+03  0.25500000920E-02 0.  1.
    10030    2    1    2    0    0  0.00000000000E+00  0.00000000000E+00  0.96695263456E+03  0.23956968672E+04  0.21918864208E+04 0.  0.
        4    1    3    3  502    0 -0.37129717613E+03  0.10209288025E+04  0.64161072973E+03  0.12616747418E+04  0.12699999809E+01 0. -1.
       -4    1    3    3    0  502  0.37129717613E+03 -0.10209288025E+04  0.32534190482E+03  0.11340221253E+04  0.12699999809E+01 0.  1.
</event>
<event>
 5   0  0.3546750E-06  0.2197945E+04  0.7818609E-02  0.8519284E-01
       -3   -1    0    0    0  501  0.00000000000E+00  0.00000000000E+00  0.18111643270E+04  0.18111643298E+04  0.10100000352E+00 0.  1.
        3   -1    0    0  501    0  0.00000000000E+00  0.00000000000E+00 -0.66683116123E+03  0.66683116888E+03  0.10100000352E+00 0. -1.
    10030    2    1    2    0    0  0.00000000000E+00  0.00000000000E+00  0.11443331658E+04  0.24779954987E+04  0.21979452444E+04 0.  0.
        2    1    3    3  502    0  0.58174242268E+03  0.58704742755E+03 -0.24448314612E+03  0.86187060356E+03  0.25500000920E-02 0. -1.
       -2    1    3    3    0  502 -0.58174242268E+03 -0.58704742755E+03  0.13888163119E+04  0.16161248951E+04  0.25500000920E-02 0.  1.
</event>
<event>
 5   0  0.9963573E-06  0.2201664E+04  0.7818609E-02  0.8517736E-01
       -2   -1    0    0    0  501  0.00000000000E+00  0.00000000000E+00  0.13174749599E+04  0.13174749599E+04  0.25500000920E-02 0. -1.
        2   -1    0    0  501    0  0.00000000000E+00  0.00000000000E+00 -0.91981348969E+03  0.91981348969E+03  0.25500000920E-02 0.  1.
    10030    2    1    2    0    0  0.00000000000E+00  0.00000000000E+00  0.39766147019E+03  0.22372884496E+04  0.22016641346E+04 0.  0.
        2    1    3    3  502    0  0.78013869404E+03 -0.71051050300E+03 -0.11991596311E+03  0.10619893573E+04  0.25500000920E-02 0.  1.
       -2    1    3    3    0  502 -0.78013869404E+03  0.71051050300E+03  0.51757743330E+03  0.11752990923E+04  0.25500000920E-02 0. -1.
</event>
<event>
 5   0  0.4630615E-06  0.2213364E+04  0.7818609E-02  0.8512886E-01
       -1   -1    0    0    0  501  0.00000000000E+00  0.00000000000E+00  0.42502942606E+03  0.42502942609E+03  0.50400001928E-02 0. -1.
        1   -1    0    0  501    0  0.00000000000E+00  0.00000000000E+00 -0.28815536754E+04  0.28815536754E+04  0.50400001928E-02 0.  1.
    10030    2    1    2    0    0  0.00000000000E+00  0.00000000000E+00 -0.24565242494E+04  0.33065831015E+04  0.22133640504E+04 0.  0.
        2    1    3    3  502    0 -0.23833194682E+03 -0.35888234114E+03  0.29461537443E+03  0.52191653597E+03  0.25500000920E-02 0. -1.
       -2    1    3    3    0  502  0.23833194682E+03  0.35888234114E+03 -0.27511396238E+04  0.27846665655E+04  0.25500000920E-02 0.  1.
</event>
<event>
 5   0  0.4462201E-06  0.2200935E+04  0.7818609E-02  0.8518039E-01
        1   -1    0    0  501    0  0.00000000000E+00  0.00000000000E+00  0.20379479584E+04  0.20379479585E+04  0.50400001928E-02 0.  1.
       -1   -1    0    0    0  501  0.00000000000E+00  0.00000000000E+00 -0.59423938484E+03  0.59423938486E+03  0.50400001928E-02 0. -1.
    10030    2    1    2    0    0  0.00000000000E+00  0.00000000000E+00  0.14437085736E+04  0.26321873433E+04  0.22009352023E+04 0.  0.
        3    1    3    3  502    0 -0.37936437638E+02  0.61274030429E+03 -0.37041261425E+03  0.71700444127E+03  0.10100000352E+00 0. -1.
       -3    1    3    3    0  502  0.37936437638E+02 -0.61274030429E+03  0.18141211879E+04  0.19151829020E+04  0.10100000352E+00 0.  1.
</event>
<event>
 5   0  0.1015876E-05  0.2186561E+04  0.7818609E-02  0.8524043E-01
       -2   -1    0    0    0  501  0.00000000000E+00  0.00000000000E+00  0.11713436661E+04  0.11713436661E+04  0.25500000920E-02 0.  1.
        2   -1    0    0  501    0  0.00000000000E+00  0.00000000000E+00 -0.10204193263E+04  0.10204193263E+04  0.25500000920E-02 0. -1.
    10030    2    1    2    0    0  0.00000000000E+00  0.00000000000E+00  0.15092433981E+03  0.21917629924E+04  0.21865605088E+04 0.  0.
        5    1    3    3  502    0  0.45155955674E+03 -0.67711716595E+03  0.80716193907E+03  0.11462661888E+04  0.46999998093E+01 0.  1.
       -5    1    3    3    0  502 -0.45155955674E+03  0.67711716595E+03 -0.65623759926E+03  0.10454968036E+04  0.46999998093E+01 0. -1.
</event>
<event>
 5   0  0.1014015E-05  0.2194516E+04  0.7818609E-02  0.8520714E-01
        2   -1    0    0  501    0  0.00000000000E+00  0.00000000000E+00  0.20665525378E+04  0.20665525378E+04  0.25500000920E-02 0.  1.
       -2   -1    0    0    0  501  0.00000000000E+00  0.00000000000E+00 -0.58260099655E+03  0.58260099655E+03  0.25500000920E-02 0. -1.
    10030    2    1    2    0    0  0.00000000000E+00  0.00000000000E+00  0.14839515413E+04  0.26491535344E+04  0.21945164096E+04 0.  0.
        1    1    3    3  502    0 -0.56228570817E+03  0.65509541339E+03  0.15595249657E+04  0.17825356481E+04  0.50400001928E-02 0.  1.
       -1    1    3    3    0  502  0.56228570817E+03 -0.65509541339E+03 -0.75573424412E+02  0.86661788624E+03  0.50400001928E-02 0. -1.
</event>
<event>
 5   0  0.4309945E-06  0.2194576E+04  0.7818609E-02  0.8520689E-01
        1   -1    0    0  501    0  0.00000000000E+00  0.00000000000E+00  0.13800728374E+04  0.13800728374E+04  0.50400001928E-02 0. -1.
       -1   -1    0    0    0  501  0.00000000000E+00  0.00000000000E+00 -0.87244721757E+03  0.87244721758E+03  0.50400001928E-02 0.  1.
    10030    2    1    2    0    0  0.00000000000E+00  0.00000000000E+00  0.50762561981E+03  0.22525200550E+04  0.21945757741E+04 0.  0.
        4    1    3    3  502    0  0.13931460251E+03  0.65261832523E+03 -0.64023102125E+03  0.92477922250E+03  0.12699999809E+01 0.  1.
       -4    1    3    3    0  502 -0.13931460251E+03 -0.65261832523E+03  0.11478566411E+04  0.13277408325E+04  0.12699999809E+01 0. -1.
</event>
<event>
 5   0  0.4309945E-06  0.2200069E+04  0.7818609E-02  0.8518399E-01
       -1   -1    0    0    0  501  0.00000000000E+00  0.00000000000E+00  0.78155143050E+03  0.78155143052E+03  0.50400001928E-02 0.  1.
        1   -1    0    0  501    0  0.00000000000E+00  0.00000000000E+00 -0.15483000197E+04  0.15483000197E+04  0.50400001928E-02 0. -1.
    10030    2    1    2    0    0  0.00000000000E+00  0.00000000000E+00 -0.76674858915E+03  0.23298514502E+04  0.22000691764E+04 0.  0.
        4    1    3    3  502    0  0.10538300892E+04 -0.29229988990E+03 -0.50902158233E+03  0.12062759496E+04  0.12699999809E+01 0. -1.
       -4    1    3    3    0  502 -0.10538300892E+04  0.29229988990E+03 -0.25772700682E+03  0.11235755005E+04  0.12699999809E+01 0.  1.
</event>
<event>
 5   0  0.4462201E-06  0.2198377E+04  0.7818609E-02  0.8519104E-01
        1   -1    0    0  501    0  0.00000000000E+00  0.00000000000E+00  0.26190331721E+04  0.26190331721E+04  0.50400001928E-02 0.  1.
       -1   -1    0    0    0  501  0.00000000000E+00  0.00000000000E+00 -0.46132122426E+03  0.46132122429E+03  0.50400001928E-02 0. -1.
    10030    2    1    2    0    0  0.00000000000E+00  0.00000000000E+00  0.21577119478E+04  0.30803543964E+04  0.21983772100E+04 0.  0.
        3    1    3    3  502    0 -0.53840607473E+03  0.70120297388E+03  0.16361854909E+03  0.89907605446E+03  0.10100000352E+00 0. -1.
       -3    1    3    3    0  502  0.53840607473E+03 -0.70120297388E+03  0.19940933987E+04  0.21812783419E+04  0.10100000352E+00 0.  1.
</event>
<event>
 5   0  0.9963173E-06  0.2199743E+04  0.7818609E-02  0.8518535E-01
       -2   -1    0    0    0  501  0.00000000000E+00  0.00000000000E+00  0.82650784260E+03  0.82650784260E+03  0.25500000920E-02 0.  1.
        2   -1    0    0  501    0  0.00000000000E+00  0.00000000000E+00 -0.14636486024E+04  0.14636486024E+04  0.25500000920E-02 0. -1.
    10030    2    1    2    0    0  0.00000000000E+00  0.00000000000E+00 -0.63714075982E+03  0.22901564450E+04  0.21997427565E+04 0.  0.
        4    1    3    3  502    0 -0.53894320518E+03 -0.95533105593E+03 -0.23400219465E+03  0.11215506430E+04  0.12699999809E+01 0.  1.
       -4    1    3    3    0  502  0.53894320518E+03  0.95533105593E+03 -0.40313856517E+03  0.11686058020E+04  0.12699999809E+01 0. -1.
</event>
<event>
 5   0  0.4794967E-06  0.2212638E+04  0.7818609E-02  0.8513186E-01
        1   -1    0    0  501    0  0.00000000000E+00  0.00000000000E+00  0.16851864221E+04  0.16851864221E+04  0.50400001928E-02 0. -1.
       -1   -1    0    0    0  501  0.00000000000E+00  0.00000000000E+00 -0.72629442456E+03  0.72629442458E+03  0.50400001928E-02 0.  1.
    10030    2    1    2    0    0  0.00000000000E+00  0.00000000000E+00  0.95889199755E+03  0.24114808467E+04  0.22126377948E+04 0.  0.
        5    1    3    3  502    0  0.10356426627E+04  0.37556535466E+03  0.59013245245E+03  0.12497533604E+04  0.46999998093E+01 0. -1.
       -5    1    3    3    0  502 -0.10356426627E+04 -0.37556535466E+03  0.36875954510E+03  0.11617274863E+04  0.46999998093E+01 0.  1.
</event>
<event>
 5   0  0.1035928E-05  0.2200456E+04  0.7818609E-02  0.8518238E-01
        2   -1    0    0  501    0  0.00000000000E+00  0.00000000000E+00  0.76662248018E+03  0.76662248019E+03  0.25500000920E-02 0.  1.
       -2   -1    0    0    0  501  0.00000000000E+00  0.00000000000E+00 -0.15790065275E+04  0.15790065275E+04  0.25500000920E-02 0. -1.
    10030    2    1    2    0    0  0.00000000000E+00  0.00000000000E+00 -0.81238404728E+03  0.23456290077E+04  0.22004562257E+04 0.  0.
        3    1    3    3  502    0  0.55627546048E+03 -0.70060743855E+03  0.27653805069E+03  0.93635809099E+03  0.10100000352E+00 0.  1.
       -3    1    3    3    0  502 -0.55627546048E+03  0.70060743855E+03 -0.10889220980E+04  0.14092709167E+04  0.10100000352E+00 0. -1.
</event>
<event>
 5   0  0.1035928E-05  0.2198144E+04  0.7818609E-02  0.8519201E-01
       -2   -1    0    0    0  501  0.00000000000E+00  0.00000000000E+00  0.16577428701E+04  0.16577428701E+04  0.25500000920E-02 0.  1.
        2   -1    0    0  501    0  0.00000000000E+00  0.00000000000E+00 -0.72867708272E+03  0.72867708272E+03  0.25500000920E-02 0. -1.
    10030    2    1    2    0    0  0.00000000000E+00  0.00000000000E+00  0.92906578740E+03  0.23864199528E+04  0.21981439794E+04 0.  0.
        3    1    3    3  502    0 -0.36206127377E+03 -0.35701966114E+02  0.15904732151E+04  0.16315538773E+04  0.10100000352E+00 0.  1.
       -3    1    3    3    0  502  0.36206127377E+03  0.35701966114E+02 -0.66140742772E+03  0.75486607554E+03  0.10100000352E+00 0. -1.
</event>
<event>
 5   0  0.3546750E-06  0.2202976E+04  0.7818609E-02  0.8517190E-01
        3   -1    0    0  501    0  0.00000000000E+00  0.00000000000E+00  0.14931238694E+04  0.14931238729E+04  0.10100000352E+00 0.  1.
       -3   -1    0    0    0  501  0.00000000000E+00  0.00000000000E+00 -0.81257546572E+03  0.81257547200E+03  0.10100000352E+00 0. -1.
    10030    2    1    2    0    0  0.00000000000E+00  0.00000000000E+00  0.68054840372E+03  0.23056993448E+04  0.22029760187E+04 0.  0.
        4    1    3    3  502    0  0.62075187284E+03  0.46544947610E+03 -0.47803877166E+03  0.91131705929E+03  0.12699999809E+01 0. -1.
       -4    1    3    3    0  502 -0.62075187284E+03 -0.46544947610E+03  0.11585871754E+04  0.13943822856E+04  0.12699999809E+01 0.  1.
</event>
<event>
 5   0  0.4794967E-06  0.2202620E+04  0.7818609E-02  0.8517338E-01
       -1   -1    0    0    0  501  0.00000000000E+00  0.00000000000E+00  0.56804208098E+03  0.56804208100E+03  0.50400001928E-02 0.  1.
        1   -1    0    0  501    0  0.00000000000E+00  0.00000000000E+00 -0.21352000251E+04  0.21352000251E+04  0.50400001928E-02 0. -1.
    10030    2    1    2    0    0  0.00000000000E+00  0.00000000000E+00 -0.15671579441E+04  0.27032421061E+04  0.22026197726E+04 0.  0.
        5    1    3    3  502    0  0.29324249031E+03 -0.44329607845E+03 -0.19673580116E+04  0.20378965153E+04  0.46999998093E+01 0. -1.
       -5    1    3    3    0  502 -0.29324249031E+03  0.44329607845E+03  0.40020006743E+03  0.66534559085E+03  0.46999998093E+01 0.  1.
</event>
<event>
 5   0  0.1035928E-05  0.2199743E+04  0.7818609E-02  0.8518535E-01
       -2   -1    0    0    0  501  0.00000000000E+00  0.00000000000E+00  0.24831850177E+04  0.24831850177E+04  0.25500000920E-02 0. -1.
        2   -1    0    0  501    0  0.00000000000E+00  0.00000000000E+00 -0.48716358630E+03  0.48716358631E+03  0.25500000920E-02 0.  1.
    10030    2    1    2    0    0  0.00000000000E+00  0.00000000000E+00  0.19960214314E+04  0.29703486040E+04  0.21997430020E+04 0.  0.
        3    1    3    3  502    0  0.97585691532E+03 -0.49284414724E+03  0.11607517505E+04  0.15945333829E+04  0.10100000352E+00 0. -1.
       -3    1    3    3    0  502 -0.97585691532E+03  0.49284414724E+03  0.83526968091E+03  0.13758152211E+04  0.10100000352E+00 0.  1.
</event>
<event>
 5   0  0.3546750E-06  0.2199812E+04  0.7818609E-02  0.8518506E-01
        3   -1    0    0  501    0  0.00000000000E+00  0.00000000000E+00  0.60027675057E+03  0.60027675907E+03  0.10100000352E+00 0. -1.
       -3   -1    0    0    0  501  0.00000000000E+00  0.00000000000E+00 -0.20153919450E+04  0.20153919475E+04  0.10100000352E+00 0.  1.
    10030    2    1    2    0    0  0.00000000000E+00  0.00000000000E+00 -0.14151151944E+04  0.26156687066E+04  0.21998117577E+04 0.  0.
        3    1    3    3  502    0  0.78503698599E+03 -0.60643347605E+03 -0.14260831176E+03  0.10021884908E+04  0.10100000352E+00 0.  1.
       -3    1    3    3    0  502 -0.78503698599E+03  0.60643347605E+03 -0.12725068827E+04  0.16134802158E+04  0.10100000352E+00 0. -1.
</event>
<event>
 5   0  0.9963573E-06  0.2197068E+04  0.7818609E-02  0.8519649E-01
       -2   -1    0    0    0  501  0.00000000000E+00  0.00000000000E+00  0.11628192019E+04  0.11628192019E+04  0.25500000920E-02 0.  1.
        2   -1    0    0  501    0  0.00000000000E+00  0.00000000000E+00 -0.10378026864E+04  0.10378026864E+04  0.25500000920E-02 0. -1.
    10030    2    1    2    0    0  0.00000000000E+00  0.00000000000E+00  0.12501651557E+03  0.22006218883E+04  0.21970679475E+04 0.  0.
        2    1    3    3  502    0  0.10357735095E+04 -0.34270281353E+03  0.19118750768E+03  0.11076211647E+04  0.25500000920E-02 0.  1.
       -2    1    3    3    0  502 -0.10357735095E+04  0.34270281353E+03 -0.66170992115E+02  0.10930007235E+04  0.25500000920E-02 0. -1.
</event>
<event>
 5   0  0.1014015E-05  0.2199741E+04  0.7818609E-02  0.8518536E-01
       -2   -1    0    0    0  501  0.00000000000E+00  0.00000000000E+00  0.69931417340E+03  0.69931417340E+03  0.25500000920E-02 0.  1.
        2   -1    0    0  501    0  0.00000000000E+00  0.00000000000E+00 -0.17298592015E+04  0.17298592015E+04  0.25500000920E-02 0. -1.
    10030    2    1    2    0    0  0.00000000000E+00  0.00000000000E+00 -0.10305450281E+04  0.24291733749E+04  0.21997409462E+04 0.  0.
        1    1    3    3  502    0  0.12442214089E+03  0.13737209868E+02 -0.17219672203E+04  0.17265111317E+04  0.50400001928E-02 0. -1.
       -1    1    3    3    0  502 -0.12442214089E+03 -0.13737209868E+02  0.69142219222E+03  0.70266224318E+03  0.50400001928E-02 0.  1.
</event>
<event>
 5   0  0.4408787E-06  0.2192116E+04  0.7818609E-02  0.8521717E-01
        1   -1    0    0  501    0  0.00000000000E+00  0.00000000000E+00  0.11176148329E+04  0.11176148330E+04  0.50400001928E-02 0. -1.
       -1   -1    0    0    0  501  0.00000000000E+00  0.00000000000E+00 -0.10749166968E+04  0.10749166968E+04  0.50400001928E-02 0.  1.
    10030    2    1    2    0    0  0.00000000000E+00  0.00000000000E+00  0.42698136179E+02  0.21925315297E+04  0.21921157310E+04 0.  0.
        1    1    3    3  502    0  0.63908005572E+03  0.43131849974E+03 -0.75782621833E+03  0.10810918292E+04  0.50400001928E-02 0.  1.
       -1    1    3    3    0  502 -0.63908005572E+03 -0.43131849974E+03  0.80052435451E+03  0.11114397006E+04  0.50400001928E-02 0. -1.
</event>
<event>
 5   0  0.9963173E-06  0.2199044E+04  0.7818609E-02  0.8518826E-01
       -2   -1    0    0    0  501  0.00000000000E+00  0.00000000000E+00  0.41008412375E+03  0.41008412376E+03  0.25500000920E-02 0.  1.
        2   -1    0    0  501    0  0.00000000000E+00  0.00000000000E+00 -0.29480491501E+04  0.29480491501E+04  0.25500000920E-02 0. -1.
    10030    2    1    2    0    0  0.00000000000E+00  0.00000000000E+00 -0.25379650264E+04  0.33581332739E+04  0.21990435671E+04 0.  0.
        4    1    3    3  502    0 -0.76117481388E+03 -0.75681890628E+02 -0.62842259101E+02  0.76750609658E+03  0.12699999809E+01 0.  1.
       -4    1    3    3    0  502  0.76117481388E+03  0.75681890628E+02 -0.24751227673E+04  0.25906271773E+04  0.12699999809E+01 0. -1.
</event>
<event>
 5   0  0.9963173E-06  0.2201680E+04  0.7818609E-02  0.8517729E-01
        2   -1    0    0  501    0  0.00000000000E+00  0.00000000000E+00  0.23275369654E+04  0.23275369654E+04  0.25500000920E-02 0. -1.
       -2   -1    0    0    0  501  0.00000000000E+00  0.00000000000E+00 -0.52065710273E+03  0.52065710274E+03  0.25500000920E-02 0.  1.
    10030    2    1    2    0    0  0.00000000000E+00  0.00000000000E+00  0.18068798626E+04  0.28481940681E+04  0.22016799521E+04 0.  0.
        4    1    3    3  502    0 -0.78802593004E+03 -0.59867637460E+03  0.27973522965E+03  0.10284219365E+04  0.12699999809E+01 0. -1.
       -4    1    3    3    0  502  0.78802593004E+03  0.59867637460E+03  0.15271446330E+04  0.18197721316E+04  0.12699999809E+01 0.  1.
</event>
<event>
 5   0  0.1015876E-05  0.2190074E+04  0.7818609E-02  0.8522571E-01
       -2   -1    0    0    0  501  0.00000000000E+00  0.00000000000E+00  0.84811096116E+03  0.84811096117E+03  0.25500000920E-02 0. -1.
        2   -1    0    0  501    0  0.00000000000E+00  0.00000000000E+00 -0.14138550090E+04  0.14138550090E+04  0.25500000920E-02 0.  1.
    10030    2    1    2    0    0  0.00000000000E+00  0.00000000000E+00 -0.56574404782E+03  0.22619659702E+04  0.21900739080E+04 0.  0.
        5    1    3    3  502    0  0.50186670050E+03 -0.92027973443E+03 -0.60996807956E+03  0.12127935202E+04  0.46999998093E+01 0.  1.
       -5    1    3    3    0  502 -0.50186670050E+03  0.92027973443E+03  0.44224031742E+02  0.10491724499E+04  0.46999998093E+01 0. -1.
</event>
<event>
 5   0  0.4309945E-06  0.2192471E+04  0.7818609E-02  0.8521568E-01
        1   -1    0    0  501    0  0.00000000000E+00  0.00000000000E+00  0.10651988066E+04  0.10651988066E+04  0.50400001928E-02 0. -1.
       -1   -1    0    0    0  501  0.00000000000E+00  0.00000000000E+00 -0.11281762253E+04  0.11281762253E+04  0.50400001928E-02 0.  1.
    10030    2    1    2    0    0  0.00000000000E+00  0.00000000000E+00 -0.62977418661E+02  0.21933750319E+04  0.21924707239E+04 0.  0.
        4    1    3    3  502    0 -0.58345889691E+03  0.26534754079E+03  0.85820186402E+03  0.10711422194E+04  0.12699999809E+01 0. -1.
       -4    1    3    3    0  502  0.58345889691E+03 -0.26534754079E+03 -0.92117928268E+03  0.11222328125E+04  0.12699999809E+01 0.  1.
</event>
<event>
 5   0  0.4630615E-06  0.2196911E+04  0.7818609E-02  0.8519715E-01
       -1   -1    0    0    0  501  0.00000000000E+00  0.00000000000E+00  0.10246643864E+04  0.10246643864E+04  0.50400001928E-02 0. -1.
        1   -1    0    0  501    0  0.00000000000E+00  0.00000000000E+00 -0.11775604690E+04  0.11775604690E+04  0.50400001928E-02 0.  1.
    10030    2    1    2    0    0  0.00000000000E+00  0.00000000000E+00 -0.15289608259E+03  0.22022248554E+04  0.21969108088E+04 0.  0.
        2    1    3    3  502    0  0.26114641328E+03 -0.10469630923E+04  0.12965841927E+03  0.10868028669E+04  0.25500000920E-02 0. -1.
       -2    1    3    3    0  502 -0.26114641328E+03  0.10469630923E+04 -0.28255450186E+03  0.11154219885E+04  0.25500000920E-02 0.  1.
</event>
<event>
 5   0  0.1035928E-05  0.2201034E+04  0.7818609E-02  0.8517998E-01
        2   -1    0    0  501    0  0.00000000000E+00  0.00000000000E+00  0.26330345471E+04  0.26330345471E+04  0.25500000920E-02 0. -1.
       -2   -1    0    0    0  501  0.00000000000E+00  0.00000000000E+00 -0.45997800059E+03  0.45997800059E+03  0.25500000920E-02 0.  1.
    10030    2    1    2    0    0  0.00000000000E+00  0.00000000000E+00  0.21730565466E+04  0.30930125477E+04  0.22010342719E+04 0.  0.
        3    1    3    3  502    0  0.83137260001E+03  0.48875485921E+03  0.18315465853E+04  0.20699334812E+04  0.10100000352E+00 0. -1.
       -3    1    3    3    0  502 -0.83137260001E+03 -0.48875485921E+03  0.34150996125E+03  0.10230790665E+04  0.10100000352E+00 0.  1.
</event>
<event>
 5   0  0.9963173E-06  0.2200923E+04  0.7818609E-02  0.8518044E-01
       -2   -1    0    0    0  501  0.00000000000E+00  0.00000000000E+00  0.56082483294E+03  0.56082483294E+03  0.25500000920E-02 0.  1.
        2   -1    0    0  501    0  0.00000000000E+00  0.00000000000E+00 -0.21593478339E+04  0.21593478339E+04  0.25500000920E-02 0. -1.
    10030    2    1    2    0    0  0.00000000000E+00  0.00000000000E+00 -0.15985230009E+04  0.27201726668E+04  0.22009233409E+04 0.  0.
        4    1    3    3  502    0 -0.80363204720E+03  0.74043140651E+03 -0.96017445711E+03  0.14546476329E+04  0.12699999809E+01 0. -1.
       -4    1    3    3    0  502  0.80363204720E+03 -0.74043140651E+03 -0.63834854381E+03  0.12655250339E+04  0.12699999809E+01 0.  1.
</event>
<event>
 5   0  0.9963173E-06  0.2198064E+04  0.7818609E-02  0.8519234E-01
       -2   -1    0    0    0  501  0.00000000000E+00  0.00000000000E+00  0.10840094683E+04  0.10840094683E+04  0.25500000920E-02 0.  1.
        2   -1    0    0  501    0  0.00000000000E+00  0.00000000000E+00 -0.11142625900E+04  0.11142625900E+04  0.25500000920E-02 0. -1.
    10030    2    1    2    0    0  0.00000000000E+00  0.00000000000E+00 -0.30253121721E+02  0.21982720584E+04  0.21980638733E+04 0.  0.
        4    1    3    3  502    0 -0.10427366404E+04 -0.33218433971E+03 -0.11624720574E+03  0.11005276746E+04  0.12699999809E+01 0.  1.
       -4    1    3    3    0  502  0.10427366404E+04  0.33218433971E+03  0.85994084018E+02  0.10977443838E+04  0.12699999809E+01 0. -1.
</event>
<event>
 5   0  0.4462201E-06  0.2198401E+04  0.7818609E-02  0.8519094E-01
       -1   -1    0    0    0  501  0.00000000000E+00  0.00000000000E+00  0.78303231805E+03  0.78303231807E+03  0.50400001928E-02 0. -1.
        1   -1    0    0  501    0  0.00000000000E+00  0.00000000000E+00 -0.15430295783E+04  0.15430295783E+04  0.50400001928E-02 0.  1.
    10030    2    1    2    0    0  0.00000000000E+00  0.00000000000E+00 -0.75999726028E+03  0.23260618964E+04  0.21984012623E+04 0.  0.
        3    1    3    3  502    0 -0.38723479056E+03  0.23630768608E+02  0.70818526118E+03  0.80748719532E+03  0.10100000352E+00 0. -1.
       -3    1    3    3    0  502  0.38723479056E+03 -0.23630768608E+02 -0.14681825215E+04  0.15185747011E+04  0.10100000352E+00 0.  1.
</event>
<event>
 5   0  0.4408787E-06  0.2160669E+04  0.7818609E-02  0.8534979E-01
       -1   -1    0    0    0  501  0.00000000000E+00  0.00000000000E+00  0.11005856011E+04  0.11005856011E+04  0.50400001928E-02 0. -1.
        1   -1    0    0  501    0  0.00000000000E+00  0.00000000000E+00 -0.10604563969E+04  0.10604563969E+04  0.50400001928E-02 0.  1.
    10030    2    1    2    0    0  0.00000000000E+00  0.00000000000E+00  0.40129204213E+02  0.21610419980E+04  0.21606693787E+04 0.  0.
        1    1    3    3  502    0 -0.91049697709E+03  0.30724826687E+02 -0.56070263691E+03  0.10697365130E+04  0.50400001928E-02 0.  1.
       -1    1    3    3    0  502  0.91049697709E+03 -0.30724826687E+02  0.60083184112E+03  0.10913054850E+04  0.50400001928E-02 0. -1.
</event>
<event>
 5   0  0.4309945E-06  0.2195531E+04  0.7818609E-02  0.8520291E-01
       -1   -1    0    0    0  501  0.00000000000E+00  0.00000000000E+00  0.67135615113E+03  0.67135615115E+03  0.50400001928E-02 0.  1.
        1   -1    0    0  501    0  0.00000000000E+00  0.00000000000E+00 -0.17950069851E+04  0.17950069851E+04  0.50400001928E-02 0. -1.
    10030    2    1    2    0    0  0.00000000000E+00  0.00000000000E+00 -0.11236508339E+04  0.24663631362E+04  0.21955308978E+04 0.  0.
        4    1    3    3  502    0  0.27748863312E+03 -0.36096968415E+03  0.56028778943E+03  0.72195780644E+03  0.12699999809E+01 0.  1.
       -4    1    3    3    0  502 -0.27748863312E+03  0.36096968415E+03 -0.16839386234E+04  0.17444053298E+04  0.12699999809E+01 0. -1.
</event>
<event>
 5   0  0.1014015E-05  0.2191835E+04  0.7818609E-02  0.8521834E-01
        2   -1    0    0  501    0  0.00000000000E+00  0.00000000000E+00  0.68468127668E+03  0.68468127669E+03  0.25500000920E-02 0.  1.
       -2   -1    0    0    0  501  0.00000000000E+00  0.00000000000E+00 -0.17541529818E+04  0.17541529818E+04  0.25500000920E-02 0. -1.
    10030    2    1    2    0    0  0.00000000000E+00  0.00000000000E+00 -0.10694717051E+04  0.24388342584E+04  0.21918354893E+04 0.  0.
        1    1    3    3  502    0 -0.31910090197E+03  0.96397426326E+03 -0.76010520396E+02  0.10182580052E+04  0.50400001928E-02 0. -1.
       -1    1    3    3    0  502  0.31910090197E+03 -0.96397426326E+03 -0.99346118467E+03  0.14205762533E+04  0.50400001928E-02 0.  1.
</event>
<event>
 5   0  0.9963173E-06  0.2202923E+04  0.7818609E-02  0.8517213E-01
       -2   -1    0    0    0  501  0.00000000000E+00  0.00000000000E+00  0.12987017747E+04  0.12987017747E+04  0.25500000920E-02 0.  1.
        2   -1    0    0  501    0  0.00000000000E+00  0.00000000000E+00 -0.93417668866E+03  0.93417668866E+03  0.25500000920E-02 0. -1.
    10030    2    1    2    0    0  0.00000000000E+00  0.00000000000E+00  0.36452508607E+03  0.22328784634E+04  0.22029225347E+04 0.  0.
        4    1    3    3  502    0  0.60211068553E+03  0.90350819172E+03  0.37012302318E+03  0.11471081010E+04  0.12699999809E+01 0.  1.
       -4    1    3    3    0  502 -0.60211068553E+03 -0.90350819172E+03 -0.55979371095E+01  0.10857703624E+04  0.12699999809E+01 0. -1.
</event>
<event>
 5   0  0.4794967E-06  0.2201253E+04  0.7818609E-02  0.8517907E-01
       -1   -1    0    0    0  501  0.00000000000E+00  0.00000000000E+00  0.10141580441E+04  0.10141580441E+04  0.50400001928E-02 0.  1.
        1   -1    0    0  501    0  0.00000000000E+00  0.00000000000E+00 -0.11944670094E+04  0.11944670095E+04  0.50400001928E-02 0. -1.
    10030    2    1    2    0    0  0.00000000000E+00  0.00000000000E+00 -0.18030896534E+03  0.22086250536E+04  0.22012526671E+04 0.  0.
        5    1    3    3  502    0 -0.68980005303E+03  0.85248541817E+03 -0.18428090775E+03  0.11119968724E+04  0.46999998093E+01 0.  1.
       -5    1    3    3    0  502  0.68980005303E+03 -0.85248541817E+03  0.39719424105E+01  0.10966281811E+04  0.46999998093E+01 0. -1.
</event>
<event>
 5   0  0.1014015E-05  0.2197772E+04  0.7818609E-02  0.8519356E-01
        2   -1    0    0  501    0  0.00000000000E+00  0.00000000000E+00  0.11560167592E+04  0.11560167592E+04  0.25500000920E-02 0. -1.
       -2   -1    0    0    0  501  0.00000000000E+00  0.00000000000E+00 -0.10445785654E+04  0.10445785654E+04  0.25500000920E-02 0.  1.
    10030    2    1    2    0    0  0.00000000000E+00  0.00000000000E+00  0.11143819380E+03  0.22005953246E+04  0.21977718971E+04 0.  0.
        1    1    3    3  502    0  0.48537765213E+03  0.95037793085E+03 -0.20680210955E+03  0.10870035829E+04  0.50400001928E-02 0.  1.
       -1    1    3    3    0  502 -0.48537765213E+03 -0.95037793085E+03  0.31824030335E+03  0.11135917418E+04  0.50400001928E-02 0. -1.
</event>
<event>
 5   0  0.4462201E-06  0.2202429E+04  0.7818609E-02  0.8517418E-01
       -1   -1    0    0    0  501  0.00000000000E+00  0.00000000000E+00  0.82418721671E+03  0.82418721673E+03  0.50400001928E-02 0. -1.
        1   -1    0    0  501    0  0.00000000000E+00  0.00000000000E+00 -0.14713567082E+04  0.14713567082E+04  0.50400001928E-02 0.  1.
    10030    2    1    2    0    0  0.00000000000E+00  0.00000000000E+00 -0.64716949151E+03  0.22955439250E+04  0.22024290138E+04 0.  0.
        3    1    3    3  502    0  0.79354465566E+03 -0.76320855903E+03 -0.34625171943E+03  0.11541623320E+04  0.10100000352E+00 0. -1.
       -3    1    3    3    0  502 -0.79354465566E+03  0.76320855903E+03 -0.30091777209E+03  0.11413815930E+04  0.10100000352E+00 0.  1.
</event>
<event>
 5   0  0.4794967E-06  0.2195485E+04  0.7818609E-02  0.8520310E-01
        1   -1    0    0  501    0  0.00000000000E+00  0.00000000000E+00  0.30737846577E+04  0.30737846577E+04  0.50400001928E-02 0. -1.
       -1   -1    0    0    0  501  0.00000000000E+00  0.00000000000E+00 -0.39203754823E+03  0.39203754826E+03  0.50400001928E-02 0.  1.
    10030    2    1    2    0    0  0.00000000000E+00  0.00000000000E+00  0.26817471094E+04  0.34658222059E+04  0.21954853687E+04 0.  0.
        5    1    3    3  502    0 -0.10072654176E+04  0.15226107050E+03  0.69528085762E+03  0.12333712401E+04  0.46999998093E+01 0.  1.
       -5    1    3    3    0  502  0.10072654176E+04 -0.15226107050E+03  0.19864662518E+04  0.22324509658E+04  0.46999998093E+01 0. -1.
</event>
<event>
 5   0  0.4794967E-06  0.2204563E+04  0.7818609E-02  0.8516531E-01
       -1   -1    0    0    0  501  0.00000000000E+00  0.00000000000E+00  0.13103147764E+04  0.13103147764E+04  0.50400001928E-02 0.  1.
        1   -1    0    0  501    0  0.00000000000E+00  0.00000000000E+00 -0.92727643029E+03  0.92727643030E+03  0.50400001928E-02 0. -1.
    10030    2    1    2    0    0  0.00000000000E+00  0.00000000000E+00  0.38303834614E+03  0.22375912067E+04  0.22045625493E+04 0.  0.
        5    1    3    3  502    0  0.28104014015E+03 -0.96534110101E+02 -0.88584462117E+03  0.93436886595E+03  0.46999998093E+01 0. -1.
       -5    1    3    3    0  502 -0.28104014015E+03  0.96534110101E+02  0.12688829673E+04  0.13032223408E+04  0.46999998093E+01 0.  1.
</event>
<event>
 5   0  0.3546750E-06  0.2202441E+04  0.7818609E-02  0.8517413E-01
       -4   -1    0    0    0  501  0.00000000000E+00  0.00000000000E+00  0.99469270610E+03  0.99469351685E+03  0.12699999809E+01 0. -1.
        4   -1    0    0  501    0  0.00000000000E+00  0.00000000000E+00 -0.12191557908E+04  0.12191564523E+04  0.12699999809E+01 0.  1.
    10030    2    1    2    0    0  0.00000000000E+00  0.00000000000E+00 -0.22446308470E+03  0.22138499691E+04  0.22024413748E+04 0.  0.
        2    1    3    3  502    0  0.14372702678E+03  0.10780730724E+04  0.61254469306E+02  0.10893351723E+04  0.25500000920E-02 0. -1.
       -2    1    3    3    0  502 -0.14372702678E+03 -0.10780730724E+04 -0.28571755400E+03  0.11245147968E+04  0.25500000920E-02 0.  1.
</event>
<event>
 5   0  0.1015876E-05  0.2197308E+04  0.7818609E-02  0.8519549E-01
        2   -1    0    0  501    0  0.00000000000E+00  0.00000000000E+00  0.54328607928E+03  0.54328607928E+03  0.25500000920E-02 0.  1.
       -2   -1    0    0    0  501  0.00000000000E+00  0.00000000000E+00 -0.22217400165E+04  0.22217400165E+04  0.25500000920E-02 0. -1.
    10030    2    1    2    0    0  0.00000000000E+00  0.00000000000E+00 -0.16784539372E+04  0.27650260958E+04  0.21973078280E+04 0.  0.
        5    1    3    3  502    0 -0.52856767004E+02  0.68663018862E+03  0.23795788840E+03  0.72862946714E+03  0.46999998093E+01 0.  1.
       -5    1    3    3    0  502  0.52856767004E+02 -0.68663018862E+03 -0.19164118256E+04  0.20363966286E+04  0.46999998093E+01 0. -1.
</event>
<event>
 5   0  0.9963173E-06  0.2201798E+04  0.7818609E-02  0.8517680E-01
       -2   -1    0    0    0  501  0.00000000000E+00  0.00000000000E+00  0.15248076174E+04  0.15248076174E+04  0.25500000920E-02 0. -1.
        2   -1    0    0  501    0  0.00000000000E+00  0.00000000000E+00 -0.79484016115E+03  0.79484016115E+03  0.25500000920E-02 0.  1.
    10030    2    1    2    0    0  0.00000000000E+00  0.00000000000E+00  0.72996745622E+03  0.23196477785E+04  0.22017977494E+04 0.  0.
        4    1    3    3  502    0  0.21336677684E+02  0.72169142637E+03 -0.51057239559E+03  0.88429607753E+03  0.12699999809E+01 0.  1.
       -4    1    3    3    0  502 -0.21336677684E+02 -0.72169142637E+03  0.12405398518E+04  0.14353517010E+04  0.12699999809E+01 0. -1.
</event>
<event>
 5   0  0.4408787E-06  0.2200351E+04  0.7818609E-02  0.8518282E-01
       -1   -1    0    0    0  501  0.00000000000E+00  0.00000000000E+00  0.12553265244E+04  0.12553265245E+04  0.50400001928E-02 0. -1.
        1   -1    0    0  501    0  0.00000000000E+00  0.00000000000E+00 -0.96420028315E+03  0.96420028316E+03  0.50400001928E-02 0.  1.
    10030    2    1    2    0    0  0.00000000000E+00  0.00000000000E+00  0.29112624129E+03  0.22195268076E+04  0.22003510541E+04 0.  0.
        1    1    3    3  502    0 -0.35554827664E+03  0.56851239777E+03  0.10253829733E+04  0.12251657706E+04  0.50400001928E-02 0. -1.
       -1    1    3    3    0  502  0.35554827664E+03 -0.56851239777E+03 -0.73425673202E+03  0.99436103703E+03  0.50400001928E-02 0.  1.
</event>
<event>
 5   0  0.1015876E-05  0.2199215E+04  0.7818609E-02  0.8518755E-01
       -2   -1    0    0    0  501  0.00000000000E+00  0.00000000000E+00  0.88882313025E+03  0.88882313025E+03  0.25500000920E-02 0.  1.
        2   -1    0    0  501    0  0.00000000000E+00  0.00000000000E+00 -0.13603795338E+04  0.13603795338E+04  0.25500000920E-02 0. -1.
    10030    2    1    2    0    0  0.00000000000E+00  0.00000000000E+00 -0.47155640351E+03  0.22492026640E+04  0.21992151287E+04 0.  0.
        5    1    3    3  502    0 -0.55811031093E+03 -0.34826564994E+03 -0.11369061749E+04  0.13135272447E+04  0.46999998093E+01 0.  1.
       -5    1    3    3    0  502  0.55811031093E+03  0.34826564994E+03  0.66534977135E+03  0.93567541933E+03  0.46999998093E+01 0. -1.
</event>
<event>
 5   0  0.4794967E-06  0.2202611E+04  0.7818609E-02  0.8517342E-01
        1   -1    0    0  501    0  0.00000000000E+00  0.00000000000E+00  0.12794394158E+04  0.12794394159E+04  0.50400001928E-02 0.  1.
       -1   -1    0    0    0  501  0.00000000000E+00  0.00000000000E+00 -0.94797294709E+03  0.94797294710E+03  0.50400001928E-02 0. -1.
    10030    2    1    2    0    0  0.00000000000E+00  0.00000000000E+00  0.33146646875E+03  0.22274123630E+04  0.22026111356E+04 0.  0.
        5    1    3    3  502    0  0.47817050171E+03  0.59781702129E+03 -0.63490088631E+03  0.99456193627E+03  0.46999998093E+01 0. -1.
       -5    1    3    3    0  502 -0.47817050171E+03 -0.59781702129E+03  0.96636735506E+03  0.12328504267E+04  0.46999998093E+01 0.  1.
</event>
<event>
 5   0  0.1035928E-05  0.2198646E+04  0.7818609E-02  0.8518992E-01
       -2   -1    0    0    0  501  0.00000000000E+00  0.00000000000E+00  0.71231142358E+03  0.71231142358E+03  0.25500000920E-02 0. -1.
        2   -1    0    0  501    0  0.00000000000E+00  0.00000000000E+00 -0.16966048805E+04  0.16966048805E+04  0.25500000920E-02 0.  1.
    10030    2    1    2    0    0  0.00000000000E+00  0.00000000000E+00 -0.98429345692E+03  0.24089163041E+04  0.21986459812E+04 0.  0.
        3    1    3    3  502    0  0.67138317989E+03  0.44063495663E+03 -0.13146744501E+04  0.15405464807E+04  0.10100000352E+00 0.  1.
       -3    1    3    3    0  502 -0.67138317989E+03 -0.44063495663E+03  0.33038099320E+03  0.86836982336E+03  0.10100000352E+00 0. -1.
</event>
<event>
 5   0  0.1015876E-05  0.2213648E+04  0.7818609E-02  0.8512769E-01
       -2   -1    0    0    0  501  0.00000000000E+00  0.00000000000E+00  0.10540444009E+04  0.10540444009E+04  0.25500000920E-02 0. -1.
        2   -1    0    0  501    0  0.00000000000E+00  0.00000000000E+00 -0.11622469547E+04  0.11622469547E+04  0.25500000920E-02 0.  1.
    10030    2    1    2    0    0  0.00000000000E+00  0.00000000000E+00 -0.10820255386E+03  0.22162913556E+04  0.22136484771E+04 0.  0.
        5    1    3    3  502    0 -0.46942955098E+03 -0.74970560571E+02 -0.10548210594E+04  0.11570022669E+04  0.46999998093E+01 0.  1.
       -5    1    3    3    0  502  0.46942955098E+03  0.74970560571E+02  0.94661850557E+03  0.10592890887E+04  0.46999998093E+01 0. -1.
</event>
<event>
 5   0  0.4309945E-06  0.2206853E+04  0.7818609E-02  0.8515581E-01
        1   -1    0    0  501    0  0.00000000000E+00  0.00000000000E+00  0.15174799752E+04  0.15174799752E+04  0.50400001928E-02 0. -1.
       -1   -1    0    0    0  501  0.00000000000E+00  0.00000000000E+00 -0.80234973247E+03  0.80234973248E+03  0.50400001928E-02 0.  1.
    10030    2    1    2    0    0  0.00000000000E+00  0.00000000000E+00  0.71513024271E+03  0.23198297077E+04  0.22068526477E+04 0.  0.
        4    1    3    3  502    0  0.62390380251E+03 -0.22732490166E+02 -0.59883364233E+03  0.86508731639E+03  0.12699999809E+01 0.  1.
       -4    1    3    3    0  502 -0.62390380251E+03  0.22732490166E+02  0.13139638850E+04  0.14547423913E+04  0.12699999809E+01 0. -1.
</event>
<event>
 5   0  0.1035928E-05  0.2199088E+04  0.7818609E-02  0.8518808E-01
       -2   -1    0    0    0  501  0.00000000000E+00  0.00000000000E+00  0.56604322261E+03  0.56604322262E+03  0.25500000920E-02 0. -1.
        2   -1    0    0  501    0  0.00000000000E+00  0.00000000000E+00 -0.21358736116E+04  0.21358736116E+04  0.25500000920E-02 0.  1.
    10030    2    1    2    0    0  0.00000000000E+00  0.00000000000E+00 -0.15698303890E+04  0.27019168342E+04  0.21990877947E+04 0.  0.
        3    1    3    3  502    0  0.50923166215E+03 -0.72402682276E+03  0.16506975697E+02  0.88532718034E+03  0.10100000352E+00 0. -1.
       -3    1    3    3    0  502 -0.50923166215E+03  0.72402682276E+03 -0.15863373647E+04  0.18165896539E+04  0.10100000352E+00 0.  1.
</event>
<event>
 5   0  0.9963573E-06  0.2200206E+04  0.7818609E-02  0.8518342E-01
       -2   -1    0    0    0  501  0.00000000000E+00  0.00000000000E+00  0.15110585334E+04  0.15110585334E+04  0.25500000920E-02 0. -1.
        2   -1    0    0  501    0  0.00000000000E+00  0.00000000000E+00 -0.80091337404E+03  0.80091337405E+03  0.25500000920E-02 0.  1.
    10030    2    1    2    0    0  0.00000000000E+00  0.00000000000E+00  0.71014515935E+03  0.23119719074E+04  0.22002063434E+04 0.  0.
        2    1    3    3  502    0  0.29391543639E+03 -0.61652123154E+03 -0.55114060056E+03  0.87763356492E+03  0.25500000920E-02 0.  1.
       -2    1    3    3    0  502 -0.29391543639E+03  0.61652123154E+03  0.12612857599E+04  0.14343383425E+04  0.25500000920E-02 0. -1.
</event>
<event>
 5   0  0.9963173E-06  0.2201939E+04  0.7818609E-02  0.8517622E-01
       -2   -1    0    0    0  501  0.00000000000E+00  0.00000000000E+00  0.10235832736E+04  0.10235832736E+04  0.25500000920E-02 0. -1.
        2   -1    0    0  501    0  0.00000000000E+00  0.00000000000E+00 -0.11842060387E+04  0.11842060387E+04  0.25500000920E-02 0.  1.
    10030    2    1    2    0    0  0.00000000000E+00  0.00000000000E+00 -0.16062276518E+03  0.22077893123E+04  0.22019386855E+04 0.  0.
        4    1    3    3  502    0 -0.75639674388E+02  0.88659834908E+03 -0.73038110574E+03  0.11511890225E+04  0.12699999809E+01 0.  1.
       -4    1    3    3    0  502  0.75639674388E+02 -0.88659834908E+03  0.56975834056E+03  0.10566002898E+04  0.12699999809E+01 0. -1.
</event>
<event>
 5   0  0.1015876E-05  0.2193469E+04  0.7818609E-02  0.8521151E-01
        2   -1    0    0  501    0  0.00000000000E+00  0.00000000000E+00  0.12748732927E+04  0.12748732927E+04  0.25500000920E-02 0. -1.
       -2   -1    0    0    0  501  0.00000000000E+00  0.00000000000E+00 -0.94348746202E+03  0.94348746202E+03  0.25500000920E-02 0.  1.
    10030    2    1    2    0    0  0.00000000000E+00  0.00000000000E+00  0.33138583064E+03  0.22183607547E+04  0.21934693682E+04 0.  0.
        5    1    3    3  502    0  0.48165112398E+03  0.14589253744E+03  0.11511903607E+04  0.12563971404E+04  0.46999998093E+01 0. -1.
       -5    1    3    3    0  502 -0.48165112398E+03 -0.14589253744E+03 -0.81980453008E+03  0.96196361431E+03  0.46999998093E+01 0.  1.
</event>
<event>
 5   0  0.1014015E-05  0.2195504E+04  0.7818609E-02  0.8520302E-01
        2   -1    0    0  501    0  0.00000000000E+00  0.00000000000E+00  0.54483344391E+03  0.54483344391E+03  0.25500000920E-02 0.  1.
       -2   -1    0    0    0  501  0.00000000000E+00  0.00000000000E+00 -0.22117937690E+04  0.22117937690E+04  0.25500000920E-02 0. -1.
    10030    2    1    2    0    0  0.00000000000E+00  0.00000000000E+00 -0.16669603251E+04  0.27566272130E+04  0.21955037840E+04 0.  0.
        1    1    3    3  502    0 -0.69777751164E+03 -0.20653862117E+01 -0.18975126966E+04  0.20217448295E+04  0.50400001928E-02 0. -1.
       -1    1    3    3    0  502  0.69777751164E+03  0.20653862117E+01  0.23055237148E+03  0.73488238351E+03  0.50400001928E-02 0.  1.
</event>
<event>
 5   0  0.1014015E-05  0.2202727E+04  0.7818609E-02  0.8517294E-01
       -2   -1    0    0    0  501  0.00000000000E+00  0.00000000000E+00  0.82003529734E+03  0.82003529734E+03  0.25500000920E-02 0.  1.
        2   -1    0    0  501    0  0.00000000000E+00  0.00000000000E+00 -0.14792061600E+04  0.14792061600E+04  0.25500000920E-02 0. -1.
    10030    2    1    2    0    0  0.00000000000E+00  0.00000000000E+00 -0.65917086265E+03  0.22992414573E+04  0.22027267313E+04 0.  0.
        1    1    3    3  502    0 -0.83209332256E+03 -0.40776747831E+03 -0.95093891474E+03  0.13277569180E+04  0.50400001928E-02 0. -1.
       -1    1    3    3    0  502  0.83209332256E+03  0.40776747831E+03  0.29176805209E+03  0.97148453928E+03  0.50400001928E-02 0.  1.
</event>
<event>
 5   0  0.4408787E-06  0.2201203E+04  0.7818609E-02  0.8517927E-01
        1   -1    0    0  501    0  0.00000000000E+00  0.00000000000E+00  0.20827790274E+04  0.20827790274E+04  0.50400001928E-02 0.  1.
       -1   -1    0    0    0  501  0.00000000000E+00  0.00000000000E+00 -0.58159031670E+03  0.58159031672E+03  0.50400001928E-02 0. -1.
    10030    2    1    2    0    0  0.00000000000E+00  0.00000000000E+00  0.15011887107E+04  0.26643693442E+04  0.22012034111E+04 0.  0.
        1    1    3    3  502    0 -0.97540415048E+03  0.45509465094E+03  0.47246294080E+03  0.11754767665E+04  0.50400001928E-02 0. -1.
       -1    1    3    3    0  502  0.97540415048E+03 -0.45509465094E+03  0.10287257699E+04  0.14888925777E+04  0.50400001928E-02 0.  1.
</event>
<event>
 5   0  0.4630615E-06  0.2194914E+04  0.7818609E-02  0.8520548E-01
        1   -1    0    0  501    0  0.00000000000E+00  0.00000000000E+00  0.11070475424E+04  0.11070475424E+04  0.50400001928E-02 0.  1.
       -1   -1    0    0    0  501  0.00000000000E+00  0.00000000000E+00 -0.10879493340E+04  0.10879493340E+04  0.50400001928E-02 0. -1.
    10030    2    1    2    0    0  0.00000000000E+00  0.00000000000E+00  0.19098208376E+02  0.21949968765E+04  0.21949137901E+04 0.  0.
        2    1    3    3  502    0 -0.33027482768E+03  0.17963837385E+03  0.10406362553E+04  0.11064697117E+04  0.25500000920E-02 0.  1.
       -2    1    3    3    0  502  0.33027482768E+03 -0.17963837385E+03 -0.10215380469E+04  0.10885271648E+04  0.25500000920E-02 0. -1.
</event>
<event>
 5   0  0.1014015E-05  0.2204988E+04  0.7818609E-02  0.8516355E-01
       -2   -1    0    0    0  501  0.00000000000E+00  0.00000000000E+00  0.70128009514E+03  0.70128009514E+03  0.25500000920E-02 0.  1.
        2   -1    0    0  501    0  0.00000000000E+00  0.00000000000E+00 -0.17332490002E+04  0.17332490002E+04  0.25500000920E-02 0. -1.
    10030    2    1    2    0    0  0.00000000000E+00  0.00000000000E+00 -0.10319689050E+04  0.24345290953E+04  0.22049880034E+04 0.  0.
        1    1    3    3  502    0  0.58561904628E+03  0.33843928538E+03  0.44528241423E+03  0.80979457006E+03  0.50400001928E-02 0.  1.
       -1    1    3    3    0  502 -0.58561904628E+03 -0.33843928538E+03 -0.14772513192E+04  0.16247345252E+04  0.50400001928E-02 0. -1.
</event>
<event>
 5   0  0.4462201E-06  0.2214461E+04  0.7818609E-02  0.8512433E-01
       -1   -1    0    0    0  501  0.00000000000E+00  0.00000000000E+00  0.94303681828E+03  0.94303681829E+03  0.50400001928E-02 0. -1.
        1   -1    0    0  501    0  0.00000000000E+00  0.00000000000E+00 -0.13000119683E+04  0.13000119683E+04  0.50400001928E-02 0.  1.
    10030    2    1    2    0    0  0.00000000000E+00  0.00000000000E+00 -0.35697514999E+03  0.22430487866E+04  0.22144607924E+04 0.  0.
        3    1    3    3  502    0 -0.24223419354E+03  0.16118086347E+03 -0.12605968060E+04  0.12937391518E+04  0.10100000352E+00 0.  1.
       -3    1    3    3    0  502  0.24223419354E+03 -0.16118086347E+03  0.90362165603E+03  0.94930963480E+03  0.10100000352E+00 0. -1.
</event>
<event>
 5   0  0.1015876E-05  0.2201073E+04  0.7818609E-02  0.8517982E-01
       -2   -1    0    0    0  501  0.00000000000E+00  0.00000000000E+00  0.46728849936E+03  0.46728849937E+03  0.25500000920E-02 0.  1.
        2   -1    0    0  501    0  0.00000000000E+00  0.00000000000E+00 -0.25919337502E+04  0.25919337502E+04  0.25500000920E-02 0. -1.
    10030    2    1    2    0    0  0.00000000000E+00  0.00000000000E+00 -0.21246452508E+04  0.30592222496E+04  0.22010732224E+04 0.  0.
        5    1    3    3  502    0 -0.45491825467E+03  0.65817346990E+03 -0.12053486269E+02  0.80019392114E+03  0.46999998093E+01 0.  1.
       -5    1    3    3    0  502  0.45491825467E+03 -0.65817346990E+03 -0.21125917646E+04  0.22590283284E+04  0.46999998093E+01 0. -1.
</event>
<event>
 5   0  0.4462201E-06  0.2200995E+04  0.7818609E-02  0.8518014E-01
        1   -1    0    0  501    0  0.00000000000E+00  0.00000000000E+00  0.18182181010E+04  0.18182181010E+04  0.50400001928E-02 0.  1.
       -1   -1    0    0    0  501  0.00000000000E+00  0.00000000000E+00 -0.66608871640E+03  0.66608871642E+03  0.50400001928E-02 0. -1.
    10030    2    1    2    0    0  0.00000000000E+00  0.00000000000E+00  0.11521293846E+04  0.24843068174E+04  0.22009948306E+04 0.  0.
        3    1    3    3  502    0  0.78388222736E+03 -0.19695056561E+03 -0.26695665908E+03  0.85119136490E+03  0.10100000352E+00 0. -1.
       -3    1    3    3    0  502 -0.78388222736E+03  0.19695056561E+03  0.14190860436E+04  0.16331154525E+04  0.10100000352E+00 0.  1.
</event>
<event>
 5   0  0.9963573E-06  0.2213922E+04  0.7818609E-02  0.8512656E-01
       -2   -1    0    0    0  501  0.00000000000E+00  0.00000000000E+00  0.72347088376E+03  0.72347088376E+03  0.25500000920E-02 0. -1.
        2   -1    0    0  501    0  0.00000000000E+00  0.00000000000E+00 -0.16937269399E+04  0.16937269399E+04  0.25500000920E-02 0.  1.
    10030    2    1    2    0    0  0.00000000000E+00  0.00000000000E+00 -0.97025605616E+03  0.24171978237E+04  0.22139215217E+04 0.  0.
        2    1    3    3  502    0 -0.99061262450E+03  0.29701008291E+03 -0.91613148557E+03  0.13816024247E+04  0.25500000920E-02 0.  1.
       -2    1    3    3    0  502  0.99061262450E+03 -0.29701008291E+03 -0.54124570593E+02  0.10355953989E+04  0.25500000920E-02 0. -1.
</event>
<event>
 5   0  0.4309945E-06  0.2200546E+04  0.7818609E-02  0.8518201E-01
       -1   -1    0    0    0  501  0.00000000000E+00  0.00000000000E+00  0.95184513853E+03  0.95184513854E+03  0.50400001928E-02 0. -1.
        1   -1    0    0  501    0  0.00000000000E+00  0.00000000000E+00 -0.12718464189E+04  0.12718464189E+04  0.50400001928E-02 0.  1.
    10030    2    1    2    0    0  0.00000000000E+00  0.00000000000E+00 -0.32000128039E+03  0.22236915575E+04  0.22005461421E+04 0.  0.
        4    1    3    3  502    0  0.58721353754E+03 -0.11323429889E+03  0.77327032966E+03  0.97754302245E+03  0.12699999809E+01 0. -1.
       -4    1    3    3    0  502 -0.58721353754E+03  0.11323429889E+03 -0.10932716101E+04  0.12461485350E+04  0.12699999809E+01 0.  1.
</event>
<event>
 5   0  0.4794967E-06  0.2201770E+04  0.7818609E-02  0.8517692E-01
       -1   -1    0    0    0  501  0.00000000000E+00  0.00000000000E+00  0.19009721567E+04  0.19009721567E+04  0.50400001928E-02 0. -1.
        1   -1    0    0  501    0  0.00000000000E+00  0.00000000000E+00 -0.63754126496E+03  0.63754126498E+03  0.50400001928E-02 0.  1.
    10030    2    1    2    0    0  0.00000000000E+00  0.00000000000E+00  0.12634308917E+04  0.25385134217E+04  0.22017703726E+04 0.  0.
        5    1    3    3  502    0 -0.30021940871E+03 -0.10359671273E+04  0.88579863890E+03  0.13957151933E+04  0.46999998093E+01 0. -1.
       -5    1    3    3    0  502  0.30021940871E+03  0.10359671273E+04  0.37763225281E+03  0.11427982283E+04  0.46999998093E+01 0.  1.
</event>
<event>
 5   0  0.4408787E-06  0.2197436E+04  0.7818609E-02  0.8519496E-01
        1   -1    0    0  501    0  0.00000000000E+00  0.00000000000E+00  0.32833122933E+04  0.32833122933E+04  0.50400001928E-02 0. -1.
       -1   -1    0    0    0  501  0.00000000000E+00  0.00000000000E+00 -0.36767165976E+03  0.36767165980E+03  0.50400001928E-02 0.  1.
    10030    2    1    2    0    0  0.00000000000E+00  0.00000000000E+00  0.29156406336E+04  0.36509839531E+04  0.21974356696E+04 0.  0.
        1    1    3    3  502    0 -0.19120023863E+03  0.21537566867E+03 -0.30384185090E+03  0.41864553060E+03  0.50400001928E-02 0.  1.
       -1    1    3    3    0  502  0.19120023863E+03 -0.21537566867E+03  0.32194824845E+04  0.32323384225E+04  0.50400001928E-02 0. -1.
</event>
<event>
 5   0  0.4630615E-06  0.2174482E+04  0.7818609E-02  0.8529125E-01
        1   -1    0    0  501    0  0.00000000000E+00  0.00000000000E+00  0.19640702221E+04  0.19640702221E+04  0.50400001928E-02 0.  1.
       -1   -1    0    0    0  501  0.00000000000E+00  0.00000000000E+00 -0.60185870257E+03  0.60185870259E+03  0.50400001928E-02 0. -1.
    10030    2    1    2    0    0  0.00000000000E+00  0.00000000000E+00  0.13622115195E+04  0.25659289247E+04  0.21744817825E+04 0.  0.
        2    1    3    3  502    0  0.72862377911E+03 -0.14460565351E+03 -0.25572001949E+03  0.78561831374E+03  0.25500000920E-02 0. -1.
       -2    1    3    3    0  502 -0.72862377911E+03  0.14460565351E+03  0.16179315390E+04  0.17803106109E+04  0.25500000920E-02 0.  1.
</event>
<event>
 5   0  0.1035928E-05  0.2200597E+04  0.7818609E-02  0.8518180E-01
       -2   -1    0    0    0  501  0.00000000000E+00  0.00000000000E+00  0.63689757584E+03  0.63689757584E+03  0.25500000920E-02 0. -1.
        2   -1    0    0  501    0  0.00000000000E+00  0.00000000000E+00 -0.19008655712E+04  0.19008655712E+04  0.25500000920E-02 0.  1.
    10030    2    1    2    0    0  0.00000000000E+00  0.00000000000E+00 -0.12639679953E+04  0.25377631470E+04  0.22005968957E+04 0.  0.
        3    1    3    3  502    0 -0.38184476707E+03 -0.10112484635E+04 -0.86896292571E+03  0.13869122026E+04  0.10100000352E+00 0.  1.
       -3    1    3    3    0  502  0.38184476707E+03  0.10112484635E+04 -0.39500506964E+03  0.11508509445E+04  0.10100000352E+00 0. -1.
</event>
<event>
 5   0  0.1014015E-05  0.2194468E+04  0.7818609E-02  0.8520734E-01
       -2   -1    0    0    0  501  0.00000000000E+00  0.00000000000E+00  0.96670225892E+03  0.96670225892E+03  0.25500000920E-02 0.  1.
        2   -1    0    0  501    0  0.00000000000E+00  0.00000000000E+00 -0.12453914865E+04  0.12453914865E+04  0.25500000920E-02 0. -1.
    10030    2    1    2    0    0  0.00000000000E+00  0.00000000000E+00 -0.27868922758E+03  0.22120937454E+04  0.21944682848E+04 0.  0.
        1    1    3    3  502    0 -0.87803935417E+03  0.65730420082E+03 -0.16993374142E+03  0.11099006246E+04  0.50400001928E-02 0.  1.
       -1    1    3    3    0  502  0.87803935417E+03 -0.65730420082E+03 -0.10875548615E+03  0.11021931209E+04  0.50400001928E-02 0. -1.
</event>
<event>
 5   0  0.4630615E-06  0.2197366E+04  0.7818609E-02  0.8519525E-01
        1   -1    0    0  501    0  0.00000000000E+00  0.00000000000E+00  0.93889317561E+03  0.93889317563E+03  0.50400001928E-02 0. -1.
       -1   -1    0    0    0  501  0.00000000000E+00  0.00000000000E+00 -0.12856670089E+04  0.12856670089E+04  0.50400001928E-02 0.  1.
    10030    2    1    2    0    0  0.00000000000E+00  0.00000000000E+00 -0.34677383329E+03  0.22245601845E+04  0.21973656781E+04 0.  0.
        2    1    3    3  502    0  0.75370859842E+03  0.47690416765E+03 -0.82287934956E+03  0.12135257148E+04  0.25500000920E-02 0.  1.
       -2    1    3    3    0  502 -0.75370859842E+03 -0.47690416765E+03  0.47610551626E+03  0.10110344698E+04  0.25500000920E-02 0. -1.
</event>
<event>
 5   0  0.4309945E-06  0.2204239E+04  0.7818609E-02  0.8516666E-01
       -1   -1    0    0    0  501  0.00000000000E+00  0.00000000000E+00  0.10040979738E+04  0.10040979738E+04  0.50400001928E-02 0.  1.
        1   -1    0    0  501    0  0.00000000000E+00  0.00000000000E+00 -0.12097105375E+04  0.12097105375E+04  0.50400001928E-02 0. -1.
    10030    2    1    2    0    0  0.00000000000E+00  0.00000000000E+00 -0.20561256365E+03  0.22138085113E+04  0.22042394603E+04 0.  0.
        4    1    3    3  502    0  0.88736092018E+03  0.79112433916E+02 -0.75446671293E+03  0.11674287189E+04  0.12699999809E+01 0. -1.
       -4    1    3    3    0  502 -0.88736092018E+03 -0.79112433916E+02  0.54885414928E+03  0.10463797924E+04  0.12699999809E+01 0.  1.
</event>
<event>
 5   0  0.4462201E-06  0.2207853E+04  0.7818609E-02  0.8515167E-01
        1   -1    0    0  501    0  0.00000000000E+00  0.00000000000E+00  0.10552503326E+04  0.10552503326E+04  0.50400001928E-02 0.  1.
       -1   -1    0    0    0  501  0.00000000000E+00  0.00000000000E+00 -0.11548474749E+04  0.11548474749E+04  0.50400001928E-02 0. -1.
    10030    2    1    2    0    0  0.00000000000E+00  0.00000000000E+00 -0.99597142314E+02  0.22100978075E+04  0.22078525150E+04 0.  0.
        3    1    3    3  502    0 -0.78390150901E+03  0.74488428839E+03 -0.27205813535E+03  0.11150649390E+04  0.10100000352E+00 0.  1.
       -3    1    3    3    0  502  0.78390150901E+03 -0.74488428839E+03  0.17246099304E+03  0.10950328686E+04  0.10100000352E+00 0. -1.
</event>
<event>
 5   0  0.4309945E-06  0.2201425E+04  0.7818609E-02  0.8517835E-01
        1   -1    0    0  501    0  0.00000000000E+00  0.00000000000E+00  0.98082328210E+03  0.98082328211E+03  0.50400001928E-02 0.  1.
       -1   -1    0    0    0  501  0.00000000000E+00  0.00000000000E+00 -0.12352567105E+04  0.12352567105E+04  0.50400001928E-02 0. -1.
    10030    2    1    2    0    0  0.00000000000E+00  0.00000000000E+00 -0.25443342843E+03  0.22160799926E+04  0.22014254846E+04 0.  0.
        4    1    3    3  502    0  0.56966924601E+03 -0.93053521742E+03  0.19175167103E+02  0.10912323953E+04  0.12699999809E+01 0.  1.
       -4    1    3    3    0  502 -0.56966924601E+03  0.93053521742E+03 -0.27360859553E+03  0.11248475973E+04  0.12699999809E+01 0. -1.
</event>
<event>
 5   0  0.9963573E-06  0.2199929E+04  0.7818609E-02  0.8518457E-01
       -2   -1    0    0    0  501  0.00000000000E+00  0.00000000000E+00  0.64046346695E+03  0.64046346696E+03  0.25500000920E-02 0.  1.
        2   -1    0    0  501    0  0.00000000000E+00  0.00000000000E+00 -0.18891357600E+04  0.18891357600E+04  0.25500000920E-02 0. -1.
    10030    2    1    2    0    0  0.00000000000E+00  0.00000000000E+00 -0.12486722931E+04  0.25295992270E+04  0.21999294883E+04 0.  0.
        2    1    3    3  502    0 -0.55201643255E+03 -0.31590343742E+03  0.40759377266E+03  0.75541366621E+03  0.25500000920E-02 0.  1.
       -2    1    3    3    0  502  0.55201643255E+03  0.31590343742E+03 -0.16562660657E+04  0.17741855608E+04  0.25500000920E-02 0. -1.
</event>
<event>
 5   0  0.1014015E-05  0.2197638E+04  0.7818609E-02  0.8519412E-01
       -2   -1    0    0    0  501  0.00000000000E+00  0.00000000000E+00  0.16474719869E+04  0.16474719869E+04  0.25500000920E-02 0.  1.
        2   -1    0    0  501    0  0.00000000000E+00  0.00000000000E+00 -0.73288270022E+03  0.73288270022E+03  0.25500000920E-02 0. -1.
    10030    2    1    2    0    0  0.00000000000E+00  0.00000000000E+00  0.91458928665E+03  0.23803546871E+04  0.21976384764E+04 0.  0.
        1    1    3    3  502    0  0.10035179187E+04  0.41242418655E+03  0.26887213994E+03  0.11177809045E+04  0.50400001928E-02 0. -1.
       -1    1    3    3    0  502 -0.10035179187E+04 -0.41242418655E+03  0.64571714671E+03  0.12625737826E+04  0.50400001928E-02 0.  1.
</event>
<event>
 5   0  0.4408787E-06  0.2201503E+04  0.7818609E-02  0.8517803E-01
       -1   -1    0    0    0  501  0.00000000000E+00  0.00000000000E+00  0.45188457076E+03  0.45188457079E+03  0.50400001928E-02 0. -1.
        1   -1    0    0  501    0  0.00000000000E+00  0.00000000000E+00 -0.26813356000E+04  0.26813356000E+04  0.50400001928E-02 0.  1.
    10030    2    1    2    0    0  0.00000000000E+00  0.00000000000E+00 -0.22294510293E+04  0.31332201708E+04  0.22015032925E+04 0.  0.
        1    1    3    3  502    0 -0.84028153644E+03  0.40738996345E+03 -0.19441268203E+04  0.21567727595E+04  0.50400001928E-02 0.  1.
       -1    1    3    3    0  502  0.84028153644E+03 -0.40738996345E+03 -0.28532420898E+03  0.97644741131E+03  0.50400001928E-02 0. -1.
</event>
<event>
 5   0  0.9963573E-06  0.2200232E+04  0.7818609E-02  0.8518332E-01
       -2   -1    0    0    0  501  0.00000000000E+00  0.00000000000E+00  0.73825949130E+03  0.73825949130E+03  0.25500000920E-02 0. -1.
        2   -1    0    0  501    0  0.00000000000E+00  0.00000000000E+00 -0.16393351123E+04  0.16393351123E+04  0.25500000920E-02 0.  1.
    10030    2    1    2    0    0  0.00000000000E+00  0.00000000000E+00 -0.90107562098E+03  0.23775946036E+04  0.22002315388E+04 0.  0.
        2    1    3    3  502    0 -0.15831037439E+03 -0.65313446452E+03 -0.13917295393E+04  0.15454960091E+04  0.25500000920E-02 0.  1.
       -2    1    3    3    0  502  0.15831037439E+03  0.65313446452E+03  0.49065391836E+03  0.83209859451E+03  0.25500000920E-02 0. -1.
</event>
<event>
 5   0  0.4462201E-06  0.2195352E+04  0.7818609E-02  0.8520365E-01
       -1   -1    0    0    0  501  0.00000000000E+00  0.00000000000E+00  0.13246654851E+04  0.13246654851E+04  0.50400001928E-02 0. -1.
        1   -1    0    0  501    0  0.00000000000E+00  0.00000000000E+00 -0.90958255902E+03  0.90958255903E+03  0.50400001928E-02 0.  1.
    10030    2    1    2    0    0  0.00000000000E+00  0.00000000000E+00  0.41508292607E+03  0.22342480441E+04  0.21953520190E+04 0.  0.
        3    1    3    3  502    0  0.22816654220E+03  0.47111140689E+02  0.12992127576E+04  0.13199368281E+04  0.10100000352E+00 0. -1.
       -3    1    3    3    0  502 -0.22816654220E+03 -0.47111140689E+02 -0.88412983151E+03  0.91431121601E+03  0.10100000352E+00 0.  1.
</event>
<event>
 5   0  0.1014015E-05  0.2201934E+04  0.7818609E-02  0.8517624E-01
       -2   -1    0    0    0  501  0.00000000000E+00  0.00000000000E+00  0.53269257142E+03  0.53269257142E+03  0.25500000920E-02 0.  1.
        2   -1    0    0  501    0  0.00000000000E+00  0.00000000000E+00 -0.22754745917E+04  0.22754745917E+04  0.25500000920E-02 0. -1.
    10030    2    1    2    0    0  0.00000000000E+00  0.00000000000E+00 -0.17427820203E+04  0.28081671632E+04  0.22019340694E+04 0.  0.
        1    1    3    3  502    0  0.61993441293E+03  0.37859879422E+03  0.18371648308E+03  0.74927129233E+03  0.50400001928E-02 0.  1.
       -1    1    3    3    0  502 -0.61993441293E+03 -0.37859879422E+03 -0.19264985034E+04  0.20588958708E+04  0.50400001928E-02 0. -1.
</event>
<event>
 5   0  0.4462201E-06  0.2199526E+04  0.7818609E-02  0.8518625E-01
        1   -1    0    0  501    0  0.00000000000E+00  0.00000000000E+00  0.12207561436E+04  0.12207561436E+04  0.50400001928E-02 0.  1.
       -1   -1    0    0    0  501  0.00000000000E+00  0.00000000000E+00 -0.99076177341E+03  0.99076177342E+03  0.50400001928E-02 0. -1.
    10030    2    1    2    0    0  0.00000000000E+00  0.00000000000E+00  0.22999437015E+03  0.22115179170E+04  0.21995258777E+04 0.  0.
        3    1    3    3  502    0  0.99541303955E+03  0.44356191020E+03 -0.33742535847E+02  0.10902902625E+04  0.10100000352E+00 0. -1.
       -3    1    3    3    0  502 -0.99541303955E+03 -0.44356191020E+03  0.26373690600E+03  0.11212276545E+04  0.10100000352E+00 0.  1.
</event>
<event>
 5   0  0.1015876E-05  0.2196937E+04  0.7818609E-02  0.8519704E-01
        2   -1    0    0  501    0  0.00000000000E+00  0.00000000000E+00  0.97683472939E+03  0.97683472940E+03  0.25500000920E-02 0.  1.
       -2   -1    0    0    0  501  0.00000000000E+00  0.00000000000E+00 -0.12352477243E+04  0.12352477243E+04  0.25500000920E-02 0. -1.
    10030    2    1    2    0    0  0.00000000000E+00  0.00000000000E+00 -0.25841299488E+03  0.22120824537E+04  0.21969368461E+04 0.  0.
        5    1    3    3  502    0  0.66541899653E+03  0.81729296253E+03 -0.44095452665E+03  0.11424592825E+04  0.46999998093E+01 0. -1.
       -5    1    3    3    0  502 -0.66541899653E+03 -0.81729296253E+03  0.18254153177E+03  0.10696231712E+04  0.46999998093E+01 0.  1.
</event>
<event>
 5   0  0.1014015E-05  0.2195995E+04  0.7818609E-02  0.8520097E-01
       -2   -1    0    0    0  501  0.00000000000E+00  0.00000000000E+00  0.89740078195E+03  0.89740078195E+03  0.25500000920E-02 0.  1.
        2   -1    0    0  501    0  0.00000000000E+00  0.00000000000E+00 -0.13434339710E+04  0.13434339710E+04  0.25500000920E-02 0. -1.
    10030    2    1    2    0    0  0.00000000000E+00  0.00000000000E+00 -0.44603318902E+03  0.22408347529E+04  0.21959951694E+04 0.  0.
        1    1    3    3  502    0 -0.29351698098E+02 -0.34851311602E+03  0.83904075305E+03  0.90901721630E+03  0.50400001928E-02 0.  1.
       -1    1    3    3    0  502  0.29351698098E+02  0.34851311602E+03 -0.12850739421E+04  0.13318175366E+04  0.50400001928E-02 0. -1.
</event>
<event>
 5   0  0.4630615E-06  0.2198989E+04  0.7818609E-02  0.8518849E-01
       -1   -1    0    0    0  501  0.00000000000E+00  0.00000000000E+00  0.42448473387E+03  0.42448473390E+03  0.50400001928E-02 0. -1.
        1   -1    0    0  501    0  0.00000000000E+00  0.00000000000E+00 -0.28478960682E+04  0.28478960682E+04  0.50400001928E-02 0.  1.
    10030    2    1    2    0    0  0.00000000000E+00  0.00000000000E+00 -0.24234113343E+04  0.32723808021E+04  0.21989892266E+04 0.  0.
        2    1    3    3  502    0 -0.24856330455E+02 -0.10519040619E+03 -0.28399706927E+04  0.28420268109E+04  0.25500000920E-02 0.  1.
       -2    1    3    3    0  502  0.24856330455E+02  0.10519040619E+03  0.41655935833E+03  0.43035399120E+03  0.25500000920E-02 0. -1.
</event>
<event>
 5   0  0.9963573E-06  0.2203120E+04  0.7818609E-02  0.8517130E-01
        2   -1    0    0  501    0  0.00000000000E+00  0.00000000000E+00  0.20265730131E+04  0.20265730131E+04  0.25500000920E-02 0. -1.
       -2   -1    0    0    0  501  0.00000000000E+00  0.00000000000E+00 -0.59876194253E+03  0.59876194254E+03  0.25500000920E-02 0.  1.
    10030    2    1    2    0    0  0.00000000000E+00  0.00000000000E+00  0.14278110706E+04  0.26253349557E+04  0.22031203272E+04 0.  0.
        2    1    3    3  502    0  0.59800044393E+03 -0.69943159970E+03 -0.76303848913E+01  0.92025394125E+03  0.25500000920E-02 0.  1.
       -2    1    3    3    0  502 -0.59800044393E+03  0.69943159970E+03  0.14354414555E+04  0.17050810144E+04  0.25500000920E-02 0. -1.
</event>
<event>
 5   0  0.1014015E-05  0.2200447E+04  0.7818609E-02  0.8518242E-01
        2   -1    0    0  501    0  0.00000000000E+00  0.00000000000E+00  0.12061524705E+04  0.12061524705E+04  0.25500000920E-02 0. -1.
       -2   -1    0    0    0  501  0.00000000000E+00  0.00000000000E+00 -0.10035972365E+04  0.10035972365E+04  0.25500000920E-02 0.  1.
    10030    2    1    2    0    0  0.00000000000E+00  0.00000000000E+00  0.20255523400E+03  0.22097497071E+04  0.22004465786E+04 0.  0.
        1    1    3    3  502    0  0.77385819321E+03  0.43091808667E+02 -0.68290658398E+03  0.10329931315E+04  0.50400001928E-02 0.  1.
       -1    1    3    3    0  502 -0.77385819321E+03 -0.43091808667E+02  0.88546181798E+03  0.11767565756E+04  0.50400001928E-02 0. -1.
</event>
<event>
 5   0  0.4630615E-06  0.2197220E+04  0.7818609E-02  0.8519586E-01
       -1   -1    0    0    0  501  0.00000000000E+00  0.00000000000E+00  0.57019846860E+03  0.57019846862E+03  0.50400001928E-02 0.  1.
        1   -1    0    0  501    0  0.00000000000E+00  0.00000000000E+00 -0.21167081547E+04  0.21167081547E+04  0.50400001928E-02 0. -1.
    10030    2    1    2    0    0  0.00000000000E+00  0.00000000000E+00 -0.15465096861E+04  0.26869066233E+04  0.21972198327E+04 0.  0.
        2    1    3    3  502    0  0.96129443441E+03 -0.14884879544E+03 -0.14887303496E+03  0.98407628468E+03  0.25500000920E-02 0.  1.
       -2    1    3    3    0  502 -0.96129443441E+03  0.14884879544E+03 -0.13976366511E+04  0.17028303386E+04  0.25500000920E-02 0. -1.
</event>
<event>
 5   0  0.4309945E-06  0.2204208E+04  0.7818609E-02  0.8516679E-01
        1   -1    0    0  501    0  0.00000000000E+00  0.00000000000E+00  0.16627444641E+04  0.16627444641E+04  0.50400001928E-02 0. -1.
       -1   -1    0    0    0  501  0.00000000000E+00  0.00000000000E+00 -0.73049900917E+03  0.73049900918E+03  0.50400001928E-02 0.  1.
    10030    2    1    2    0    0  0.00000000000E+00  0.00000000000E+00  0.93224545492E+03  0.23932434733E+04  0.22042079607E+04 0.  0.
        4    1    3    3  502    0  0.14091934104E+03 -0.10938163588E+03  0.16469642632E+04  0.16565975673E+04  0.12699999809E+01 0. -1.
       -4    1    3    3    0  502 -0.14091934104E+03  0.10938163588E+03 -0.71471880827E+03  0.73664590595E+03  0.12699999809E+01 0.  1.
</event>
<event>
 5   0  0.1015876E-05  0.2199681E+04  0.7818609E-02  0.8518561E-01
        2   -1    0    0  501    0  0.00000000000E+00  0.00000000000E+00  0.18315951324E+04  0.18315951324E+04  0.25500000920E-02 0. -1.
       -2   -1    0    0    0  501  0.00000000000E+00  0.00000000000E+00 -0.66043491491E+03  0.66043491492E+03  0.25500000920E-02 0.  1.
    10030    2    1    2    0    0  0.00000000000E+00  0.00000000000E+00  0.11711602175E+04  0.24920300473E+04  0.21996812273E+04 0.  0.
        5    1    3    3  502    0 -0.60546040796E+03  0.91539287901E+03  0.66649251109E+03  0.12840408038E+04  0.46999998093E+01 0. -1.
       -5    1    3    3    0  502  0.60546040796E+03 -0.91539287901E+03  0.50466770643E+03  0.12079892435E+04  0.46999998093E+01 0.  1.
</event>
<event>
 5   0  0.4462201E-06  0.2198912E+04  0.7818609E-02  0.8518881E-01
       -1   -1    0    0    0  501  0.00000000000E+00  0.00000000000E+00  0.73015578285E+03  0.73015578287E+03  0.50400001928E-02 0.  1.
        1   -1    0    0  501    0  0.00000000000E+00  0.00000000000E+00 -0.16555415552E+04  0.16555415553E+04  0.50400001928E-02 0. -1.
    10030    2    1    2    0    0  0.00000000000E+00  0.00000000000E+00 -0.92538577239E+03  0.23856973381E+04  0.21989117675E+04 0.  0.
        3    1    3    3  502    0 -0.14669837668E+02  0.60887457204E+03  0.53040764605E+03  0.80763588938E+03  0.10100000352E+00 0.  1.
       -3    1    3    3    0  502  0.14669837668E+02 -0.60887457204E+03 -0.14557934184E+04  0.15780614487E+04  0.10100000352E+00 0. -1.
</event>
<event>
 5   0  0.4462201E-06  0.2191069E+04  0.7818609E-02  0.8522155E-01
       -1   -1    0    0    0  501  0.00000000000E+00  0.00000000000E+00  0.13616433252E+04  0.13616433252E+04  0.50400001928E-02 0. -1.
        1   -1    0    0  501    0  0.00000000000E+00  0.00000000000E+00 -0.88143173780E+03  0.88143173782E+03  0.50400001928E-02 0.  1.
    10030    2    1    2    0    0  0.00000000000E+00  0.00000000000E+00  0.48021158739E+03  0.22430750630E+04  0.21910688190E+04 0.  0.
        3    1    3    3  502    0 -0.98681544845E+02 -0.21206449795E+03  0.13357832494E+04  0.13561070379E+04  0.10100000352E+00 0. -1.
       -3    1    3    3    0  502  0.98681544845E+02  0.21206449795E+03 -0.85557166202E+03  0.88696802514E+03  0.10100000352E+00 0.  1.
</event>
<event>
 5   0  0.1035928E-05  0.2199515E+04  0.7818609E-02  0.8518630E-01
       -2   -1    0    0    0  501  0.00000000000E+00  0.00000000000E+00  0.15292129296E+04  0.15292129296E+04  0.25500000920E-02 0. -1.
        2   -1    0    0  501    0  0.00000000000E+00  0.00000000000E+00 -0.79090760024E+03  0.79090760024E+03  0.25500000920E-02 0.  1.
    10030    2    1    2    0    0  0.00000000000E+00  0.00000000000E+00  0.73830532935E+03  0.23201205298E+04  0.21995146086E+04 0.  0.
        3    1    3    3  502    0  0.27108780775E+03  0.38309544050E+02 -0.75438552967E+03  0.80252959961E+03  0.10100000352E+00 0.  1.
       -3    1    3    3    0  502 -0.27108780775E+03 -0.38309544050E+02  0.14926908590E+04  0.15175909302E+04  0.10100000352E+00 0. -1.
</event>
<event>
 5   0  0.1015876E-05  0.2195653E+04  0.7818609E-02  0.8520240E-01
       -2   -1    0    0    0  501  0.00000000000E+00  0.00000000000E+00  0.59120149839E+03  0.59120149839E+03  0.25500000920E-02 0. -1.
        2   -1    0    0  501    0  0.00000000000E+00  0.00000000000E+00 -0.20385985927E+04  0.20385985927E+04  0.25500000920E-02 0.  1.
    10030    2    1    2    0    0  0.00000000000E+00  0.00000000000E+00 -0.14473970943E+04  0.26298000911E+04  0.21956525614E+04 0.  0.
        5    1    3    3  502    0 -0.94875391635E+03  0.42878894088E+03 -0.30671196731E+03  0.10853977476E+04  0.46999998093E+01 0. -1.
       -5    1    3    3    0  502  0.94875391635E+03 -0.42878894088E+03 -0.11406851270E+04  0.15444023435E+04  0.46999998093E+01 0.  1.
</event>
<event>
 5   0  0.4794967E-06  0.2191491E+04  0.7818609E-02  0.8521978E-01
        1   -1    0    0  501    0  0.00000000000E+00  0.00000000000E+00  0.21564119955E+04  0.21564119955E+04  0.50400001928E-02 0.  1.
       -1   -1    0    0    0  501  0.00000000000E+00  0.00000000000E+00 -0.55678509145E+03  0.55678509147E+03  0.50400001928E-02 0. -1.
    10030    2    1    2    0    0  0.00000000000E+00  0.00000000000E+00  0.15996269040E+04  0.27131970869E+04  0.21914908625E+04 0.  0.
        5    1    3    3  502    0 -0.22813941311E+03 -0.91178925324E+03  0.10250017965E+03  0.94548168198E+03  0.46999998093E+01 0. -1.
       -5    1    3    3    0  502  0.22813941311E+03  0.91178925324E+03  0.14971267244E+04  0.17677154050E+04  0.46999998093E+01 0.  1.
</event>
<event>
 5   0  0.4630615E-06  0.2195350E+04  0.7818609E-02  0.8520366E-01
       -1   -1    0    0    0  501  0.00000000000E+00  0.00000000000E+00  0.63575854499E+03  0.63575854501E+03  0.50400001928E-02 0. -1.
        1   -1    0    0  501    0  0.00000000000E+00  0.00000000000E+00 -0.18952020096E+04  0.18952020096E+04  0.50400001928E-02 0.  1.
    10030    2    1    2    0    0  0.00000000000E+00  0.00000000000E+00 -0.12594434646E+04  0.25309605547E+04  0.21953504250E+04 0.  0.
        2    1    3    3  502    0 -0.64528563511E+03 -0.38093412045E+03 -0.15544571714E+04  0.17256423305E+04  0.25500000920E-02 0.  1.
       -2    1    3    3    0  502  0.64528563511E+03  0.38093412045E+03  0.29501370677E+03  0.80531822417E+03  0.25500000920E-02 0. -1.
</event>
<event>
 5   0  0.9963173E-06  0.2195810E+04  0.7818609E-02  0.8520174E-01
        2   -1    0    0  501    0  0.00000000000E+00  0.00000000000E+00  0.15573967880E+04  0.15573967880E+04  0.25500000920E-02 0.  1.
       -2   -1    0    0    0  501  0.00000000000E+00  0.00000000000E+00 -0.77398061601E+03  0.77398061601E+03  0.25500000920E-02 0. -1.
    10030    2    1    2    0    0  0.00000000000E+00  0.00000000000E+00  0.78341617203E+03  0.23313774041E+04  0.21958095777E+04 0.  0.
        4    1    3    3  502    0 -0.87041687707E+03 -0.64812514472E+03  0.21499443701E+03  0.11063073551E+04  0.12699999809E+01 0. -1.
       -4    1    3    3    0  502  0.87041687707E+03  0.64812514472E+03  0.56842173502E+03  0.12250700490E+04  0.12699999809E+01 0.  1.
</event>
<event>
 5   0  0.1015876E-05  0.2201895E+04  0.7818609E-02  0.8517640E-01
        2   -1    0    0  501    0  0.00000000000E+00  0.00000000000E+00  0.16731901490E+04  0.16731901490E+04  0.25500000920E-02 0. -1.
       -2   -1    0    0    0  501  0.00000000000E+00  0.00000000000E+00 -0.72441561935E+03  0.72441561935E+03  0.25500000920E-02 0.  1.
    10030    2    1    2    0    0  0.00000000000E+00  0.00000000000E+00  0.94877452963E+03  0.23976057683E+04  0.22018947096E+04 0.  0.
        5    1    3    3  502    0 -0.76653363735E+03 -0.62728356903E+03 -0.48961787437E+02  0.99170451234E+03  0.46999998093E+01 0.  1.
       -5    1    3    3    0  502  0.76653363735E+03  0.62728356903E+03  0.99773631706E+03  0.14059012560E+04  0.46999998093E+01 0. -1.
</event>
<event>
 5   0  0.4408787E-06  0.2198276E+04  0.7818609E-02  0.8519146E-01
       -1   -1    0    0    0  501  0.00000000000E+00  0.00000000000E+00  0.12704590014E+04  0.12704590014E+04  0.50400001928E-02 0.  1.
        1   -1    0    0  501    0  0.00000000000E+00  0.00000000000E+00 -0.95091930267E+03  0.95091930268E+03  0.50400001928E-02 0. -1.
    10030    2    1    2    0    0  0.00000000000E+00  0.00000000000E+00  0.31953969877E+03  0.22213783041E+04  0.21982756767E+04 0.  0.
        1    1    3    3  502    0 -0.14586607650E+03 -0.51310751600E+03 -0.81134377943E+03  0.97099689170E+03  0.50400001928E-02 0. -1.
       -1    1    3    3    0  502  0.14586607650E+03  0.51310751600E+03  0.11308834782E+04  0.12503814124E+04  0.50400001928E-02 0.  1.
</event>
<event>
 5   0  0.9963573E-06  0.2252430E+04  0.7818609E-02  0.8496917E-01
       -2   -1    0    0    0  501  0.00000000000E+00  0.00000000000E+00  0.88475612833E+03  0.88475612833E+03  0.25500000920E-02 0.  1.
        2   -1    0    0  501    0  0.00000000000E+00  0.00000000000E+00 -0.14335704242E+04  0.14335704242E+04  0.25500000920E-02 0. -1.
    10030    2    1    2    0    0  0.00000000000E+00  0.00000000000E+00 -0.54881429590E+03  0.23183265526E+04  0.22524299929E+04 0.  0.
        2    1    3    3  502    0 -0.41262446932E+03  0.90405356343E+02  0.80013199343E+03  0.90478908485E+03  0.25500000920E-02 0.  1.
       -2    1    3    3    0  502  0.41262446932E+03 -0.90405356343E+02 -0.13489462893E+04  0.14135374677E+04  0.25500000920E-02 0. -1.
</event>
<event>
 5   0  0.4630615E-06  0.2233445E+04  0.7818609E-02  0.8504635E-01
        1   -1    0    0  501    0  0.00000000000E+00  0.00000000000E+00  0.14952593013E+04  0.14952593013E+04  0.50400001928E-02 0.  1.
       -1   -1    0    0    0  501  0.00000000000E+00  0.00000000000E+00 -0.83401539482E+03  0.83401539483E+03  0.50400001928E-02 0. -1.
    10030    2    1    2    0    0  0.00000000000E+00  0.00000000000E+00  0.66124390645E+03  0.23292746961E+04  0.22334451205E+04 0.  0.
        2    1    3    3  502    0 -0.85987350658E+03  0.47207314034E+03  0.88721934824E+03  0.13226464641E+04  0.25500000920E-02 0.  1.
       -2    1    3    3    0  502  0.85987350658E+03 -0.47207314034E+03 -0.22597544179E+03  0.10066282320E+04  0.25500000920E-02 0. -1.
</event>
<event>
 5   0  0.1014015E-05  0.2201414E+04  0.7818609E-02  0.8517840E-01
        2   -1    0    0  501    0  0.00000000000E+00  0.00000000000E+00  0.13817932196E+04  0.13817932196E+04  0.25500000920E-02 0.  1.
       -2   -1    0    0    0  501  0.00000000000E+00  0.00000000000E+00 -0.87679937038E+03  0.87679937039E+03  0.25500000920E-02 0. -1.
    10030    2    1    2    0    0  0.00000000000E+00  0.00000000000E+00  0.50499384922E+03  0.22585925900E+04  0.22014135686E+04 0.  0.
        1    1    3    3  502    0 -0.38759325579E+03 -0.99207153088E+03 -0.32422791818E+02  0.10655917097E+04  0.50400001928E-02 0. -1.
       -1    1    3    3    0  502  0.38759325579E+03  0.99207153088E+03  0.53741664104E+03  0.11930008803E+04  0.50400001928E-02 0.  1.
</event>
<event>
 5   0  0.4462201E-06  0.2201020E+04  0.7818609E-02  0.8518004E-01
       -1   -1    0    0    0  501  0.00000000000E+00  0.00000000000E+00  0.80848420575E+03  0.80848420576E+03  0.50400001928E-02 0.  1.
        1   -1    0    0  501    0  0.00000000000E+00  0.00000000000E+00 -0.14980153052E+04  0.14980153052E+04  0.50400001928E-02 0. -1.
    10030    2    1    2    0    0  0.00000000000E+00  0.00000000000E+00 -0.68953109940E+03  0.23064995109E+04  0.22010195040E+04 0.  0.
        3    1    3    3  502    0  0.31564749706E+02  0.33063749956E+03 -0.14442384203E+04  0.14819386338E+04  0.10100000352E+00 0. -1.
       -3    1    3    3    0  502 -0.31564749706E+02 -0.33063749956E+03  0.75470732093E+03  0.82456087707E+03  0.10100000352E+00 0.  1.
</event>
<event>
 5   0  0.4462201E-06  0.2192572E+04  0.7818609E-02  0.8521526E-01
        1   -1    0    0  501    0  0.00000000000E+00  0.00000000000E+00  0.74596342831E+03  0.74596342833E+03  0.50400001928E-02 0.  1.
       -1   -1    0    0    0  501  0.00000000000E+00  0.00000000000E+00 -0.16111289827E+04  0.16111289827E+04  0.50400001928E-02 0. -1.
    10030    2    1    2    0    0  0.00000000000E+00  0.00000000000E+00 -0.86516555438E+03  0.23570924110E+04  0.21925722788E+04 0.  0.
        3    1    3    3  502    0  0.27714517880E+02 -0.42037498635E+03  0.65546761620E+03  0.77917971595E+03  0.10100000352E+00 0.  1.
       -3    1    3    3    0  502 -0.27714517880E+02  0.42037498635E+03 -0.15206331706E+04  0.15779126951E+04  0.10100000352E+00 0. -1.
</event>
<event>
 5   0  0.9963173E-06  0.2193572E+04  0.7818609E-02  0.8521108E-01
        2   -1    0    0  501    0  0.00000000000E+00  0.00000000000E+00  0.94238207933E+03  0.94238207934E+03  0.25500000920E-02 0. -1.
       -2   -1    0    0    0  501  0.00000000000E+00  0.00000000000E+00 -0.12764886988E+04  0.12764886988E+04  0.25500000920E-02 0.  1.
    10030    2    1    2    0    0  0.00000000000E+00  0.00000000000E+00 -0.33410661949E+03  0.22188707782E+04  0.21935724964E+04 0.  0.
        4    1    3    3  502    0  0.73070533154E+03  0.62281638136E+03  0.36925752505E+03  0.10286803484E+04  0.12699999809E+01 0. -1.
       -4    1    3    3    0  502 -0.73070533154E+03 -0.62281638136E+03 -0.70336414453E+03  0.11901904298E+04  0.12699999809E+01 0.  1.
</event>
<event>
 5   0  0.1014015E-05  0.2200699E+04  0.7818609E-02  0.8518137E-01
        2   -1    0    0  501    0  0.00000000000E+00  0.00000000000E+00  0.24087414853E+04  0.24087414853E+04  0.25500000920E-02 0. -1.
       -2   -1    0    0    0  501  0.00000000000E+00  0.00000000000E+00 -0.50265623901E+03  0.50265623901E+03  0.25500000920E-02 0.  1.
    10030    2    1    2    0    0  0.00000000000E+00  0.00000000000E+00  0.19060852463E+04  0.29113977243E+04  0.22006989215E+04 0.  0.
        1    1    3    3  502    0 -0.91739334918E+03  0.84389568934E+02  0.15703495040E+03  0.93455450999E+03  0.50400001928E-02 0.  1.
       -1    1    3    3    0  502  0.91739334918E+03 -0.84389568934E+02  0.17490502959E+04  0.19768432144E+04  0.50400001928E-02 0. -1.
</event>
<event>
 5   0  0.3546750E-06  0.2201229E+04  0.7818609E-02  0.8517917E-01
        4   -1    0    0  501    0  0.00000000000E+00  0.00000000000E+00  0.98386608897E+03  0.98386690864E+03  0.12699999809E+01 0.  1.
       -4   -1    0    0    0  501  0.00000000000E+00  0.00000000000E+00 -0.12312144150E+04  0.12312150700E+04  0.12699999809E+01 0. -1.
    10030    2    1    2    0    0  0.00000000000E+00  0.00000000000E+00 -0.24734832603E+03  0.22150819786E+04  0.22012285156E+04 0.  0.
        3    1    3    3  502    0  0.55141917586E+03 -0.23678882414E+03  0.80474800457E+03  0.10038682263E+04  0.10100000352E+00 0.  1.
       -3    1    3    3    0  502 -0.55141917586E+03  0.23678882414E+03 -0.10520963306E+04  0.12112137523E+04  0.10100000352E+00 0. -1.
</event>
<event>
 5   0  0.4309945E-06  0.2198484E+04  0.7818609E-02  0.8519059E-01
        1   -1    0    0  501    0  0.00000000000E+00  0.00000000000E+00  0.12352651586E+04  0.12352651586E+04  0.50400001928E-02 0. -1.
       -1   -1    0    0    0  501  0.00000000000E+00  0.00000000000E+00 -0.97819753613E+03  0.97819753614E+03  0.50400001928E-02 0.  1.
    10030    2    1    2    0    0  0.00000000000E+00  0.00000000000E+00  0.25706762248E+03  0.22134626948E+04  0.21984843276E+04 0.  0.
        4    1    3    3  502    0  0.56229636016E+03  0.26716930503E+03  0.10406725820E+04  0.12126655227E+04  0.12699999809E+01 0. -1.
       -4    1    3    3    0  502 -0.56229636016E+03 -0.26716930503E+03 -0.78360495947E+03  0.10007971721E+04  0.12699999809E+01 0.  1.
</event>
<event>
 5   0  0.4794967E-06  0.2213106E+04  0.7818609E-02  0.8512993E-01
       -1   -1    0    0    0  501  0.00000000000E+00  0.00000000000E+00  0.11180130420E+04  0.11180130420E+04  0.50400001928E-02 0. -1.
        1   -1    0    0  501    0  0.00000000000E+00  0.00000000000E+00 -0.10952104739E+04  0.10952104739E+04  0.50400001928E-02 0.  1.
    10030    2    1    2    0    0  0.00000000000E+00  0.00000000000E+00  0.22802568057E+02  0.22132235159E+04  0.22131060467E+04 0.  0.
        5    1    3    3  502    0  0.68172125842E+03 -0.75434504624E+02 -0.85697841993E+03  0.10976649493E+04  0.46999998093E+01 0.  1.
       -5    1    3    3    0  502 -0.68172125842E+03  0.75434504624E+02  0.87978098798E+03  0.11155585666E+04  0.46999998093E+01 0. -1.
</event>
<event>
 5   0  0.9963573E-06  0.2200365E+04  0.7818609E-02  0.8518276E-01
       -2   -1    0    0    0  501  0.00000000000E+00  0.00000000000E+00  0.14183837537E+04  0.14183837537E+04  0.25500000920E-02 0.  1.
        2   -1    0    0  501    0  0.00000000000E+00  0.00000000000E+00 -0.85336697610E+03  0.85336697610E+03  0.25500000920E-02 0. -1.
    10030    2    1    2    0    0  0.00000000000E+00  0.00000000000E+00  0.56501677756E+03  0.22717507298E+04  0.22003652922E+04 0.  0.
        2    1    3    3  502    0  0.30752099269E+03 -0.86417638657E+03 -0.34467973394E+03  0.97988474171E+03  0.25500000920E-02 0. -1.
       -2    1    3    3    0  502 -0.30752099269E+03  0.86417638657E+03  0.90969651149E+03  0.12918659880E+04  0.25500000920E-02 0.  1.
</event>
<event>
 5   0  0.4309945E-06  0.2199786E+04  0.7818609E-02  0.8518517E-01
        1   -1    0    0  501    0  0.00000000000E+00  0.00000000000E+00  0.11720121250E+04  0.11720121250E+04  0.50400001928E-02 0.  1.
       -1   -1    0    0    0  501  0.00000000000E+00  0.00000000000E+00 -0.10322117883E+04  0.10322117883E+04  0.50400001928E-02 0. -1.
    10030    2    1    2    0    0  0.00000000000E+00  0.00000000000E+00  0.13980033670E+03  0.22042239133E+04  0.21997861091E+04 0.  0.
        4    1    3    3  502    0  0.42896112467E+03 -0.81796875314E+03  0.66833410050E+03  0.11400669324E+04  0.12699999809E+01 0.  1.
       -4    1    3    3    0  502 -0.42896112467E+03  0.81796875314E+03 -0.52853376380E+03  0.10641569809E+04  0.12699999809E+01 0. -1.
</event>
<event>
 5   0  0.1015876E-05  0.2202673E+04  0.7818609E-02  0.8517316E-01
       -2   -1    0    0    0  501  0.00000000000E+00  0.00000000000E+00  0.72117269156E+03  0.72117269156E+03  0.25500000920E-02 0. -1.
        2   -1    0    0  501    0  0.00000000000E+00  0.00000000000E+00 -0.16819024051E+04  0.16819024051E+04  0.25500000920E-02 0.  1.
    10030    2    1    2    0    0  0.00000000000E+00  0.00000000000E+00 -0.96072971354E+03  0.24030750967E+04  0.22026729984E+04 0.  0.
        5    1    3    3  502    0 -0.73298415417E+03  0.33730903205E+03  0.33741777160E+03  0.87459476099E+03  0.46999998093E+01 0. -1.
       -5    1    3    3    0  502  0.73298415417E+03 -0.33730903205E+03 -0.12981474851E+04  0.15284803357E+04  0.46999998093E+01 0.  1.
</event>
<event>
 5   0  0.4794967E-06  0.2201051E+04  0.7818609E-02  0.8517991E-01
       -1   -1    0    0    0  501  0.00000000000E+00  0.00000000000E+00  0.81923807812E+03  0.81923807814E+03  0.50400001928E-02 0.  1.
        1   -1    0    0  501    0  0.00000000000E+00  0.00000000000E+00 -0.14783930986E+04  0.14783930986E+04  0.50400001928E-02 0. -1.
    10030    2    1    2    0    0  0.00000000000E+00  0.00000000000E+00 -0.65915502050E+03  0.22976311768E+04  0.22010505863E+04 0.  0.
        5    1    3    3  502    0  0.83455892278E+03 -0.71080658661E+03 -0.22837379191E+03  0.11197817993E+04  0.46999998093E+01 0. -1.
       -5    1    3    3    0  502 -0.83455892278E+03  0.71080658661E+03 -0.43078122859E+03  0.11778493775E+04  0.46999998093E+01 0.  1.
</event>
<event>
 5   0  0.4408787E-06  0.2205050E+04  0.7818609E-02  0.8516329E-01
       -1   -1    0    0    0  501  0.00000000000E+00  0.00000000000E+00  0.71009508726E+03  0.71009508727E+03  0.50400001928E-02 0.  1.
        1   -1    0    0  501    0  0.00000000000E+00  0.00000000000E+00 -0.17118290538E+04  0.17118290538E+04  0.50400001928E-02 0. -1.
    10030    2    1    2    0    0  0.00000000000E+00  0.00000000000E+00 -0.10017339665E+04  0.24219241411E+04  0.22050500233E+04 0.  0.
        1    1    3    3  502    0  0.82160884133E+03  0.60648111436E+03 -0.44420905315E+02  0.10221710459E+04  0.50400001928E-02 0.  1.
       -1    1    3    3    0  502 -0.82160884133E+03 -0.60648111436E+03 -0.95731306121E+03  0.13997530952E+04  0.50400001928E-02 0. -1.
</event>
<event>
 5   0  0.9963573E-06  0.2200644E+04  0.7818609E-02  0.8518160E-01
       -2   -1    0    0    0  501  0.00000000000E+00  0.00000000000E+00  0.15622249860E+04  0.15622249860E+04  0.25500000920E-02 0.  1.
        2   -1    0    0  501    0  0.00000000000E+00  0.00000000000E+00 -0.77498955717E+03  0.77498955718E+03  0.25500000920E-02 0. -1.
    10030    2    1    2    0    0  0.00000000000E+00  0.00000000000E+00  0.78723542885E+03  0.23372145432E+04  0.22006435878E+04 0.  0.
        2    1    3    3  502    0  0.95088911785E+02 -0.46809194850E+03 -0.65913784196E+03  0.81401146681E+03  0.25500000920E-02 0. -1.
       -2    1    3    3    0  502 -0.95088911785E+02  0.46809194850E+03  0.14463732708E+04  0.15232030764E+04  0.25500000920E-02 0.  1.
</event>
<event>
 5   0  0.4794967E-06  0.2201147E+04  0.7818609E-02  0.8517951E-01
       -1   -1    0    0    0  501  0.00000000000E+00  0.00000000000E+00  0.68103332210E+03  0.68103332211E+03  0.50400001928E-02 0. -1.
        1   -1    0    0  501    0  0.00000000000E+00  0.00000000000E+00 -0.17785654734E+04  0.17785654734E+04  0.50400001928E-02 0.  1.
    10030    2    1    2    0    0  0.00000000000E+00  0.00000000000E+00 -0.10975321513E+04  0.24595987955E+04  0.22011472944E+04 0.  0.
        5    1    3    3  502    0  0.77655621119E+03 -0.17218879160E+03  0.30117000557E+03  0.85053747204E+03  0.46999998093E+01 0.  1.
       -5    1    3    3    0  502 -0.77655621119E+03  0.17218879160E+03 -0.13987021569E+04  0.16090613235E+04  0.46999998093E+01 0. -1.
</event>
<event>
 5   0  0.1014015E-05  0.2201778E+04  0.7818609E-02  0.8517689E-01
        2   -1    0    0  501    0  0.00000000000E+00  0.00000000000E+00  0.10298489008E+04  0.10298489008E+04  0.25500000920E-02 0. -1.
       -2   -1    0    0    0  501  0.00000000000E+00  0.00000000000E+00 -0.11768292760E+04  0.11768292760E+04  0.25500000920E-02 0.  1.
    10030    2    1    2    0    0  0.00000000000E+00  0.00000000000E+00 -0.14698037516E+03  0.22066781768E+04  0.22017777693E+04 0.  0.
        1    1    3    3  502    0 -0.54677542511E+03  0.94513285396E+03 -0.21421944129E+03  0.11127126521E+04  0.50400001928E-02 0.  1.
       -1    1    3    3    0  502  0.54677542511E+03 -0.94513285396E+03  0.67239066122E+02  0.10939655247E+04  0.50400001928E-02 0. -1.
</event>
<event>
 5   0  0.4408787E-06  0.2197023E+04  0.7818609E-02  0.8519668E-01
       -1   -1    0    0    0  501  0.00000000000E+00  0.00000000000E+00  0.54079433649E+03  0.54079433652E+03  0.50400001928E-02 0.  1.
        1   -1    0    0  501    0  0.00000000000E+00  0.00000000000E+00 -0.22313975586E+04  0.22313975586E+04  0.50400001928E-02 0. -1.
    10030    2    1    2    0    0  0.00000000000E+00  0.00000000000E+00 -0.16906032221E+04  0.27721918951E+04  0.21970226783E+04 0.  0.
        1    1    3    3  502    0 -0.98238328569E+03 -0.11439156306E+03 -0.24205702154E+03  0.10182111527E+04  0.50400001928E-02 0.  1.
       -1    1    3    3    0  502  0.98238328569E+03  0.11439156306E+03 -0.14485462006E+04  0.17539807425E+04  0.50400001928E-02 0. -1.
</event>
<event>
 5   0  0.4630615E-06  0.2201523E+04  0.7818609E-02  0.8517795E-01
       -1   -1    0    0    0  501  0.00000000000E+00  0.00000000000E+00  0.11316383040E+04  0.11316383040E+04  0.50400001928E-02 0.  1.
        1   -1    0    0  501    0  0.00000000000E+00  0.00000000000E+00 -0.10707269210E+04  0.10707269210E+04  0.50400001928E-02 0. -1.
    10030    2    1    2    0    0  0.00000000000E+00  0.00000000000E+00  0.60911383051E+02  0.22023652250E+04  0.22015227430E+04 0.  0.
        2    1    3    3  502    0  0.10172471549E+04  0.38350128180E+03 -0.14226781565E+03  0.10964055539E+04  0.25500000920E-02 0. -1.
       -2    1    3    3    0  502 -0.10172471549E+04 -0.38350128180E+03  0.20317919870E+03  0.11059596711E+04  0.25500000920E-02 0.  1.
</event>
<event>
 5   0  0.9963173E-06  0.2199436E+04  0.7818609E-02  0.8518663E-01
        2   -1    0    0  501    0  0.00000000000E+00  0.00000000000E+00  0.19355113961E+04  0.19355113961E+04  0.25500000920E-02 0. -1.
       -2   -1    0    0    0  501  0.00000000000E+00  0.00000000000E+00 -0.62483716887E+03  0.62483716887E+03  0.25500000920E-02 0.  1.
    10030    2    1    2    0    0  0.00000000000E+00  0.00000000000E+00  0.13106742272E+04  0.25603485650E+04  0.21994358013E+04 0.  0.
        4    1    3    3  502    0 -0.83071912524E+03 -0.37255037960E+03 -0.62720534358E+02  0.91259165497E+03  0.12699999809E+01 0.  1.
       -4    1    3    3    0  502  0.83071912524E+03  0.37255037960E+03  0.13733947616E+04  0.16477569100E+04  0.12699999809E+01 0. -1.
</event>
<event>
 5   0  0.9963573E-06  0.2198912E+04  0.7818609E-02  0.8518881E-01
        2   -1    0    0  501    0  0.00000000000E+00  0.00000000000E+00  0.75246775856E+03  0.75246775856E+03  0.25500000920E-02 0. -1.
       -2   -1    0    0    0  501  0.00000000000E+00  0.00000000000E+00 -0.16064525637E+04  0.16064525637E+04  0.25500000920E-02 0.  1.
    10030    2    1    2    0    0  0.00000000000E+00  0.00000000000E+00 -0.85398480510E+03  0.23589203222E+04  0.21989122400E+04 0.  0.
        2    1    3    3  502    0  0.77807240035E+03 -0.19514200861E+03 -0.12335866537E+04  0.14714663081E+04  0.25500000920E-02 0.  1.
       -2    1    3    3    0  502 -0.77807240035E+03  0.19514200861E+03  0.37960184860E+03  0.88745401412E+03  0.25500000920E-02 0. -1.
</event>
<event>
 5   0  0.9963173E-06  0.2200131E+04  0.7818609E-02  0.8518374E-01
       -2   -1    0    0    0  501  0.00000000000E+00  0.00000000000E+00  0.10454946168E+04  0.10454946168E+04  0.25500000920E-02 0. -1.
        2   -1    0    0  501    0  0.00000000000E+00  0.00000000000E+00 -0.11574847439E+04  0.11574847439E+04  0.25500000920E-02 0.  1.
    10030    2    1    2    0    0  0.00000000000E+00  0.00000000000E+00 -0.11199012709E+03  0.22029793608E+04  0.22001309678E+04 0.  0.
        4    1    3    3  502    0  0.41181655725E+03  0.55980253796E+03  0.79785198082E+03  0.10580837181E+04  0.12699999809E+01 0. -1.
       -4    1    3    3    0  502 -0.41181655725E+03 -0.55980253796E+03 -0.90984210791E+03  0.11448956427E+04  0.12699999809E+01 0.  1.
</event>
<event>
 5   0  0.4630615E-06  0.2186110E+04  0.7818609E-02  0.8524232E-01
       -1   -1    0    0    0  501  0.00000000000E+00  0.00000000000E+00  0.53484106731E+03  0.53484106733E+03  0.50400001928E-02 0.  1.
        1   -1    0    0  501    0  0.00000000000E+00  0.00000000000E+00 -0.22338776283E+04  0.22338776283E+04  0.50400001928E-02 0. -1.
    10030    2    1    2    0    0  0.00000000000E+00  0.00000000000E+00 -0.16990365610E+04  0.27687186956E+04  0.21861102397E+04 0.  0.
        2    1    3    3  502    0  0.28146323919E+02  0.44717976725E+03 -0.21122224459E+04  0.21592233837E+04  0.25500000920E-02 0. -1.
       -2    1    3    3    0  502 -0.28146323919E+02 -0.44717976725E+03  0.41318588490E+03  0.60949531194E+03  0.25500000920E-02 0.  1.
</event>
<event>
 5   0  0.1014015E-05  0.2198876E+04  0.7818609E-02  0.8518896E-01
       -2   -1    0    0    0  501  0.00000000000E+00  0.00000000000E+00  0.95015957365E+03  0.95015957366E+03  0.25500000920E-02 0. -1.
        2   -1    0    0  501    0  0.00000000000E+00  0.00000000000E+00 -0.12721689918E+04  0.12721689918E+04  0.25500000920E-02 0.  1.
    10030    2    1    2    0    0  0.00000000000E+00  0.00000000000E+00 -0.32200941815E+03  0.22223285655E+04  0.21988756644E+04 0.  0.
        1    1    3    3  502    0 -0.50894403107E+03  0.62176369818E+03  0.59743212699E+03  0.10012688298E+04  0.50400001928E-02 0. -1.
       -1    1    3    3    0  502  0.50894403107E+03 -0.62176369818E+03 -0.91944154514E+03  0.12210597357E+04  0.50400001928E-02 0.  1.
</event>
<event>
 5   0  0.4309945E-06  0.2194993E+04  0.7818609E-02  0.8520515E-01
        1   -1    0    0  501    0  0.00000000000E+00  0.00000000000E+00  0.16038743861E+04  0.16038743861E+04  0.50400001928E-02 0. -1.
       -1   -1    0    0    0  501  0.00000000000E+00  0.00000000000E+00 -0.75099320772E+03  0.75099320773E+03  0.50400001928E-02 0.  1.
    10030    2    1    2    0    0  0.00000000000E+00  0.00000000000E+00  0.85288117837E+03  0.23548675938E+04  0.21949931845E+04 0.  0.
        4    1    3    3  502    0  0.83290090188E+03  0.26050720010E+03  0.11404282218E+04  0.14360243924E+04  0.12699999809E+01 0. -1.
       -4    1    3    3    0  502 -0.83290090188E+03 -0.26050720010E+03 -0.28754704343E+03  0.91884320140E+03  0.12699999809E+01 0.  1.
</event>
<event>
 5   0  0.4630615E-06  0.2198613E+04  0.7818609E-02  0.8519006E-01
        1   -1    0    0  501    0  0.00000000000E+00  0.00000000000E+00  0.20353605774E+04  0.20353605774E+04  0.50400001928E-02 0.  1.
       -1   -1    0    0    0  501  0.00000000000E+00  0.00000000000E+00 -0.59373984418E+03  0.59373984420E+03  0.50400001928E-02 0. -1.
    10030    2    1    2    0    0  0.00000000000E+00  0.00000000000E+00  0.14416207332E+04  0.26291004216E+04  0.21986129010E+04 0.  0.
        2    1    3    3  502    0 -0.48063980159E+03 -0.96739881592E+03  0.47691536641E+03  0.11808146995E+04  0.25500000920E-02 0. -1.
       -2    1    3    3    0  502  0.48063980159E+03  0.96739881592E+03  0.96470536677E+03  0.14482857220E+04  0.25500000920E-02 0.  1.
</event>
<event>
 5   0  0.4408787E-06  0.2200847E+04  0.7818609E-02  0.8518076E-01
       -1   -1    0    0    0  501  0.00000000000E+00  0.00000000000E+00  0.74073505683E+03  0.74073505684E+03  0.50400001928E-02 0. -1.
        1   -1    0    0  501    0  0.00000000000E+00  0.00000000000E+00 -0.16347698888E+04  0.16347698888E+04  0.50400001928E-02 0.  1.
    10030    2    1    2    0    0  0.00000000000E+00  0.00000000000E+00 -0.89403483196E+03  0.23755049456E+04  0.22008465340E+04 0.  0.
        1    1    3    3  502    0  0.66954922663E+03 -0.44050747778E+03 -0.12609063840E+04  0.14940642269E+04  0.50400001928E-02 0.  1.
       -1    1    3    3    0  502 -0.66954922663E+03  0.44050747778E+03  0.36687155207E+03  0.88144071871E+03  0.50400001928E-02 0. -1.
</event>
<event>
 5   0  0.1014015E-05  0.2216747E+04  0.7818609E-02  0.8511490E-01
       -2   -1    0    0    0  501  0.00000000000E+00  0.00000000000E+00  0.74037283364E+03  0.74037283364E+03  0.25500000920E-02 0. -1.
        2   -1    0    0  501    0  0.00000000000E+00  0.00000000000E+00 -0.16592880940E+04  0.16592880940E+04  0.25500000920E-02 0.  1.
    10030    2    1    2    0    0  0.00000000000E+00  0.00000000000E+00 -0.91891526038E+03  0.23996609277E+04  0.22167470113E+04 0.  0.
        1    1    3    3  502    0 -0.97067594815E+03  0.17209612174E+03  0.88964971761E+02  0.98982000266E+03  0.50400001928E-02 0. -1.
       -1    1    3    3    0  502  0.97067594815E+03 -0.17209612174E+03 -0.10078802321E+04  0.14098409250E+04  0.50400001928E-02 0.  1.
</event>
<event>
 5   0  0.4462201E-06  0.2203350E+04  0.7818609E-02  0.8517035E-01
       -1   -1    0    0    0  501  0.00000000000E+00  0.00000000000E+00  0.12651825254E+04  0.12651825254E+04  0.50400001928E-02 0.  1.
        1   -1    0    0  501    0  0.00000000000E+00  0.00000000000E+00 -0.95929852862E+03  0.95929852863E+03  0.50400001928E-02 0. -1.
    10030    2    1    2    0    0  0.00000000000E+00  0.00000000000E+00  0.30588399674E+03  0.22244810540E+04  0.22033499359E+04 0.  0.
        3    1    3    3  502    0  0.94209321645E+03 -0.14214614290E+03 -0.40548343447E+03  0.10354525485E+04  0.10100000352E+00 0. -1.
       -3    1    3    3    0  502 -0.94209321645E+03  0.14214614290E+03  0.71136743121E+03  0.11890285055E+04  0.10100000352E+00 0.  1.
</event>
<event>
 5   0  0.4794967E-06  0.2201844E+04  0.7818609E-02  0.8517661E-01
        1   -1    0    0  501    0  0.00000000000E+00  0.00000000000E+00  0.19337961936E+04  0.19337961936E+04  0.50400001928E-02 0.  1.
       -1   -1    0    0    0  501  0.00000000000E+00  0.00000000000E+00 -0.62676149611E+03  0.62676149613E+03  0.50400001928E-02 0. -1.
    10030    2    1    2    0    0  0.00000000000E+00  0.00000000000E+00  0.13070346975E+04  0.25605576898E+04  0.22018437688E+04 0.  0.
        5    1    3    3  502    0  0.43748588547E+03 -0.10093369929E+04  0.60347360055E+03  0.12547340522E+04  0.46999998093E+01 0.  1.
       -5    1    3    3    0  502 -0.43748588547E+03  0.10093369929E+04  0.70356109697E+03  0.13058236376E+04  0.46999998093E+01 0. -1.
</event>
<event>
 5   0  0.4462201E-06  0.2202996E+04  0.7818609E-02  0.8517182E-01
        1   -1    0    0  501    0  0.00000000000E+00  0.00000000000E+00  0.24237936552E+04  0.24237936552E+04  0.50400001928E-02 0. -1.
       -1   -1    0    0    0  501  0.00000000000E+00  0.00000000000E+00 -0.50057787859E+03  0.50057787861E+03  0.50400001928E-02 0.  1.
    10030    2    1    2    0    0  0.00000000000E+00  0.00000000000E+00  0.19232157766E+04  0.29243715338E+04  0.22029956751E+04 0.  0.
        3    1    3    3  502    0  0.34446102537E+02 -0.95404912409E+03  0.16909836562E+04  0.19418604484E+04  0.10100000352E+00 0. -1.
       -3    1    3    3    0  502 -0.34446102537E+02  0.95404912409E+03  0.23223212045E+03  0.98251108549E+03  0.10100000352E+00 0.  1.
</event>
<event>
 5   0  0.9963573E-06  0.2202232E+04  0.7818609E-02  0.8517500E-01
        2   -1    0    0  501    0  0.00000000000E+00  0.00000000000E+00  0.76771622844E+03  0.76771622844E+03  0.25500000920E-02 0.  1.
       -2   -1    0    0    0  501  0.00000000000E+00  0.00000000000E+00 -0.15793027889E+04  0.15793027889E+04  0.25500000920E-02 0. -1.
    10030    2    1    2    0    0  0.00000000000E+00  0.00000000000E+00 -0.81158656043E+03  0.23470190173E+04  0.22022319411E+04 0.  0.
        2    1    3    3  502    0 -0.55906904210E+03  0.12712934556E+03 -0.14076714238E+04  0.15199535854E+04  0.25500000920E-02 0. -1.
       -2    1    3    3    0  502  0.55906904210E+03 -0.12712934556E+03  0.59608486337E+03  0.82706543192E+03  0.25500000920E-02 0.  1.
</event>
<event>
 5   0  0.9963573E-06  0.2209254E+04  0.7818609E-02  0.8514586E-01
       -2   -1    0    0    0  501  0.00000000000E+00  0.00000000000E+00  0.93037900727E+03  0.93037900728E+03  0.25500000920E-02 0. -1.
        2   -1    0    0  501    0  0.00000000000E+00  0.00000000000E+00 -0.13115090977E+04  0.13115090977E+04  0.25500000920E-02 0.  1.
    10030    2    1    2    0    0  0.00000000000E+00  0.00000000000E+00 -0.38113009045E+03  0.22418881050E+04  0.22092537495E+04 0.  0.
        2    1    3    3  502    0  0.80311927414E+03 -0.91466457485E+02  0.57343999041E+03  0.99106009099E+03  0.25500000920E-02 0. -1.
       -2    1    3    3    0  502 -0.80311927414E+03  0.91466457485E+02 -0.95457008087E+03  0.12508280140E+04  0.25500000920E-02 0.  1.
</event>
<event>
 5   0  0.9963173E-06  0.2211179E+04  0.7818609E-02  0.8513789E-01
       -2   -1    0    0    0  501  0.00000000000E+00  0.00000000000E+00  0.11650902266E+04  0.11650902266E+04  0.25500000920E-02 0. -1.
        2   -1    0    0  501    0  0.00000000000E+00  0.00000000000E+00 -0.10491278922E+04  0.10491278922E+04  0.25500000920E-02 0.  1.
    10030    2    1    2    0    0  0.00000000000E+00  0.00000000000E+00  0.11596233438E+03  0.22142181189E+04  0.22111794624E+04 0.  0.
        4    1    3    3  502    0 -0.17049352250E+03 -0.81298032783E+02 -0.10328503120E+04  0.10499803766E+04  0.12699999809E+01 0.  1.
       -4    1    3    3    0  502  0.17049352250E+03  0.81298032783E+02  0.11488126463E+04  0.11642377423E+04  0.12699999809E+01 0. -1.
</event>
<event>
 5   0  0.3546750E-06  0.2200208E+04  0.7818609E-02  0.8518342E-01
       -3   -1    0    0    0  501  0.00000000000E+00  0.00000000000E+00  0.11096523238E+04  0.11096523284E+04  0.10100000352E+00 0. -1.
        3   -1    0    0  501    0  0.00000000000E+00  0.00000000000E+00 -0.10906374205E+04  0.10906374251E+04  0.10100000352E+00 0.  1.
    10030    2    1    2    0    0  0.00000000000E+00  0.00000000000E+00  0.19014903319E+02  0.22002897535E+04  0.22002075886E+04 0.  0.
        4    1    3    3  502    0  0.35758978736E+01  0.67687569536E+03 -0.85773497232E+03  0.10926501680E+04  0.12699999809E+01 0.  1.
       -4    1    3    3    0  502 -0.35758978736E+01 -0.67687569536E+03  0.87674987564E+03  0.11076395855E+04  0.12699999809E+01 0. -1.
</event>
<event>
 5   0  0.4462201E-06  0.2196336E+04  0.7818609E-02  0.8519955E-01
        1   -1    0    0  501    0  0.00000000000E+00  0.00000000000E+00  0.10047486628E+04  0.10047486628E+04  0.50400001928E-02 0.  1.
       -1   -1    0    0    0  501  0.00000000000E+00  0.00000000000E+00 -0.12002729147E+04  0.12002729147E+04  0.50400001928E-02 0. -1.
    10030    2    1    2    0    0  0.00000000000E+00  0.00000000000E+00 -0.19552425189E+03  0.22050215775E+04  0.21963356811E+04 0.  0.
        3    1    3    3  502    0 -0.24337834680E+03  0.38925284666E+03 -0.10993154261E+04  0.11913207858E+04  0.10100000352E+00 0. -1.
       -3    1    3    3    0  502  0.24337834680E+03 -0.38925284666E+03  0.90379117424E+03  0.10137007917E+04  0.10100000352E+00 0.  1.
</event>
<event>
 5   0  0.4309945E-06  0.2209565E+04  0.7818609E-02  0.8514458E-01
        1   -1    0    0  501    0  0.00000000000E+00  0.00000000000E+00  0.18503175445E+04  0.18503175445E+04  0.50400001928E-02 0.  1.
       -1   -1    0    0    0  501  0.00000000000E+00  0.00000000000E+00 -0.65964025660E+03  0.65964025662E+03  0.50400001928E-02 0. -1.
    10030    2    1    2    0    0  0.00000000000E+00  0.00000000000E+00  0.11906772879E+04  0.25099578011E+04  0.22095646086E+04 0.  0.
        4    1    3    3  502    0  0.31232647045E+03  0.73594485802E+03  0.14614817140E+04  0.16658610600E+04  0.12699999809E+01 0.  1.
       -4    1    3    3    0  502 -0.31232647045E+03 -0.73594485802E+03 -0.27080442610E+03  0.84409674107E+03  0.12699999809E+01 0. -1.
</event>
<event>
 5   0  0.1015876E-05  0.2193750E+04  0.7818609E-02  0.8521034E-01
       -2   -1    0    0    0  501  0.00000000000E+00  0.00000000000E+00  0.78117767717E+03  0.78117767717E+03  0.25500000920E-02 0. -1.
        2   -1    0    0  501    0  0.00000000000E+00  0.00000000000E+00 -0.15401553200E+04  0.15401553200E+04  0.25500000920E-02 0.  1.
    10030    2    1    2    0    0  0.00000000000E+00  0.00000000000E+00 -0.75897764281E+03  0.23213329972E+04  0.21937501730E+04 0.  0.
        5    1    3    3  502    0  0.43943778728E+03  0.84842131172E+03  0.19053162138E+03  0.97429393913E+03  0.46999998093E+01 0. -1.
       -5    1    3    3    0  502 -0.43943778728E+03 -0.84842131172E+03 -0.94950926419E+03  0.13470390580E+04  0.46999998093E+01 0.  1.
</event>
<event>
 5   0  0.4462201E-06  0.2193899E+04  0.7818609E-02  0.8520972E-01
       -1   -1    0    0    0  501  0.00000000000E+00  0.00000000000E+00  0.14871554746E+04  0.14871554746E+04  0.50400001928E-02 0.  1.
        1   -1    0    0  501    0  0.00000000000E+00  0.00000000000E+00 -0.80912772524E+03  0.80912772525E+03  0.50400001928E-02 0. -1.
    10030    2    1    2    0    0  0.00000000000E+00  0.00000000000E+00  0.67802774933E+03  0.22962831998E+04  0.21938994747E+04 0.  0.
        3    1    3    3  502    0 -0.75052888040E+02 -0.10814712231E+04  0.16360485574E+03  0.10963482574E+04  0.10100000352E+00 0. -1.
       -3    1    3    3    0  502  0.75052888040E+02  0.10814712231E+04  0.51442289359E+03  0.11999349424E+04  0.10100000352E+00 0.  1.
</event>
<event>
 5   0  0.4630615E-06  0.2199259E+04  0.7818609E-02  0.8518736E-01
        1   -1    0    0  501    0  0.00000000000E+00  0.00000000000E+00  0.14342087724E+04  0.14342087724E+04  0.50400001928E-02 0. -1.
       -1   -1    0    0    0  501  0.00000000000E+00  0.00000000000E+00 -0.84310272673E+03  0.84310272674E+03  0.50400001928E-02 0.  1.
    10030    2    1    2    0    0  0.00000000000E+00  0.00000000000E+00  0.59110604563E+03  0.22773114991E+04  0.21992592632E+04 0.  0.
        2    1    3    3  502    0  0.54496044300E+03 -0.95268119923E+03  0.22530758358E+03  0.11204226252E+04  0.25500000920E-02 0.  1.
       -2    1    3    3    0  502 -0.54496044300E+03  0.95268119923E+03  0.36579846205E+03  0.11568888739E+04  0.25500000920E-02 0. -1.
</event>
<event>
 5   0  0.1035928E-05  0.2197357E+04  0.7818609E-02  0.8519529E-01
        2   -1    0    0  501    0  0.00000000000E+00  0.00000000000E+00  0.10393872882E+04  0.10393872882E+04  0.25500000920E-02 0.  1.
       -2   -1    0    0    0  501  0.00000000000E+00  0.00000000000E+00 -0.11613518961E+04  0.11613518961E+04  0.25500000920E-02 0. -1.
    10030    2    1    2    0    0  0.00000000000E+00  0.00000000000E+00 -0.12196460786E+03  0.22007391843E+04  0.21973569560E+04 0.  0.
        3    1    3    3  502    0 -0.10093312914E+04  0.20152174993E+03  0.32397075484E+03  0.10790355562E+04  0.10100000352E+00 0. -1.
       -3    1    3    3    0  502  0.10093312914E+04 -0.20152174993E+03 -0.44593536270E+03  0.11217036281E+04  0.10100000352E+00 0.  1.
</event>
<event>
 5   0  0.4462201E-06  0.2204477E+04  0.7818609E-02  0.8516567E-01
        1   -1    0    0  501    0  0.00000000000E+00  0.00000000000E+00  0.15995243270E+04  0.15995243270E+04  0.50400001928E-02 0.  1.
       -1   -1    0    0    0  501  0.00000000000E+00  0.00000000000E+00 -0.75955706628E+03  0.75955706630E+03  0.50400001928E-02 0. -1.
    10030    2    1    2    0    0  0.00000000000E+00  0.00000000000E+00  0.83996726072E+03  0.23590813933E+04  0.22044772671E+04 0.  0.
        3    1    3    3  502    0 -0.10699062587E+04  0.44043508616E+02  0.14033140477E+03  0.10799685859E+04  0.10100000352E+00 0. -1.
       -3    1    3    3    0  502  0.10699062587E+04 -0.44043508616E+02  0.69963585595E+03  0.12791128075E+04  0.10100000352E+00 0.  1.
</event>
<event>
 5   0  0.4462201E-06  0.2203610E+04  0.7818609E-02  0.8516927E-01
       -1   -1    0    0    0  501  0.00000000000E+00  0.00000000000E+00  0.59984331239E+03  0.59984331241E+03  0.50400001928E-02 0. -1.
        1   -1    0    0  501    0  0.00000000000E+00  0.00000000000E+00 -0.20238181827E+04  0.20238181827E+04  0.50400001928E-02 0.  1.
    10030    2    1    2    0    0  0.00000000000E+00  0.00000000000E+00 -0.14239748703E+04  0.26236614951E+04  0.22036095865E+04 0.  0.
        3    1    3    3  502    0 -0.60413610897E+02 -0.35909704825E+03 -0.19501023898E+04  0.19838094252E+04  0.10100000352E+00 0.  1.
       -3    1    3    3    0  502  0.60413610897E+02  0.35909704825E+03  0.52612751949E+03  0.63985206995E+03  0.10100000352E+00 0. -1.
</event>
<event>
 5   0  0.4462201E-06  0.2198117E+04  0.7818609E-02  0.8519212E-01
       -1   -1    0    0    0  501  0.00000000000E+00  0.00000000000E+00  0.85021646819E+03  0.85021646820E+03  0.50400001928E-02 0.  1.
        1   -1    0    0  501    0  0.00000000000E+00  0.00000000000E+00 -0.14207313393E+04  0.14207313393E+04  0.50400001928E-02 0. -1.
    10030    2    1    2    0    0  0.00000000000E+00  0.00000000000E+00 -0.57051487107E+03  0.22709478075E+04  0.21981166316E+04 0.  0.
        3    1    3    3  502    0  0.93839625817E+02 -0.26746579164E+03 -0.13823193350E+04  0.14110813510E+04  0.10100000352E+00 0. -1.
       -3    1    3    3    0  502 -0.93839625817E+02  0.26746579164E+03  0.81180446393E+03  0.85986645645E+03  0.10100000352E+00 0.  1.
</event>
<event>
 5   0  0.3546750E-06  0.2206762E+04  0.7818609E-02  0.8515619E-01
       -4   -1    0    0    0  501  0.00000000000E+00  0.00000000000E+00  0.13801748228E+04  0.13801754072E+04  0.12699999809E+01 0.  1.
        4   -1    0    0  501    0  0.00000000000E+00  0.00000000000E+00 -0.88209668733E+03  0.88209760157E+03  0.12699999809E+01 0. -1.
    10030    2    1    2    0    0  0.00000000000E+00  0.00000000000E+00  0.49807813551E+03  0.22622730087E+04  0.22067617309E+04 0.  0.
        5    1    3    3  502    0  0.76873066246E+03  0.64737092031E+03  0.71589710684E+03  0.12339232948E+04  0.46999998093E+01 0.  1.
       -5    1    3    3    0  502 -0.76873066246E+03 -0.64737092031E+03 -0.21781897133E+03  0.10283497139E+04  0.46999998093E+01 0. -1.
</event>
<event>
 5   0  0.4309945E-06  0.2197368E+04  0.7818609E-02  0.8519525E-01
        1   -1    0    0  501    0  0.00000000000E+00  0.00000000000E+00  0.89679803875E+03  0.89679803877E+03  0.50400001928E-02 0. -1.
       -1   -1    0    0    0  501  0.00000000000E+00  0.00000000000E+00 -0.13460178579E+04  0.13460178579E+04  0.50400001928E-02 0.  1.
    10030    2    1    2    0    0  0.00000000000E+00  0.00000000000E+00 -0.44921981911E+03  0.22428158966E+04  0.21973676753E+04 0.  0.
        4    1    3    3  502    0  0.80759737549E+03  0.65413828678E+03 -0.58834293927E+03  0.11942610461E+04  0.12699999809E+01 0. -1.
       -4    1    3    3    0  502 -0.80759737549E+03 -0.65413828678E+03  0.13912312017E+03  0.10485548505E+04  0.12699999809E+01 0.  1.
</event>
<event>
 5   0  0.4309945E-06  0.2201771E+04  0.7818609E-02  0.8517691E-01
        1   -1    0    0  501    0  0.00000000000E+00  0.00000000000E+00  0.98383125251E+03  0.98383125252E+03  0.50400001928E-02 0.  1.
       -1   -1    0    0    0  501  0.00000000000E+00  0.00000000000E+00 -0.12318666269E+04  0.12318666269E+04  0.50400001928E-02 0. -1.
    10030    2    1    2    0    0  0.00000000000E+00  0.00000000000E+00 -0.24803537436E+03  0.22156978794E+04  0.22017710021E+04 0.  0.
        4    1    3    3  502    0  0.10360810785E+04 -0.35050235258E+03 -0.24983400158E+03  0.11219333945E+04  0.12699999809E+01 0. -1.
       -4    1    3    3    0  502 -0.10360810785E+04  0.35050235258E+03  0.17986272213E+01  0.10937644849E+04  0.12699999809E+01 0.  1.
</event>
<event>
 5   0  0.1035928E-05  0.2199832E+04  0.7818609E-02  0.8518498E-01
        2   -1    0    0  501    0  0.00000000000E+00  0.00000000000E+00  0.16500184958E+04  0.16500184958E+04  0.25500000920E-02 0.  1.
       -2   -1    0    0    0  501  0.00000000000E+00  0.00000000000E+00 -0.73321304271E+03  0.73321304271E+03  0.25500000920E-02 0. -1.
    10030    2    1    2    0    0  0.00000000000E+00  0.00000000000E+00  0.91680545305E+03  0.23832315385E+04  0.21998318861E+04 0.  0.
        3    1    3    3  502    0  0.83793657676E+03  0.65360280111E+03  0.76574530758E+03  0.13098474013E+04  0.10100000352E+00 0.  1.
       -3    1    3    3    0  502 -0.83793657676E+03 -0.65360280111E+03  0.15106014547E+03  0.10733841372E+04  0.10100000352E+00 0. -1.
</event>
<event>
 5   0  0.9963173E-06  0.2195150E+04  0.7818609E-02  0.8520450E-01
       -2   -1    0    0    0  501  0.00000000000E+00  0.00000000000E+00  0.72997267564E+03  0.72997267565E+03  0.25500000920E-02 0. -1.
        2   -1    0    0  501    0  0.00000000000E+00  0.00000000000E+00 -0.16502952122E+04  0.16502952122E+04  0.25500000920E-02 0.  1.
    10030    2    1    2    0    0  0.00000000000E+00  0.00000000000E+00 -0.92032253660E+03  0.23802678879E+04  0.21951495728E+04 0.  0.
        4    1    3    3  502    0  0.24456267398E+03 -0.37768366830E+03  0.62536846588E+03  0.77041753992E+03  0.12699999809E+01 0. -1.
       -4    1    3    3    0  502 -0.24456267398E+03  0.37768366830E+03 -0.15456910025E+04  0.16098503480E+04  0.12699999809E+01 0.  1.
</event>
<event>
 5   0  0.9963173E-06  0.2200674E+04  0.7818609E-02  0.8518148E-01
        2   -1    0    0  501    0  0.00000000000E+00  0.00000000000E+00  0.12509679335E+04  0.12509679335E+04  0.25500000920E-02 0.  1.
       -2   -1    0    0    0  501  0.00000000000E+00  0.00000000000E+00 -0.96784389471E+03  0.96784389471E+03  0.25500000920E-02 0. -1.
    10030    2    1    2    0    0  0.00000000000E+00  0.00000000000E+00  0.28312403879E+03  0.22188118282E+04  0.22006741484E+04 0.  0.
        4    1    3    3  502    0  0.10654705754E+04 -0.26469755998E+03  0.21597900336E+03  0.11189016437E+04  0.12699999809E+01 0.  1.
       -4    1    3    3    0  502 -0.10654705754E+04  0.26469755998E+03  0.67145035430E+02  0.10999101845E+04  0.12699999809E+01 0. -1.
</event>
<event>
 5   0  0.4794967E-06  0.2202176E+04  0.7818609E-02  0.8517523E-01
       -1   -1    0    0    0  501  0.00000000000E+00  0.00000000000E+00  0.99792722299E+03  0.99792722300E+03  0.50400001928E-02 0.  1.
        1   -1    0    0  501    0  0.00000000000E+00  0.00000000000E+00 -0.12149126728E+04  0.12149126728E+04  0.50400001928E-02 0. -1.
    10030    2    1    2    0    0  0.00000000000E+00  0.00000000000E+00 -0.21698544979E+03  0.22128398958E+04  0.22021756785E+04 0.  0.
        5    1    3    3  502    0 -0.81781350079E+01  0.63563223229E+03 -0.10118887482E+04  0.11950046633E+04  0.46999998093E+01 0. -1.
       -5    1    3    3    0  502  0.81781350079E+01 -0.63563223229E+03  0.79490329842E+03  0.10178352325E+04  0.46999998093E+01 0.  1.
</event>
<event>
 5   0  0.4462201E-06  0.2192746E+04  0.7818609E-02  0.8521454E-01
        1   -1    0    0  501    0  0.00000000000E+00  0.00000000000E+00  0.30264043483E+04  0.30264043483E+04  0.50400001928E-02 0.  1.
       -1   -1    0    0    0  501  0.00000000000E+00  0.00000000000E+00 -0.39718206247E+03  0.39718206251E+03  0.50400001928E-02 0. -1.
    10030    2    1    2    0    0  0.00000000000E+00  0.00000000000E+00  0.26292222858E+04  0.34235864108E+04  0.21927457864E+04 0.  0.
        3    1    3    3  502    0 -0.99241390425E+03 -0.37770619028E+02  0.58944126102E+03  0.11548822396E+04  0.10100000352E+00 0. -1.
       -3    1    3    3    0  502  0.99241390425E+03  0.37770619028E+02  0.20397810248E+04  0.22687041712E+04  0.10100000352E+00 0.  1.
</event>
<event>
 5   0  0.9963173E-06  0.2196667E+04  0.7818609E-02  0.8519817E-01
        2   -1    0    0  501    0  0.00000000000E+00  0.00000000000E+00  0.94884705768E+03  0.94884705768E+03  0.25500000920E-02 0. -1.
       -2   -1    0    0    0  501  0.00000000000E+00  0.00000000000E+00 -0.12713709731E+04  0.12713709731E+04  0.25500000920E-02 0.  1.
    10030    2    1    2    0    0  0.00000000000E+00  0.00000000000E+00 -0.32252391543E+03  0.22202180308E+04  0.21966671182E+04 0.  0.
        4    1    3    3  502    0 -0.13443500496E+03  0.84337786495E+03 -0.85930088107E+03  0.12115108793E+04  0.12699999809E+01 0.  1.
       -4    1    3    3    0  502  0.13443500496E+03 -0.84337786495E+03  0.53677696564E+03  0.10087071514E+04  0.12699999809E+01 0. -1.
</event>
<event>
 5   0  0.1015876E-05  0.2203228E+04  0.7818609E-02  0.8517086E-01
        2   -1    0    0  501    0  0.00000000000E+00  0.00000000000E+00  0.16443864625E+04  0.16443864625E+04  0.25500000920E-02 0. -1.
       -2   -1    0    0    0  501  0.00000000000E+00  0.00000000000E+00 -0.73799768331E+03  0.73799768331E+03  0.25500000920E-02 0.  1.
    10030    2    1    2    0    0  0.00000000000E+00  0.00000000000E+00  0.90638877918E+03  0.23823841458E+04  0.22032279953E+04 0.  0.
        5    1    3    3  502    0  0.37105992844E+03  0.10148485301E+04  0.22145890757E+03  0.11030272650E+04  0.46999998093E+01 0. -1.
       -5    1    3    3    0  502 -0.37105992844E+03 -0.10148485301E+04  0.68492987161E+03  0.12793568808E+04  0.46999998093E+01 0.  1.
</event>
<event>
 5   0  0.4794967E-06  0.2198000E+04  0.7818609E-02  0.8519261E-01
       -1   -1    0    0    0  501  0.00000000000E+00  0.00000000000E+00  0.95872808795E+03  0.95872808797E+03  0.50400001928E-02 0.  1.
        1   -1    0    0  501    0  0.00000000000E+00  0.00000000000E+00 -0.12597947977E+04  0.12597947977E+04  0.50400001928E-02 0. -1.
    10030    2    1    2    0    0  0.00000000000E+00  0.00000000000E+00 -0.30106670978E+03  0.22185228857E+04  0.21979996885E+04 0.  0.
        5    1    3    3  502    0  0.54714492541E+03 -0.94798068866E+03 -0.50901943663E+02  0.10957408696E+04  0.46999998093E+01 0.  1.
       -5    1    3    3    0  502 -0.54714492541E+03  0.94798068866E+03 -0.25016476612E+03  0.11227820161E+04  0.46999998093E+01 0. -1.
</event>
<event>
 5   0  0.4462201E-06  0.2218642E+04  0.7818609E-02  0.8510709E-01
        1   -1    0    0  501    0  0.00000000000E+00  0.00000000000E+00  0.12944499659E+04  0.12944499659E+04  0.50400001928E-02 0.  1.
       -1   -1    0    0    0  501  0.00000000000E+00  0.00000000000E+00 -0.95066841956E+03  0.95066841958E+03  0.50400001928E-02 0. -1.
    10030    2    1    2    0    0  0.00000000000E+00  0.00000000000E+00  0.34378154637E+03  0.22451183855E+04  0.22186416595E+04 0.  0.
        3    1    3    3  502    0  0.75961690958E+03 -0.57414016373E+03 -0.40405682957E+03  0.10343677821E+04  0.10100000352E+00 0. -1.
       -3    1    3    3    0  502 -0.75961690958E+03  0.57414016373E+03  0.74783837594E+03  0.12107506034E+04  0.10100000352E+00 0.  1.
</event>
<event>
 5   0  0.9963573E-06  0.2199728E+04  0.7818609E-02  0.8518541E-01
       -2   -1    0    0    0  501  0.00000000000E+00  0.00000000000E+00  0.11078840233E+04  0.11078840233E+04  0.25500000920E-02 0.  1.
        2   -1    0    0  501    0  0.00000000000E+00  0.00000000000E+00 -0.10919025271E+04  0.10919025271E+04  0.25500000920E-02 0. -1.
    10030    2    1    2    0    0  0.00000000000E+00  0.00000000000E+00  0.15981496243E+02  0.21997865504E+04  0.21997284966E+04 0.  0.
        2    1    3    3  502    0  0.27719908603E+03  0.37065921779E+03  0.10057514008E+04  0.11071420276E+04  0.25500000920E-02 0.  1.
       -2    1    3    3    0  502 -0.27719908603E+03 -0.37065921779E+03 -0.98976990459E+03  0.10926445227E+04  0.25500000920E-02 0. -1.
</event>
<event>
 5   0  0.1015876E-05  0.2202848E+04  0.7818609E-02  0.8517244E-01
        2   -1    0    0  501    0  0.00000000000E+00  0.00000000000E+00  0.13734117409E+04  0.13734117409E+04  0.25500000920E-02 0. -1.
       -2   -1    0    0    0  501  0.00000000000E+00  0.00000000000E+00 -0.88330028138E+03  0.88330028138E+03  0.25500000920E-02 0.  1.
    10030    2    1    2    0    0  0.00000000000E+00  0.00000000000E+00  0.49011145957E+03  0.22567120223E+04  0.22028481357E+04 0.  0.
        5    1    3    3  502    0  0.30134026833E+03 -0.94658278213E+03  0.73238479521E+03  0.12341938661E+04  0.46999998093E+01 0. -1.
       -5    1    3    3    0  502 -0.30134026833E+03  0.94658278213E+03 -0.24227333564E+03  0.10225181563E+04  0.46999998093E+01 0.  1.
</event>
<event>
 5   0  0.1014015E-05  0.2199159E+04  0.7818609E-02  0.8518778E-01
       -2   -1    0    0    0  501  0.00000000000E+00  0.00000000000E+00  0.55919254278E+03  0.55919254278E+03  0.25500000920E-02 0. -1.
        2   -1    0    0  501    0  0.00000000000E+00  0.00000000000E+00 -0.21621804186E+04  0.21621804186E+04  0.25500000920E-02 0.  1.
    10030    2    1    2    0    0  0.00000000000E+00  0.00000000000E+00 -0.16029878758E+04  0.27213729614E+04  0.21991590813E+04 0.  0.
        1    1    3    3  502    0  0.48535775884E+03 -0.83569938467E+03 -0.14505530525E+04  0.17430059592E+04  0.50400001928E-02 0.  1.
       -1    1    3    3    0  502 -0.48535775884E+03  0.83569938467E+03 -0.15243482332E+03  0.97836700220E+03  0.50400001928E-02 0. -1.
</event>
<event>
 5   0  0.9963173E-06  0.2200730E+04  0.7818609E-02  0.8518124E-01
        2   -1    0    0  501    0  0.00000000000E+00  0.00000000000E+00  0.19479953085E+04  0.19479953085E+04  0.25500000920E-02 0. -1.
       -2   -1    0    0    0  501  0.00000000000E+00  0.00000000000E+00 -0.62156368660E+03  0.62156368660E+03  0.25500000920E-02 0.  1.
    10030    2    1    2    0    0  0.00000000000E+00  0.00000000000E+00  0.13264316219E+04  0.25695589951E+04  0.22007300111E+04 0.  0.
        4    1    3    3  502    0 -0.44918690327E+03  0.65895097841E+03 -0.22201465491E+03  0.82781482586E+03  0.12699999809E+01 0.  1.
       -4    1    3    3    0  502  0.44918690327E+03 -0.65895097841E+03  0.15484462768E+04  0.17417441692E+04  0.12699999809E+01 0. -1.
</event>
<event>
 5   0  0.1015876E-05  0.2198707E+04  0.7818609E-02  0.8518967E-01
        2   -1    0    0  501    0  0.00000000000E+00  0.00000000000E+00  0.14228373922E+04  0.14228373922E+04  0.25500000920E-02 0.  1.
       -2   -1    0    0    0  501  0.00000000000E+00  0.00000000000E+00 -0.84941381578E+03  0.84941381578E+03  0.25500000920E-02 0. -1.
    10030    2    1    2    0    0  0.00000000000E+00  0.00000000000E+00  0.57342357641E+03  0.22722512080E+04  0.21987066549E+04 0.  0.
        5    1    3    3  502    0 -0.83446537618E+03  0.36256043727E+03 -0.35099668844E+03  0.97519398071E+03  0.46999998093E+01 0. -1.
       -5    1    3    3    0  502  0.83446537618E+03 -0.36256043727E+03  0.92442026485E+03  0.12970572273E+04  0.46999998093E+01 0.  1.
</event>
<event>
 5   0  0.1035928E-05  0.2199584E+04  0.7818609E-02  0.8518601E-01
        2   -1    0    0  501    0  0.00000000000E+00  0.00000000000E+00  0.12836001235E+04  0.12836001235E+04  0.25500000920E-02 0.  1.
       -2   -1    0    0    0  501  0.00000000000E+00  0.00000000000E+00 -0.94230437729E+03  0.94230437729E+03  0.25500000920E-02 0. -1.
    10030    2    1    2    0    0  0.00000000000E+00  0.00000000000E+00  0.34129574619E+03  0.22259045008E+04  0.21995836106E+04 0.  0.
        3    1    3    3  502    0 -0.94011885278E+03  0.56661174162E+03  0.10149508506E+03  0.11023491215E+04  0.10100000352E+00 0. -1.
       -3    1    3    3    0  502  0.94011885278E+03 -0.56661174162E+03  0.23980066113E+03  0.11235553793E+04  0.10100000352E+00 0.  1.
</event>
<event>
 5   0  0.4309945E-06  0.2198736E+04  0.7818609E-02  0.8518954E-01
       -1   -1    0    0    0  501  0.00000000000E+00  0.00000000000E+00  0.49730083852E+03  0.49730083855E+03  0.50400001928E-02 0. -1.
        1   -1    0    0  501    0  0.00000000000E+00  0.00000000000E+00 -0.24303407836E+04  0.24303407836E+04  0.50400001928E-02 0.  1.
    10030    2    1    2    0    0  0.00000000000E+00  0.00000000000E+00 -0.19330399451E+04  0.29276416222E+04  0.21987364641E+04 0.  0.
        4    1    3    3  502    0 -0.50978341939E+03  0.69200622260E+03 -0.53820805834E+02  0.86119105826E+03  0.12699999809E+01 0.  1.
       -4    1    3    3    0  502  0.50978341939E+03 -0.69200622260E+03 -0.18792191393E+04  0.20664505639E+04  0.12699999809E+01 0. -1.
</event>
<event>
 5   0  0.1015876E-05  0.2199623E+04  0.7818609E-02  0.8518585E-01
       -2   -1    0    0    0  501  0.00000000000E+00  0.00000000000E+00  0.67922159267E+03  0.67922159267E+03  0.25500000920E-02 0.  1.
        2   -1    0    0  501    0  0.00000000000E+00  0.00000000000E+00 -0.17808398010E+04  0.17808398010E+04  0.25500000920E-02 0. -1.
    10030    2    1    2    0    0  0.00000000000E+00  0.00000000000E+00 -0.11016182083E+04  0.24600613937E+04  0.21996225548E+04 0.  0.
        5    1    3    3  502    0 -0.10727145039E+04  0.24217649577E+03 -0.56650238993E+03  0.12370581675E+04  0.46999998093E+01 0. -1.
       -5    1    3    3    0  502  0.10727145039E+04 -0.24217649577E+03 -0.53511581842E+03  0.12230032262E+04  0.46999998093E+01 0.  1.
</event>
<event>
 5   0  0.4794967E-06  0.2214363E+04  0.7818609E-02  0.8512473E-01
        1   -1    0    0  501    0  0.00000000000E+00  0.00000000000E+00  0.18590646837E+04  0.18590646837E+04  0.50400001928E-02 0. -1.
       -1   -1    0    0    0  501  0.00000000000E+00  0.00000000000E+00 -0.65939136157E+03  0.65939136159E+03  0.50400001928E-02 0.  1.
    10030    2    1    2    0    0  0.00000000000E+00  0.00000000000E+00  0.11996733221E+04  0.25184560453E+04  0.22143632882E+04 0.  0.
        5    1    3    3  502    0 -0.67929344381E+03 -0.65995169359E+03 -0.52372047396E+02  0.94854664726E+03  0.46999998093E+01 0.  1.
       -5    1    3    3    0  502  0.67929344381E+03  0.65995169359E+03  0.12520453695E+04  0.15699093980E+04  0.46999998093E+01 0. -1.
</event>
<event>
 5   0  0.4794967E-06  0.2195688E+04  0.7818609E-02  0.8520225E-01
       -1   -1    0    0    0  501  0.00000000000E+00  0.00000000000E+00  0.87197810587E+03  0.87197810588E+03  0.50400001928E-02 0.  1.
        1   -1    0    0  501    0  0.00000000000E+00  0.00000000000E+00 -0.13822157855E+04  0.13822157855E+04  0.50400001928E-02 0. -1.
    10030    2    1    2    0    0  0.00000000000E+00  0.00000000000E+00 -0.51023767967E+03  0.22541938914E+04  0.21956884138E+04 0.  0.
        5    1    3    3  502    0  0.90534154336E+02  0.86531064567E+03 -0.94249688945E+03  0.12826852393E+04  0.46999998093E+01 0. -1.
       -5    1    3    3    0  502 -0.90534154336E+02 -0.86531064567E+03  0.43225920978E+03  0.97150865208E+03  0.46999998093E+01 0.  1.
</event>
<event>
 5   0  0.4794967E-06  0.2200855E+04  0.7818609E-02  0.8518072E-01
        1   -1    0    0  501    0  0.00000000000E+00  0.00000000000E+00  0.13496628437E+04  0.13496628437E+04  0.50400001928E-02 0. -1.
       -1   -1    0    0    0  501  0.00000000000E+00  0.00000000000E+00 -0.89721736630E+03  0.89721736632E+03  0.50400001928E-02 0.  1.
    10030    2    1    2    0    0  0.00000000000E+00  0.00000000000E+00  0.45244547739E+03  0.22468802100E+04  0.22008552356E+04 0.  0.
        5    1    3    3  502    0  0.11682524954E+03  0.44188863304E+03 -0.79571260282E+03  0.91765698342E+03  0.46999998093E+01 0.  1.
       -5    1    3    3    0  502 -0.11682524954E+03 -0.44188863304E+03  0.12481580802E+04  0.13292232266E+04  0.46999998093E+01 0. -1.
</event>
<event>
 5   0  0.4408787E-06  0.2203425E+04  0.7818609E-02  0.8517004E-01
       -1   -1    0    0    0  501  0.00000000000E+00  0.00000000000E+00  0.62724274390E+03  0.62724274392E+03  0.50400001928E-02 0. -1.
        1   -1    0    0  501    0  0.00000000000E+00  0.00000000000E+00 -0.19350882649E+04  0.19350882650E+04  0.50400001928E-02 0.  1.
    10030    2    1    2    0    0  0.00000000000E+00  0.00000000000E+00 -0.13078455211E+04  0.25623310089E+04  0.22034246736E+04 0.  0.
        1    1    3    3  502    0 -0.97508124497E+03  0.47796988006E+03 -0.87001756300E+03  0.13914629713E+04  0.50400001928E-02 0. -1.
       -1    1    3    3    0  502  0.97508124497E+03 -0.47796988006E+03 -0.43782795805E+03  0.11708680376E+04  0.50400001928E-02 0.  1.
</event>
<event>
 5   0  0.1035928E-05  0.2198044E+04  0.7818609E-02  0.8519243E-01
       -2   -1    0    0    0  501  0.00000000000E+00  0.00000000000E+00  0.11117676620E+04  0.11117676620E+04  0.25500000920E-02 0. -1.
        2   -1    0    0  501    0  0.00000000000E+00  0.00000000000E+00 -0.10864219997E+04  0.10864219997E+04  0.25500000920E-02 0.  1.
    10030    2    1    2    0    0  0.00000000000E+00  0.00000000000E+00  0.25345662314E+02  0.21981896617E+04  0.21980435360E+04 0.  0.
        3    1    3    3  502    0  0.61426005568E+03  0.85416415004E+03 -0.30505416820E+03  0.10954313611E+04  0.10100000352E+00 0.  1.
       -3    1    3    3    0  502 -0.61426005568E+03 -0.85416415004E+03  0.33039983051E+03  0.11027583005E+04  0.10100000352E+00 0. -1.
</event>
<event>
 5   0  0.3546750E-06  0.2198745E+04  0.7818609E-02  0.8518951E-01
       -4   -1    0    0    0  501  0.00000000000E+00  0.00000000000E+00  0.16589329087E+04  0.16589333948E+04  0.12699999809E+01 0.  1.
        4   -1    0    0  501    0  0.00000000000E+00  0.00000000000E+00 -0.72855118219E+03  0.72855228911E+03  0.12699999809E+01 0. -1.
    10030    2    1    2    0    0  0.00000000000E+00  0.00000000000E+00  0.93038172649E+03  0.23874856839E+04  0.21987445813E+04 0.  0.
        4    1    3    3  502    0  0.37491045048E+03 -0.24619918991E+03  0.15550663084E+04  0.16184575136E+04  0.12699999809E+01 0.  1.
       -4    1    3    3    0  502 -0.37491045048E+03  0.24619918991E+03 -0.62468458189E+03  0.76902817031E+03  0.12699999809E+01 0. -1.
</event>
<event>
 5   0  0.4309945E-06  0.2203228E+04  0.7818609E-02  0.8517086E-01
       -1   -1    0    0    0  501  0.00000000000E+00  0.00000000000E+00  0.49551193498E+03  0.49551193500E+03  0.50400001928E-02 0. -1.
        1   -1    0    0  501    0  0.00000000000E+00  0.00000000000E+00 -0.24490910446E+04  0.24490910446E+04  0.50400001928E-02 0.  1.
    10030    2    1    2    0    0  0.00000000000E+00  0.00000000000E+00 -0.19535791097E+04  0.29446029796E+04  0.22032283971E+04 0.  0.
        4    1    3    3  502    0 -0.49179118758E+03 -0.24567169723E+03  0.29908278546E+03  0.62583167103E+03  0.12699999809E+01 0. -1.
       -4    1    3    3    0  502  0.49179118758E+03  0.24567169723E+03 -0.22526618951E+04  0.23187713086E+04  0.12699999809E+01 0.  1.
</event>
<event>
 5   0  0.9963573E-06  0.2200626E+04  0.7818609E-02  0.8518168E-01
       -2   -1    0    0    0  501  0.00000000000E+00  0.00000000000E+00  0.18052997049E+04  0.18052997049E+04  0.25500000920E-02 0.  1.
        2   -1    0    0  501    0  0.00000000000E+00  0.00000000000E+00 -0.67063013922E+03  0.67063013922E+03  0.25500000920E-02 0. -1.
    10030    2    1    2    0    0  0.00000000000E+00  0.00000000000E+00  0.11346695656E+04  0.24759298441E+04  0.22006257223E+04 0.  0.
        2    1    3    3  502    0  0.62674617956E+03  0.87984441635E+03  0.33199885441E+03  0.11301151313E+04  0.25500000920E-02 0. -1.
       -2    1    3    3    0  502 -0.62674617956E+03 -0.87984441635E+03  0.80267071123E+03  0.13458147128E+04  0.25500000920E-02 0.  1.
</event>
<event>
 5   0  0.9963573E-06  0.2199741E+04  0.7818609E-02  0.8518536E-01
        2   -1    0    0  501    0  0.00000000000E+00  0.00000000000E+00  0.12644583806E+04  0.12644583806E+04  0.25500000920E-02 0. -1.
       -2   -1    0    0    0  501  0.00000000000E+00  0.00000000000E+00 -0.95670602757E+03  0.95670602758E+03  0.25500000920E-02 0.  1.
    10030    2    1    2    0    0  0.00000000000E+00  0.00000000000E+00  0.30775235306E+03  0.22211644082E+04  0.21997408524E+04 0.  0.
        2    1    3    3  502    0  0.27947555660E+03 -0.20183422749E+02  0.12278138436E+04  0.12593811147E+04  0.25500000920E-02 0. -1.
       -2    1    3    3    0  502 -0.27947555660E+03  0.20183422749E+02 -0.92006149059E+03  0.96178329356E+03  0.25500000920E-02 0.  1.
</event>
<event>
 5   0  0.4408787E-06  0.2200189E+04  0.7818609E-02  0.8518349E-01
       -1   -1    0    0    0  501  0.00000000000E+00  0.00000000000E+00  0.79116027362E+03  0.79116027364E+03  0.50400001928E-02 0.  1.
        1   -1    0    0  501    0  0.00000000000E+00  0.00000000000E+00 -0.15296627286E+04  0.15296627286E+04  0.50400001928E-02 0. -1.
    10030    2    1    2    0    0  0.00000000000E+00  0.00000000000E+00 -0.73850245499E+03  0.23208230023E+04  0.22001894309E+04 0.  0.
        1    1    3    3  502    0  0.44599908748E+03 -0.52526942977E+03 -0.12738154272E+04  0.14482502900E+04  0.50400001928E-02 0. -1.
       -1    1    3    3    0  502 -0.44599908748E+03  0.52526942977E+03  0.53531297223E+03  0.87257271224E+03  0.50400001928E-02 0.  1.
</event>
<event>
 5   0  0.1015876E-05  0.2183988E+04  0.7818609E-02  0.8525123E-01
        2   -1    0    0  501    0  0.00000000000E+00  0.00000000000E+00  0.11422800013E+04  0.11422800013E+04  0.25500000920E-02 0.  1.
       -2   -1    0    0    0  501  0.00000000000E+00  0.00000000000E+00 -0.10439213075E+04  0.10439213075E+04  0.25500000920E-02 0. -1.
    10030    2    1    2    0    0  0.00000000000E+00  0.00000000000E+00  0.98358693801E+02  0.21862013089E+04  0.21839875756E+04 0.  0.
        5    1    3    3  502    0  0.98639187093E+03 -0.33486894712E+03 -0.27875339916E+03  0.10783467357E+04  0.46999998093E+01 0.  1.
       -5    1    3    3    0  502 -0.98639187093E+03  0.33486894712E+03  0.37711209296E+03  0.11078545732E+04  0.46999998093E+01 0. -1.
</event>
<event>
 5   0  0.4462201E-06  0.2187346E+04  0.7818609E-02  0.8523713E-01
       -1   -1    0    0    0  501  0.00000000000E+00  0.00000000000E+00  0.48500778246E+03  0.48500778249E+03  0.50400001928E-02 0. -1.
        1   -1    0    0  501    0  0.00000000000E+00  0.00000000000E+00 -0.24661889273E+04  0.24661889273E+04  0.50400001928E-02 0.  1.
    10030    2    1    2    0    0  0.00000000000E+00  0.00000000000E+00 -0.19811811449E+04  0.29511967098E+04  0.21873461755E+04 0.  0.
        3    1    3    3  502    0 -0.59217829118E+03  0.41191583314E+03  0.11853424231E+03  0.73102678401E+03  0.10100000352E+00 0. -1.
       -3    1    3    3    0  502  0.59217829118E+03 -0.41191583314E+03 -0.20997153872E+04  0.22201699258E+04  0.10100000352E+00 0.  1.
</event>
<event>
 5   0  0.9963173E-06  0.2202707E+04  0.7818609E-02  0.8517302E-01
        2   -1    0    0  501    0  0.00000000000E+00  0.00000000000E+00  0.84977036492E+03  0.84977036493E+03  0.25500000920E-02 0.  1.
       -2   -1    0    0    0  501  0.00000000000E+00  0.00000000000E+00 -0.14274208004E+04  0.14274208004E+04  0.25500000920E-02 0. -1.
    10030    2    1    2    0    0  0.00000000000E+00  0.00000000000E+00 -0.57765043546E+03  0.22771911653E+04  0.22027073291E+04 0.  0.
        4    1    3    3  502    0  0.66697654227E+03 -0.84278445362E+03 -0.40204204615E+02  0.10755283977E+04  0.12699999809E+01 0.  1.
       -4    1    3    3    0  502 -0.66697654227E+03  0.84278445362E+03 -0.53744623084E+03  0.12016627676E+04  0.12699999809E+01 0. -1.
</event>
<event>
 5   0  0.3546750E-06  0.2200796E+04  0.7818609E-02  0.8518097E-01
        4   -1    0    0  501    0  0.00000000000E+00  0.00000000000E+00  0.16245648789E+04  0.16245653753E+04  0.12699999809E+01 0.  1.
       -4   -1    0    0    0  501  0.00000000000E+00  0.00000000000E+00 -0.74535283225E+03  0.74535391422E+03  0.12699999809E+01 0. -1.
    10030    2    1    2    0    0  0.00000000000E+00  0.00000000000E+00  0.87921204665E+03  0.23699192895E+04  0.22007961323E+04 0.  0.
        4    1    3    3  502    0 -0.10100773706E+04  0.27216659966E+03  0.80722461683E+03  0.13213417981E+04  0.12699999809E+01 0.  1.
       -4    1    3    3    0  502  0.10100773706E+04 -0.27216659966E+03  0.71987429829E+02  0.10485774914E+04  0.12699999809E+01 0. -1.
</event>
<event>
 5   0  0.4408787E-06  0.2195701E+04  0.7818609E-02  0.8520220E-01
       -1   -1    0    0    0  501  0.00000000000E+00  0.00000000000E+00  0.53150765541E+03  0.53150765543E+03  0.50400001928E-02 0.  1.
        1   -1    0    0  501    0  0.00000000000E+00  0.00000000000E+00 -0.22676547204E+04  0.22676547204E+04  0.50400001928E-02 0. -1.
    10030    2    1    2    0    0  0.00000000000E+00  0.00000000000E+00 -0.17361470650E+04  0.27991623758E+04  0.21957011124E+04 0.  0.
        1    1    3    3  502    0  0.36316476291E+03 -0.24433166810E+03  0.41546020146E+03  0.60348470410E+03  0.50400001928E-02 0.  1.
       -1    1    3    3    0  502 -0.36316476291E+03  0.24433166810E+03 -0.21516072664E+04  0.21956776717E+04  0.50400001928E-02 0. -1.
</event>
<event>
 5   0  0.4408787E-06  0.2199517E+04  0.7818609E-02  0.8518629E-01
       -1   -1    0    0    0  501  0.00000000000E+00  0.00000000000E+00  0.12099145937E+04  0.12099145937E+04  0.50400001928E-02 0. -1.
        1   -1    0    0  501    0  0.00000000000E+00  0.00000000000E+00 -0.99963166198E+03  0.99963166199E+03  0.50400001928E-02 0.  1.
    10030    2    1    2    0    0  0.00000000000E+00  0.00000000000E+00  0.21028293170E+03  0.22095462557E+04  0.21995171617E+04 0.  0.
        1    1    3    3  502    0  0.85450467563E+03  0.59380762478E+03  0.46269020895E+03  0.11388011088E+04  0.50400001928E-02 0.  1.
       -1    1    3    3    0  502 -0.85450467563E+03 -0.59380762478E+03 -0.25240727725E+03  0.10707451469E+04  0.50400001928E-02 0. -1.
</event>
<event>
 5   0  0.4462201E-06  0.2199243E+04  0.7818609E-02  0.8518743E-01
       -1   -1    0    0    0  501  0.00000000000E+00  0.00000000000E+00  0.99345734662E+03  0.99345734663E+03  0.50400001928E-02 0.  1.
        1   -1    0    0  501    0  0.00000000000E+00  0.00000000000E+00 -0.12171308786E+04  0.12171308786E+04  0.50400001928E-02 0. -1.
    10030    2    1    2    0    0  0.00000000000E+00  0.00000000000E+00 -0.22367353194E+03  0.22105882252E+04  0.21992431545E+04 0.  0.
        3    1    3    3  502    0  0.10250038913E+04  0.37119017849E+03 -0.25663710398E+03  0.11199454179E+04  0.10100000352E+00 0.  1.
       -3    1    3    3    0  502 -0.10250038913E+04 -0.37119017849E+03  0.32963572038E+02  0.10906428073E+04  0.10100000352E+00 0. -1.
</event>
<event>
 5   0  0.9963173E-06  0.2196979E+04  0.7818609E-02  0.8519686E-01
        2   -1    0    0  501    0  0.00000000000E+00  0.00000000000E+00  0.12922539666E+04  0.12922539666E+04  0.25500000920E-02 0. -1.
       -2   -1    0    0    0  501  0.00000000000E+00  0.00000000000E+00 -0.93377891820E+03  0.93377891820E+03  0.25500000920E-02 0.  1.
    10030    2    1    2    0    0  0.00000000000E+00  0.00000000000E+00  0.35847504844E+03  0.22260328848E+04  0.21969792999E+04 0.  0.
        4    1    3    3  502    0  0.90034873124E+03  0.45161711459E+03 -0.26484153835E+03  0.10415030050E+04  0.12699999809E+01 0.  1.
       -4    1    3    3    0  502 -0.90034873124E+03 -0.45161711459E+03  0.62331658679E+03  0.11845298799E+04  0.12699999809E+01 0. -1.
</event>
<event>
 5   0  0.1014015E-05  0.2203841E+04  0.7818609E-02  0.8516831E-01
        2   -1    0    0  501    0  0.00000000000E+00  0.00000000000E+00  0.68337228876E+03  0.68337228876E+03  0.25500000920E-02 0.  1.
       -2   -1    0    0    0  501  0.00000000000E+00  0.00000000000E+00 -0.17768187240E+04  0.17768187240E+04  0.25500000920E-02 0. -1.
    10030    2    1    2    0    0  0.00000000000E+00  0.00000000000E+00 -0.10934464353E+04  0.24601910128E+04  0.22038409000E+04 0.  0.
        1    1    3    3  502    0 -0.44091182541E+03 -0.10081429934E+04 -0.61251172889E+03  0.12593355990E+04  0.50400001928E-02 0. -1.
       -1    1    3    3    0  502  0.44091182541E+03  0.10081429934E+04 -0.48093470639E+03  0.12008554138E+04  0.50400001928E-02 0.  1.
</event>
<event>
 5   0  0.3546750E-06  0.2198371E+04  0.7818609E-02  0.8519107E-01
        4   -1    0    0  501    0  0.00000000000E+00  0.00000000000E+00  0.12414398239E+04  0.12414404735E+04  0.12699999809E+01 0. -1.
       -4   -1    0    0    0  501  0.00000000000E+00  0.00000000000E+00 -0.97323037326E+03  0.97323120190E+03  0.12699999809E+01 0.  1.
    10030    2    1    2    0    0  0.00000000000E+00  0.00000000000E+00  0.26820945059E+03  0.22146716754E+04  0.21983708332E+04 0.  0.
        1    1    3    3  502    0  0.98605933426E+03  0.42770428583E+03 -0.97742178507E+02  0.10792578470E+04  0.50400001928E-02 0. -1.
       -1    1    3    3    0  502 -0.98605933426E+03 -0.42770428583E+03  0.36595162910E+03  0.11354138284E+04  0.50400001928E-02 0.  1.
</event>
<event>
 5   0  0.4630615E-06  0.2165351E+04  0.7818609E-02  0.8532990E-01
        1   -1    0    0  501    0  0.00000000000E+00  0.00000000000E+00  0.27759470500E+04  0.27759470500E+04  0.50400001928E-02 0.  1.
       -1   -1    0    0    0  501  0.00000000000E+00  0.00000000000E+00 -0.42226541078E+03  0.42226541081E+03  0.50400001928E-02 0. -1.
    10030    2    1    2    0    0  0.00000000000E+00  0.00000000000E+00  0.23536816393E+04  0.31982124609E+04  0.21653511692E+04 0.  0.
        2    1    3    3  502    0 -0.38114558323E+02 -0.69496436710E+02  0.27716559915E+04  0.27727891030E+04  0.25500000920E-02 0.  1.
       -2    1    3    3    0  502  0.38114558323E+02  0.69496436710E+02 -0.41797435226E+03  0.42542335788E+03  0.25500000920E-02 0. -1.
</event>
<event>
 5   0  0.4794967E-06  0.2202649E+04  0.7818609E-02  0.8517326E-01
       -1   -1    0    0    0  501  0.00000000000E+00  0.00000000000E+00  0.68615825160E+03  0.68615825162E+03  0.50400001928E-02 0. -1.
        1   -1    0    0  501    0  0.00000000000E+00  0.00000000000E+00 -0.17676905715E+04  0.17676905715E+04  0.50400001928E-02 0.  1.
    10030    2    1    2    0    0  0.00000000000E+00  0.00000000000E+00 -0.10815323199E+04  0.24538488231E+04  0.22026488344E+04 0.  0.
        5    1    3    3  502    0 -0.31653732166E+03 -0.80382012351E+02  0.63096095491E+03  0.71048642530E+03  0.46999998093E+01 0. -1.
       -5    1    3    3    0  502  0.31653732166E+03  0.80382012351E+02 -0.17124932748E+04  0.17433623978E+04  0.46999998093E+01 0.  1.
</event>
<event>
 5   0  0.9963173E-06  0.2205119E+04  0.7818609E-02  0.8516300E-01
       -2   -1    0    0    0  501  0.00000000000E+00  0.00000000000E+00  0.11802625357E+04  0.11802625357E+04  0.25500000920E-02 0.  1.
        2   -1    0    0  501    0  0.00000000000E+00  0.00000000000E+00 -0.10299722986E+04  0.10299722986E+04  0.25500000920E-02 0. -1.
    10030    2    1    2    0    0  0.00000000000E+00  0.00000000000E+00  0.15029023715E+03  0.22102348343E+04  0.22051192410E+04 0.  0.
        4    1    3    3  502    0 -0.28068860716E+03  0.30643483831E+03  0.10987623917E+04  0.11747207373E+04  0.12699999809E+01 0.  1.
       -4    1    3    3    0  502  0.28068860716E+03 -0.30643483831E+03 -0.94847215451E+03  0.10355140970E+04  0.12699999809E+01 0. -1.
</event>
<event>
 5   0  0.4462201E-06  0.2199552E+04  0.7818609E-02  0.8518614E-01
       -1   -1    0    0    0  501  0.00000000000E+00  0.00000000000E+00  0.76214267052E+03  0.76214267054E+03  0.50400001928E-02 0.  1.
        1   -1    0    0  501    0  0.00000000000E+00  0.00000000000E+00 -0.15869833353E+04  0.15869833354E+04  0.50400001928E-02 0. -1.
    10030    2    1    2    0    0  0.00000000000E+00  0.00000000000E+00 -0.82484066482E+03  0.23491260059E+04  0.21995524247E+04 0.  0.
        3    1    3    3  502    0 -0.48444044249E+03  0.61285592291E+03 -0.12391619066E+04  0.14648539741E+04  0.10100000352E+00 0. -1.
       -3    1    3    3    0  502  0.48444044249E+03 -0.61285592291E+03  0.41432124177E+03  0.88427203176E+03  0.10100000352E+00 0.  1.
</event>
<event>
 5   0  0.9963173E-06  0.2202595E+04  0.7818609E-02  0.8517349E-01
        2   -1    0    0  501    0  0.00000000000E+00  0.00000000000E+00  0.15790626722E+04  0.15790626722E+04  0.25500000920E-02 0.  1.
       -2   -1    0    0    0  501  0.00000000000E+00  0.00000000000E+00 -0.76808621724E+03  0.76808621725E+03  0.25500000920E-02 0. -1.
    10030    2    1    2    0    0  0.00000000000E+00  0.00000000000E+00  0.81097645500E+03  0.23471488895E+04  0.22025950828E+04 0.  0.
        4    1    3    3  502    0  0.28427145622E+03  0.85936044559E+03  0.10739901123E+04  0.14045522456E+04  0.12699999809E+01 0. -1.
       -4    1    3    3    0  502 -0.28427145622E+03 -0.85936044559E+03 -0.26301365734E+03  0.94259664391E+03  0.12699999809E+01 0.  1.
</event>
<event>
 5   0  0.4462201E-06  0.2195085E+04  0.7818609E-02  0.8520477E-01
        1   -1    0    0  501    0  0.00000000000E+00  0.00000000000E+00  0.18040832146E+04  0.18040832146E+04  0.50400001928E-02 0.  1.
       -1   -1    0    0    0  501  0.00000000000E+00  0.00000000000E+00 -0.66770716732E+03  0.66770716734E+03  0.50400001928E-02 0. -1.
    10030    2    1    2    0    0  0.00000000000E+00  0.00000000000E+00  0.11363760473E+04  0.24717903820E+04  0.21950847755E+04 0.  0.
        3    1    3    3  502    0 -0.29806218530E+03 -0.99860426557E+03  0.18047804864E+03  0.10576501698E+04  0.10100000352E+00 0. -1.
       -3    1    3    3    0  502  0.29806218530E+03  0.99860426557E+03  0.95589799863E+03  0.14141402121E+04  0.10100000352E+00 0.  1.
</event>
<event>
 5   0  0.4408787E-06  0.2202036E+04  0.7818609E-02  0.8517581E-01
       -1   -1    0    0    0  501  0.00000000000E+00  0.00000000000E+00  0.11262207556E+04  0.11262207557E+04  0.50400001928E-02 0.  1.
        1   -1    0    0  501    0  0.00000000000E+00  0.00000000000E+00 -0.10763789651E+04  0.10763789651E+04  0.50400001928E-02 0. -1.
    10030    2    1    2    0    0  0.00000000000E+00  0.00000000000E+00  0.49841790576E+02  0.22025997207E+04  0.22020357231E+04 0.  0.
        1    1    3    3  502    0  0.10998158260E+04  0.48533920721E+02  0.78889464835E+01  0.11009144509E+04  0.50400001928E-02 0. -1.
       -1    1    3    3    0  502 -0.10998158260E+04 -0.48533920721E+02  0.41952844092E+02  0.11016852698E+04  0.50400001928E-02 0.  1.
</event>
<event>
 5   0  0.9963173E-06  0.2197126E+04  0.7818609E-02  0.8519625E-01
        2   -1    0    0  501    0  0.00000000000E+00  0.00000000000E+00  0.17522027233E+04  0.17522027233E+04  0.25500000920E-02 0.  1.
       -2   -1    0    0    0  501  0.00000000000E+00  0.00000000000E+00 -0.68875659829E+03  0.68875659829E+03  0.25500000920E-02 0. -1.
    10030    2    1    2    0    0  0.00000000000E+00  0.00000000000E+00  0.10634461250E+04  0.24409593216E+04  0.21971264754E+04 0.  0.
        4    1    3    3  502    0  0.69490555147E+03  0.27264762810E+03  0.14271528575E+04  0.16105891302E+04  0.12699999809E+01 0.  1.
       -4    1    3    3    0  502 -0.69490555147E+03 -0.27264762810E+03 -0.36370673254E+03  0.83037019140E+03  0.12699999809E+01 0. -1.
</event>
<event>
 5   0  0.1014015E-05  0.2199674E+04  0.7818609E-02  0.8518564E-01
        2   -1    0    0  501    0  0.00000000000E+00  0.00000000000E+00  0.14318728254E+04  0.14318728254E+04  0.25500000920E-02 0. -1.
       -2   -1    0    0    0  501  0.00000000000E+00  0.00000000000E+00 -0.84479642213E+03  0.84479642213E+03  0.25500000920E-02 0.  1.
    10030    2    1    2    0    0  0.00000000000E+00  0.00000000000E+00  0.58707640323E+03  0.22766692475E+04  0.21996736484E+04 0.  0.
        1    1    3    3  502    0  0.56991422541E+03 -0.58126282152E+03  0.10590015041E+04  0.13357218564E+04  0.50400001928E-02 0. -1.
       -1    1    3    3    0  502 -0.56991422541E+03  0.58126282152E+03 -0.47192510083E+03  0.94094739111E+03  0.50400001928E-02 0.  1.
</event>
<event>
 5   0  0.9963573E-06  0.2196736E+04  0.7818609E-02  0.8519788E-01
       -2   -1    0    0    0  501  0.00000000000E+00  0.00000000000E+00  0.63817622582E+03  0.63817622582E+03  0.25500000920E-02 0.  1.
        2   -1    0    0  501    0  0.00000000000E+00  0.00000000000E+00 -0.18904065804E+04  0.18904065804E+04  0.25500000920E-02 0. -1.
    10030    2    1    2    0    0  0.00000000000E+00  0.00000000000E+00 -0.12522303546E+04  0.25285828062E+04  0.21967362488E+04 0.  0.
        2    1    3    3  502    0 -0.95533967596E+03 -0.54189414422E+03 -0.63699724671E+03  0.12696805316E+04  0.25500000920E-02 0.  1.
       -2    1    3    3    0  502  0.95533967596E+03  0.54189414422E+03 -0.61523310784E+03  0.12589022746E+04  0.25500000920E-02 0. -1.
</event>
<event>
 5   0  0.9963173E-06  0.2179612E+04  0.7818609E-02  0.8526962E-01
        2   -1    0    0  501    0  0.00000000000E+00  0.00000000000E+00  0.17642983800E+04  0.17642983800E+04  0.25500000920E-02 0. -1.
       -2   -1    0    0    0  501  0.00000000000E+00  0.00000000000E+00 -0.67317221938E+03  0.67317221939E+03  0.25500000920E-02 0.  1.
    10030    2    1    2    0    0  0.00000000000E+00  0.00000000000E+00  0.10911261606E+04  0.24374705994E+04  0.21796115765E+04 0.  0.
        4    1    3    3  502    0 -0.65245923147E+03 -0.64436189237E+03  0.12041011409E+04  0.15135278219E+04  0.12699999809E+01 0. -1.
       -4    1    3    3    0  502  0.65245923147E+03  0.64436189237E+03 -0.11297498031E+03  0.92394277753E+03  0.12699999809E+01 0.  1.
</event>
<event>
 5   0  0.4408787E-06  0.2198488E+04  0.7818609E-02  0.8519058E-01
        1   -1    0    0  501    0  0.00000000000E+00  0.00000000000E+00  0.10143504133E+04  0.10143504133E+04  0.50400001928E-02 0.  1.
       -1   -1    0    0    0  501  0.00000000000E+00  0.00000000000E+00 -0.11912422139E+04  0.11912422140E+04  0.50400001928E-02 0. -1.
    10030    2    1    2    0    0  0.00000000000E+00  0.00000000000E+00 -0.17689180066E+03  0.22055926273E+04  0.21984876912E+04 0.  0.
        1    1    3    3  502    0  0.32410269407E+03 -0.98068120896E+03 -0.46590488188E+03  0.11330690839E+04  0.50400001928E-02 0. -1.
       -1    1    3    3    0  502 -0.32410269407E+03  0.98068120896E+03  0.28901308122E+03  0.10725235434E+04  0.50400001928E-02 0.  1.
</event>
<event>
 5   0  0.4462201E-06  0.2186661E+04  0.7818609E-02  0.8524001E-01
        1   -1    0    0  501    0  0.00000000000E+00  0.00000000000E+00  0.18406612886E+04  0.18406612886E+04  0.50400001928E-02 0.  1.
       -1   -1    0    0    0  501  0.00000000000E+00  0.00000000000E+00 -0.64942502376E+03  0.64942502378E+03  0.50400001928E-02 0. -1.
    10030    2    1    2    0    0  0.00000000000E+00  0.00000000000E+00  0.11912362648E+04  0.24900863124E+04  0.21866609258E+04 0.  0.
        3    1    3    3  502    0  0.71839419557E+03 -0.69679953185E+03  0.10968696477E+04  0.14848376484E+04  0.10100000352E+00 0.  1.
       -3    1    3    3    0  502 -0.71839419557E+03  0.69679953185E+03  0.94366617099E+02  0.10052486640E+04  0.10100000352E+00 0. -1.
</event>
<event>
 5   0  0.9963573E-06  0.2207437E+04  0.7818609E-02  0.8515339E-01
       -2   -1    0    0    0  501  0.00000000000E+00  0.00000000000E+00  0.86311593302E+03  0.86311593302E+03  0.25500000920E-02 0.  1.
        2   -1    0    0  501    0  0.00000000000E+00  0.00000000000E+00 -0.14113919361E+04  0.14113919361E+04  0.25500000920E-02 0. -1.
    10030    2    1    2    0    0  0.00000000000E+00  0.00000000000E+00 -0.54827600310E+03  0.22745078691E+04  0.22074373086E+04 0.  0.
        2    1    3    3  502    0 -0.10555126078E+04  0.24108513669E+03 -0.49504894494E+03  0.11905050887E+04  0.25500000920E-02 0. -1.
       -2    1    3    3    0  502  0.10555126078E+04 -0.24108513669E+03 -0.53227058163E+02  0.10840027805E+04  0.25500000920E-02 0.  1.
</event>
<event>
 5   0  0.4630615E-06  0.2185586E+04  0.7818609E-02  0.8524451E-01
        1   -1    0    0  501    0  0.00000000000E+00  0.00000000000E+00  0.12350359061E+04  0.12350359061E+04  0.50400001928E-02 0. -1.
       -1   -1    0    0    0  501  0.00000000000E+00  0.00000000000E+00 -0.96693299479E+03  0.96693299480E+03  0.50400001928E-02 0.  1.
    10030    2    1    2    0    0  0.00000000000E+00  0.00000000000E+00  0.26810291132E+03  0.22019689009E+04  0.21855863903E+04 0.  0.
        2    1    3    3  502    0 -0.58053833202E+03 -0.92333114041E+03  0.20261905232E+03  0.11093329663E+04  0.25500000920E-02 0.  1.
       -2    1    3    3    0  502  0.58053833202E+03  0.92333114041E+03  0.65483859000E+02  0.10926359346E+04  0.25500000920E-02 0. -1.
</event>
<event>
 5   0  0.4309945E-06  0.2197870E+04  0.7818609E-02  0.8519315E-01
        1   -1    0    0  501    0  0.00000000000E+00  0.00000000000E+00  0.97484227473E+03  0.97484227475E+03  0.50400001928E-02 0.  1.
       -1   -1    0    0    0  501  0.00000000000E+00  0.00000000000E+00 -0.12388239757E+04  0.12388239757E+04  0.50400001928E-02 0. -1.
    10030    2    1    2    0    0  0.00000000000E+00  0.00000000000E+00 -0.26398170097E+03  0.22136662505E+04  0.21978698619E+04 0.  0.
        4    1    3    3  502    0 -0.68619465054E+03  0.85797349118E+03 -0.15815367962E+03  0.11099530663E+04  0.12699999809E+01 0. -1.
       -4    1    3    3    0  502  0.68619465054E+03 -0.85797349118E+03 -0.10582802135E+03  0.11037131842E+04  0.12699999809E+01 0.  1.
</event>
<event>
 5   0  0.4309945E-06  0.2206345E+04  0.7818609E-02  0.8515792E-01
        1   -1    0    0  501    0  0.00000000000E+00  0.00000000000E+00  0.14499735709E+04  0.14499735710E+04  0.50400001928E-02 0.  1.
       -1   -1    0    0    0  501  0.00000000000E+00  0.00000000000E+00 -0.83931824480E+03  0.83931824482E+03  0.50400001928E-02 0. -1.
    10030    2    1    2    0    0  0.00000000000E+00  0.00000000000E+00  0.61065532615E+03  0.22892918158E+04  0.22063447352E+04 0.  0.
        4    1    3    3  502    0  0.52904394695E+03 -0.96795909515E+03  0.29239505094E+03  0.11411962085E+04  0.12699999809E+01 0.  1.
       -4    1    3    3    0  502 -0.52904394695E+03  0.96795909515E+03  0.31826027521E+03  0.11480956072E+04  0.12699999809E+01 0. -1.
</event>
<event>
 5   0  0.9963573E-06  0.2197616E+04  0.7818609E-02  0.8519421E-01
       -2   -1    0    0    0  501  0.00000000000E+00  0.00000000000E+00  0.17641593346E+04  0.17641593347E+04  0.25500000920E-02 0. -1.
        2   -1    0    0  501    0  0.00000000000E+00  0.00000000000E+00 -0.68439355771E+03  0.68439355771E+03  0.25500000920E-02 0.  1.
    10030    2    1    2    0    0  0.00000000000E+00  0.00000000000E+00  0.10797657769E+04  0.24485528924E+04  0.21976162389E+04 0.  0.
        2    1    3    3  502    0  0.65951147086E+03 -0.64299714142E+03 -0.12767956406E+03  0.92989395909E+03  0.25500000920E-02 0.  1.
       -2    1    3    3    0  502 -0.65951147086E+03  0.64299714142E+03  0.12074453410E+04  0.15186589333E+04  0.25500000920E-02 0. -1.
</event>
<event>
 5   0  0.4408787E-06  0.2198951E+04  0.7818609E-02  0.8518865E-01
       -1   -1    0    0    0  501  0.00000000000E+00  0.00000000000E+00  0.79356838799E+03  0.79356838801E+03  0.50400001928E-02 0. -1.
        1   -1    0    0  501    0  0.00000000000E+00  0.00000000000E+00 -0.15233049435E+04  0.15233049435E+04  0.50400001928E-02 0.  1.
    10030    2    1    2    0    0  0.00000000000E+00  0.00000000000E+00 -0.72973655550E+03  0.23168733315E+04  0.21989512486E+04 0.  0.
        1    1    3    3  502    0 -0.53744138577E+03  0.15421782213E+03 -0.13623250202E+04  0.14726017250E+04  0.50400001928E-02 0.  1.
       -1    1    3    3    0  502  0.53744138577E+03 -0.15421782213E+03  0.63258846472E+03  0.84427160649E+03  0.50400001928E-02 0. -1.
</event>
<event>
 5   0  0.9963573E-06  0.2197430E+04  0.7818609E-02  0.8519499E-01
       -2   -1    0    0    0  501  0.00000000000E+00  0.00000000000E+00  0.13798009434E+04  0.13798009434E+04  0.25500000920E-02 0.  1.
        2   -1    0    0  501    0  0.00000000000E+00  0.00000000000E+00 -0.87489029478E+03  0.87489029478E+03  0.25500000920E-02 0. -1.
    10030    2    1    2    0    0  0.00000000000E+00  0.00000000000E+00  0.50491064866E+03  0.22546912382E+04  0.21974298206E+04 0.  0.
        2    1    3    3  502    0  0.83570697493E+03  0.78616224072E+02  0.97986325618E+03  0.12902397682E+04  0.25500000920E-02 0.  1.
       -2    1    3    3    0  502 -0.83570697493E+03 -0.78616224072E+02 -0.47495260751E+03  0.96445147002E+03  0.25500000920E-02 0. -1.
</event>
<event>
 5   0  0.9963573E-06  0.2195789E+04  0.7818609E-02  0.8520183E-01
        2   -1    0    0  501    0  0.00000000000E+00  0.00000000000E+00  0.13319976369E+04  0.13319976369E+04  0.25500000920E-02 0. -1.
       -2   -1    0    0    0  501  0.00000000000E+00  0.00000000000E+00 -0.90493553225E+03  0.90493553225E+03  0.25500000920E-02 0.  1.
    10030    2    1    2    0    0  0.00000000000E+00  0.00000000000E+00  0.42706210469E+03  0.22369331692E+04  0.21957886880E+04 0.  0.
        2    1    3    3  502    0  0.72738390054E+03 -0.13208605451E+03  0.10404287097E+04  0.12763330148E+04  0.25500000920E-02 0. -1.
       -2    1    3    3    0  502 -0.72738390054E+03  0.13208605451E+03 -0.61336660501E+03  0.96060015444E+03  0.25500000920E-02 0.  1.
</event>
<event>
 5   0  0.9963573E-06  0.2198316E+04  0.7818609E-02  0.8519129E-01
        2   -1    0    0  501    0  0.00000000000E+00  0.00000000000E+00  0.13413719529E+04  0.13413719529E+04  0.25500000920E-02 0.  1.
       -2   -1    0    0    0  501  0.00000000000E+00  0.00000000000E+00 -0.90068123536E+03  0.90068123536E+03  0.25500000920E-02 0. -1.
    10030    2    1    2    0    0  0.00000000000E+00  0.00000000000E+00  0.44069071757E+03  0.22420531883E+04  0.21983162171E+04 0.  0.
        2    1    3    3  502    0 -0.99146317868E+03 -0.43136725153E+03  0.18747281436E+02  0.10814011286E+04  0.25500000920E-02 0. -1.
       -2    1    3    3    0  502  0.99146317868E+03  0.43136725153E+03  0.42194343613E+03  0.11606520597E+04  0.25500000920E-02 0.  1.
</event>
<event>
 5   0  0.1014015E-05  0.2195561E+04  0.7818609E-02  0.8520278E-01
        2   -1    0    0  501    0  0.00000000000E+00  0.00000000000E+00  0.13392129938E+04  0.13392129938E+04  0.25500000920E-02 0.  1.
       -2   -1    0    0    0  501  0.00000000000E+00  0.00000000000E+00 -0.89987330106E+03  0.89987330106E+03  0.25500000920E-02 0. -1.
    10030    2    1    2    0    0  0.00000000000E+00  0.00000000000E+00  0.43933969273E+03  0.22390862949E+04  0.21955609921E+04 0.  0.
        1    1    3    3  502    0  0.42379182089E+03  0.78880663215E+03 -0.42798406685E+03  0.99246449402E+03  0.50400001928E-02 0. -1.
       -1    1    3    3    0  502 -0.42379182089E+03 -0.78880663215E+03  0.86732375957E+03  0.12466218008E+04  0.50400001928E-02 0.  1.
</event>
<event>
 5   0  0.4630615E-06  0.2200903E+04  0.7818609E-02  0.8518052E-01
       -1   -1    0    0    0  501  0.00000000000E+00  0.00000000000E+00  0.97116901564E+03  0.97116901566E+03  0.50400001928E-02 0.  1.
        1   -1    0    0  501    0  0.00000000000E+00  0.00000000000E+00 -0.12469446782E+04  0.12469446782E+04  0.50400001928E-02 0. -1.
    10030    2    1    2    0    0  0.00000000000E+00  0.00000000000E+00 -0.27577566258E+03  0.22181136939E+04  0.22009034833E+04 0.  0.
        2    1    3    3  502    0 -0.42558397329E+03 -0.31736302250E+02  0.88437372395E+03  0.98196017985E+03  0.25500000920E-02 0.  1.
       -2    1    3    3    0  502  0.42558397329E+03  0.31736302250E+02 -0.11601493865E+04  0.12361535140E+04  0.25500000920E-02 0. -1.
</event>
<event>
 5   0  0.9963173E-06  0.2197878E+04  0.7818609E-02  0.8519312E-01
        2   -1    0    0  501    0  0.00000000000E+00  0.00000000000E+00  0.17680205488E+04  0.17680205488E+04  0.25500000920E-02 0.  1.
       -2   -1    0    0    0  501  0.00000000000E+00  0.00000000000E+00 -0.68306142943E+03  0.68306142944E+03  0.25500000920E-02 0. -1.
    10030    2    1    2    0    0  0.00000000000E+00  0.00000000000E+00  0.10849591194E+04  0.24510819783E+04  0.21978777431E+04 0.  0.
        4    1    3    3  502    0 -0.62021005976E+03 -0.61151793510E+02 -0.46692787380E+03  0.77873186163E+03  0.12699999809E+01 0. -1.
       -4    1    3    3    0  502  0.62021005976E+03  0.61151793510E+02  0.15518869932E+04  0.16723501166E+04  0.12699999809E+01 0.  1.
</event>
<event>
 5   0  0.1015876E-05  0.2199487E+04  0.7818609E-02  0.8518642E-01
        2   -1    0    0  501    0  0.00000000000E+00  0.00000000000E+00  0.88686977482E+03  0.88686977482E+03  0.25500000920E-02 0. -1.
       -2   -1    0    0    0  501  0.00000000000E+00  0.00000000000E+00 -0.13637126376E+04  0.13637126376E+04  0.25500000920E-02 0.  1.
    10030    2    1    2    0    0  0.00000000000E+00  0.00000000000E+00 -0.47684286276E+03  0.22505824124E+04  0.21994867763E+04 0.  0.
        5    1    3    3  502    0  0.59463416031E+03 -0.81615404419E+03 -0.68410415392E+03  0.12197203745E+04  0.46999998093E+01 0.  1.
       -5    1    3    3    0  502 -0.59463416031E+03  0.81615404419E+03  0.20726129117E+03  0.10308620379E+04  0.46999998093E+01 0. -1.
</event>
<event>
 5   0  0.4462201E-06  0.2205865E+04  0.7818609E-02  0.8515991E-01
        1   -1    0    0  501    0  0.00000000000E+00  0.00000000000E+00  0.19980085287E+04  0.19980085287E+04  0.50400001928E-02 0. -1.
       -1   -1    0    0    0  501  0.00000000000E+00  0.00000000000E+00 -0.60883618320E+03  0.60883618322E+03  0.50400001928E-02 0.  1.
    10030    2    1    2    0    0  0.00000000000E+00  0.00000000000E+00  0.13891723455E+04  0.26068447119E+04  0.22058648070E+04 0.  0.
        3    1    3    3  502    0 -0.58939925293E+02  0.62348595617E+03  0.17675030325E+04  0.18751734939E+04  0.10100000352E+00 0. -1.
       -3    1    3    3    0  502  0.58939925293E+02 -0.62348595617E+03 -0.37833068698E+03  0.73167121800E+03  0.10100000352E+00 0.  1.
</event>
<event>
 5   0  0.1015876E-05  0.2199611E+04  0.7818609E-02  0.8518590E-01
        2   -1    0    0  501    0  0.00000000000E+00  0.00000000000E+00  0.13948741950E+04  0.13948741950E+04  0.25500000920E-02 0.  1.
       -2   -1    0    0    0  501  0.00000000000E+00  0.00000000000E+00 -0.86715473637E+03  0.86715473637E+03  0.25500000920E-02 0. -1.
    10030    2    1    2    0    0  0.00000000000E+00  0.00000000000E+00  0.52771945865E+03  0.22620289314E+04  0.21996106609E+04 0.  0.
        5    1    3    3  502    0  0.35186860522E+03 -0.10028937691E+04 -0.26904191052E+02  0.10631807716E+04  0.46999998093E+01 0. -1.
       -5    1    3    3    0  502 -0.35186860522E+03  0.10028937691E+04  0.55462364970E+03  0.11988481598E+04  0.46999998093E+01 0.  1.
</event>
<event>
 5   0  0.4794967E-06  0.2202335E+04  0.7818609E-02  0.8517457E-01
        1   -1    0    0  501    0  0.00000000000E+00  0.00000000000E+00  0.10753519512E+04  0.10753519512E+04  0.50400001928E-02 0.  1.
       -1   -1    0    0    0  501  0.00000000000E+00  0.00000000000E+00 -0.11276030503E+04  0.11276030503E+04  0.50400001928E-02 0. -1.
    10030    2    1    2    0    0  0.00000000000E+00  0.00000000000E+00 -0.52251099069E+02  0.22029550015E+04  0.22023352518E+04 0.  0.
        5    1    3    3  502    0  0.55374495760E+03  0.76176372333E+03  0.54467555105E+03  0.10879388743E+04  0.46999998093E+01 0.  1.
       -5    1    3    3    0  502 -0.55374495760E+03 -0.76176372333E+03 -0.59692665012E+03  0.11150161272E+04  0.46999998093E+01 0. -1.
</event>
<event>
 5   0  0.1015876E-05  0.2204840E+04  0.7818609E-02  0.8516416E-01
        2   -1    0    0  501    0  0.00000000000E+00  0.00000000000E+00  0.96632365056E+03  0.96632365057E+03  0.25500000920E-02 0.  1.
       -2   -1    0    0    0  501  0.00000000000E+00  0.00000000000E+00 -0.12576844295E+04  0.12576844295E+04  0.25500000920E-02 0. -1.
    10030    2    1    2    0    0  0.00000000000E+00  0.00000000000E+00 -0.29136077893E+03  0.22240080801E+04  0.22048403200E+04 0.  0.
        5    1    3    3  502    0 -0.99213678032E+03 -0.12679660871E+03 -0.61327847660E+03  0.11732626947E+04  0.46999998093E+01 0. -1.
       -5    1    3    3    0  502  0.99213678032E+03  0.12679660871E+03  0.32191769767E+03  0.10507453854E+04  0.46999998093E+01 0.  1.
</event>
<event>
 5   0  0.9963573E-06  0.2204251E+04  0.7818609E-02  0.8516661E-01
       -2   -1    0    0    0  501  0.00000000000E+00  0.00000000000E+00  0.17438327182E+04  0.17438327182E+04  0.25500000920E-02 0. -1.
        2   -1    0    0  501    0  0.00000000000E+00  0.00000000000E+00 -0.69655810604E+03  0.69655810605E+03  0.25500000920E-02 0.  1.
    10030    2    1    2    0    0  0.00000000000E+00  0.00000000000E+00  0.10472746121E+04  0.24403908242E+04  0.22042511794E+04 0.  0.
        2    1    3    3  502    0 -0.36577002211E+03  0.31882137754E+03 -0.57194298917E+03  0.75003570763E+03  0.25500000920E-02 0.  1.
       -2    1    3    3    0  502  0.36577002211E+03 -0.31882137754E+03  0.16192176013E+04  0.16903551166E+04  0.25500000920E-02 0. -1.
</event>
<event>
 5   0  0.4408787E-06  0.2207473E+04  0.7818609E-02  0.8515324E-01
       -1   -1    0    0    0  501  0.00000000000E+00  0.00000000000E+00  0.68918188145E+03  0.68918188147E+03  0.50400001928E-02 0.  1.
        1   -1    0    0  501    0  0.00000000000E+00  0.00000000000E+00 -0.17676533142E+04  0.17676533142E+04  0.50400001928E-02 0. -1.
    10030    2    1    2    0    0  0.00000000000E+00  0.00000000000E+00 -0.10784714328E+04  0.24568351957E+04  0.22074733402E+04 0.  0.
        1    1    3    3  502    0 -0.45331196625E+03  0.11425579440E+03 -0.16520249326E+04  0.17168961830E+04  0.50400001928E-02 0. -1.
       -1    1    3    3    0  502  0.45331196625E+03 -0.11425579440E+03  0.57355349982E+03  0.73993901268E+03  0.50400001928E-02 0.  1.
</event>
<event>
 5   0  0.4462201E-06  0.2170344E+04  0.7818609E-02  0.8530874E-01
       -1   -1    0    0    0  501  0.00000000000E+00  0.00000000000E+00  0.18805709544E+04  0.18805709544E+04  0.50400001928E-02 0.  1.
        1   -1    0    0  501    0  0.00000000000E+00  0.00000000000E+00 -0.62619211757E+03  0.62619211759E+03  0.50400001928E-02 0. -1.
    10030    2    1    2    0    0  0.00000000000E+00  0.00000000000E+00  0.12543788368E+04  0.25067630720E+04  0.21703444042E+04 0.  0.
        3    1    3    3  502    0  0.41461330936E+01 -0.86060144090E+03  0.13906714985E+04  0.16354263229E+04  0.10100000352E+00 0.  1.
       -3    1    3    3    0  502 -0.41461330936E+01  0.86060144090E+03 -0.13629266174E+03  0.87133674910E+03  0.10100000352E+00 0. -1.
</event>
<event>
 5   0  0.9963173E-06  0.2202294E+04  0.7818609E-02  0.8517474E-01
        2   -1    0    0  501    0  0.00000000000E+00  0.00000000000E+00  0.15922820341E+04  0.15922820341E+04  0.25500000920E-02 0.  1.
       -2   -1    0    0    0  501  0.00000000000E+00  0.00000000000E+00 -0.76150131350E+03  0.76150131350E+03  0.25500000920E-02 0. -1.
    10030    2    1    2    0    0  0.00000000000E+00  0.00000000000E+00  0.83078072061E+03  0.23537833476E+04  0.22022941315E+04 0.  0.
        4    1    3    3  502    0  0.79665417337E+03 -0.12669924782E+03 -0.38571000812E+03  0.89413891237E+03  0.12699999809E+01 0. -1.
       -4    1    3    3    0  502 -0.79665417337E+03  0.12669924782E+03  0.12164907287E+04  0.14596444352E+04  0.12699999809E+01 0.  1.
</event>
<event>
 5   0  0.9963173E-06  0.2189425E+04  0.7818609E-02  0.8522843E-01
       -2   -1    0    0    0  501  0.00000000000E+00  0.00000000000E+00  0.56556389928E+03  0.56556389928E+03  0.25500000920E-02 0.  1.
        2   -1    0    0  501    0  0.00000000000E+00  0.00000000000E+00 -0.21189381871E+04  0.21189381871E+04  0.25500000920E-02 0. -1.
    10030    2    1    2    0    0  0.00000000000E+00  0.00000000000E+00 -0.15533742878E+04  0.26845020864E+04  0.21894245303E+04 0.  0.
        4    1    3    3  502    0 -0.15629910227E+03 -0.98248160901E+03 -0.13368167770E+04  0.16663673754E+04  0.12699999809E+01 0. -1.
       -4    1    3    3    0  502  0.15629910227E+03  0.98248160901E+03 -0.21655751079E+03  0.10181347110E+04  0.12699999809E+01 0.  1.
</event>
<event>
 5   0  0.1014015E-05  0.2195815E+04  0.7818609E-02  0.8520172E-01
       -2   -1    0    0    0  501  0.00000000000E+00  0.00000000000E+00  0.14513762872E+04  0.14513762872E+04  0.25500000920E-02 0. -1.
        2   -1    0    0  501    0  0.00000000000E+00  0.00000000000E+00 -0.83052259687E+03  0.83052259688E+03  0.25500000920E-02 0.  1.
    10030    2    1    2    0    0  0.00000000000E+00  0.00000000000E+00  0.62085369036E+03  0.22818988841E+04  0.21958149313E+04 0.  0.
        1    1    3    3  502    0 -0.24212144586E+02  0.35935276999E+03 -0.76738323673E+03  0.84770140573E+03  0.50400001928E-02 0.  1.
       -1    1    3    3    0  502  0.24212144586E+02 -0.35935276999E+03  0.13882369271E+04  0.14341974784E+04  0.50400001928E-02 0. -1.
</event>
<event>
 5   0  0.1015876E-05  0.2203267E+04  0.7818609E-02  0.8517069E-01
        2   -1    0    0  501    0  0.00000000000E+00  0.00000000000E+00  0.26538646500E+04  0.26538646500E+04  0.25500000920E-02 0. -1.
       -2   -1    0    0    0  501  0.00000000000E+00  0.00000000000E+00 -0.45729406265E+03  0.45729406265E+03  0.25500000920E-02 0.  1.
    10030    2    1    2    0    0  0.00000000000E+00  0.00000000000E+00  0.21965705873E+04  0.31111587126E+04  0.22032671627E+04 0.  0.
        5    1    3    3  502    0  0.41928782713E+03 -0.29932723819E+03  0.24732746684E+04  0.25263627516E+04  0.46999998093E+01 0. -1.
       -5    1    3    3    0  502 -0.41928782713E+03  0.29932723819E+03 -0.27670408108E+03  0.58479596099E+03  0.46999998093E+01 0.  1.
</event>
<event>
 5   0  0.4462201E-06  0.2193123E+04  0.7818609E-02  0.8521296E-01
       -1   -1    0    0    0  501  0.00000000000E+00  0.00000000000E+00  0.10552718204E+04  0.10552718204E+04  0.50400001928E-02 0. -1.
        1   -1    0    0  501    0  0.00000000000E+00  0.00000000000E+00 -0.11394666895E+04  0.11394666895E+04  0.50400001928E-02 0.  1.
    10030    2    1    2    0    0  0.00000000000E+00  0.00000000000E+00 -0.84194869122E+02  0.21947385099E+04  0.21931229675E+04 0.  0.
        3    1    3    3  502    0  0.38038825300E+03 -0.27362358036E+03  0.95003692361E+03  0.10593088564E+04  0.10100000352E+00 0. -1.
       -3    1    3    3    0  502 -0.38038825300E+03  0.27362358036E+03 -0.10342317927E+04  0.11354296535E+04  0.10100000352E+00 0.  1.
</event>
<event>
 5   0  0.4408787E-06  0.2201005E+04  0.7818609E-02  0.8518010E-01
        1   -1    0    0  501    0  0.00000000000E+00  0.00000000000E+00  0.68897452126E+03  0.68897452128E+03  0.50400001928E-02 0. -1.
       -1   -1    0    0    0  501  0.00000000000E+00  0.00000000000E+00 -0.17578374738E+04  0.17578374739E+04  0.50400001928E-02 0.  1.
    10030    2    1    2    0    0  0.00000000000E+00  0.00000000000E+00 -0.10688629526E+04  0.24468119951E+04  0.22010045271E+04 0.  0.
        1    1    3    3  502    0 -0.34088937884E+03 -0.76632753592E+03 -0.13264919486E+04  0.15694089176E+04  0.50400001928E-02 0.  1.
       -1    1    3    3    0  502  0.34088937884E+03  0.76632753592E+03  0.25762899598E+03  0.87740307756E+03  0.50400001928E-02 0. -1.
</event>
<event>
 5   0  0.9963573E-06  0.2192639E+04  0.7818609E-02  0.8521498E-01
       -2   -1    0    0    0  501  0.00000000000E+00  0.00000000000E+00  0.30392258584E+04  0.30392258584E+04  0.25500000920E-02 0.  1.
        2   -1    0    0  501    0  0.00000000000E+00  0.00000000000E+00 -0.39546789013E+03  0.39546789014E+03  0.25500000920E-02 0. -1.
    10030    2    1    2    0    0  0.00000000000E+00  0.00000000000E+00  0.26437579682E+04  0.34346937485E+04  0.21926388101E+04 0.  0.
        2    1    3    3  502    0 -0.44906329584E+03  0.81874871288E+03  0.42213704500E+03  0.10247960691E+04  0.25500000920E-02 0. -1.
       -2    1    3    3    0  502  0.44906329584E+03 -0.81874871288E+03  0.22216209232E+04  0.24098976794E+04  0.25500000920E-02 0.  1.
</event>
<event>
 5   0  0.4794967E-06  0.2197084E+04  0.7818609E-02  0.8519643E-01
       -1   -1    0    0    0  501  0.00000000000E+00  0.00000000000E+00  0.10158624398E+04  0.10158624398E+04  0.50400001928E-02 0.  1.
        1   -1    0    0  501    0  0.00000000000E+00  0.00000000000E+00 -0.11879502915E+04  0.11879502915E+04  0.50400001928E-02 0. -1.
    10030    2    1    2    0    0  0.00000000000E+00  0.00000000000E+00 -0.17208785169E+03  0.22038127313E+04  0.21970835956E+04 0.  0.
        5    1    3    3  502    0  0.49932379836E+03 -0.21726605263E+03  0.87094481304E+03  0.10271785388E+04  0.46999998093E+01 0.  1.
       -5    1    3    3    0  502 -0.49932379836E+03  0.21726605263E+03 -0.10430326647E+04  0.11766341925E+04  0.46999998093E+01 0. -1.
</event>
<event>
 5   0  0.4408787E-06  0.2202329E+04  0.7818609E-02  0.8517459E-01
       -1   -1    0    0    0  501  0.00000000000E+00  0.00000000000E+00  0.99498964339E+03  0.99498964341E+03  0.50400001928E-02 0. -1.
        1   -1    0    0  501    0  0.00000000000E+00  0.00000000000E+00 -0.12186692893E+04  0.12186692894E+04  0.50400001928E-02 0.  1.
    10030    2    1    2    0    0  0.00000000000E+00  0.00000000000E+00 -0.22367964595E+03  0.22136589328E+04  0.22023290596E+04 0.  0.
        1    1    3    3  502    0  0.65641810519E+02  0.82340067625E+03 -0.84377953038E+03  0.11807884725E+04  0.50400001928E-02 0.  1.
       -1    1    3    3    0  502 -0.65641810519E+02 -0.82340067625E+03  0.62009988442E+03  0.10328704602E+04  0.50400001928E-02 0. -1.
</event>
<event>
 5   0  0.4630615E-06  0.2199594E+04  0.7818609E-02  0.8518597E-01
       -1   -1    0    0    0  501  0.00000000000E+00  0.00000000000E+00  0.12916527677E+04  0.12916527677E+04  0.50400001928E-02 0. -1.
        1   -1    0    0  501    0  0.00000000000E+00  0.00000000000E+00 -0.93643847796E+03  0.93643847797E+03  0.50400001928E-02 0.  1.
    10030    2    1    2    0    0  0.00000000000E+00  0.00000000000E+00  0.35521428971E+03  0.22280912456E+04  0.21995939187E+04 0.  0.
        2    1    3    3  502    0  0.46162781514E+03  0.65656669672E+03  0.93926180491E+03  0.12354727051E+04  0.25500000920E-02 0. -1.
       -2    1    3    3    0  502 -0.46162781514E+03 -0.65656669672E+03 -0.58404751520E+03  0.99261854051E+03  0.25500000920E-02 0.  1.
</event>
<event>
 5   0  0.9963573E-06  0.2193577E+04  0.7818609E-02  0.8521106E-01
       -2   -1    0    0    0  501  0.00000000000E+00  0.00000000000E+00  0.84431155323E+03  0.84431155323E+03  0.25500000920E-02 0. -1.
        2   -1    0    0  501    0  0.00000000000E+00  0.00000000000E+00 -0.14247640604E+04  0.14247640604E+04  0.25500000920E-02 0.  1.
    10030    2    1    2    0    0  0.00000000000E+00  0.00000000000E+00 -0.58045250714E+03  0.22690756136E+04  0.21935767657E+04 0.  0.
        2    1    3    3  502    0 -0.38082392913E+03  0.96735938342E+03 -0.65173092593E+03  0.12270143608E+04  0.25500000920E-02 0.  1.
       -2    1    3    3    0  502  0.38082392913E+03 -0.96735938342E+03  0.71278418785E+02  0.10420612528E+04  0.25500000920E-02 0. -1.
</event>
<event>
 5   0  0.1035928E-05  0.2193100E+04  0.7818609E-02  0.8521306E-01
       -2   -1    0    0    0  501  0.00000000000E+00  0.00000000000E+00  0.10508851052E+04  0.10508851052E+04  0.25500000920E-02 0.  1.
        2   -1    0    0  501    0  0.00000000000E+00  0.00000000000E+00 -0.11441987857E+04  0.11441987857E+04  0.25500000920E-02 0. -1.
    10030    2    1    2    0    0  0.00000000000E+00  0.00000000000E+00 -0.93313680545E+02  0.21950838909E+04  0.21930995976E+04 0.  0.
        3    1    3    3  502    0 -0.55389324858E+03 -0.32787567576E+02 -0.99331843998E+03  0.11377848166E+04  0.10100000352E+00 0. -1.
       -3    1    3    3    0  502  0.55389324858E+03  0.32787567576E+02  0.90000475944E+03  0.10572990744E+04  0.10100000352E+00 0.  1.
</event>
<event>
 5   0  0.4794967E-06  0.2201735E+04  0.7818609E-02  0.8517706E-01
       -1   -1    0    0    0  501  0.00000000000E+00  0.00000000000E+00  0.68855698889E+03  0.68855698891E+03  0.50400001928E-02 0.  1.
        1   -1    0    0  501    0  0.00000000000E+00  0.00000000000E+00 -0.17600716671E+04  0.17600716671E+04  0.50400001928E-02 0. -1.
    10030    2    1    2    0    0  0.00000000000E+00  0.00000000000E+00 -0.10715146782E+04  0.24486286560E+04  0.22017353586E+04 0.  0.
        5    1    3    3  502    0  0.10741807403E+04  0.11234653471E+03 -0.77272722214E+03  0.13280118435E+04  0.46999998093E+01 0.  1.
       -5    1    3    3    0  502 -0.10741807403E+04 -0.11234653471E+03 -0.29878745606E+03  0.11206168125E+04  0.46999998093E+01 0. -1.
</event>
<event>
 5   0  0.4408787E-06  0.2200310E+04  0.7818609E-02  0.8518299E-01
        1   -1    0    0  501    0  0.00000000000E+00  0.00000000000E+00  0.74738975345E+03  0.74738975347E+03  0.50400001928E-02 0. -1.
       -1   -1    0    0    0  501  0.00000000000E+00  0.00000000000E+00 -0.16194240258E+04  0.16194240259E+04  0.50400001928E-02 0.  1.
    10030    2    1    2    0    0  0.00000000000E+00  0.00000000000E+00 -0.87203427240E+03  0.23668137793E+04  0.22003099086E+04 0.  0.
        1    1    3    3  502    0 -0.40327303419E+03 -0.58736103684E+03  0.46570144584E+03  0.85117563663E+03  0.50400001928E-02 0. -1.
       -1    1    3    3    0  502  0.40327303419E+03  0.58736103684E+03 -0.13377357182E+04  0.15156381427E+04  0.50400001928E-02 0.  1.
</event>
<event>
 5   0  0.4462201E-06  0.2202832E+04  0.7818609E-02  0.8517250E-01
        1   -1    0    0  501    0  0.00000000000E+00  0.00000000000E+00  0.15621660126E+04  0.15621660126E+04  0.50400001928E-02 0.  1.
       -1   -1    0    0    0  501  0.00000000000E+00  0.00000000000E+00 -0.77656088415E+03  0.77656088416E+03  0.50400001928E-02 0. -1.
    10030    2    1    2    0    0  0.00000000000E+00  0.00000000000E+00  0.78560512845E+03  0.23387268968E+04  0.22028318319E+04 0.  0.
        3    1    3    3  502    0 -0.81817235729E+02  0.37588734582E+03  0.14885231278E+04  0.15374285249E+04  0.10100000352E+00 0.  1.
       -3    1    3    3    0  502  0.81817235729E+02 -0.37588734582E+03 -0.70291799936E+03  0.80129837192E+03  0.10100000352E+00 0. -1.
</event>
<event>
 5   0  0.1015876E-05  0.2198654E+04  0.7818609E-02  0.8518989E-01
       -2   -1    0    0    0  501  0.00000000000E+00  0.00000000000E+00  0.59546649678E+03  0.59546649678E+03  0.25500000920E-02 0.  1.
        2   -1    0    0  501    0  0.00000000000E+00  0.00000000000E+00 -0.20295339781E+04  0.20295339781E+04  0.25500000920E-02 0. -1.
    10030    2    1    2    0    0  0.00000000000E+00  0.00000000000E+00 -0.14340674813E+04  0.26250004749E+04  0.21986536681E+04 0.  0.
        5    1    3    3  502    0  0.19320586852E+03 -0.17219357161E+03 -0.19926322232E+04  0.20093741315E+04  0.46999998093E+01 0. -1.
       -5    1    3    3    0  502 -0.19320586852E+03  0.17219357161E+03  0.55856474186E+03  0.61562634332E+03  0.46999998093E+01 0.  1.
</event>
<event>
 5   0  0.3546750E-06  0.2201381E+04  0.7818609E-02  0.8517853E-01
        3   -1    0    0  501    0  0.00000000000E+00  0.00000000000E+00  0.76203682510E+03  0.76203683179E+03  0.10100000352E+00 0.  1.
       -3   -1    0    0    0  501  0.00000000000E+00  0.00000000000E+00 -0.15898445225E+04  0.15898445257E+04  0.10100000352E+00 0. -1.
    10030    2    1    2    0    0  0.00000000000E+00  0.00000000000E+00 -0.82780769739E+03  0.23518813575E+04  0.22013814608E+04 0.  0.
        4    1    3    3  502    0 -0.45795983529E+03  0.40101616254E+03 -0.13936470106E+04  0.15207875513E+04  0.12699999809E+01 0. -1.
       -4    1    3    3    0  502  0.45795983529E+03 -0.40101616254E+03  0.56583931319E+03  0.83109380614E+03  0.12699999809E+01 0.  1.
</event>
<event>
 5   0  0.9963573E-06  0.2202333E+04  0.7818609E-02  0.8517458E-01
        2   -1    0    0  501    0  0.00000000000E+00  0.00000000000E+00  0.15976204847E+04  0.15976204847E+04  0.25500000920E-02 0. -1.
       -2   -1    0    0    0  501  0.00000000000E+00  0.00000000000E+00 -0.75898380464E+03  0.75898380465E+03  0.25500000920E-02 0.  1.
    10030    2    1    2    0    0  0.00000000000E+00  0.00000000000E+00  0.83863668008E+03  0.23566042894E+04  0.22023333752E+04 0.  0.
        2    1    3    3  502    0  0.50827350435E+03  0.82229250915E+03  0.98357118731E+03  0.13791008688E+04  0.25500000920E-02 0. -1.
       -2    1    3    3    0  502 -0.50827350435E+03 -0.82229250915E+03 -0.14493450723E+03  0.97750342057E+03  0.25500000920E-02 0.  1.
</event>
<event>
 5   0  0.9963573E-06  0.2193947E+04  0.7818609E-02  0.8520952E-01
       -2   -1    0    0    0  501  0.00000000000E+00  0.00000000000E+00  0.11634091904E+04  0.11634091904E+04  0.25500000920E-02 0. -1.
        2   -1    0    0  501    0  0.00000000000E+00  0.00000000000E+00 -0.10343311300E+04  0.10343311300E+04  0.25500000920E-02 0.  1.
    10030    2    1    2    0    0  0.00000000000E+00  0.00000000000E+00  0.12907806039E+03  0.21977403205E+04  0.21939465287E+04 0.  0.
        2    1    3    3  502    0 -0.19904773107E+03  0.44752028686E+03  0.10477942617E+04  0.11566188747E+04  0.25500000920E-02 0. -1.
       -2    1    3    3    0  502  0.19904773107E+03 -0.44752028686E+03 -0.91871620130E+03  0.10411214458E+04  0.25500000920E-02 0.  1.
</event>
<event>
 5   0  0.1015876E-05  0.2199795E+04  0.7818609E-02  0.8518514E-01
       -2   -1    0    0    0  501  0.00000000000E+00  0.00000000000E+00  0.11096608714E+04  0.11096608714E+04  0.25500000920E-02 0.  1.
        2   -1    0    0  501    0  0.00000000000E+00  0.00000000000E+00 -0.10902196430E+04  0.10902196430E+04  0.25500000920E-02 0. -1.
    10030    2    1    2    0    0  0.00000000000E+00  0.00000000000E+00  0.19441228341E+02  0.21998805144E+04  0.21997946078E+04 0.  0.
        5    1    3    3  502    0  0.11516130153E+03 -0.70029657530E+02 -0.10819197939E+04  0.10902929921E+04  0.46999998093E+01 0. -1.
       -5    1    3    3    0  502 -0.11516130153E+03  0.70029657530E+02  0.11013610222E+04  0.11095875223E+04  0.46999998093E+01 0.  1.
</event>
<event>
 5   0  0.1014015E-05  0.2200389E+04  0.7818609E-02  0.8518266E-01
       -2   -1    0    0    0  501  0.00000000000E+00  0.00000000000E+00  0.82842756610E+03  0.82842756610E+03  0.25500000920E-02 0. -1.
        2   -1    0    0  501    0  0.00000000000E+00  0.00000000000E+00 -0.14611156239E+04  0.14611156239E+04  0.25500000920E-02 0.  1.
    10030    2    1    2    0    0  0.00000000000E+00  0.00000000000E+00 -0.63268805785E+03  0.22895431900E+04  0.22003894747E+04 0.  0.
        1    1    3    3  502    0 -0.35763475008E+03  0.70336776153E+03 -0.11140887493E+04  0.13652188703E+04  0.50400001928E-02 0.  1.
       -1    1    3    3    0  502  0.35763475008E+03 -0.70336776153E+03  0.48140069142E+03  0.92432431979E+03  0.50400001928E-02 0. -1.
</event>
<event>
 5   0  0.9963573E-06  0.2199846E+04  0.7818609E-02  0.8518492E-01
       -2   -1    0    0    0  501  0.00000000000E+00  0.00000000000E+00  0.67096410793E+03  0.67096410793E+03  0.25500000920E-02 0. -1.
        2   -1    0    0  501    0  0.00000000000E+00  0.00000000000E+00 -0.18031224048E+04  0.18031224048E+04  0.25500000920E-02 0.  1.
    10030    2    1    2    0    0  0.00000000000E+00  0.00000000000E+00 -0.11321582968E+04  0.24740865127E+04  0.21998458272E+04 0.  0.
        2    1    3    3  502    0 -0.41932255875E+03 -0.99730920033E+03 -0.78924303235E+03  0.13391645207E+04  0.25500000920E-02 0.  1.
       -2    1    3    3    0  502  0.41932255875E+03  0.99730920033E+03 -0.34291526450E+03  0.11349219920E+04  0.25500000920E-02 0. -1.
</event>
<event>
 5   0  0.1014015E-05  0.2202462E+04  0.7818609E-02  0.8517404E-01
        2   -1    0    0  501    0  0.00000000000E+00  0.00000000000E+00  0.19059765658E+04  0.19059765658E+04  0.25500000920E-02 0. -1.
       -2   -1    0    0    0  501  0.00000000000E+00  0.00000000000E+00 -0.63626669622E+03  0.63626669623E+03  0.25500000920E-02 0.  1.
    10030    2    1    2    0    0  0.00000000000E+00  0.00000000000E+00  0.12697098695E+04  0.25422432620E+04  0.22024617251E+04 0.  0.
        1    1    3    3  502    0 -0.69219859781E+03  0.83886008683E+03  0.83439497242E+03  0.13707808410E+04  0.50400001928E-02 0. -1.
       -1    1    3    3    0  502  0.69219859781E+03 -0.83886008683E+03  0.43531489712E+03  0.11714624210E+04  0.50400001928E-02 0.  1.
</event>
<event>
 5   0  0.4309945E-06  0.2199123E+04  0.7818609E-02  0.8518793E-01
       -1   -1    0    0    0  501  0.00000000000E+00  0.00000000000E+00  0.90127386155E+03  0.90127386157E+03  0.50400001928E-02 0.  1.
        1   -1    0    0  501    0  0.00000000000E+00  0.00000000000E+00 -0.13414736951E+04  0.13414736951E+04  0.50400001928E-02 0. -1.
    10030    2    1    2    0    0  0.00000000000E+00  0.00000000000E+00 -0.44019983350E+03  0.22427475566E+04  0.21991227136E+04 0.  0.
        4    1    3    3  502    0 -0.25564274644E+03  0.20334518946E+03 -0.12908471359E+04  0.13315368643E+04  0.12699999809E+01 0. -1.
       -4    1    3    3    0  502  0.25564274644E+03 -0.20334518946E+03  0.85064730237E+03  0.91121069233E+03  0.12699999809E+01 0.  1.
</event>
<event>
 5   0  0.4309945E-06  0.2199448E+04  0.7818609E-02  0.8518658E-01
       -1   -1    0    0    0  501  0.00000000000E+00  0.00000000000E+00  0.10732503517E+04  0.10732503517E+04  0.50400001928E-02 0. -1.
        1   -1    0    0  501    0  0.00000000000E+00  0.00000000000E+00 -0.11268510680E+04  0.11268510680E+04  0.50400001928E-02 0.  1.
    10030    2    1    2    0    0  0.00000000000E+00  0.00000000000E+00 -0.53600716349E+02  0.22001014197E+04  0.21994483900E+04 0.  0.
        4    1    3    3  502    0  0.47084872396E+02 -0.10597764469E+04 -0.31679778235E+03  0.11071158704E+04  0.12699999809E+01 0.  1.
       -4    1    3    3    0  502 -0.47084872396E+02  0.10597764469E+04  0.26319706600E+03  0.10929855494E+04  0.12699999809E+01 0. -1.
</event>
<event>
 5   0  0.4309945E-06  0.2203385E+04  0.7818609E-02  0.8517020E-01
        1   -1    0    0  501    0  0.00000000000E+00  0.00000000000E+00  0.99351882044E+03  0.99351882045E+03  0.50400001928E-02 0.  1.
       -1   -1    0    0    0  501  0.00000000000E+00  0.00000000000E+00 -0.12216442139E+04  0.12216442139E+04  0.50400001928E-02 0. -1.
    10030    2    1    2    0    0  0.00000000000E+00  0.00000000000E+00 -0.22812539350E+03  0.22151630344E+04  0.22033851397E+04 0.  0.
        4    1    3    3  502    0 -0.78854415176E+03  0.55919331892E+03  0.41718015179E+03  0.10528722331E+04  0.12699999809E+01 0.  1.
       -4    1    3    3    0  502  0.78854415176E+03 -0.55919331892E+03 -0.64530554529E+03  0.11622908013E+04  0.12699999809E+01 0. -1.
</event>
<event>
 5   0  0.9963173E-06  0.2197953E+04  0.7818609E-02  0.8519281E-01
       -2   -1    0    0    0  501  0.00000000000E+00  0.00000000000E+00  0.88512519766E+03  0.88512519767E+03  0.25500000920E-02 0. -1.
        2   -1    0    0  501    0  0.00000000000E+00  0.00000000000E+00 -0.13644950498E+04  0.13644950498E+04  0.25500000920E-02 0.  1.
    10030    2    1    2    0    0  0.00000000000E+00  0.00000000000E+00 -0.47936985213E+03  0.22496202475E+04  0.21979526389E+04 0.  0.
        4    1    3    3  502    0  0.86942387707E+02  0.10858587808E+04 -0.38835464094E+03  0.11564900392E+04  0.12699999809E+01 0. -1.
       -4    1    3    3    0  502 -0.86942387707E+02 -0.10858587808E+04 -0.91015211188E+02  0.10931302083E+04  0.12699999809E+01 0.  1.
</event>
<event>
 5   0  0.4794967E-06  0.2160303E+04  0.7818609E-02  0.8535135E-01
        1   -1    0    0  501    0  0.00000000000E+00  0.00000000000E+00  0.84931265388E+03  0.84931265390E+03  0.50400001928E-02 0.  1.
       -1   -1    0    0    0  501  0.00000000000E+00  0.00000000000E+00 -0.13737316121E+04  0.13737316121E+04  0.50400001928E-02 0. -1.
    10030    2    1    2    0    0  0.00000000000E+00  0.00000000000E+00 -0.52441895817E+03  0.22230442660E+04  0.21603033502E+04 0.  0.
        5    1    3    3  502    0 -0.28948082594E+02  0.21161689316E+03 -0.13517736337E+04  0.13685516972E+04  0.46999998093E+01 0. -1.
       -5    1    3    3    0  502  0.28948082594E+02 -0.21161689316E+03  0.82735467556E+03  0.85449256880E+03  0.46999998093E+01 0.  1.
</event>
<event>
 5   0  0.4630615E-06  0.2198596E+04  0.7818609E-02  0.8519013E-01
       -1   -1    0    0    0  501  0.00000000000E+00  0.00000000000E+00  0.60534738248E+03  0.60534738251E+03  0.50400001928E-02 0.  1.
        1   -1    0    0  501    0  0.00000000000E+00  0.00000000000E+00 -0.19963014765E+04  0.19963014765E+04  0.50400001928E-02 0. -1.
    10030    2    1    2    0    0  0.00000000000E+00  0.00000000000E+00 -0.13909540940E+04  0.26016488590E+04  0.21985958005E+04 0.  0.
        2    1    3    3  502    0 -0.41300667534E+03  0.80711461655E+03 -0.14310884550E+04  0.16941141296E+04  0.25500000920E-02 0. -1.
       -2    1    3    3    0  502  0.41300667534E+03 -0.80711461655E+03  0.40134360986E+02  0.90753472940E+03  0.25500000920E-02 0.  1.
</event>
<event>
 5   0  0.4309945E-06  0.2201008E+04  0.7818609E-02  0.8518009E-01
       -1   -1    0    0    0  501  0.00000000000E+00  0.00000000000E+00  0.11725998534E+04  0.11725998534E+04  0.50400001928E-02 0.  1.
        1   -1    0    0  501    0  0.00000000000E+00  0.00000000000E+00 -0.10328407277E+04  0.10328407277E+04  0.50400001928E-02 0. -1.
    10030    2    1    2    0    0  0.00000000000E+00  0.00000000000E+00  0.13975912563E+03  0.22054405811E+04  0.22010078472E+04 0.  0.
        4    1    3    3  502    0 -0.67975523365E+03 -0.85524872800E+03 -0.63013739243E+02  0.10942988205E+04  0.12699999809E+01 0. -1.
       -4    1    3    3    0  502  0.67975523365E+03  0.85524872800E+03  0.20277286488E+03  0.11111417606E+04  0.12699999809E+01 0.  1.
</event>
<event>
 5   0  0.4309945E-06  0.2192179E+04  0.7818609E-02  0.8521691E-01
       -1   -1    0    0    0  501  0.00000000000E+00  0.00000000000E+00  0.80543442164E+03  0.80543442166E+03  0.50400001928E-02 0. -1.
        1   -1    0    0  501    0  0.00000000000E+00  0.00000000000E+00 -0.14916319373E+04  0.14916319373E+04  0.50400001928E-02 0.  1.
    10030    2    1    2    0    0  0.00000000000E+00  0.00000000000E+00 -0.68619751564E+03  0.22970663589E+04  0.21921785573E+04 0.  0.
        4    1    3    3  502    0 -0.89239160493E+03  0.11344493868E+03  0.31310541531E+03  0.95250676883E+03  0.12699999809E+01 0. -1.
       -4    1    3    3    0  502  0.89239160493E+03 -0.11344493868E+03 -0.99930293095E+03  0.13445595901E+04  0.12699999809E+01 0.  1.
</event>
<event>
 5   0  0.1035928E-05  0.2204458E+04  0.7818609E-02  0.8516575E-01
       -2   -1    0    0    0  501  0.00000000000E+00  0.00000000000E+00  0.15442043966E+04  0.15442043966E+04  0.25500000920E-02 0. -1.
        2   -1    0    0  501    0  0.00000000000E+00  0.00000000000E+00 -0.78675414257E+03  0.78675414258E+03  0.25500000920E-02 0.  1.
    10030    2    1    2    0    0  0.00000000000E+00  0.00000000000E+00  0.75745025403E+03  0.23309585392E+04  0.22044583970E+04 0.  0.
        3    1    3    3  502    0  0.75823919382E+03  0.49709303253E+03 -0.28404538232E+03  0.95011049223E+03  0.10100000352E+00 0.  1.
       -3    1    3    3    0  502 -0.75823919382E+03 -0.49709303253E+03  0.10414956363E+04  0.13808480469E+04  0.10100000352E+00 0. -1.
</event>
<event>
 5   0  0.4630615E-06  0.2200716E+04  0.7818609E-02  0.8518130E-01
        1   -1    0    0  501    0  0.00000000000E+00  0.00000000000E+00  0.10237893731E+04  0.10237893732E+04  0.50400001928E-02 0.  1.
       -1   -1    0    0    0  501  0.00000000000E+00  0.00000000000E+00 -0.11826529055E+04  0.11826529056E+04  0.50400001928E-02 0. -1.
    10030    2    1    2    0    0  0.00000000000E+00  0.00000000000E+00 -0.15886353239E+03  0.22064422787E+04  0.22007157716E+04 0.  0.
        2    1    3    3  502    0  0.26036840525E+03 -0.10239429338E+04  0.22883641010E+03  0.10810258742E+04  0.25500000920E-02 0.  1.
       -2    1    3    3    0  502 -0.26036840525E+03  0.10239429338E+04 -0.38769994250E+03  0.11254164045E+04  0.25500000920E-02 0. -1.
</event>
<event>
 5   0  0.1035928E-05  0.2194718E+04  0.7818609E-02  0.8520630E-01
       -2   -1    0    0    0  501  0.00000000000E+00  0.00000000000E+00  0.19081604383E+04  0.19081604383E+04  0.25500000920E-02 0. -1.
        2   -1    0    0  501    0  0.00000000000E+00  0.00000000000E+00 -0.63107736476E+03  0.63107736476E+03  0.25500000920E-02 0.  1.
    10030    2    1    2    0    0  0.00000000000E+00  0.00000000000E+00  0.12770830736E+04  0.25392378031E+04  0.21947180785E+04 0.  0.
        3    1    3    3  502    0  0.58695362445E+03 -0.88121978080E+03  0.30495082486E+03  0.11018429449E+04  0.10100000352E+00 0.  1.
       -3    1    3    3    0  502 -0.58695362445E+03  0.88121978080E+03  0.97213224873E+03  0.14373948583E+04  0.10100000352E+00 0. -1.
</event>
<event>
 5   0  0.4794967E-06  0.2189283E+04  0.7818609E-02  0.8522902E-01
        1   -1    0    0  501    0  0.00000000000E+00  0.00000000000E+00  0.10582051703E+04  0.10582051703E+04  0.50400001928E-02 0.  1.
       -1   -1    0    0    0  501  0.00000000000E+00  0.00000000000E+00 -0.11323327412E+04  0.11323327412E+04  0.50400001928E-02 0. -1.
    10030    2    1    2    0    0  0.00000000000E+00  0.00000000000E+00 -0.74127570895E+02  0.21905379115E+04  0.21892833176E+04 0.  0.
        5    1    3    3  502    0 -0.44211917378E+03 -0.47518218123E+03  0.84488946629E+03  0.10654237511E+04  0.46999998093E+01 0.  1.
       -5    1    3    3    0  502  0.44211917378E+03  0.47518218123E+03 -0.91901703718E+03  0.11251141603E+04  0.46999998093E+01 0. -1.
</event>
<event>
 5   0  0.1035928E-05  0.2200314E+04  0.7818609E-02  0.8518297E-01
       -2   -1    0    0    0  501  0.00000000000E+00  0.00000000000E+00  0.15378128264E+04  0.15378128264E+04  0.25500000920E-02 0. -1.
        2   -1    0    0  501    0  0.00000000000E+00  0.00000000000E+00 -0.78705633523E+03  0.78705633524E+03  0.25500000920E-02 0.  1.
    10030    2    1    2    0    0  0.00000000000E+00  0.00000000000E+00  0.75075649121E+03  0.23248691617E+04  0.22003139117E+04 0.  0.
        3    1    3    3  502    0  0.65912053947E+02 -0.10907497147E+04  0.51013606253E+03  0.12059511397E+04  0.10100000352E+00 0. -1.
       -3    1    3    3    0  502 -0.65912053947E+02  0.10907497147E+04  0.24062042868E+03  0.11189180219E+04  0.10100000352E+00 0.  1.
</event>
<event>
 5   0  0.4462201E-06  0.2200702E+04  0.7818609E-02  0.8518136E-01
       -1   -1    0    0    0  501  0.00000000000E+00  0.00000000000E+00  0.95836516514E+03  0.95836516516E+03  0.50400001928E-02 0. -1.
        1   -1    0    0  501    0  0.00000000000E+00  0.00000000000E+00 -0.12633730135E+04  0.12633730135E+04  0.50400001928E-02 0.  1.
    10030    2    1    2    0    0  0.00000000000E+00  0.00000000000E+00 -0.30500784832E+03  0.22217381786E+04  0.22007023304E+04 0.  0.
        3    1    3    3  502    0 -0.29697070229E+03 -0.11359205659E+03 -0.12159856892E+04  0.12568675188E+04  0.10100000352E+00 0.  1.
       -3    1    3    3    0  502  0.29697070229E+03  0.11359205659E+03  0.91097784089E+03  0.96487065980E+03  0.10100000352E+00 0. -1.
</event>
<event>
 5   0  0.4794967E-06  0.2197604E+04  0.7818609E-02  0.8519426E-01
       -1   -1    0    0    0  501  0.00000000000E+00  0.00000000000E+00  0.10323788560E+04  0.10323788560E+04  0.50400001928E-02 0.  1.
        1   -1    0    0  501    0  0.00000000000E+00  0.00000000000E+00 -0.11694989825E+04  0.11694989825E+04  0.50400001928E-02 0. -1.
    10030    2    1    2    0    0  0.00000000000E+00  0.00000000000E+00 -0.13712012650E+03  0.22018778386E+04  0.21976041698E+04 0.  0.
        5    1    3    3  502    0 -0.79524006030E+03  0.39354915535E+03 -0.71793791265E+03  0.11413783893E+04  0.46999998093E+01 0. -1.
       -5    1    3    3    0  502  0.79524006030E+03 -0.39354915535E+03  0.58081778616E+03  0.10604994493E+04  0.46999998093E+01 0.  1.
</event>
<event>
 5   0  0.1015876E-05  0.2200832E+04  0.7818609E-02  0.8518082E-01
       -2   -1    0    0    0  501  0.00000000000E+00  0.00000000000E+00  0.96727660062E+03  0.96727660062E+03  0.25500000920E-02 0. -1.
        2   -1    0    0  501    0  0.00000000000E+00  0.00000000000E+00 -0.12518809731E+04  0.12518809731E+04  0.25500000920E-02 0.  1.
    10030    2    1    2    0    0  0.00000000000E+00  0.00000000000E+00 -0.28460437252E+03  0.22191575738E+04  0.22008318174E+04 0.  0.
        5    1    3    3  502    0  0.63210219942E+03  0.66271853972E+03 -0.75741788675E+03  0.11884666586E+04  0.46999998093E+01 0.  1.
       -5    1    3    3    0  502 -0.63210219942E+03 -0.66271853972E+03  0.47281351423E+03  0.10306909152E+04  0.46999998093E+01 0. -1.
</event>
<event>
 5   0  0.4408787E-06  0.2195483E+04  0.7818609E-02  0.8520310E-01
        1   -1    0    0  501    0  0.00000000000E+00  0.00000000000E+00  0.95014831083E+03  0.95014831084E+03  0.50400001928E-02 0. -1.
       -1   -1    0    0    0  501  0.00000000000E+00  0.00000000000E+00 -0.12682617294E+04  0.12682617294E+04  0.50400001928E-02 0.  1.
    10030    2    1    2    0    0  0.00000000000E+00  0.00000000000E+00 -0.31811341853E+03  0.22184100402E+04  0.21954833089E+04 0.  0.
        1    1    3    3  502    0  0.79861623178E+03  0.58850627057E+03  0.31586126550E+03  0.10411031914E+04  0.50400001928E-02 0. -1.
       -1    1    3    3    0  502 -0.79861623178E+03 -0.58850627057E+03 -0.63397468402E+03  0.11773068488E+04  0.50400001928E-02 0.  1.
</event>
<event>
 5   0  0.4630615E-06  0.2200619E+04  0.7818609E-02  0.8518170E-01
       -1   -1    0    0    0  501  0.00000000000E+00  0.00000000000E+00  0.89291623523E+03  0.89291623524E+03  0.50400001928E-02 0. -1.
        1   -1    0    0  501    0  0.00000000000E+00  0.00000000000E+00 -0.13558733817E+04  0.13558733817E+04  0.50400001928E-02 0.  1.
    10030    2    1    2    0    0  0.00000000000E+00  0.00000000000E+00 -0.46295714651E+03  0.22487896170E+04  0.22006193269E+04 0.  0.
        2    1    3    3  502    0 -0.48411925662E+03 -0.58770275336E+03 -0.10431671985E+04  0.12914967228E+04  0.25500000920E-02 0.  1.
       -2    1    3    3    0  502  0.48411925662E+03  0.58770275336E+03  0.58021005196E+03  0.95729289423E+03  0.25500000920E-02 0. -1.
</event>
<event>
 5   0  0.9963573E-06  0.2192747E+04  0.7818609E-02  0.8521453E-01
       -2   -1    0    0    0  501  0.00000000000E+00  0.00000000000E+00  0.11671723119E+04  0.11671723119E+04  0.25500000920E-02 0. -1.
        2   -1    0    0  501    0  0.00000000000E+00  0.00000000000E+00 -0.10298692543E+04  0.10298692543E+04  0.25500000920E-02 0.  1.
    10030    2    1    2    0    0  0.00000000000E+00  0.00000000000E+00  0.13730305762E+03  0.21970415662E+04  0.21927470247E+04 0.  0.
        2    1    3    3  502    0  0.26120206338E+02 -0.31437017073E+03 -0.98341637370E+03  0.10327723048E+04  0.25500000920E-02 0.  1.
       -2    1    3    3    0  502 -0.26120206338E+02  0.31437017073E+03  0.11207194313E+04  0.11642692615E+04  0.25500000920E-02 0. -1.
</event>
<event>
 5   0  0.9963573E-06  0.2198491E+04  0.7818609E-02  0.8519057E-01
       -2   -1    0    0    0  501  0.00000000000E+00  0.00000000000E+00  0.10849188721E+04  0.10849188721E+04  0.25500000920E-02 0.  1.
        2   -1    0    0  501    0  0.00000000000E+00  0.00000000000E+00 -0.11137611780E+04  0.11137611780E+04  0.25500000920E-02 0. -1.
    10030    2    1    2    0    0  0.00000000000E+00  0.00000000000E+00 -0.28842305885E+02  0.21986800500E+04  0.21984908651E+04 0.  0.
        2    1    3    3  502    0 -0.82536229653E+03  0.15351034432E+03 -0.72409631937E+03  0.11086495506E+04  0.25500000920E-02 0. -1.
       -2    1    3    3    0  502  0.82536229653E+03 -0.15351034432E+03  0.69525401349E+03  0.10900304994E+04  0.25500000920E-02 0.  1.
</event>
<event>
 5   0  0.9963173E-06  0.2198490E+04  0.7818609E-02  0.8519057E-01
       -2   -1    0    0    0  501  0.00000000000E+00  0.00000000000E+00  0.10216753209E+04  0.10216753209E+04  0.25500000920E-02 0.  1.
        2   -1    0    0  501    0  0.00000000000E+00  0.00000000000E+00 -0.11827045052E+04  0.11827045052E+04  0.25500000920E-02 0. -1.
    10030    2    1    2    0    0  0.00000000000E+00  0.00000000000E+00 -0.16102918423E+03  0.22043798261E+04  0.21984903956E+04 0.  0.
        4    1    3    3  502    0 -0.11754486890E+03  0.31419414282E+03  0.96909604608E+03  0.10255162188E+04  0.12699999809E+01 0.  1.
       -4    1    3    3    0  502  0.11754486890E+03 -0.31419414282E+03 -0.11301252303E+04  0.11788636073E+04  0.12699999809E+01 0. -1.
</event>
<event>
 5   0  0.1014015E-05  0.2198141E+04  0.7818609E-02  0.8519202E-01
       -2   -1    0    0    0  501  0.00000000000E+00  0.00000000000E+00  0.92465071985E+03  0.92465071986E+03  0.25500000920E-02 0. -1.
        2   -1    0    0  501    0  0.00000000000E+00  0.00000000000E+00 -0.13063920982E+04  0.13063920982E+04  0.25500000920E-02 0.  1.
    10030    2    1    2    0    0  0.00000000000E+00  0.00000000000E+00 -0.38174137831E+03  0.22310428180E+04  0.21981413913E+04 0.  0.
        1    1    3    3  502    0  0.62594707114E+03 -0.83994949027E+03 -0.52846234591E+03  0.11732848474E+04  0.50400001928E-02 0.  1.
       -1    1    3    3    0  502 -0.62594707114E+03  0.83994949027E+03  0.14672096759E+03  0.10577579706E+04  0.50400001928E-02 0. -1.
</event>
<event>
 5   0  0.3546750E-06  0.2199566E+04  0.7818609E-02  0.8518609E-01
        4   -1    0    0  501    0  0.00000000000E+00  0.00000000000E+00  0.11661952350E+04  0.11661959265E+04  0.12699999809E+01 0.  1.
       -4   -1    0    0    0  501  0.00000000000E+00  0.00000000000E+00 -0.10371510818E+04  0.10371518593E+04  0.12699999809E+01 0. -1.
    10030    2    1    2    0    0  0.00000000000E+00  0.00000000000E+00  0.12904415320E+03  0.22033477858E+04  0.21995656552E+04 0.  0.
        1    1    3    3  502    0 -0.41117112758E+03 -0.23382446999E+03 -0.93005306073E+03  0.10434243023E+04  0.50400001928E-02 0. -1.
       -1    1    3    3    0  502  0.41117112758E+03  0.23382446999E+03  0.10590972139E+04  0.11599234835E+04  0.50400001928E-02 0.  1.
</event>
<event>
 5   0  0.9963573E-06  0.2192638E+04  0.7818609E-02  0.8521499E-01
        2   -1    0    0  501    0  0.00000000000E+00  0.00000000000E+00  0.13616739303E+04  0.13616739303E+04  0.25500000920E-02 0.  1.
       -2   -1    0    0    0  501  0.00000000000E+00  0.00000000000E+00 -0.88267499275E+03  0.88267499276E+03  0.25500000920E-02 0. -1.
    10030    2    1    2    0    0  0.00000000000E+00  0.00000000000E+00  0.47899893754E+03  0.22443489231E+04  0.21926381613E+04 0.  0.
        2    1    3    3  502    0  0.29470534042E+03 -0.11339079826E+03  0.13141195556E+04  0.13515246640E+04  0.25500000920E-02 0.  1.
       -2    1    3    3    0  502 -0.29470534042E+03  0.11339079826E+03 -0.83512061810E+03  0.89282425907E+03  0.25500000920E-02 0. -1.
</event>
<event>
 5   0  0.1035928E-05  0.2202678E+04  0.7818609E-02  0.8517314E-01
        2   -1    0    0  501    0  0.00000000000E+00  0.00000000000E+00  0.91752830881E+03  0.91752830882E+03  0.25500000920E-02 0.  1.
       -2   -1    0    0    0  501  0.00000000000E+00  0.00000000000E+00 -0.13219728267E+04  0.13219728267E+04  0.25500000920E-02 0. -1.
    10030    2    1    2    0    0  0.00000000000E+00  0.00000000000E+00 -0.40444451793E+03  0.22395011356E+04  0.22026779084E+04 0.  0.
        3    1    3    3  502    0  0.87668604046E+03 -0.56338313721E+03  0.16006102909E+03  0.10543237245E+04  0.10100000352E+00 0.  1.
       -3    1    3    3    0  502 -0.87668604046E+03  0.56338313721E+03 -0.56450554702E+03  0.11851774110E+04  0.10100000352E+00 0. -1.
</event>
<event>
 5   0  0.3546750E-06  0.2197032E+04  0.7818609E-02  0.8519664E-01
       -3   -1    0    0    0  501  0.00000000000E+00  0.00000000000E+00  0.15383517375E+04  0.15383517408E+04  0.10100000352E+00 0. -1.
        3   -1    0    0  501    0  0.00000000000E+00  0.00000000000E+00 -0.78443564267E+03  0.78443564917E+03  0.10100000352E+00 0.  1.
    10030    2    1    2    0    0  0.00000000000E+00  0.00000000000E+00  0.75391609481E+03  0.23227873900E+04  0.21970324943E+04 0.  0.
        3    1    3    3  502    0  0.35892895135E+03  0.47307091950E+03 -0.60012246751E+03  0.84425888992E+03  0.10100000352E+00 0.  1.
       -3    1    3    3    0  502 -0.35892895135E+03 -0.47307091950E+03  0.13540385623E+04  0.14785285000E+04  0.10100000352E+00 0. -1.
</event>
<event>
 5   0  0.3546750E-06  0.2192665E+04  0.7818609E-02  0.8521487E-01
        3   -1    0    0  501    0  0.00000000000E+00  0.00000000000E+00  0.13322167137E+04  0.13322167175E+04  0.10100000352E+00 0.  1.
       -3   -1    0    0    0  501  0.00000000000E+00  0.00000000000E+00 -0.90221448534E+03  0.90221449099E+03  0.10100000352E+00 0. -1.
    10030    2    1    2    0    0  0.00000000000E+00  0.00000000000E+00  0.43000222838E+03  0.22344312085E+04  0.21926652524E+04 0.  0.
        3    1    3    3  502    0  0.73532139003E+03  0.19786082638E+03 -0.58875506258E+03  0.96253778480E+03  0.10100000352E+00 0. -1.
       -3    1    3    3    0  502 -0.73532139003E+03 -0.19786082638E+03  0.10187572910E+04  0.12718934237E+04  0.10100000352E+00 0.  1.
</event>
<event>
 5   0  0.4462201E-06  0.2202056E+04  0.7818609E-02  0.8517573E-01
       -1   -1    0    0    0  501  0.00000000000E+00  0.00000000000E+00  0.19018182943E+04  0.19018182943E+04  0.50400001928E-02 0.  1.
        1   -1    0    0  501    0  0.00000000000E+00  0.00000000000E+00 -0.63742301395E+03  0.63742301397E+03  0.50400001928E-02 0. -1.
    10030    2    1    2    0    0  0.00000000000E+00  0.00000000000E+00  0.12643952803E+04  0.25392413083E+04  0.22020560839E+04 0.  0.
        3    1    3    3  502    0 -0.58972708179E+03  0.92870939282E+03  0.58084065217E+03  0.12440478450E+04  0.10100000352E+00 0.  1.
       -3    1    3    3    0  502  0.58972708179E+03 -0.92870939282E+03  0.68355462816E+03  0.12951934632E+04  0.10100000352E+00 0. -1.
</event>
<event>
 5   0  0.1015876E-05  0.2204076E+04  0.7818609E-02  0.8516733E-01
        2   -1    0    0  501    0  0.00000000000E+00  0.00000000000E+00  0.13273146598E+04  0.13273146598E+04  0.25500000920E-02 0. -1.
       -2   -1    0    0    0  501  0.00000000000E+00  0.00000000000E+00 -0.91499633893E+03  0.91499633893E+03  0.25500000920E-02 0.  1.
    10030    2    1    2    0    0  0.00000000000E+00  0.00000000000E+00  0.41231832090E+03  0.22423109988E+04  0.22040762730E+04 0.  0.
        5    1    3    3  502    0 -0.50664019551E+03 -0.67376042679E+03  0.92828123412E+03  0.12539400066E+04  0.46999998093E+01 0. -1.
       -5    1    3    3    0  502  0.50664019551E+03  0.67376042679E+03 -0.51596291322E+03  0.98837099221E+03  0.46999998093E+01 0.  1.
</event>
<event>
 5   0  0.4309945E-06  0.2201233E+04  0.7818609E-02  0.8517915E-01
        1   -1    0    0  501    0  0.00000000000E+00  0.00000000000E+00  0.20307103071E+04  0.20307103072E+04  0.50400001928E-02 0.  1.
       -1   -1    0    0    0  501  0.00000000000E+00  0.00000000000E+00 -0.59651852804E+03  0.59651852806E+03  0.50400001928E-02 0. -1.
    10030    2    1    2    0    0  0.00000000000E+00  0.00000000000E+00  0.14341917791E+04  0.26272288352E+04  0.22012326759E+04 0.  0.
        4    1    3    3  502    0  0.10894444555E+04 -0.11558624472E+03  0.84287174319E+03  0.13822748605E+04  0.12699999809E+01 0. -1.
       -4    1    3    3    0  502 -0.10894444555E+04  0.11558624472E+03  0.59132003591E+03  0.12449539748E+04  0.12699999809E+01 0.  1.
</event>
<event>
 5   0  0.1014015E-05  0.2205134E+04  0.7818609E-02  0.8516294E-01
       -2   -1    0    0    0  501  0.00000000000E+00  0.00000000000E+00  0.72245963511E+03  0.72245963511E+03  0.25500000920E-02 0.  1.
        2   -1    0    0  501    0  0.00000000000E+00  0.00000000000E+00 -0.16826606503E+04  0.16826606503E+04  0.25500000920E-02 0. -1.
    10030    2    1    2    0    0  0.00000000000E+00  0.00000000000E+00 -0.96020101524E+03  0.24051202855E+04  0.22051343718E+04 0.  0.
        1    1    3    3  502    0 -0.93663200054E+03 -0.30256700524E+03 -0.10219754201E+04  0.14188939553E+04  0.50400001928E-02 0. -1.
       -1    1    3    3    0  502  0.93663200054E+03  0.30256700524E+03  0.61774404901E+02  0.98622633012E+03  0.50400001928E-02 0.  1.
</event>
<event>
 5   0  0.9963573E-06  0.2196493E+04  0.7818609E-02  0.8519889E-01
       -2   -1    0    0    0  501  0.00000000000E+00  0.00000000000E+00  0.79186953981E+03  0.79186953982E+03  0.25500000920E-02 0.  1.
        2   -1    0    0  501    0  0.00000000000E+00  0.00000000000E+00 -0.15231622698E+04  0.15231622698E+04  0.25500000920E-02 0. -1.
    10030    2    1    2    0    0  0.00000000000E+00  0.00000000000E+00 -0.73129272999E+03  0.23150318096E+04  0.21964933924E+04 0.  0.
        2    1    3    3  502    0  0.17706889088E+03 -0.96420351159E+03 -0.88744418778E+03  0.13223460176E+04  0.25500000920E-02 0. -1.
       -2    1    3    3    0  502 -0.17706889088E+03  0.96420351159E+03  0.15615145779E+03  0.99268579201E+03  0.25500000920E-02 0.  1.
</event>
<event>
 5   0  0.4794967E-06  0.2199037E+04  0.7818609E-02  0.8518829E-01
       -1   -1    0    0    0  501  0.00000000000E+00  0.00000000000E+00  0.10177384106E+04  0.10177384106E+04  0.50400001928E-02 0.  1.
        1   -1    0    0  501    0  0.00000000000E+00  0.00000000000E+00 -0.11878694813E+04  0.11878694814E+04  0.50400001928E-02 0. -1.
    10030    2    1    2    0    0  0.00000000000E+00  0.00000000000E+00 -0.17013107076E+03  0.22056078920E+04  0.21990365144E+04 0.  0.
        5    1    3    3  502    0 -0.42115416705E+03 -0.29022796516E+03  0.89114416773E+03  0.10275033440E+04  0.46999998093E+01 0.  1.
       -5    1    3    3    0  502  0.42115416705E+03  0.29022796516E+03 -0.10612752385E+04  0.11781045480E+04  0.46999998093E+01 0. -1.
</event>
<event>
 5   0  0.9963173E-06  0.2201637E+04  0.7818609E-02  0.8517747E-01
        2   -1    0    0  501    0  0.00000000000E+00  0.00000000000E+00  0.16425200779E+04  0.16425200779E+04  0.25500000920E-02 0.  1.
       -2   -1    0    0    0  501  0.00000000000E+00  0.00000000000E+00 -0.73776940801E+03  0.73776940802E+03  0.25500000920E-02 0. -1.
    10030    2    1    2    0    0  0.00000000000E+00  0.00000000000E+00  0.90475066989E+03  0.23802894859E+04  0.22016367235E+04 0.  0.
        4    1    3    3  502    0 -0.26299863618E+03 -0.10034078970E+04  0.53956355817E+02  0.10387052477E+04  0.12699999809E+01 0. -1.
       -4    1    3    3    0  502  0.26299863618E+03  0.10034078970E+04  0.85079431407E+03  0.13415842382E+04  0.12699999809E+01 0.  1.
</event>
<event>
 5   0  0.1015876E-05  0.2186641E+04  0.7818609E-02  0.8524009E-01
       -2   -1    0    0    0  501  0.00000000000E+00  0.00000000000E+00  0.78409412811E+03  0.78409412812E+03  0.25500000920E-02 0. -1.
        2   -1    0    0  501    0  0.00000000000E+00  0.00000000000E+00 -0.15244979186E+04  0.15244979186E+04  0.25500000920E-02 0.  1.
    10030    2    1    2    0    0  0.00000000000E+00  0.00000000000E+00 -0.74040379052E+03  0.23085920467E+04  0.21866411378E+04 0.  0.
        5    1    3    3  502    0  0.35740522627E+03  0.40299247444E+03 -0.13746758448E+04  0.14764474926E+04  0.46999998093E+01 0.  1.
       -5    1    3    3    0  502 -0.35740522627E+03 -0.40299247444E+03  0.63427205424E+03  0.83214455416E+03  0.46999998093E+01 0. -1.
</event>
<event>
 5   0  0.4309945E-06  0.2201889E+04  0.7818609E-02  0.8517642E-01
        1   -1    0    0  501    0  0.00000000000E+00  0.00000000000E+00  0.87613601514E+03  0.87613601515E+03  0.50400001928E-02 0. -1.
       -1   -1    0    0    0  501  0.00000000000E+00  0.00000000000E+00 -0.13834365592E+04  0.13834365593E+04  0.50400001928E-02 0.  1.
    10030    2    1    2    0    0  0.00000000000E+00  0.00000000000E+00 -0.50730054410E+03  0.22595725744E+04  0.22018888203E+04 0.  0.
        4    1    3    3  502    0  0.62676852482E+03  0.14335298655E+03 -0.11707562418E+04  0.13356873336E+04  0.12699999809E+01 0.  1.
       -4    1    3    3    0  502 -0.62676852482E+03 -0.14335298655E+03  0.66345569772E+03  0.92388524081E+03  0.12699999809E+01 0. -1.
</event>
<event>
 5   0  0.1035928E-05  0.2197695E+04  0.7818609E-02  0.8519388E-01
        2   -1    0    0  501    0  0.00000000000E+00  0.00000000000E+00  0.14225566130E+04  0.14225566130E+04  0.25500000920E-02 0.  1.
       -2   -1    0    0    0  501  0.00000000000E+00  0.00000000000E+00 -0.84879966616E+03  0.84879966616E+03  0.25500000920E-02 0. -1.
    10030    2    1    2    0    0  0.00000000000E+00  0.00000000000E+00  0.57375694682E+03  0.22713562791E+04  0.21976947724E+04 0.  0.
        3    1    3    3  502    0  0.39875297183E+03  0.99756579710E+02 -0.76635167595E+03  0.86962647681E+03  0.10100000352E+00 0. -1.
       -3    1    3    3    0  502 -0.39875297183E+03 -0.99756579710E+02  0.13401086228E+04  0.14017298023E+04  0.10100000352E+00 0.  1.
</event>
<event>
 5   0  0.4794967E-06  0.2197610E+04  0.7818609E-02  0.8519424E-01
        1   -1    0    0  501    0  0.00000000000E+00  0.00000000000E+00  0.12536089900E+04  0.12536089900E+04  0.50400001928E-02 0. -1.
       -1   -1    0    0    0  501  0.00000000000E+00  0.00000000000E+00 -0.96311697536E+03  0.96311697538E+03  0.50400001928E-02 0.  1.
    10030    2    1    2    0    0  0.00000000000E+00  0.00000000000E+00  0.29049201467E+03  0.22167259654E+04  0.21976097004E+04 0.  0.
        5    1    3    3  502    0 -0.53988637536E+01 -0.24201239011E+03 -0.93587515997E+03  0.96668689334E+03  0.46999998093E+01 0.  1.
       -5    1    3    3    0  502  0.53988637536E+01  0.24201239011E+03  0.12263671746E+04  0.12500390721E+04  0.46999998093E+01 0. -1.
</event>
<event>
 5   0  0.4462201E-06  0.2208504E+04  0.7818609E-02  0.8514897E-01
        1   -1    0    0  501    0  0.00000000000E+00  0.00000000000E+00  0.19541743350E+04  0.19541743350E+04  0.50400001928E-02 0.  1.
       -1   -1    0    0    0  501  0.00000000000E+00  0.00000000000E+00 -0.62398358778E+03  0.62398358780E+03  0.50400001928E-02 0. -1.
    10030    2    1    2    0    0  0.00000000000E+00  0.00000000000E+00  0.13301907472E+04  0.25781579228E+04  0.22085042112E+04 0.  0.
        3    1    3    3  502    0  0.28970405008E+03  0.23307422854E+03 -0.54870808263E+03  0.66282169758E+03  0.10100000352E+00 0. -1.
       -3    1    3    3    0  502 -0.28970405008E+03 -0.23307422854E+03  0.18788988298E+04  0.19153362252E+04  0.10100000352E+00 0.  1.
</event>
<event>
 5   0  0.4462201E-06  0.2228961E+04  0.7818609E-02  0.8506470E-01
       -1   -1    0    0    0  501  0.00000000000E+00  0.00000000000E+00  0.11451622149E+04  0.11451622149E+04  0.50400001928E-02 0. -1.
        1   -1    0    0  501    0  0.00000000000E+00  0.00000000000E+00 -0.10846210804E+04  0.10846210804E+04  0.50400001928E-02 0.  1.
    10030    2    1    2    0    0  0.00000000000E+00  0.00000000000E+00  0.60541134447E+02  0.22297832953E+04  0.22289612637E+04 0.  0.
        3    1    3    3  502    0 -0.55208880681E+03 -0.93601156697E+03 -0.21710055997E+03  0.11081752422E+04  0.10100000352E+00 0.  1.
       -3    1    3    3    0  502  0.55208880681E+03  0.93601156697E+03  0.27764169442E+03  0.11216080531E+04  0.10100000352E+00 0. -1.
</event>
<event>
 5   0  0.4408787E-06  0.2200942E+04  0.7818609E-02  0.8518036E-01
        1   -1    0    0  501    0  0.00000000000E+00  0.00000000000E+00  0.16398152312E+04  0.16398152313E+04  0.50400001928E-02 0.  1.
       -1   -1    0    0    0  501  0.00000000000E+00  0.00000000000E+00 -0.73852000939E+03  0.73852000940E+03  0.50400001928E-02 0. -1.
    10030    2    1    2    0    0  0.00000000000E+00  0.00000000000E+00  0.90129522186E+03  0.23783352407E+04  0.22009419438E+04 0.  0.
        1    1    3    3  502    0 -0.74412753405E+03 -0.15565637469E+03  0.13104414967E+04  0.15149955809E+04  0.50400001928E-02 0.  1.
       -1    1    3    3    0  502  0.74412753405E+03  0.15565637469E+03 -0.40914627481E+03  0.86333965976E+03  0.50400001928E-02 0. -1.
</event>
<event>
 5   0  0.1035928E-05  0.2195719E+04  0.7818609E-02  0.8520212E-01
       -2   -1    0    0    0  501  0.00000000000E+00  0.00000000000E+00  0.94092235817E+03  0.94092235817E+03  0.25500000920E-02 0.  1.
        2   -1    0    0  501    0  0.00000000000E+00  0.00000000000E+00 -0.12809723197E+04  0.12809723197E+04  0.25500000920E-02 0. -1.
    10030    2    1    2    0    0  0.00000000000E+00  0.00000000000E+00 -0.34004996157E+03  0.22218946779E+04  0.21957190128E+04 0.  0.
        3    1    3    3  502    0  0.23101531678E+03 -0.10105936068E+04  0.19570856521E+03  0.10549736335E+04  0.10100000352E+00 0.  1.
       -3    1    3    3    0  502 -0.23101531678E+03  0.10105936068E+04 -0.53575852677E+03  0.11669210444E+04  0.10100000352E+00 0. -1.
</event>
<event>
 5   0  0.3546750E-06  0.2196094E+04  0.7818609E-02  0.8520056E-01
       -3   -1    0    0    0  501  0.00000000000E+00  0.00000000000E+00  0.79635191073E+03  0.79635191713E+03  0.10100000352E+00 0.  1.
        3   -1    0    0  501    0  0.00000000000E+00  0.00000000000E+00 -0.15140380698E+04  0.15140380732E+04  0.10100000352E+00 0. -1.
    10030    2    1    2    0    0  0.00000000000E+00  0.00000000000E+00 -0.71768615907E+03  0.23103899903E+04  0.21960939152E+04 0.  0.
        4    1    3    3  502    0  0.16437964305E+03 -0.10827528131E+04 -0.44255300476E+03  0.11811981613E+04  0.12699999809E+01 0. -1.
       -4    1    3    3    0  502 -0.16437964305E+03  0.10827528131E+04 -0.27513315431E+03  0.11291918290E+04  0.12699999809E+01 0.  1.
</event>
<event>
 5   0  0.1035928E-05  0.2202932E+04  0.7818609E-02  0.8517209E-01
        2   -1    0    0  501    0  0.00000000000E+00  0.00000000000E+00  0.10168366335E+04  0.10168366335E+04  0.25500000920E-02 0.  1.
       -2   -1    0    0    0  501  0.00000000000E+00  0.00000000000E+00 -0.11931389034E+04  0.11931389034E+04  0.25500000920E-02 0. -1.
    10030    2    1    2    0    0  0.00000000000E+00  0.00000000000E+00 -0.17630226990E+03  0.22099755370E+04  0.22029319971E+04 0.  0.
        3    1    3    3  502    0 -0.90294075073E+03  0.50334351098E+02 -0.71896350151E+03  0.11553112450E+04  0.10100000352E+00 0. -1.
       -3    1    3    3    0  502  0.90294075073E+03 -0.50334351098E+02  0.54266123160E+03  0.10546642919E+04  0.10100000352E+00 0.  1.
</event>
<event>
 5   0  0.1015876E-05  0.2200012E+04  0.7818609E-02  0.8518423E-01
        2   -1    0    0  501    0  0.00000000000E+00  0.00000000000E+00  0.77900725131E+03  0.77900725131E+03  0.25500000920E-02 0.  1.
       -2   -1    0    0    0  501  0.00000000000E+00  0.00000000000E+00 -0.15532763968E+04  0.15532763968E+04  0.25500000920E-02 0. -1.
    10030    2    1    2    0    0  0.00000000000E+00  0.00000000000E+00 -0.77426914547E+03  0.23322836481E+04  0.22000123421E+04 0.  0.
        5    1    3    3  502    0 -0.87825160644E+03  0.68141204122E+02  0.31127842227E+03  0.93428339067E+03  0.46999998093E+01 0. -1.
       -5    1    3    3    0  502  0.87825160644E+03 -0.68141204122E+02 -0.10855475677E+04  0.13980002574E+04  0.46999998093E+01 0.  1.
</event>
<event>
 5   0  0.4630615E-06  0.2186319E+04  0.7818609E-02  0.8524144E-01
        1   -1    0    0  501    0  0.00000000000E+00  0.00000000000E+00  0.11877135014E+04  0.11877135014E+04  0.50400001928E-02 0. -1.
       -1   -1    0    0    0  501  0.00000000000E+00  0.00000000000E+00 -0.10061329633E+04  0.10061329634E+04  0.50400001928E-02 0.  1.
    10030    2    1    2    0    0  0.00000000000E+00  0.00000000000E+00  0.18158053808E+03  0.21938464648E+04  0.21863190113E+04 0.  0.
        2    1    3    3  502    0  0.21117070508E+03 -0.19323316842E+03 -0.96786137388E+03  0.10093006307E+04  0.25500000920E-02 0.  1.
       -2    1    3    3    0  502 -0.21117070508E+03  0.19323316842E+03  0.11494419120E+04  0.11845458341E+04  0.25500000920E-02 0. -1.
</event>
<event>
 5   0  0.4309945E-06  0.2199383E+04  0.7818609E-02  0.8518685E-01
        1   -1    0    0  501    0  0.00000000000E+00  0.00000000000E+00  0.15474520957E+04  0.15474520957E+04  0.50400001928E-02 0. -1.
       -1   -1    0    0    0  501  0.00000000000E+00  0.00000000000E+00 -0.78149217871E+03  0.78149217873E+03  0.50400001928E-02 0.  1.
    10030    2    1    2    0    0  0.00000000000E+00  0.00000000000E+00  0.76595991698E+03  0.23289442744E+04  0.21993832860E+04 0.  0.
        4    1    3    3  502    0 -0.86792472385E+03  0.77972012804E+02  0.10932752284E+04  0.13980791462E+04  0.12699999809E+01 0. -1.
       -4    1    3    3    0  502  0.86792472385E+03 -0.77972012804E+02 -0.32731531139E+03  0.93086512827E+03  0.12699999809E+01 0.  1.
</event>
<event>
 5   0  0.9963573E-06  0.2181929E+04  0.7818609E-02  0.8525988E-01
        2   -1    0    0  501    0  0.00000000000E+00  0.00000000000E+00  0.13551706926E+04  0.13551706926E+04  0.25500000920E-02 0. -1.
       -2   -1    0    0    0  501  0.00000000000E+00  0.00000000000E+00 -0.87826813964E+03  0.87826813964E+03  0.25500000920E-02 0.  1.
    10030    2    1    2    0    0  0.00000000000E+00  0.00000000000E+00  0.47690255296E+03  0.22334388322E+04  0.21819287276E+04 0.  0.
        2    1    3    3  502    0 -0.80949705660E+03  0.35528534344E+03 -0.41592952961E+03  0.97699054935E+03  0.25500000920E-02 0. -1.
       -2    1    3    3    0  502  0.80949705660E+03 -0.35528534344E+03  0.89283208257E+03  0.12564482829E+04  0.25500000920E-02 0.  1.
</event>
<event>
 5   0  0.1035928E-05  0.2200785E+04  0.7818609E-02  0.8518101E-01
        2   -1    0    0  501    0  0.00000000000E+00  0.00000000000E+00  0.14726357445E+04  0.14726357445E+04  0.25500000920E-02 0. -1.
       -2   -1    0    0    0  501  0.00000000000E+00  0.00000000000E+00 -0.82224262746E+03  0.82224262747E+03  0.25500000920E-02 0.  1.
    10030    2    1    2    0    0  0.00000000000E+00  0.00000000000E+00  0.65039311707E+03  0.22948783720E+04  0.22007852089E+04 0.  0.
        3    1    3    3  502    0  0.73752285393E+03  0.31717707046E+03  0.11099151979E+04  0.13698368556E+04  0.10100000352E+00 0. -1.
       -3    1    3    3    0  502 -0.73752285393E+03 -0.31717707046E+03 -0.45952208087E+03  0.92504151642E+03  0.10100000352E+00 0.  1.
</event>
<event>
 5   0  0.4408787E-06  0.2202374E+04  0.7818609E-02  0.8517441E-01
        1   -1    0    0  501    0  0.00000000000E+00  0.00000000000E+00  0.12726860434E+04  0.12726860434E+04  0.50400001928E-02 0.  1.
       -1   -1    0    0    0  501  0.00000000000E+00  0.00000000000E+00 -0.95279803175E+03  0.95279803177E+03  0.50400001928E-02 0. -1.
    10030    2    1    2    0    0  0.00000000000E+00  0.00000000000E+00  0.31988801168E+03  0.22254840752E+04  0.22023739530E+04 0.  0.
        1    1    3    3  502    0  0.62604065396E+03 -0.32242388232E+03  0.10154259063E+04  0.12357078261E+04  0.50400001928E-02 0.  1.
       -1    1    3    3    0  502 -0.62604065396E+03  0.32242388232E+03 -0.69553789465E+03  0.98977624907E+03  0.50400001928E-02 0. -1.
</event>
<event>
 5   0  0.1015876E-05  0.2201603E+04  0.7818609E-02  0.8517761E-01
       -2   -1    0    0    0  501  0.00000000000E+00  0.00000000000E+00  0.97162782607E+03  0.97162782607E+03  0.25500000920E-02 0. -1.
        2   -1    0    0  501    0  0.00000000000E+00  0.00000000000E+00 -0.12471482603E+04  0.12471482603E+04  0.25500000920E-02 0.  1.
    10030    2    1    2    0    0  0.00000000000E+00  0.00000000000E+00 -0.27552043422E+03  0.22187760864E+04  0.22016030096E+04 0.  0.
        5    1    3    3  502    0  0.85445503948E+03 -0.23412884272E+03 -0.79618022534E+03  0.11911485091E+04  0.46999998093E+01 0.  1.
       -5    1    3    3    0  502 -0.85445503948E+03  0.23412884272E+03  0.52065979112E+03  0.10276275773E+04  0.46999998093E+01 0. -1.
</event>
<event>
 5   0  0.4309945E-06  0.2197202E+04  0.7818609E-02  0.8519594E-01
        1   -1    0    0  501    0  0.00000000000E+00  0.00000000000E+00  0.16569884236E+04  0.16569884236E+04  0.50400001928E-02 0.  1.
       -1   -1    0    0    0  501  0.00000000000E+00  0.00000000000E+00 -0.72838393174E+03  0.72838393176E+03  0.50400001928E-02 0. -1.
    10030    2    1    2    0    0  0.00000000000E+00  0.00000000000E+00  0.92860449183E+03  0.23853723553E+04  0.21972016228E+04 0.  0.
        4    1    3    3  502    0 -0.60280477176E+03 -0.13335992311E+03 -0.52223652145E+03  0.80863530666E+03  0.12699999809E+01 0.  1.
       -4    1    3    3    0  502  0.60280477176E+03  0.13335992311E+03  0.14508410133E+04  0.15767370487E+04  0.12699999809E+01 0. -1.
</event>
<event>
 5   0  0.4794967E-06  0.2198947E+04  0.7818609E-02  0.8518867E-01
        1   -1    0    0  501    0  0.00000000000E+00  0.00000000000E+00  0.10596255734E+04  0.10596255734E+04  0.50400001928E-02 0.  1.
       -1   -1    0    0    0  501  0.00000000000E+00  0.00000000000E+00 -0.11408198820E+04  0.11408198820E+04  0.50400001928E-02 0. -1.
    10030    2    1    2    0    0  0.00000000000E+00  0.00000000000E+00 -0.81194308630E+02  0.22004454554E+04  0.21989469494E+04 0.  0.
        5    1    3    3  502    0  0.82171882740E+03 -0.65467946011E+03 -0.36484389906E+03  0.11121871189E+04  0.46999998093E+01 0. -1.
       -5    1    3    3    0  502 -0.82171882740E+03  0.65467946011E+03  0.28364959043E+03  0.10882583365E+04  0.46999998093E+01 0.  1.
</event>
<event>
 5   0  0.9963573E-06  0.2209041E+04  0.7818609E-02  0.8514675E-01
        2   -1    0    0  501    0  0.00000000000E+00  0.00000000000E+00  0.17577029216E+04  0.17577029216E+04  0.25500000920E-02 0.  1.
       -2   -1    0    0    0  501  0.00000000000E+00  0.00000000000E+00 -0.69406792712E+03  0.69406792713E+03  0.25500000920E-02 0. -1.
    10030    2    1    2    0    0  0.00000000000E+00  0.00000000000E+00  0.10636349945E+04  0.24517708487E+04  0.22090407179E+04 0.  0.
        2    1    3    3  502    0 -0.57687113888E+02 -0.83873532710E+03 -0.26324771896E+03  0.88096771426E+03  0.25500000920E-02 0. -1.
       -2    1    3    3    0  502  0.57687113888E+02  0.83873532710E+03  0.13268827135E+04  0.15708031345E+04  0.25500000920E-02 0.  1.
</event>
<event>
 5   0  0.4408787E-06  0.2205254E+04  0.7818609E-02  0.8516245E-01
       -1   -1    0    0    0  501  0.00000000000E+00  0.00000000000E+00  0.85602968722E+03  0.85602968724E+03  0.50400001928E-02 0.  1.
        1   -1    0    0  501    0  0.00000000000E+00  0.00000000000E+00 -0.14202616475E+04  0.14202616475E+04  0.50400001928E-02 0. -1.
    10030    2    1    2    0    0  0.00000000000E+00  0.00000000000E+00 -0.56423196027E+03  0.22762913347E+04  0.22052538483E+04 0.  0.
        1    1    3    3  502    0 -0.81374344482E+03 -0.22106019707E+03  0.45122030425E+03  0.95637114538E+03  0.50400001928E-02 0.  1.
       -1    1    3    3    0  502  0.81374344482E+03  0.22106019707E+03 -0.10154522645E+04  0.13199201894E+04  0.50400001928E-02 0. -1.
</event>
<event>
 5   0  0.4630615E-06  0.2200097E+04  0.7818609E-02  0.8518388E-01
        1   -1    0    0  501    0  0.00000000000E+00  0.00000000000E+00  0.76279050275E+03  0.76279050277E+03  0.50400001928E-02 0. -1.
       -1   -1    0    0    0  501  0.00000000000E+00  0.00000000000E+00 -0.15864207782E+04  0.15864207782E+04  0.50400001928E-02 0.  1.
    10030    2    1    2    0    0  0.00000000000E+00  0.00000000000E+00 -0.82363027547E+03  0.23492112810E+04  0.22000970006E+04 0.  0.
        2    1    3    3  502    0  0.76864692936E+03  0.74531155426E+03 -0.68151962055E+03  0.12691636648E+04  0.25500000920E-02 0. -1.
       -2    1    3    3    0  502 -0.76864692936E+03 -0.74531155426E+03 -0.14211065492E+03  0.10800476162E+04  0.25500000920E-02 0.  1.
</event>
<event>
 5   0  0.1015876E-05  0.2192257E+04  0.7818609E-02  0.8521658E-01
       -2   -1    0    0    0  501  0.00000000000E+00  0.00000000000E+00  0.20511120253E+04  0.20511120253E+04  0.25500000920E-02 0.  1.
        2   -1    0    0  501    0  0.00000000000E+00  0.00000000000E+00 -0.58577887693E+03  0.58577887694E+03  0.25500000920E-02 0. -1.
    10030    2    1    2    0    0  0.00000000000E+00  0.00000000000E+00  0.14653331484E+04  0.26368909023E+04  0.21922573742E+04 0.  0.
        5    1    3    3  502    0 -0.48951309556E+03 -0.69845938635E+03 -0.95453274094E+02  0.85825520834E+03  0.46999998093E+01 0. -1.
       -5    1    3    3    0  502  0.48951309556E+03  0.69845938635E+03  0.15607864225E+04  0.17786356939E+04  0.46999998093E+01 0.  1.
</event>
<event>
 5   0  0.9963173E-06  0.2198624E+04  0.7818609E-02  0.8519001E-01
       -2   -1    0    0    0  501  0.00000000000E+00  0.00000000000E+00  0.10678964774E+04  0.10678964774E+04  0.25500000920E-02 0.  1.
        2   -1    0    0  501    0  0.00000000000E+00  0.00000000000E+00 -0.11316520137E+04  0.11316520137E+04  0.25500000920E-02 0. -1.
    10030    2    1    2    0    0  0.00000000000E+00  0.00000000000E+00 -0.63755536249E+02  0.21995484911E+04  0.21986242963E+04 0.  0.
        4    1    3    3  502    0 -0.43318186174E+02 -0.55489987368E+03  0.91651610867E+03  0.10722843491E+04  0.12699999809E+01 0.  1.
       -4    1    3    3    0  502  0.43318186174E+02  0.55489987368E+03 -0.98027164492E+03  0.11272641420E+04  0.12699999809E+01 0. -1.
</event>
<event>
 5   0  0.4630615E-06  0.2200883E+04  0.7818609E-02  0.8518061E-01
       -1   -1    0    0    0  501  0.00000000000E+00  0.00000000000E+00  0.84165069061E+03  0.84165069063E+03  0.50400001928E-02 0. -1.
        1   -1    0    0  501    0  0.00000000000E+00  0.00000000000E+00 -0.14388048317E+04  0.14388048317E+04  0.50400001928E-02 0.  1.
    10030    2    1    2    0    0  0.00000000000E+00  0.00000000000E+00 -0.59715414113E+03  0.22804555224E+04  0.22008826232E+04 0.  0.
        2    1    3    3  502    0 -0.77755209753E+03  0.77533150845E+03 -0.22353721247E+03  0.11205780195E+04  0.25500000920E-02 0. -1.
       -2    1    3    3    0  502  0.77755209753E+03 -0.77533150845E+03 -0.37361692866E+03  0.11598775029E+04  0.25500000920E-02 0.  1.
</event>
<event>
 5   0  0.4462201E-06  0.2201658E+04  0.7818609E-02  0.8517739E-01
        1   -1    0    0  501    0  0.00000000000E+00  0.00000000000E+00  0.10122276554E+04  0.10122276554E+04  0.50400001928E-02 0. -1.
       -1   -1    0    0    0  501  0.00000000000E+00  0.00000000000E+00 -0.11971851865E+04  0.11971851865E+04  0.50400001928E-02 0.  1.
    10030    2    1    2    0    0  0.00000000000E+00  0.00000000000E+00 -0.18495753109E+03  0.22094128419E+04  0.22016575160E+04 0.  0.
        3    1    3    3  502    0 -0.33697931474E+03  0.10015071287E+03 -0.11393401950E+04  0.11923427837E+04  0.10100000352E+00 0.  1.
       -3    1    3    3    0  502  0.33697931474E+03 -0.10015071287E+03  0.95438266390E+03  0.10170700582E+04  0.10100000352E+00 0. -1.
</event>
<event>
 5   0  0.4630615E-06  0.2201135E+04  0.7818609E-02  0.8517956E-01
        1   -1    0    0  501    0  0.00000000000E+00  0.00000000000E+00  0.16170263595E+04  0.16170263595E+04  0.50400001928E-02 0.  1.
       -1   -1    0    0    0  501  0.00000000000E+00  0.00000000000E+00 -0.74905936504E+03  0.74905936506E+03  0.50400001928E-02 0. -1.
    10030    2    1    2    0    0  0.00000000000E+00  0.00000000000E+00  0.86796699441E+03  0.23660857245E+04  0.22011349237E+04 0.  0.
        2    1    3    3  502    0  0.10517199486E+03 -0.64081464806E+02 -0.74162883948E+03  0.75178515427E+03  0.25500000920E-02 0. -1.
       -2    1    3    3    0  502 -0.10517199486E+03  0.64081464806E+02  0.16095958339E+04  0.16143005703E+04  0.25500000920E-02 0.  1.
</event>
<event>
 5   0  0.1035928E-05  0.2184940E+04  0.7818609E-02  0.8524723E-01
        2   -1    0    0  501    0  0.00000000000E+00  0.00000000000E+00  0.17408270213E+04  0.17408270213E+04  0.25500000920E-02 0.  1.
       -2   -1    0    0    0  501  0.00000000000E+00  0.00000000000E+00 -0.68558836031E+03  0.68558836032E+03  0.25500000920E-02 0. -1.
    10030    2    1    2    0    0  0.00000000000E+00  0.00000000000E+00  0.10552386610E+04  0.24264153817E+04  0.21849400387E+04 0.  0.
        3    1    3    3  502    0 -0.63803991488E+03 -0.27927162344E+03  0.14623056201E+04  0.16196991416E+04  0.10100000352E+00 0.  1.
       -3    1    3    3    0  502  0.63803991488E+03  0.27927162344E+03 -0.40706695903E+03  0.80671624006E+03  0.10100000352E+00 0. -1.
</event>
<event>
 5   0  0.4794967E-06  0.2197382E+04  0.7818609E-02  0.8519518E-01
        1   -1    0    0  501    0  0.00000000000E+00  0.00000000000E+00  0.12807016573E+04  0.12807016573E+04  0.50400001928E-02 0. -1.
       -1   -1    0    0    0  501  0.00000000000E+00  0.00000000000E+00 -0.94254765366E+03  0.94254765368E+03  0.50400001928E-02 0.  1.
    10030    2    1    2    0    0  0.00000000000E+00  0.00000000000E+00  0.33815400360E+03  0.22232493110E+04  0.21973823901E+04 0.  0.
        5    1    3    3  502    0 -0.77242353686E+03 -0.75889057008E+03 -0.18979853899E+02  0.10830213952E+04  0.46999998093E+01 0.  1.
       -5    1    3    3    0  502  0.77242353686E+03  0.75889057008E+03  0.35713385750E+03  0.11402279157E+04  0.46999998093E+01 0. -1.
</event>
<event>
 5   0  0.4309945E-06  0.2199949E+04  0.7818609E-02  0.8518449E-01
       -1   -1    0    0    0  501  0.00000000000E+00  0.00000000000E+00  0.79855188245E+03  0.79855188247E+03  0.50400001928E-02 0. -1.
        1   -1    0    0  501    0  0.00000000000E+00  0.00000000000E+00 -0.15151722274E+04  0.15151722274E+04  0.50400001928E-02 0.  1.
    10030    2    1    2    0    0  0.00000000000E+00  0.00000000000E+00 -0.71662034491E+03  0.23137241098E+04  0.21999487580E+04 0.  0.
        4    1    3    3  502    0 -0.28864822843E+03  0.10573065162E+04 -0.26005955397E+03  0.11264312910E+04  0.12699999809E+01 0. -1.
       -4    1    3    3    0  502  0.28864822843E+03 -0.10573065162E+04 -0.45656079094E+03  0.11872928188E+04  0.12699999809E+01 0.  1.
</event>
<event>
 5   0  0.4462201E-06  0.2204638E+04  0.7818609E-02  0.8516500E-01
       -1   -1    0    0    0  501  0.00000000000E+00  0.00000000000E+00  0.62251382601E+03  0.62251382603E+03  0.50400001928E-02 0. -1.
        1   -1    0    0  501    0  0.00000000000E+00  0.00000000000E+00 -0.19519366411E+04  0.19519366411E+04  0.50400001928E-02 0.  1.
    10030    2    1    2    0    0  0.00000000000E+00  0.00000000000E+00 -0.13294228151E+04  0.25744504672E+04  0.22046383346E+04 0.  0.
        3    1    3    3  502    0  0.85402782119E+03  0.12542296996E+03  0.13586385214E+03  0.87381544806E+03  0.10100000352E+00 0. -1.
       -3    1    3    3    0  502 -0.85402782119E+03 -0.12542296996E+03 -0.14652866672E+04  0.17006350191E+04  0.10100000352E+00 0.  1.
</event>
<event>
 5   0  0.1014015E-05  0.2203671E+04  0.7818609E-02  0.8516902E-01
        2   -1    0    0  501    0  0.00000000000E+00  0.00000000000E+00  0.10687778548E+04  0.10687778548E+04  0.25500000920E-02 0. -1.
       -2   -1    0    0    0  501  0.00000000000E+00  0.00000000000E+00 -0.11359152438E+04  0.11359152438E+04  0.25500000920E-02 0.  1.
    10030    2    1    2    0    0  0.00000000000E+00  0.00000000000E+00 -0.67137388979E+02  0.22046930986E+04  0.22036706265E+04 0.  0.
        1    1    3    3  502    0  0.93801710991E+03  0.57182971597E+03 -0.11831770854E+03  0.11049273292E+04  0.50400001928E-02 0. -1.
       -1    1    3    3    0  502 -0.93801710991E+03 -0.57182971597E+03  0.51180319562E+02  0.10997657695E+04  0.50400001928E-02 0.  1.
</event>
<event>
 5   0  0.4408787E-06  0.2188429E+04  0.7818609E-02  0.8523260E-01
        1   -1    0    0  501    0  0.00000000000E+00  0.00000000000E+00  0.17424200324E+04  0.17424200324E+04  0.50400001928E-02 0.  1.
       -1   -1    0    0    0  501  0.00000000000E+00  0.00000000000E+00 -0.68715075220E+03  0.68715075221E+03  0.50400001928E-02 0. -1.
    10030    2    1    2    0    0  0.00000000000E+00  0.00000000000E+00  0.10552692802E+04  0.24295707846E+04  0.21884288756E+04 0.  0.
        1    1    3    3  502    0 -0.14665314734E+03  0.10503403386E+04  0.82673391853E+03  0.13446973431E+04  0.50400001928E-02 0. -1.
       -1    1    3    3    0  502  0.14665314734E+03 -0.10503403386E+04  0.22853536163E+03  0.10848734415E+04  0.50400001928E-02 0.  1.
</event>
<event>
 5   0  0.1035928E-05  0.2198521E+04  0.7818609E-02  0.8519044E-01
       -2   -1    0    0    0  501  0.00000000000E+00  0.00000000000E+00  0.78611247493E+03  0.78611247494E+03  0.25500000920E-02 0.  1.
        2   -1    0    0  501    0  0.00000000000E+00  0.00000000000E+00 -0.15371508944E+04  0.15371508944E+04  0.25500000920E-02 0. -1.
    10030    2    1    2    0    0  0.00000000000E+00  0.00000000000E+00 -0.75103841946E+03  0.23232633693E+04  0.21985208609E+04 0.  0.
        3    1    3    3  502    0  0.74558327037E+03 -0.12109268706E+03 -0.12194667148E+04  0.14344535303E+04  0.10100000352E+00 0. -1.
       -3    1    3    3    0  502 -0.74558327037E+03  0.12109268706E+03  0.46842829532E+03  0.88880983904E+03  0.10100000352E+00 0.  1.
</event>
<event>
 5   0  0.1035928E-05  0.2154401E+04  0.7818609E-02  0.8537651E-01
        2   -1    0    0  501    0  0.00000000000E+00  0.00000000000E+00  0.39599427067E+03  0.39599427068E+03  0.25500000920E-02 0. -1.
       -2   -1    0    0    0  501  0.00000000000E+00  0.00000000000E+00 -0.29302458307E+04  0.29302458307E+04  0.25500000920E-02 0.  1.
    10030    2    1    2    0    0  0.00000000000E+00  0.00000000000E+00 -0.25342515600E+04  0.33262401013E+04  0.21544006690E+04 0.  0.
        3    1    3    3  502    0  0.34495812944E+03 -0.20788242967E+03  0.27537318291E+03  0.48789508678E+03  0.10100000352E+00 0. -1.
       -3    1    3    3    0  502 -0.34495812944E+03  0.20788242967E+03 -0.28096247429E+04  0.28383450146E+04  0.10100000352E+00 0.  1.
</event>
<event>
 5   0  0.9963173E-06  0.2199454E+04  0.7818609E-02  0.8518655E-01
       -2   -1    0    0    0  501  0.00000000000E+00  0.00000000000E+00  0.58628544263E+03  0.58628544264E+03  0.25500000920E-02 0. -1.
        2   -1    0    0  501    0  0.00000000000E+00  0.00000000000E+00 -0.20628176267E+04  0.20628176267E+04  0.25500000920E-02 0.  1.
    10030    2    1    2    0    0  0.00000000000E+00  0.00000000000E+00 -0.14765321841E+04  0.26491030693E+04  0.21994544281E+04 0.  0.
        4    1    3    3  502    0 -0.78363251125E+03  0.43924243165E+03  0.25753530238E+02  0.89870945453E+03  0.12699999809E+01 0. -1.
       -4    1    3    3    0  502  0.78363251125E+03 -0.43924243165E+03 -0.15022857143E+04  0.17503936148E+04  0.12699999809E+01 0.  1.
</event>
<event>
 5   0  0.4462201E-06  0.2195643E+04  0.7818609E-02  0.8520244E-01
        1   -1    0    0  501    0  0.00000000000E+00  0.00000000000E+00  0.13288252895E+04  0.13288252895E+04  0.50400001928E-02 0.  1.
       -1   -1    0    0    0  501  0.00000000000E+00  0.00000000000E+00 -0.90697550310E+03  0.90697550311E+03  0.50400001928E-02 0. -1.
    10030    2    1    2    0    0  0.00000000000E+00  0.00000000000E+00  0.42184978637E+03  0.22358007926E+04  0.21956429450E+04 0.  0.
        3    1    3    3  502    0  0.77589241344E+03 -0.76393123798E+02  0.99795620916E+03  0.12663970753E+04  0.10100000352E+00 0.  1.
       -3    1    3    3    0  502 -0.77589241344E+03  0.76393123798E+02 -0.57610642280E+03  0.96940371734E+03  0.10100000352E+00 0. -1.
</event>
<event>
 5   0  0.9963173E-06  0.2200814E+04  0.7818609E-02  0.8518089E-01
        2   -1    0    0  501    0  0.00000000000E+00  0.00000000000E+00  0.11824511593E+04  0.11824511593E+04  0.25500000920E-02 0.  1.
       -2   -1    0    0    0  501  0.00000000000E+00  0.00000000000E+00 -0.10240553747E+04  0.10240553747E+04  0.25500000920E-02 0. -1.
    10030    2    1    2    0    0  0.00000000000E+00  0.00000000000E+00  0.15839578464E+03  0.22065065340E+04  0.22008139085E+04 0.  0.
        4    1    3    3  502    0 -0.44587341603E+02 -0.23386477515E+03  0.11563198843E+04  0.11805753055E+04  0.12699999809E+01 0.  1.
       -4    1    3    3    0  502  0.44587341603E+02  0.23386477515E+03 -0.99792409967E+03  0.10259312285E+04  0.12699999809E+01 0. -1.
</event>
<event>
 5   0  0.4794967E-06  0.2199373E+04  0.7818609E-02  0.8518689E-01
        1   -1    0    0  501    0  0.00000000000E+00  0.00000000000E+00  0.10540281412E+04  0.10540281412E+04  0.50400001928E-02 0. -1.
       -1   -1    0    0    0  501  0.00000000000E+00  0.00000000000E+00 -0.11473221917E+04  0.11473221917E+04  0.50400001928E-02 0.  1.
    10030    2    1    2    0    0  0.00000000000E+00  0.00000000000E+00 -0.93294050451E+02  0.22013503329E+04  0.21993725261E+04 0.  0.
        5    1    3    3  502    0  0.51312854536E+03  0.26222633017E+03  0.89079771918E+03  0.10609459076E+04  0.46999998093E+01 0. -1.
       -5    1    3    3    0  502 -0.51312854536E+03 -0.26222633017E+03 -0.98409176963E+03  0.11404044253E+04  0.46999998093E+01 0.  1.
</event>
<event>
 5   0  0.1014015E-05  0.2200199E+04  0.7818609E-02  0.8518345E-01
        2   -1    0    0  501    0  0.00000000000E+00  0.00000000000E+00  0.80784437776E+03  0.80784437776E+03  0.25500000920E-02 0. -1.
       -2   -1    0    0    0  501  0.00000000000E+00  0.00000000000E+00 -0.14980843979E+04  0.14980843979E+04  0.25500000920E-02 0.  1.
    10030    2    1    2    0    0  0.00000000000E+00  0.00000000000E+00 -0.69024002010E+03  0.23059287756E+04  0.22001991348E+04 0.  0.
        1    1    3    3  502    0 -0.27532164991E+03  0.68878841906E+03  0.50631553051E+03  0.89810183922E+03  0.50400001928E-02 0. -1.
       -1    1    3    3    0  502  0.27532164991E+03 -0.68878841906E+03 -0.11965555506E+04  0.14078269364E+04  0.50400001928E-02 0.  1.
</event>
<event>
 5   0  0.4630615E-06  0.2174890E+04  0.7818609E-02  0.8528953E-01
        1   -1    0    0  501    0  0.00000000000E+00  0.00000000000E+00  0.12940397884E+04  0.12940397884E+04  0.50400001928E-02 0.  1.
       -1   -1    0    0    0  501  0.00000000000E+00  0.00000000000E+00 -0.91383335327E+03  0.91383335328E+03  0.50400001928E-02 0. -1.
    10030    2    1    2    0    0  0.00000000000E+00  0.00000000000E+00  0.38020643513E+03  0.22078731417E+04  0.21748900838E+04 0.  0.
        2    1    3    3  502    0 -0.59880212016E+02 -0.61853917097E+03 -0.71582048779E+03  0.94793212656E+03  0.25500000920E-02 0. -1.
       -2    1    3    3    0  502  0.59880212016E+02  0.61853917097E+03  0.10960269229E+04  0.12599410151E+04  0.25500000920E-02 0.  1.
</event>
<event>
 5   0  0.1015876E-05  0.2200830E+04  0.7818609E-02  0.8518083E-01
       -2   -1    0    0    0  501  0.00000000000E+00  0.00000000000E+00  0.76392811082E+03  0.76392811083E+03  0.25500000920E-02 0.  1.
        2   -1    0    0  501    0  0.00000000000E+00  0.00000000000E+00 -0.15851141619E+04  0.15851141619E+04  0.25500000920E-02 0. -1.
    10030    2    1    2    0    0  0.00000000000E+00  0.00000000000E+00 -0.82118605108E+03  0.23490422727E+04  0.22008300863E+04 0.  0.
        5    1    3    3  502    0 -0.29874168884E+03 -0.28380364153E+03 -0.14996498892E+04  0.15552372757E+04  0.46999998093E+01 0. -1.
       -5    1    3    3    0  502  0.29874168884E+03  0.28380364153E+03  0.67846383814E+03  0.79380499700E+03  0.46999998093E+01 0.  1.
</event>
<event>
 5   0  0.4462201E-06  0.2203030E+04  0.7818609E-02  0.8517168E-01
        1   -1    0    0  501    0  0.00000000000E+00  0.00000000000E+00  0.15012323401E+04  0.15012323401E+04  0.50400001928E-02 0.  1.
       -1   -1    0    0    0  501  0.00000000000E+00  0.00000000000E+00 -0.80822624267E+03  0.80822624269E+03  0.50400001928E-02 0. -1.
    10030    2    1    2    0    0  0.00000000000E+00  0.00000000000E+00  0.69300609744E+03  0.23094585828E+04  0.22030300712E+04 0.  0.
        3    1    3    3  502    0  0.50619135821E+03  0.97370997361E+03  0.24708168744E+03  0.11248956282E+04  0.10100000352E+00 0. -1.
       -3    1    3    3    0  502 -0.50619135821E+03 -0.97370997361E+03  0.44592441001E+03  0.11845629546E+04  0.10100000352E+00 0.  1.
</event>
<event>
 5   0  0.4462201E-06  0.2186622E+04  0.7818609E-02  0.8524017E-01
        1   -1    0    0  501    0  0.00000000000E+00  0.00000000000E+00  0.23706541323E+04  0.23706541323E+04  0.50400001928E-02 0.  1.
       -1   -1    0    0    0  501  0.00000000000E+00  0.00000000000E+00 -0.50421881977E+03  0.50421881979E+03  0.50400001928E-02 0. -1.
    10030    2    1    2    0    0  0.00000000000E+00  0.00000000000E+00  0.18664353126E+04  0.28748729521E+04  0.21866215299E+04 0.  0.
        3    1    3    3  502    0 -0.25181343843E+03  0.80124377611E+03  0.12957444911E+02  0.83998184630E+03  0.10100000352E+00 0. -1.
       -3    1    3    3    0  502  0.25181343843E+03 -0.80124377611E+03  0.18534778677E+04  0.20348911058E+04  0.10100000352E+00 0.  1.
</event>
<event>
 5   0  0.3546750E-06  0.2198504E+04  0.7818609E-02  0.8519051E-01
       -3   -1    0    0    0  501  0.00000000000E+00  0.00000000000E+00  0.13534239813E+04  0.13534239851E+04  0.10100000352E+00 0.  1.
        3   -1    0    0  501    0  0.00000000000E+00  0.00000000000E+00 -0.89281297100E+03  0.89281297671E+03  0.10100000352E+00 0. -1.
    10030    2    1    2    0    0  0.00000000000E+00  0.00000000000E+00  0.46061101028E+03  0.22462369618E+04  0.21985035787E+04 0.  0.
        1    1    3    3  502    0 -0.88315771821E+03  0.61203893423E+03 -0.66683835275E+01  0.10745248623E+04  0.50400001928E-02 0. -1.
       -1    1    3    3    0  502  0.88315771821E+03 -0.61203893423E+03  0.46727939381E+03  0.11717120995E+04  0.50400001928E-02 0.  1.
</event>
<event>
 5   0  0.4408787E-06  0.2198305E+04  0.7818609E-02  0.8519134E-01
       -1   -1    0    0    0  501  0.00000000000E+00  0.00000000000E+00  0.69439087509E+03  0.69439087511E+03  0.50400001928E-02 0.  1.
        1   -1    0    0  501    0  0.00000000000E+00  0.00000000000E+00 -0.17398497033E+04  0.17398497033E+04  0.50400001928E-02 0. -1.
    10030    2    1    2    0    0  0.00000000000E+00  0.00000000000E+00 -0.10454588282E+04  0.24342405784E+04  0.21983045813E+04 0.  0.
        1    1    3    3  502    0 -0.70756611976E+03 -0.23697198426E+03  0.37093867006E+03  0.83330728553E+03  0.50400001928E-02 0.  1.
       -1    1    3    3    0  502  0.70756611976E+03  0.23697198426E+03 -0.14163974983E+04  0.16009332929E+04  0.50400001928E-02 0. -1.
</event>
<event>
 5   0  0.4630615E-06  0.2199619E+04  0.7818609E-02  0.8518587E-01
       -1   -1    0    0    0  501  0.00000000000E+00  0.00000000000E+00  0.58655595305E+03  0.58655595307E+03  0.50400001928E-02 0.  1.
        1   -1    0    0  501    0  0.00000000000E+00  0.00000000000E+00 -0.20621739950E+04  0.20621739950E+04  0.50400001928E-02 0. -1.
    10030    2    1    2    0    0  0.00000000000E+00  0.00000000000E+00 -0.14756180420E+04  0.26487299481E+04  0.21996185424E+04 0.  0.
        2    1    3    3  502    0  0.16373818879E+03 -0.40731714892E+03 -0.19520965311E+04  0.20008493998E+04  0.25500000920E-02 0. -1.
       -2    1    3    3    0  502 -0.16373818879E+03  0.40731714892E+03  0.47647848907E+03  0.64788054827E+03  0.25500000920E-02 0.  1.
</event>
<event>
 5   0  0.4794967E-06  0.2236005E+04  0.7818609E-02  0.8503590E-01
        1   -1    0    0  501    0  0.00000000000E+00  0.00000000000E+00  0.88276863396E+03  0.88276863397E+03  0.50400001928E-02 0. -1.
       -1   -1    0    0    0  501  0.00000000000E+00  0.00000000000E+00 -0.14159202491E+04  0.14159202491E+04  0.50400001928E-02 0.  1.
    10030    2    1    2    0    0  0.00000000000E+00  0.00000000000E+00 -0.53315161514E+03  0.22986888831E+04  0.22360053525E+04 0.  0.
        5    1    3    3  502    0 -0.10364581445E+04  0.29837037525E+03  0.36018241535E+02  0.10791616051E+04  0.46999998093E+01 0. -1.
       -5    1    3    3    0  502  0.10364581445E+04 -0.29837037525E+03 -0.56916985668E+03  0.12195272780E+04  0.46999998093E+01 0.  1.
</event>
<event>
 5   0  0.1015876E-05  0.2204421E+04  0.7818609E-02  0.8516590E-01
        2   -1    0    0  501    0  0.00000000000E+00  0.00000000000E+00  0.16157594135E+04  0.16157594135E+04  0.25500000920E-02 0. -1.
       -2   -1    0    0    0  501  0.00000000000E+00  0.00000000000E+00 -0.75188646233E+03  0.75188646233E+03  0.25500000920E-02 0.  1.
    10030    2    1    2    0    0  0.00000000000E+00  0.00000000000E+00  0.86387295119E+03  0.23676458759E+04  0.22044206762E+04 0.  0.
        5    1    3    3  502    0  0.39664581127E+03 -0.93979390055E+03  0.88034852408E+03  0.13474331482E+04  0.46999998093E+01 0. -1.
       -5    1    3    3    0  502 -0.39664581127E+03  0.93979390055E+03 -0.16475572881E+02  0.10202127276E+04  0.46999998093E+01 0.  1.
</event>
<event>
 5   0  0.4794967E-06  0.2202971E+04  0.7818609E-02  0.8517193E-01
        1   -1    0    0  501    0  0.00000000000E+00  0.00000000000E+00  0.81352214796E+03  0.81352214798E+03  0.50400001928E-02 0. -1.
       -1   -1    0    0    0  501  0.00000000000E+00  0.00000000000E+00 -0.14913795789E+04  0.14913795789E+04  0.50400001928E-02 0.  1.
    10030    2    1    2    0    0  0.00000000000E+00  0.00000000000E+00 -0.67785743097E+03  0.23049017269E+04  0.22029710107E+04 0.  0.
        5    1    3    3  502    0 -0.58505246542E+03 -0.30071886329E+03  0.58542551432E+03  0.88060396595E+03  0.46999998093E+01 0. -1.
       -5    1    3    3    0  502  0.58505246542E+03  0.30071886329E+03 -0.12632829453E+04  0.14242977610E+04  0.46999998093E+01 0.  1.
</event>
<event>
 5   0  0.1014015E-05  0.2197972E+04  0.7818609E-02  0.8519273E-01
       -2   -1    0    0    0  501  0.00000000000E+00  0.00000000000E+00  0.17213921958E+04  0.17213921958E+04  0.25500000920E-02 0. -1.
        2   -1    0    0  501    0  0.00000000000E+00  0.00000000000E+00 -0.70162425718E+03  0.70162425719E+03  0.25500000920E-02 0.  1.
    10030    2    1    2    0    0  0.00000000000E+00  0.00000000000E+00  0.10197679386E+04  0.24230164530E+04  0.21979722662E+04 0.  0.
        1    1    3    3  502    0  0.95708213197E+03  0.51826153121E+03  0.67768344451E+03  0.12821295071E+04  0.50400001928E-02 0.  1.
       -1    1    3    3    0  502 -0.95708213197E+03 -0.51826153121E+03  0.34208449410E+03  0.11408869458E+04  0.50400001928E-02 0. -1.
</event>
<event>
 5   0  0.4408787E-06  0.2198439E+04  0.7818609E-02  0.8519078E-01
        1   -1    0    0  501    0  0.00000000000E+00  0.00000000000E+00  0.12328363485E+04  0.12328363485E+04  0.50400001928E-02 0.  1.
       -1   -1    0    0    0  501  0.00000000000E+00  0.00000000000E+00 -0.98008438875E+03  0.98008438877E+03  0.50400001928E-02 0. -1.
    10030    2    1    2    0    0  0.00000000000E+00  0.00000000000E+00  0.25275195973E+03  0.22129207373E+04  0.21984391364E+04 0.  0.
        1    1    3    3  502    0  0.94641630985E+03  0.20998953306E+03 -0.39519185118E+03  0.10468887404E+04  0.50400001928E-02 0. -1.
       -1    1    3    3    0  502 -0.94641630985E+03 -0.20998953306E+03  0.64794381090E+03  0.11660319968E+04  0.50400001928E-02 0.  1.
</event>
<event>
 5   0  0.9963173E-06  0.2198682E+04  0.7818609E-02  0.8518977E-01
        2   -1    0    0  501    0  0.00000000000E+00  0.00000000000E+00  0.16719557905E+04  0.16719557905E+04  0.25500000920E-02 0. -1.
       -2   -1    0    0    0  501  0.00000000000E+00  0.00000000000E+00 -0.72283664229E+03  0.72283664229E+03  0.25500000920E-02 0.  1.
    10030    2    1    2    0    0  0.00000000000E+00  0.00000000000E+00  0.94911914825E+03  0.23947924328E+04  0.21986822505E+04 0.  0.
        4    1    3    3  502    0  0.13393840137E+03  0.55366186757E+03  0.14986736261E+04  0.16032795169E+04  0.12699999809E+01 0. -1.
       -4    1    3    3    0  502 -0.13393840137E+03 -0.55366186757E+03 -0.54955447786E+03  0.79151291588E+03  0.12699999809E+01 0.  1.
</event>
<event>
 5   0  0.1035928E-05  0.2187086E+04  0.7818609E-02  0.8523823E-01
       -2   -1    0    0    0  501  0.00000000000E+00  0.00000000000E+00  0.11866318826E+04  0.11866318826E+04  0.25500000920E-02 0.  1.
        2   -1    0    0  501    0  0.00000000000E+00  0.00000000000E+00 -0.10077565398E+04  0.10077565398E+04  0.25500000920E-02 0. -1.
    10030    2    1    2    0    0  0.00000000000E+00  0.00000000000E+00  0.17887534279E+03  0.21943884223E+04  0.21870857687E+04 0.  0.
        3    1    3    3  502    0  0.47611141874E+03  0.93493230139E+03 -0.21990255700E+03  0.10719783748E+04  0.10100000352E+00 0. -1.
       -3    1    3    3    0  502 -0.47611141874E+03 -0.93493230139E+03  0.39877789979E+03  0.11224100475E+04  0.10100000352E+00 0.  1.
</event>
<event>
 5   0  0.4462201E-06  0.2186800E+04  0.7818609E-02  0.8523943E-01
        1   -1    0    0  501    0  0.00000000000E+00  0.00000000000E+00  0.14647830648E+04  0.14647830648E+04  0.50400001928E-02 0. -1.
       -1   -1    0    0    0  501  0.00000000000E+00  0.00000000000E+00 -0.81617758783E+03  0.81617758784E+03  0.50400001928E-02 0.  1.
    10030    2    1    2    0    0  0.00000000000E+00  0.00000000000E+00  0.64860547698E+03  0.22809606527E+04  0.21867995871E+04 0.  0.
        3    1    3    3  502    0 -0.32541318932E+02  0.17916767374E+02  0.14641246628E+04  0.14645958441E+04  0.10100000352E+00 0. -1.
       -3    1    3    3    0  502  0.32541318932E+02 -0.17916767374E+02 -0.81551918585E+03  0.81636480858E+03  0.10100000352E+00 0.  1.
</event>
<event>
 5   0  0.4794967E-06  0.2192815E+04  0.7818609E-02  0.8521425E-01
       -1   -1    0    0    0  501  0.00000000000E+00  0.00000000000E+00  0.90865154222E+03  0.90865154224E+03  0.50400001928E-02 0.  1.
        1   -1    0    0  501    0  0.00000000000E+00  0.00000000000E+00 -0.13229595931E+04  0.13229595931E+04  0.50400001928E-02 0. -1.
    10030    2    1    2    0    0  0.00000000000E+00  0.00000000000E+00 -0.41430805089E+03  0.22316111354E+04  0.21928148801E+04 0.  0.
        5    1    3    3  502    0 -0.76461175631E+03 -0.31457791253E+03  0.52565293130E+03  0.97975685511E+03  0.46999998093E+01 0.  1.
       -5    1    3    3    0  502  0.76461175631E+03  0.31457791253E+03 -0.93996098219E+03  0.12518542803E+04  0.46999998093E+01 0. -1.
</event>
<event>
 5   0  0.3546750E-06  0.2199737E+04  0.7818609E-02  0.8518538E-01
       -3   -1    0    0    0  501  0.00000000000E+00  0.00000000000E+00  0.22867157684E+04  0.22867157706E+04  0.10100000352E+00 0. -1.
        3   -1    0    0  501    0  0.00000000000E+00  0.00000000000E+00 -0.52901645777E+03  0.52901646741E+03  0.10100000352E+00 0.  1.
    10030    2    1    2    0    0  0.00000000000E+00  0.00000000000E+00  0.17576993106E+04  0.28157322380E+04  0.21997366137E+04 0.  0.
        5    1    3    3  502    0 -0.23233225276E+03 -0.88522936563E+02  0.22502609017E+04  0.22639590990E+04  0.46999998093E+01 0. -1.
       -5    1    3    3    0  502  0.23233225276E+03  0.88522936563E+02 -0.49256159110E+03  0.55177313907E+03  0.46999998093E+01 0.  1.
</event>
<event>
 5   0  0.4309945E-06  0.2198193E+04  0.7818609E-02  0.8519181E-01
       -1   -1    0    0    0  501  0.00000000000E+00  0.00000000000E+00  0.47815442713E+03  0.47815442715E+03  0.50400001928E-02 0.  1.
        1   -1    0    0  501    0  0.00000000000E+00  0.00000000000E+00 -0.25264079551E+04  0.25264079552E+04  0.50400001928E-02 0. -1.
    10030    2    1    2    0    0  0.00000000000E+00  0.00000000000E+00 -0.20482535280E+04  0.30045623823E+04  0.21981930293E+04 0.  0.
        4    1    3    3  502    0  0.29785222742E+03 -0.10569035298E+04 -0.10889687571E+04  0.15464849134E+04  0.12699999809E+01 0. -1.
       -4    1    3    3    0  502 -0.29785222742E+03  0.10569035298E+04 -0.95928477092E+03  0.14580774689E+04  0.12699999809E+01 0.  1.
</event>
<event>
 5   0  0.1035928E-05  0.2201606E+04  0.7818609E-02  0.8517760E-01
       -2   -1    0    0    0  501  0.00000000000E+00  0.00000000000E+00  0.65435354554E+03  0.65435354555E+03  0.25500000920E-02 0.  1.
        2   -1    0    0  501    0  0.00000000000E+00  0.00000000000E+00 -0.18518543895E+04  0.18518543895E+04  0.25500000920E-02 0. -1.
    10030    2    1    2    0    0  0.00000000000E+00  0.00000000000E+00 -0.11975008440E+04  0.25062079351E+04  0.22016062188E+04 0.  0.
        3    1    3    3  502    0 -0.10033410398E+03 -0.34423616775E+03  0.58601449314E+03  0.68700689078E+03  0.10100000352E+00 0.  1.
       -3    1    3    3    0  502  0.10033410398E+03  0.34423616775E+03 -0.17835153371E+04  0.18192010443E+04  0.10100000352E+00 0. -1.
</event>
<event>
 5   0  0.9963573E-06  0.2196225E+04  0.7818609E-02  0.8520001E-01
        2   -1    0    0  501    0  0.00000000000E+00  0.00000000000E+00  0.16724634105E+04  0.16724634105E+04  0.25500000920E-02 0. -1.
       -2   -1    0    0    0  501  0.00000000000E+00  0.00000000000E+00 -0.72100269583E+03  0.72100269583E+03  0.25500000920E-02 0.  1.
    10030    2    1    2    0    0  0.00000000000E+00  0.00000000000E+00  0.95146071465E+03  0.23934661063E+04  0.21962246038E+04 0.  0.
        2    1    3    3  502    0 -0.68017336984E+02  0.39760960731E+03  0.15887938234E+04  0.16392027243E+04  0.25500000920E-02 0. -1.
       -2    1    3    3    0  502  0.68017336984E+02 -0.39760960731E+03 -0.63733310876E+03  0.75426338204E+03  0.25500000920E-02 0.  1.
</event>
<event>
 5   0  0.1035928E-05  0.2199401E+04  0.7818609E-02  0.8518677E-01
       -2   -1    0    0    0  501  0.00000000000E+00  0.00000000000E+00  0.13357072730E+04  0.13357072730E+04  0.25500000920E-02 0.  1.
        2   -1    0    0  501    0  0.00000000000E+00  0.00000000000E+00 -0.90539398320E+03  0.90539398320E+03  0.25500000920E-02 0. -1.
    10030    2    1    2    0    0  0.00000000000E+00  0.00000000000E+00  0.43031328978E+03  0.22411012562E+04  0.21994011260E+04 0.  0.
        3    1    3    3  502    0  0.13310159430E+03  0.31058694280E+03 -0.85118415829E+03  0.91580279808E+03  0.10100000352E+00 0. -1.
       -3    1    3    3    0  502 -0.13310159430E+03 -0.31058694280E+03  0.12814974481E+04  0.13252984581E+04  0.10100000352E+00 0.  1.
</event>
<event>
 5   0  0.9963573E-06  0.2199034E+04  0.7818609E-02  0.8518830E-01
        2   -1    0    0  501    0  0.00000000000E+00  0.00000000000E+00  0.15019714006E+04  0.15019714006E+04  0.25500000920E-02 0.  1.
       -2   -1    0    0    0  501  0.00000000000E+00  0.00000000000E+00 -0.80490073117E+03  0.80490073117E+03  0.25500000920E-02 0. -1.
    10030    2    1    2    0    0  0.00000000000E+00  0.00000000000E+00  0.69707066946E+03  0.23068721318E+04  0.21990342231E+04 0.  0.
        2    1    3    3  502    0 -0.48595033147E+02 -0.87623386577E+03 -0.34636128455E+03  0.94345821540E+03  0.25500000920E-02 0. -1.
       -2    1    3    3    0  502  0.48595033147E+02  0.87623386577E+03  0.10434319540E+04  0.13634139164E+04  0.25500000920E-02 0.  1.
</event>
<event>
 5   0  0.1035928E-05  0.2205086E+04  0.7818609E-02  0.8516314E-01
        2   -1    0    0  501    0  0.00000000000E+00  0.00000000000E+00  0.17233922532E+04  0.17233922532E+04  0.25500000920E-02 0.  1.
       -2   -1    0    0    0  501  0.00000000000E+00  0.00000000000E+00 -0.70535343198E+03  0.70535343198E+03  0.25500000920E-02 0. -1.
    10030    2    1    2    0    0  0.00000000000E+00  0.00000000000E+00  0.10180388212E+04  0.24287456852E+04  0.22050856133E+04 0.  0.
        3    1    3    3  502    0  0.44259727378E+03  0.75285323885E+03 -0.23223530955E+03  0.90366675009E+03  0.10100000352E+00 0. -1.
       -3    1    3    3    0  502 -0.44259727378E+03 -0.75285323885E+03  0.12502741308E+04  0.15250789351E+04  0.10100000352E+00 0.  1.
</event>
<event>
 5   0  0.1015876E-05  0.2200369E+04  0.7818609E-02  0.8518275E-01
       -2   -1    0    0    0  501  0.00000000000E+00  0.00000000000E+00  0.18321198999E+04  0.18321198999E+04  0.25500000920E-02 0.  1.
        2   -1    0    0  501    0  0.00000000000E+00  0.00000000000E+00 -0.66065847099E+03  0.66065847100E+03  0.25500000920E-02 0. -1.
    10030    2    1    2    0    0  0.00000000000E+00  0.00000000000E+00  0.11714614289E+04  0.24927783709E+04  0.22003686344E+04 0.  0.
        5    1    3    3  502    0 -0.78009503363E+03 -0.76185279986E+03  0.75151839153E+03  0.13242997897E+04  0.46999998093E+01 0.  1.
       -5    1    3    3    0  502  0.78009503363E+03  0.76185279986E+03  0.41994303740E+03  0.11684785812E+04  0.46999998093E+01 0. -1.
</event>
<event>
 5   0  0.9963173E-06  0.2205372E+04  0.7818609E-02  0.8516195E-01
        2   -1    0    0  501    0  0.00000000000E+00  0.00000000000E+00  0.12045324274E+04  0.12045324274E+04  0.25500000920E-02 0.  1.
       -2   -1    0    0    0  501  0.00000000000E+00  0.00000000000E+00 -0.10094510729E+04  0.10094510729E+04  0.25500000920E-02 0. -1.
    10030    2    1    2    0    0  0.00000000000E+00  0.00000000000E+00  0.19508135451E+03  0.22139835002E+04  0.22053721238E+04 0.  0.
        4    1    3    3  502    0  0.10378990238E+04  0.29939862969E+03  0.31985744772E+03  0.11265808106E+04  0.12699999809E+01 0.  1.
       -4    1    3    3    0  502 -0.10378990238E+04 -0.29939862969E+03 -0.12477609321E+03  0.10874026896E+04  0.12699999809E+01 0. -1.
</event>
<event>
 5   0  0.9963173E-06  0.2202728E+04  0.7818609E-02  0.8517294E-01
        2   -1    0    0  501    0  0.00000000000E+00  0.00000000000E+00  0.18035864532E+04  0.18035864532E+04  0.25500000920E-02 0. -1.
       -2   -1    0    0    0  501  0.00000000000E+00  0.00000000000E+00 -0.67255014439E+03  0.67255014439E+03  0.25500000920E-02 0.  1.
    10030    2    1    2    0    0  0.00000000000E+00  0.00000000000E+00  0.11310363088E+04  0.24761365976E+04  0.22027276995E+04 0.  0.
        4    1    3    3  502    0  0.67219408421E+03  0.36633241097E+03  0.14556051463E+04  0.16446374303E+04  0.12699999809E+01 0. -1.
       -4    1    3    3    0  502 -0.67219408421E+03 -0.36633241097E+03 -0.32456883746E+03  0.83149916736E+03  0.12699999809E+01 0.  1.
</event>
<event>
 5   0  0.4408787E-06  0.2205678E+04  0.7818609E-02  0.8516069E-01
       -1   -1    0    0    0  501  0.00000000000E+00  0.00000000000E+00  0.10410821763E+04  0.10410821763E+04  0.50400001928E-02 0. -1.
        1   -1    0    0  501    0  0.00000000000E+00  0.00000000000E+00 -0.11682591774E+04  0.11682591774E+04  0.50400001928E-02 0.  1.
    10030    2    1    2    0    0  0.00000000000E+00  0.00000000000E+00 -0.12717700104E+03  0.22093413537E+04  0.22056779519E+04 0.  0.
        1    1    3    3  502    0 -0.13321662550E+03 -0.65139142262E+03 -0.94493418022E+03  0.11554038514E+04  0.50400001928E-02 0.  1.
       -1    1    3    3    0  502  0.13321662550E+03  0.65139142262E+03  0.81775717918E+03  0.10539375024E+04  0.50400001928E-02 0. -1.
</event>
<event>
 5   0  0.9963573E-06  0.2196566E+04  0.7818609E-02  0.8519859E-01
       -2   -1    0    0    0  501  0.00000000000E+00  0.00000000000E+00  0.11325194280E+04  0.11325194280E+04  0.25500000920E-02 0. -1.
        2   -1    0    0  501    0  0.00000000000E+00  0.00000000000E+00 -0.10650816129E+04  0.10650816129E+04  0.25500000920E-02 0.  1.
    10030    2    1    2    0    0  0.00000000000E+00  0.00000000000E+00  0.67437815093E+02  0.21976010410E+04  0.21965660646E+04 0.  0.
        2    1    3    3  502    0 -0.62779640154E+03 -0.35027392552E+03 -0.79697676147E+03  0.10733089504E+04  0.25500000920E-02 0.  1.
       -2    1    3    3    0  502  0.62779640154E+03  0.35027392552E+03  0.86441457657E+03  0.11242920905E+04  0.25500000920E-02 0. -1.
</event>
<event>
 5   0  0.4794967E-06  0.2198943E+04  0.7818609E-02  0.8518868E-01
       -1   -1    0    0    0  501  0.00000000000E+00  0.00000000000E+00  0.13452792036E+04  0.13452792036E+04  0.50400001928E-02 0.  1.
        1   -1    0    0  501    0  0.00000000000E+00  0.00000000000E+00 -0.89857713227E+03  0.89857713228E+03  0.50400001928E-02 0. -1.
    10030    2    1    2    0    0  0.00000000000E+00  0.00000000000E+00  0.44670207132E+03  0.22438563359E+04  0.21989425903E+04 0.  0.
        5    1    3    3  502    0 -0.39789764819E+03 -0.92510279579E+03 -0.22688352954E+03  0.10322964435E+04  0.46999998093E+01 0. -1.
       -5    1    3    3    0  502  0.39789764819E+03  0.92510279579E+03  0.67358560086E+03  0.12115598924E+04  0.46999998093E+01 0.  1.
</event>
<event>
 5   0  0.4309945E-06  0.2198963E+04  0.7818609E-02  0.8518860E-01
       -1   -1    0    0    0  501  0.00000000000E+00  0.00000000000E+00  0.10011126531E+04  0.10011126531E+04  0.50400001928E-02 0.  1.
        1   -1    0    0  501    0  0.00000000000E+00  0.00000000000E+00 -0.12075158704E+04  0.12075158704E+04  0.50400001928E-02 0. -1.
    10030    2    1    2    0    0  0.00000000000E+00  0.00000000000E+00 -0.20640321732E+03  0.22086285235E+04  0.21989628616E+04 0.  0.
        4    1    3    3  502    0 -0.10645041473E+04  0.23966373985E+03 -0.23888803529E+03  0.11169945811E+04  0.12699999809E+01 0. -1.
       -4    1    3    3    0  502  0.10645041473E+04 -0.23966373985E+03  0.32484817965E+02  0.10916339424E+04  0.12699999809E+01 0.  1.
</event>
<event>
 5   0  0.4794967E-06  0.2199693E+04  0.7818609E-02  0.8518556E-01
       -1   -1    0    0    0  501  0.00000000000E+00  0.00000000000E+00  0.14248556682E+04  0.14248556682E+04  0.50400001928E-02 0.  1.
        1   -1    0    0  501    0  0.00000000000E+00  0.00000000000E+00 -0.84897188416E+03  0.84897188418E+03  0.50400001928E-02 0. -1.
    10030    2    1    2    0    0  0.00000000000E+00  0.00000000000E+00  0.57588378401E+03  0.22738275524E+04  0.21996930707E+04 0.  0.
        5    1    3    3  502    0 -0.12010172891E+03  0.88899753498E+03  0.94570412549E+03  0.13035027524E+04  0.46999998093E+01 0.  1.
       -5    1    3    3    0  502  0.12010172891E+03 -0.88899753498E+03 -0.36982034148E+03  0.97032479998E+03  0.46999998093E+01 0. -1.
</event>
<event>
 5   0  0.1014015E-05  0.2196914E+04  0.7818609E-02  0.8519714E-01
       -2   -1    0    0    0  501  0.00000000000E+00  0.00000000000E+00  0.59856896108E+03  0.59856896109E+03  0.25500000920E-02 0.  1.
        2   -1    0    0  501    0  0.00000000000E+00  0.00000000000E+00 -0.20158202378E+04  0.20158202378E+04  0.25500000920E-02 0. -1.
    10030    2    1    2    0    0  0.00000000000E+00  0.00000000000E+00 -0.14172512767E+04  0.26143891989E+04  0.21969136765E+04 0.  0.
        1    1    3    3  502    0  0.48385011549E+03  0.54657659065E+03 -0.16854282349E+04  0.18367158840E+04  0.50400001928E-02 0. -1.
       -1    1    3    3    0  502 -0.48385011549E+03 -0.54657659065E+03  0.26817695817E+03  0.77767331485E+03  0.50400001928E-02 0.  1.
</event>
<event>
 5   0  0.1035928E-05  0.2201910E+04  0.7818609E-02  0.8517633E-01
        2   -1    0    0  501    0  0.00000000000E+00  0.00000000000E+00  0.19161168868E+04  0.19161168868E+04  0.25500000920E-02 0. -1.
       -2   -1    0    0    0  501  0.00000000000E+00  0.00000000000E+00 -0.63258263406E+03  0.63258263406E+03  0.25500000920E-02 0.  1.
    10030    2    1    2    0    0  0.00000000000E+00  0.00000000000E+00  0.12835342527E+04  0.25486995208E+04  0.22019103228E+04 0.  0.
        3    1    3    3  502    0 -0.51284758684E+03 -0.57794831010E+02 -0.48389237007E+03  0.70746358622E+03  0.10100000352E+00 0.  1.
       -3    1    3    3    0  502  0.51284758684E+03  0.57794831010E+02  0.17674266228E+04  0.18412359346E+04  0.10100000352E+00 0. -1.
</event>
<event>
 5   0  0.1015876E-05  0.2173082E+04  0.7818609E-02  0.8529716E-01
       -2   -1    0    0    0  501  0.00000000000E+00  0.00000000000E+00  0.14937336509E+04  0.14937336509E+04  0.25500000920E-02 0.  1.
        2   -1    0    0  501    0  0.00000000000E+00  0.00000000000E+00 -0.79034908189E+03  0.79034908189E+03  0.25500000920E-02 0. -1.
    10030    2    1    2    0    0  0.00000000000E+00  0.00000000000E+00  0.70338456905E+03  0.22840827328E+04  0.21730817008E+04 0.  0.
        5    1    3    3  502    0 -0.88105238682E+03  0.58148835267E+03  0.62206086801E+03  0.12253015246E+04  0.46999998093E+01 0.  1.
       -5    1    3    3    0  502  0.88105238682E+03 -0.58148835267E+03  0.81323701046E+02  0.10587812083E+04  0.46999998093E+01 0. -1.
</event>
<event>
 5   0  0.4794967E-06  0.2215583E+04  0.7818609E-02  0.8511970E-01
       -1   -1    0    0    0  501  0.00000000000E+00  0.00000000000E+00  0.10707773250E+04  0.10707773250E+04  0.50400001928E-02 0.  1.
        1   -1    0    0  501    0  0.00000000000E+00  0.00000000000E+00 -0.11460851088E+04  0.11460851088E+04  0.50400001928E-02 0. -1.
    10030    2    1    2    0    0  0.00000000000E+00  0.00000000000E+00 -0.75307783850E+02  0.22168624338E+04  0.22155829454E+04 0.  0.
        5    1    3    3  502    0  0.88967966717E+03 -0.25114736686E+03  0.57308778150E+03  0.10876840559E+04  0.46999998093E+01 0.  1.
       -5    1    3    3    0  502 -0.88967966717E+03  0.25114736686E+03 -0.64839556535E+03  0.11291783779E+04  0.46999998093E+01 0. -1.
</event>
<event>
 5   0  0.1035928E-05  0.2201207E+04  0.7818609E-02  0.8517926E-01
        2   -1    0    0  501    0  0.00000000000E+00  0.00000000000E+00  0.23653126296E+04  0.23653126296E+04  0.25500000920E-02 0. -1.
       -2   -1    0    0    0  501  0.00000000000E+00  0.00000000000E+00 -0.51212175702E+03  0.51212175703E+03  0.25500000920E-02 0.  1.
    10030    2    1    2    0    0  0.00000000000E+00  0.00000000000E+00  0.18531908725E+04  0.28774343866E+04  0.22012069960E+04 0.  0.
        3    1    3    3  502    0  0.50796943641E+03 -0.96566962642E+03  0.11150205677E+04  0.15600710408E+04  0.10100000352E+00 0. -1.
       -3    1    3    3    0  502 -0.50796943641E+03  0.96566962642E+03  0.73817030479E+03  0.13173633458E+04  0.10100000352E+00 0.  1.
</event>
<event>
 5   0  0.9963173E-06  0.2225722E+04  0.7818609E-02  0.8507798E-01
        2   -1    0    0  501    0  0.00000000000E+00  0.00000000000E+00  0.15608744584E+04  0.15608744584E+04  0.25500000920E-02 0. -1.
       -2   -1    0    0    0  501  0.00000000000E+00  0.00000000000E+00 -0.79343950177E+03  0.79343950177E+03  0.25500000920E-02 0.  1.
    10030    2    1    2    0    0  0.00000000000E+00  0.00000000000E+00  0.76743495659E+03  0.23543139601E+04  0.22257218627E+04 0.  0.
        4    1    3    3  502    0 -0.65694059073E+02 -0.10235727742E+04 -0.73017306404E+02  0.10282752907E+04  0.12699999809E+01 0.  1.
       -4    1    3    3    0  502  0.65694059073E+02  0.10235727742E+04  0.84045226299E+03  0.13260386694E+04  0.12699999809E+01 0. -1.
</event>
<event>
 5   0  0.1015876E-05  0.2200125E+04  0.7818609E-02  0.8518376E-01
       -2   -1    0    0    0  501  0.00000000000E+00  0.00000000000E+00  0.54455621871E+03  0.54455621871E+03  0.25500000920E-02 0. -1.
        2   -1    0    0  501    0  0.00000000000E+00  0.00000000000E+00 -0.22222447387E+04  0.22222447387E+04  0.25500000920E-02 0.  1.
    10030    2    1    2    0    0  0.00000000000E+00  0.00000000000E+00 -0.16776885200E+04  0.27668009574E+04  0.22001247164E+04 0.  0.
        5    1    3    3  502    0  0.53267795973E+03 -0.64968310479E+03  0.54187670449E+02  0.84189805741E+03  0.46999998093E+01 0. -1.
       -5    1    3    3    0  502 -0.53267795973E+03  0.64968310479E+03 -0.17318761904E+04  0.19249029000E+04  0.46999998093E+01 0.  1.
</event>
<event>
 5   0  0.4794967E-06  0.2198081E+04  0.7818609E-02  0.8519227E-01
        1   -1    0    0  501    0  0.00000000000E+00  0.00000000000E+00  0.18901747155E+04  0.18901747155E+04  0.50400001928E-02 0. -1.
       -1   -1    0    0    0  501  0.00000000000E+00  0.00000000000E+00 -0.63903596345E+03  0.63903596347E+03  0.50400001928E-02 0.  1.
    10030    2    1    2    0    0  0.00000000000E+00  0.00000000000E+00  0.12511387521E+04  0.25292106790E+04  0.21980806359E+04 0.  0.
        5    1    3    3  502    0  0.18926430786E+03 -0.10823723417E+04  0.59941487650E+03  0.12516673473E+04  0.46999998093E+01 0. -1.
       -5    1    3    3    0  502 -0.18926430786E+03  0.10823723417E+04  0.65172387557E+03  0.12775433316E+04  0.46999998093E+01 0.  1.
</event>
<event>
 5   0  0.1035928E-05  0.2198592E+04  0.7818609E-02  0.8519015E-01
        2   -1    0    0  501    0  0.00000000000E+00  0.00000000000E+00  0.15528547086E+04  0.15528547086E+04  0.25500000920E-02 0.  1.
       -2   -1    0    0    0  501  0.00000000000E+00  0.00000000000E+00 -0.77821263490E+03  0.77821263491E+03  0.25500000920E-02 0. -1.
    10030    2    1    2    0    0  0.00000000000E+00  0.00000000000E+00  0.77464207370E+03  0.23310673435E+04  0.21985915077E+04 0.  0.
        3    1    3    3  502    0  0.82792782832E+03  0.64572288485E+03  0.42080478133E+02  0.10508060286E+04  0.10100000352E+00 0. -1.
       -3    1    3    3    0  502 -0.82792782832E+03 -0.64572288485E+03  0.73256159556E+03  0.12802613149E+04  0.10100000352E+00 0.  1.
</event>
<event>
 5   0  0.1014015E-05  0.2197675E+04  0.7818609E-02  0.8519396E-01
        2   -1    0    0  501    0  0.00000000000E+00  0.00000000000E+00  0.18420754245E+04  0.18420754245E+04  0.25500000920E-02 0. -1.
       -2   -1    0    0    0  501  0.00000000000E+00  0.00000000000E+00 -0.65548018508E+03  0.65548018509E+03  0.25500000920E-02 0.  1.
    10030    2    1    2    0    0  0.00000000000E+00  0.00000000000E+00  0.11865952394E+04  0.24975556095E+04  0.21976750808E+04 0.  0.
        1    1    3    3  502    0 -0.33432902663E+03  0.22353121009E+03  0.17554300459E+04  0.18009099772E+04  0.50400001928E-02 0. -1.
       -1    1    3    3    0  502  0.33432902663E+03 -0.22353121009E+03 -0.56883480652E+03  0.69664563235E+03  0.50400001928E-02 0.  1.
</event>
<event>
 5   0  0.9963173E-06  0.2215561E+04  0.7818609E-02  0.8511979E-01
        2   -1    0    0  501    0  0.00000000000E+00  0.00000000000E+00  0.27472075816E+04  0.27472075816E+04  0.25500000920E-02 0. -1.
       -2   -1    0    0    0  501  0.00000000000E+00  0.00000000000E+00 -0.44669989737E+03  0.44669989738E+03  0.25500000920E-02 0.  1.
    10030    2    1    2    0    0  0.00000000000E+00  0.00000000000E+00  0.23005076843E+04  0.31939074790E+04  0.22155607370E+04 0.  0.
        4    1    3    3  502    0  0.10161551945E+04  0.37750948903E+02  0.51664843683E+03  0.11405804371E+04  0.12699999809E+01 0.  1.
       -4    1    3    3    0  502 -0.10161551945E+04 -0.37750948903E+02  0.17838592474E+04  0.20533270419E+04  0.12699999809E+01 0. -1.
</event>
<event>
 5   0  0.1014015E-05  0.2198236E+04  0.7818609E-02  0.8519163E-01
        2   -1    0    0  501    0  0.00000000000E+00  0.00000000000E+00  0.20353142187E+04  0.20353142187E+04  0.25500000920E-02 0. -1.
       -2   -1    0    0    0  501  0.00000000000E+00  0.00000000000E+00 -0.59354965276E+03  0.59354965277E+03  0.25500000920E-02 0.  1.
    10030    2    1    2    0    0  0.00000000000E+00  0.00000000000E+00  0.14417645660E+04  0.26288638715E+04  0.21982356996E+04 0.  0.
        1    1    3    3  502    0  0.79397383747E+03  0.14306800150E+03  0.16135673722E+04  0.18040129080E+04  0.50400001928E-02 0. -1.
       -1    1    3    3    0  502 -0.79397383747E+03 -0.14306800150E+03 -0.17180280626E+03  0.82485096345E+03  0.50400001928E-02 0.  1.
</event>
<event>
 5   0  0.1035928E-05  0.2196308E+04  0.7818609E-02  0.8519966E-01
       -2   -1    0    0    0  501  0.00000000000E+00  0.00000000000E+00  0.11735133000E+04  0.11735133000E+04  0.25500000920E-02 0. -1.
        2   -1    0    0  501    0  0.00000000000E+00  0.00000000000E+00 -0.10276343133E+04  0.10276343134E+04  0.25500000920E-02 0.  1.
    10030    2    1    2    0    0  0.00000000000E+00  0.00000000000E+00  0.14587898661E+03  0.22011476133E+04  0.21963082973E+04 0.  0.
        3    1    3    3  502    0 -0.93767425267E+03 -0.73278840761E+02  0.64105687793E+03  0.11382252517E+04  0.10100000352E+00 0. -1.
       -3    1    3    3    0  502  0.93767425267E+03  0.73278840761E+02 -0.49517789132E+03  0.10629223616E+04  0.10100000352E+00 0.  1.
</event>
<event>
 5   0  0.9963573E-06  0.2196199E+04  0.7818609E-02  0.8520012E-01
        2   -1    0    0  501    0  0.00000000000E+00  0.00000000000E+00  0.26881628925E+04  0.26881628925E+04  0.25500000920E-02 0.  1.
       -2   -1    0    0    0  501  0.00000000000E+00  0.00000000000E+00 -0.44856768801E+03  0.44856768802E+03  0.25500000920E-02 0. -1.
    10030    2    1    2    0    0  0.00000000000E+00  0.00000000000E+00  0.22395952045E+04  0.31367305805E+04  0.21961994569E+04 0.  0.
        2    1    3    3  502    0 -0.19390103462E+03  0.12862475560E+03  0.26525484085E+04  0.26627344964E+04  0.25500000920E-02 0.  1.
       -2    1    3    3    0  502  0.19390103462E+03 -0.12862475560E+03 -0.41295320404E+03  0.47399608407E+03  0.25500000920E-02 0. -1.
</event>
<event>
 5   0  0.1014015E-05  0.2198935E+04  0.7818609E-02  0.8518871E-01
        2   -1    0    0  501    0  0.00000000000E+00  0.00000000000E+00  0.66340965253E+03  0.66340965254E+03  0.25500000920E-02 0. -1.
       -2   -1    0    0    0  501  0.00000000000E+00  0.00000000000E+00 -0.18221456076E+04  0.18221456076E+04  0.25500000920E-02 0.  1.
    10030    2    1    2    0    0  0.00000000000E+00  0.00000000000E+00 -0.11587359551E+04  0.24855552602E+04  0.21989351827E+04 0.  0.
        1    1    3    3  502    0 -0.92592633265E+02 -0.10632685431E+04 -0.28091496940E+03  0.11036424288E+04  0.50400001928E-02 0. -1.
       -1    1    3    3    0  502  0.92592633265E+02  0.10632685431E+04 -0.87782098571E+03  0.13819128314E+04  0.50400001928E-02 0.  1.
</event>
<event>
 5   0  0.9963573E-06  0.2199986E+04  0.7818609E-02  0.8518434E-01
        2   -1    0    0  501    0  0.00000000000E+00  0.00000000000E+00  0.21915730800E+04  0.21915730800E+04  0.25500000920E-02 0. -1.
       -2   -1    0    0    0  501  0.00000000000E+00  0.00000000000E+00 -0.55210796573E+03  0.55210796573E+03  0.25500000920E-02 0.  1.
    10030    2    1    2    0    0  0.00000000000E+00  0.00000000000E+00  0.16394651143E+04  0.27436810458E+04  0.21999863227E+04 0.  0.
        2    1    3    3  502    0  0.10509787080E+02  0.69207508960E+03 -0.24648191964E+03  0.73473241523E+03  0.25500000920E-02 0.  1.
       -2    1    3    3    0  502 -0.10509787080E+02 -0.69207508960E+03  0.18859470340E+04  0.20089486305E+04  0.25500000920E-02 0. -1.
</event>
<event>
 5   0  0.4408787E-06  0.2196215E+04  0.7818609E-02  0.8520005E-01
        1   -1    0    0  501    0  0.00000000000E+00  0.00000000000E+00  0.97418849405E+03  0.97418849406E+03  0.50400001928E-02 0.  1.
       -1   -1    0    0    0  501  0.00000000000E+00  0.00000000000E+00 -0.12377891149E+04  0.12377891149E+04  0.50400001928E-02 0. -1.
    10030    2    1    2    0    0  0.00000000000E+00  0.00000000000E+00 -0.26360062081E+03  0.22119776089E+04  0.21962148472E+04 0.  0.
        1    1    3    3  502    0 -0.90344065777E+03 -0.61807155036E+03 -0.21973357630E+03  0.11164677819E+04  0.50400001928E-02 0. -1.
       -1    1    3    3    0  502  0.90344065777E+03  0.61807155036E+03 -0.43867044509E+02  0.10955098270E+04  0.50400001928E-02 0.  1.
</event>
<event>
 5   0  0.4630615E-06  0.2200582E+04  0.7818609E-02  0.8518186E-01
       -1   -1    0    0    0  501  0.00000000000E+00  0.00000000000E+00  0.14756265866E+04  0.14756265866E+04  0.50400001928E-02 0. -1.
        1   -1    0    0  501    0  0.00000000000E+00  0.00000000000E+00 -0.82042463595E+03  0.82042463596E+03  0.50400001928E-02 0.  1.
    10030    2    1    2    0    0  0.00000000000E+00  0.00000000000E+00  0.65520195060E+03  0.22960512225E+04  0.22005821094E+04 0.  0.
        2    1    3    3  502    0 -0.68052650090E+03 -0.79864326975E+03  0.67316894398E+03  0.12466370033E+04  0.25500000920E-02 0. -1.
       -2    1    3    3    0  502  0.68052650090E+03  0.79864326975E+03 -0.17966993374E+02  0.10494142193E+04  0.25500000920E-02 0.  1.
</event>
<event>
 5   0  0.4309945E-06  0.2198442E+04  0.7818609E-02  0.8519077E-01
        1   -1    0    0  501    0  0.00000000000E+00  0.00000000000E+00  0.25710127865E+04  0.25710127865E+04  0.50400001928E-02 0.  1.
       -1   -1    0    0    0  501  0.00000000000E+00  0.00000000000E+00 -0.46996534393E+03  0.46996534396E+03  0.50400001928E-02 0. -1.
    10030    2    1    2    0    0  0.00000000000E+00  0.00000000000E+00  0.21010474426E+04  0.30409781305E+04  0.21984420925E+04 0.  0.
        4    1    3    3  502    0 -0.10460537822E+04  0.15922716828E+02  0.58389056534E+03  0.11980867470E+04  0.12699999809E+01 0. -1.
       -4    1    3    3    0  502  0.10460537822E+04 -0.15922716828E+02  0.15171568772E+04  0.18428913834E+04  0.12699999809E+01 0.  1.
</event>
<event>
 5   0  0.4794967E-06  0.2194965E+04  0.7818609E-02  0.8520527E-01
       -1   -1    0    0    0  501  0.00000000000E+00  0.00000000000E+00  0.67373295215E+03  0.67373295216E+03  0.50400001928E-02 0.  1.
        1   -1    0    0  501    0  0.00000000000E+00  0.00000000000E+00 -0.17877525783E+04  0.17877525783E+04  0.50400001928E-02 0. -1.
    10030    2    1    2    0    0  0.00000000000E+00  0.00000000000E+00 -0.11140196261E+04  0.24614855304E+04  0.21949649859E+04 0.  0.
        5    1    3    3  502    0  0.53079220695E+02 -0.91033041686E+03 -0.12418378358E+04  0.15406823722E+04  0.46999998093E+01 0. -1.
       -5    1    3    3    0  502 -0.53079220695E+02  0.91033041686E+03  0.12781820969E+03  0.92080315825E+03  0.46999998093E+01 0.  1.
</event>
<event>
 5   0  0.1035928E-05  0.2198986E+04  0.7818609E-02  0.8518850E-01
       -2   -1    0    0    0  501  0.00000000000E+00  0.00000000000E+00  0.12085968550E+04  0.12085968550E+04  0.25500000920E-02 0.  1.
        2   -1    0    0  501    0  0.00000000000E+00  0.00000000000E+00 -0.10002378537E+04  0.10002378537E+04  0.25500000920E-02 0. -1.
    10030    2    1    2    0    0  0.00000000000E+00  0.00000000000E+00  0.20835900132E+03  0.22088347087E+04  0.21989855154E+04 0.  0.
        3    1    3    3  502    0  0.91726364871E+03 -0.29941739192E+03  0.63366564293E+03  0.11543636918E+04  0.10100000352E+00 0.  1.
       -3    1    3    3    0  502 -0.91726364871E+03  0.29941739192E+03 -0.42530664161E+03  0.10544710169E+04  0.10100000352E+00 0. -1.
</event>
<event>
 5   0  0.1035928E-05  0.2197119E+04  0.7818609E-02  0.8519628E-01
        2   -1    0    0  501    0  0.00000000000E+00  0.00000000000E+00  0.11679952881E+04  0.11679952881E+04  0.25500000920E-02 0.  1.
       -2   -1    0    0    0  501  0.00000000000E+00  0.00000000000E+00 -0.10332514141E+04  0.10332514141E+04  0.25500000920E-02 0. -1.
    10030    2    1    2    0    0  0.00000000000E+00  0.00000000000E+00  0.13474387402E+03  0.22012467022E+04  0.21971188252E+04 0.  0.
        3    1    3    3  502    0 -0.70667595854E+03 -0.21879551477E+03  0.88103714643E+03  0.11504298550E+04  0.10100000352E+00 0.  1.
       -3    1    3    3    0  502  0.70667595854E+03  0.21879551477E+03 -0.74629327241E+03  0.10508168472E+04  0.10100000352E+00 0. -1.
</event>
<event>
 5   0  0.4462201E-06  0.2200322E+04  0.7818609E-02  0.8518294E-01
        1   -1    0    0  501    0  0.00000000000E+00  0.00000000000E+00  0.13644999313E+04  0.13644999313E+04  0.50400001928E-02 0.  1.
       -1   -1    0    0    0  501  0.00000000000E+00  0.00000000000E+00 -0.88703102881E+03  0.88703102883E+03  0.50400001928E-02 0. -1.
    10030    2    1    2    0    0  0.00000000000E+00  0.00000000000E+00  0.47746890252E+03  0.22515309602E+04  0.22003215928E+04 0.  0.
        3    1    3    3  502    0  0.75474609415E+03 -0.69774021853E+03 -0.16265847169E+03  0.10406444483E+04  0.10100000352E+00 0. -1.
       -3    1    3    3    0  502 -0.75474609415E+03  0.69774021853E+03  0.64012737420E+03  0.12108865119E+04  0.10100000352E+00 0.  1.
</event>
<event>
 5   0  0.4309945E-06  0.2207558E+04  0.7818609E-02  0.8515289E-01
        1   -1    0    0  501    0  0.00000000000E+00  0.00000000000E+00  0.11834095786E+04  0.11834095786E+04  0.50400001928E-02 0.  1.
       -1   -1    0    0    0  501  0.00000000000E+00  0.00000000000E+00 -0.10295069243E+04  0.10295069243E+04  0.50400001928E-02 0. -1.
    10030    2    1    2    0    0  0.00000000000E+00  0.00000000000E+00  0.15390265430E+03  0.22129165028E+04  0.22075582487E+04 0.  0.
        4    1    3    3  502    0 -0.31105886533E+03  0.92833172761E+03 -0.43396148254E+03  0.10709255788E+04  0.12699999809E+01 0. -1.
       -4    1    3    3    0  502  0.31105886533E+03 -0.92833172761E+03  0.58786413685E+03  0.11419909240E+04  0.12699999809E+01 0.  1.
</event>
<event>
 5   0  0.4794967E-06  0.2186409E+04  0.7818609E-02  0.8524106E-01
       -1   -1    0    0    0  501  0.00000000000E+00  0.00000000000E+00  0.81952214033E+03  0.81952214034E+03  0.50400001928E-02 0. -1.
        1   -1    0    0  501    0  0.00000000000E+00  0.00000000000E+00 -0.14582841388E+04  0.14582841388E+04  0.50400001928E-02 0.  1.
    10030    2    1    2    0    0  0.00000000000E+00  0.00000000000E+00 -0.63876199846E+03  0.22778062791E+04  0.21864090547E+04 0.  0.
        5    1    3    3  502    0 -0.76554949088E+03  0.61795174691E+03  0.17713778373E+03  0.99966507838E+03  0.46999998093E+01 0. -1.
       -5    1    3    3    0  502  0.76554949088E+03 -0.61795174691E+03 -0.81589978219E+03  0.12781412008E+04  0.46999998093E+01 0.  1.
</event>
<event>
 5   0  0.9963173E-06  0.2199038E+04  0.7818609E-02  0.8518828E-01
       -2   -1    0    0    0  501  0.00000000000E+00  0.00000000000E+00  0.10375860195E+04  0.10375860195E+04  0.25500000920E-02 0. -1.
        2   -1    0    0  501    0  0.00000000000E+00  0.00000000000E+00 -0.11651491188E+04  0.11651491188E+04  0.25500000920E-02 0.  1.
    10030    2    1    2    0    0  0.00000000000E+00  0.00000000000E+00 -0.12756309931E+03  0.22027351382E+04  0.21990383682E+04 0.  0.
        4    1    3    3  502    0 -0.37363746006E+03 -0.69120837841E+03 -0.83420835946E+03  0.11459839326E+04  0.12699999809E+01 0.  1.
       -4    1    3    3    0  502  0.37363746006E+03  0.69120837841E+03  0.70664526015E+03  0.10567512056E+04  0.12699999809E+01 0. -1.
</event>
<event>
 5   0  0.9963173E-06  0.2202929E+04  0.7818609E-02  0.8517210E-01
       -2   -1    0    0    0  501  0.00000000000E+00  0.00000000000E+00  0.11538700362E+04  0.11538700362E+04  0.25500000920E-02 0. -1.
        2   -1    0    0  501    0  0.00000000000E+00  0.00000000000E+00 -0.10514388008E+04  0.10514388008E+04  0.25500000920E-02 0.  1.
    10030    2    1    2    0    0  0.00000000000E+00  0.00000000000E+00  0.10243123536E+03  0.22053088370E+04  0.22029287116E+04 0.  0.
        4    1    3    3  502    0 -0.37759602128E+03 -0.32758088071E+03  0.10337719232E+04  0.11482917707E+04  0.12699999809E+01 0. -1.
       -4    1    3    3    0  502  0.37759602128E+03  0.32758088071E+03 -0.93134068781E+03  0.10570170663E+04  0.12699999809E+01 0.  1.
</event>
<event>
 5   0  0.1035928E-05  0.2203307E+04  0.7818609E-02  0.8517053E-01
       -2   -1    0    0    0  501  0.00000000000E+00  0.00000000000E+00  0.87180818733E+03  0.87180818734E+03  0.25500000920E-02 0.  1.
        2   -1    0    0  501    0  0.00000000000E+00  0.00000000000E+00 -0.13920954758E+04  0.13920954758E+04  0.25500000920E-02 0. -1.
    10030    2    1    2    0    0  0.00000000000E+00  0.00000000000E+00 -0.52028728848E+03  0.22639036632E+04  0.22033068178E+04 0.  0.
        3    1    3    3  502    0  0.10143624154E+03  0.52142739093E+03  0.73152388164E+03  0.90404813739E+03  0.10100000352E+00 0.  1.
       -3    1    3    3    0  502 -0.10143624154E+03 -0.52142739093E+03 -0.12518111701E+04  0.13598555258E+04  0.10100000352E+00 0. -1.
</event>
<event>
 5   0  0.4408787E-06  0.2198488E+04  0.7818609E-02  0.8519058E-01
       -1   -1    0    0    0  501  0.00000000000E+00  0.00000000000E+00  0.10103515300E+04  0.10103515300E+04  0.50400001928E-02 0.  1.
        1   -1    0    0  501    0  0.00000000000E+00  0.00000000000E+00 -0.11959574585E+04  0.11959574585E+04  0.50400001928E-02 0. -1.
    10030    2    1    2    0    0  0.00000000000E+00  0.00000000000E+00 -0.18560592857E+03  0.22063089885E+04  0.21984880696E+04 0.  0.
        1    1    3    3  502    0  0.74854099214E+03 -0.79379376430E+03  0.41521201585E+02  0.10918544625E+04  0.50400001928E-02 0. -1.
       -1    1    3    3    0  502 -0.74854099214E+03  0.79379376430E+03 -0.22712713015E+03  0.11144545260E+04  0.50400001928E-02 0.  1.
</event>
<event>
 5   0  0.9963173E-06  0.2201234E+04  0.7818609E-02  0.8517915E-01
        2   -1    0    0  501    0  0.00000000000E+00  0.00000000000E+00  0.92300116286E+03  0.92300116286E+03  0.25500000920E-02 0.  1.
       -2   -1    0    0    0  501  0.00000000000E+00  0.00000000000E+00 -0.13124119893E+04  0.13124119893E+04  0.25500000920E-02 0. -1.
    10030    2    1    2    0    0  0.00000000000E+00  0.00000000000E+00 -0.38941082648E+03  0.22354131522E+04  0.22012340106E+04 0.  0.
        4    1    3    3  502    0  0.49907935285E+03  0.67864172272E+03 -0.91402667328E+03  0.12430129366E+04  0.12699999809E+01 0. -1.
       -4    1    3    3    0  502 -0.49907935285E+03 -0.67864172272E+03  0.52461584680E+03  0.99240021557E+03  0.12699999809E+01 0.  1.
</event>
<event>
 5   0  0.4309945E-06  0.2201601E+04  0.7818609E-02  0.8517762E-01
       -1   -1    0    0    0  501  0.00000000000E+00  0.00000000000E+00  0.79637333201E+03  0.79637333203E+03  0.50400001928E-02 0. -1.
        1   -1    0    0  501    0  0.00000000000E+00  0.00000000000E+00 -0.15216003715E+04  0.15216003715E+04  0.50400001928E-02 0.  1.
    10030    2    1    2    0    0  0.00000000000E+00  0.00000000000E+00 -0.72522703951E+03  0.23179737036E+04  0.22016011972E+04 0.  0.
        4    1    3    3  502    0  0.81059568234E+02 -0.81342839075E+03 -0.11388234469E+04  0.14018405246E+04  0.12699999809E+01 0.  1.
       -4    1    3    3    0  502 -0.81059568234E+02  0.81342839075E+03  0.41359640734E+03  0.91613317894E+03  0.12699999809E+01 0. -1.
</event>
<event>
 5   0  0.1014015E-05  0.2199461E+04  0.7818609E-02  0.8518653E-01
        2   -1    0    0  501    0  0.00000000000E+00  0.00000000000E+00  0.22129175432E+04  0.22129175432E+04  0.25500000920E-02 0.  1.
       -2   -1    0    0    0  501  0.00000000000E+00  0.00000000000E+00 -0.54652142224E+03  0.54652142224E+03  0.25500000920E-02 0. -1.
    10030    2    1    2    0    0  0.00000000000E+00  0.00000000000E+00  0.16663961210E+04  0.27594389655E+04  0.21994607003E+04 0.  0.
        1    1    3    3  502    0  0.61803144445E+02 -0.50836826942E+02  0.22092597719E+04  0.22107086536E+04  0.50400001928E-02 0.  1.
       -1    1    3    3    0  502 -0.61803144445E+02  0.50836826942E+02 -0.54286365089E+03  0.54873031183E+03  0.50400001928E-02 0. -1.
</event>
<event>
 5   0  0.1015876E-05  0.2205693E+04  0.7818609E-02  0.8516062E-01
        2   -1    0    0  501    0  0.00000000000E+00  0.00000000000E+00  0.21521756980E+04  0.21521756980E+04  0.25500000920E-02 0.  1.
       -2   -1    0    0    0  501  0.00000000000E+00  0.00000000000E+00 -0.56513523566E+03  0.56513523566E+03  0.25500000920E-02 0. -1.
    10030    2    1    2    0    0  0.00000000000E+00  0.00000000000E+00  0.15870404624E+04  0.27173109337E+04  0.22056929254E+04 0.  0.
        5    1    3    3  502    0 -0.58636375786E+03  0.67752037881E+03  0.14288773370E+01  0.89603596575E+03  0.46999998093E+01 0. -1.
       -5    1    3    3    0  502  0.58636375786E+03 -0.67752037881E+03  0.15856115850E+04  0.18212749679E+04  0.46999998093E+01 0.  1.
</event>
<event>
 5   0  0.4408787E-06  0.2194441E+04  0.7818609E-02  0.8520745E-01
        1   -1    0    0  501    0  0.00000000000E+00  0.00000000000E+00  0.14345094551E+04  0.14345094551E+04  0.50400001928E-02 0. -1.
       -1   -1    0    0    0  501  0.00000000000E+00  0.00000000000E+00 -0.83923656930E+03  0.83923656932E+03  0.50400001928E-02 0.  1.
    10030    2    1    2    0    0  0.00000000000E+00  0.00000000000E+00  0.59527288577E+03  0.22737460244E+04  0.21944409709E+04 0.  0.
        1    1    3    3  502    0  0.78911294230E+03 -0.30859245833E+03  0.10199407616E+04  0.13259742450E+04  0.50400001928E-02 0. -1.
       -1    1    3    3    0  502 -0.78911294230E+03  0.30859245833E+03 -0.42466787587E+03  0.94777177942E+03  0.50400001928E-02 0.  1.
</event>
<event>
 5   0  0.4408787E-06  0.2199588E+04  0.7818609E-02  0.8518600E-01
        1   -1    0    0  501    0  0.00000000000E+00  0.00000000000E+00  0.13129225972E+04  0.13129225972E+04  0.50400001928E-02 0. -1.
       -1   -1    0    0    0  501  0.00000000000E+00  0.00000000000E+00 -0.92126245481E+03  0.92126245482E+03  0.50400001928E-02 0.  1.
    10030    2    1    2    0    0  0.00000000000E+00  0.00000000000E+00  0.39166014241E+03  0.22341850520E+04  0.21995875022E+04 0.  0.
        1    1    3    3  502    0  0.27650588395E+02  0.26403790008E+03  0.12798875022E+04  0.13071314341E+04  0.50400001928E-02 0. -1.
       -1    1    3    3    0  502 -0.27650588395E+02 -0.26403790008E+03 -0.88822735982E+03  0.92705361791E+03  0.50400001928E-02 0.  1.
</event>
<event>
 5   0  0.4309945E-06  0.2201339E+04  0.7818609E-02  0.8517871E-01
        1   -1    0    0  501    0  0.00000000000E+00  0.00000000000E+00  0.94991974229E+03  0.94991974230E+03  0.50400001928E-02 0.  1.
       -1   -1    0    0    0  501  0.00000000000E+00  0.00000000000E+00 -0.12753423213E+04  0.12753423213E+04  0.50400001928E-02 0. -1.
    10030    2    1    2    0    0  0.00000000000E+00  0.00000000000E+00 -0.32542257903E+03  0.22252620636E+04  0.22013385466E+04 0.  0.
        4    1    3    3  502    0  0.60558822652E+03 -0.91297879858E+03 -0.26970985621E+03  0.11282785145E+04  0.12699999809E+01 0. -1.
       -4    1    3    3    0  502 -0.60558822652E+03  0.91297879858E+03 -0.55712722827E+02  0.10969835492E+04  0.12699999809E+01 0.  1.
</event>
<event>
 5   0  0.9963173E-06  0.2199539E+04  0.7818609E-02  0.8518620E-01
        2   -1    0    0  501    0  0.00000000000E+00  0.00000000000E+00  0.18220306685E+04  0.18220306685E+04  0.25500000920E-02 0. -1.
       -2   -1    0    0    0  501  0.00000000000E+00  0.00000000000E+00 -0.66381612055E+03  0.66381612055E+03  0.25500000920E-02 0.  1.
    10030    2    1    2    0    0  0.00000000000E+00  0.00000000000E+00  0.11582145480E+04  0.24858467891E+04  0.21995393426E+04 0.  0.
        4    1    3    3  502    0 -0.30291793944E+03  0.10106348870E+04  0.22830087979E+03  0.10794744358E+04  0.12699999809E+01 0.  1.
       -4    1    3    3    0  502  0.30291793944E+03 -0.10106348870E+04  0.92991366816E+03  0.14063723533E+04  0.12699999809E+01 0. -1.
</event>
<event>
 5   0  0.4408787E-06  0.2198973E+04  0.7818609E-02  0.8518856E-01
        1   -1    0    0  501    0  0.00000000000E+00  0.00000000000E+00  0.12677159919E+04  0.12677159919E+04  0.50400001928E-02 0. -1.
       -1   -1    0    0    0  501  0.00000000000E+00  0.00000000000E+00 -0.95358142215E+03  0.95358142217E+03  0.50400001928E-02 0.  1.
    10030    2    1    2    0    0  0.00000000000E+00  0.00000000000E+00  0.31413456978E+03  0.22212974141E+04  0.21989728680E+04 0.  0.
        1    1    3    3  502    0  0.21093231713E+03 -0.62192938465E+03 -0.73369103674E+03  0.98467819074E+03  0.50400001928E-02 0.  1.
       -1    1    3    3    0  502 -0.21093231713E+03  0.62192938465E+03  0.10478256065E+04  0.12366192234E+04  0.50400001928E-02 0. -1.
</event>
<event>
 5   0  0.1014015E-05  0.2198585E+04  0.7818609E-02  0.8519017E-01
       -2   -1    0    0    0  501  0.00000000000E+00  0.00000000000E+00  0.65424700690E+03  0.65424700690E+03  0.25500000920E-02 0. -1.
        2   -1    0    0  501    0  0.00000000000E+00  0.00000000000E+00 -0.18470763383E+04  0.18470763383E+04  0.25500000920E-02 0.  1.
    10030    2    1    2    0    0  0.00000000000E+00  0.00000000000E+00 -0.11928293314E+04  0.25013233452E+04  0.21985851504E+04 0.  0.
        1    1    3    3  502    0 -0.26808640100E+03  0.89749412221E+03 -0.12510384867E+04  0.15628382235E+04  0.50400001928E-02 0.  1.
       -1    1    3    3    0  502  0.26808640100E+03 -0.89749412221E+03  0.58209155272E+02  0.93848512166E+03  0.50400001928E-02 0. -1.
</event>
<event>
 5   0  0.3546750E-06  0.2198267E+04  0.7818609E-02  0.8519150E-01
        3   -1    0    0  501    0  0.00000000000E+00  0.00000000000E+00  0.66269821578E+03  0.66269822348E+03  0.10100000352E+00 0. -1.
       -3   -1    0    0    0  501  0.00000000000E+00  0.00000000000E+00 -0.18229928182E+04  0.18229928209E+04  0.10100000352E+00 0.  1.
    10030    2    1    2    0    0  0.00000000000E+00  0.00000000000E+00 -0.11602946024E+04  0.24856910444E+04  0.21982666817E+04 0.  0.
        3    1    3    3  502    0  0.65533017834E+03  0.39980593534E+03  0.30933845264E+03  0.82764286806E+03  0.10100000352E+00 0. -1.
       -3    1    3    3    0  502 -0.65533017834E+03 -0.39980593534E+03 -0.14696330550E+04  0.16580481764E+04  0.10100000352E+00 0.  1.
</event>
<event>
 5   0  0.4794967E-06  0.2195214E+04  0.7818609E-02  0.8520423E-01
        1   -1    0    0  501    0  0.00000000000E+00  0.00000000000E+00  0.10229529142E+04  0.10229529142E+04  0.50400001928E-02 0. -1.
       -1   -1    0    0    0  501  0.00000000000E+00  0.00000000000E+00 -0.11777090856E+04  0.11777090856E+04  0.50400001928E-02 0.  1.
    10030    2    1    2    0    0  0.00000000000E+00  0.00000000000E+00 -0.15475617143E+03  0.22006619999E+04  0.21952138313E+04 0.  0.
        5    1    3    3  502    0  0.78265461750E+03 -0.67502872095E+03  0.29300717824E+03  0.10742845623E+04  0.46999998093E+01 0.  1.
       -5    1    3    3    0  502 -0.78265461750E+03  0.67502872095E+03 -0.44776334967E+03  0.11263774375E+04  0.46999998093E+01 0. -1.
</event>
<event>
 5   0  0.1035928E-05  0.2202901E+04  0.7818609E-02  0.8517222E-01
        2   -1    0    0  501    0  0.00000000000E+00  0.00000000000E+00  0.24494226871E+04  0.24494226871E+04  0.25500000920E-02 0. -1.
       -2   -1    0    0    0  501  0.00000000000E+00  0.00000000000E+00 -0.49529767412E+03  0.49529767412E+03  0.25500000920E-02 0.  1.
    10030    2    1    2    0    0  0.00000000000E+00  0.00000000000E+00  0.19541250130E+04  0.29447203613E+04  0.22029011416E+04 0.  0.
        3    1    3    3  502    0 -0.28456794440E+03  0.26215116008E+03 -0.40146679716E+03  0.55756411751E+03  0.10100000352E+00 0.  1.
       -3    1    3    3    0  502  0.28456794440E+03 -0.26215116008E+03  0.23555918102E+04  0.23871562438E+04  0.10100000352E+00 0. -1.
</event>
<event>
 5   0  0.4408787E-06  0.2201398E+04  0.7818609E-02  0.8517846E-01
       -1   -1    0    0    0  501  0.00000000000E+00  0.00000000000E+00  0.14475700398E+04  0.14475700398E+04  0.50400001928E-02 0.  1.
        1   -1    0    0  501    0  0.00000000000E+00  0.00000000000E+00 -0.83694660553E+03  0.83694660554E+03  0.50400001928E-02 0. -1.
    10030    2    1    2    0    0  0.00000000000E+00  0.00000000000E+00  0.61062343430E+03  0.22845166454E+04  0.22013984929E+04 0.  0.
        1    1    3    3  502    0 -0.20206960862E+03  0.10756785859E+04  0.42643304716E+03  0.11746325768E+04  0.50400001928E-02 0.  1.
       -1    1    3    3    0  502  0.20206960862E+03 -0.10756785859E+04  0.18419038714E+03  0.11098840685E+04  0.50400001928E-02 0. -1.
</event>
<event>
 5   0  0.4794967E-06  0.2182085E+04  0.7818609E-02  0.8525922E-01
        1   -1    0    0  501    0  0.00000000000E+00  0.00000000000E+00  0.90607808733E+03  0.90607808734E+03  0.50400001928E-02 0. -1.
       -1   -1    0    0    0  501  0.00000000000E+00  0.00000000000E+00 -0.13137645262E+04  0.13137645262E+04  0.50400001928E-02 0.  1.
    10030    2    1    2    0    0  0.00000000000E+00  0.00000000000E+00 -0.40768643886E+03  0.22198426135E+04  0.21820845530E+04 0.  0.
        5    1    3    3  502    0  0.83795124153E+03 -0.92046164614E+02  0.50075717648E+03  0.98051752631E+03  0.46999998093E+01 0. -1.
       -5    1    3    3    0  502 -0.83795124153E+03  0.92046164614E+02 -0.90844361534E+03  0.12393250872E+04  0.46999998093E+01 0.  1.
</event>
<event>
 5   0  0.1015876E-05  0.2204458E+04  0.7818609E-02  0.8516575E-01
       -2   -1    0    0    0  501  0.00000000000E+00  0.00000000000E+00  0.13611184753E+04  0.13611184753E+04  0.25500000920E-02 0.  1.
        2   -1    0    0  501    0  0.00000000000E+00  0.00000000000E+00 -0.89258160769E+03  0.89258160769E+03  0.25500000920E-02 0. -1.
    10030    2    1    2    0    0  0.00000000000E+00  0.00000000000E+00  0.46853686756E+03  0.22537000829E+04  0.22044584976E+04 0.  0.
        5    1    3    3  502    0  0.64152147715E+02  0.99710104105E+01  0.13591518083E+04  0.13607096116E+04  0.46999998093E+01 0.  1.
       -5    1    3    3    0  502 -0.64152147715E+02 -0.99710104105E+01 -0.89061494078E+03  0.89299047130E+03  0.46999998093E+01 0. -1.
</event>
<event>
 5   0  0.4408787E-06  0.2194727E+04  0.7818609E-02  0.8520626E-01
       -1   -1    0    0    0  501  0.00000000000E+00  0.00000000000E+00  0.11116648072E+04  0.11116648073E+04  0.50400001928E-02 0.  1.
        1   -1    0    0  501    0  0.00000000000E+00  0.00000000000E+00 -0.10832459664E+04  0.10832459664E+04  0.50400001928E-02 0. -1.
    10030    2    1    2    0    0  0.00000000000E+00  0.00000000000E+00  0.28418840869E+02  0.21949107736E+04  0.21947267879E+04 0.  0.
        1    1    3    3  502    0  0.54408156776E+03  0.90989287187E+03 -0.26914563532E+03  0.10937866171E+04  0.50400001928E-02 0. -1.
       -1    1    3    3    0  502 -0.54408156776E+03 -0.90989287187E+03  0.29756447619E+03  0.11011241566E+04  0.50400001928E-02 0.  1.
</event>
<event>
 5   0  0.4794967E-06  0.2201898E+04  0.7818609E-02  0.8517639E-01
        1   -1    0    0  501    0  0.00000000000E+00  0.00000000000E+00  0.67764939858E+03  0.67764939860E+03  0.50400001928E-02 0. -1.
       -1   -1    0    0    0  501  0.00000000000E+00  0.00000000000E+00 -0.17886663787E+04  0.17886663787E+04  0.50400001928E-02 0.  1.
    10030    2    1    2    0    0  0.00000000000E+00  0.00000000000E+00 -0.11110169801E+04  0.24663157773E+04  0.22018979956E+04 0.  0.
        5    1    3    3  502    0  0.33189611062E+03 -0.33893175963E+03 -0.16683111786E+04  0.17344492050E+04  0.46999998093E+01 0.  1.
       -5    1    3    3    0  502 -0.33189611062E+03  0.33893175963E+03  0.55729419853E+03  0.73186657230E+03  0.46999998093E+01 0. -1.
</event>
<event>
 5   0  0.4462201E-06  0.2200333E+04  0.7818609E-02  0.8518290E-01
       -1   -1    0    0    0  501  0.00000000000E+00  0.00000000000E+00  0.61501266878E+03  0.61501266880E+03  0.50400001928E-02 0. -1.
        1   -1    0    0  501    0  0.00000000000E+00  0.00000000000E+00 -0.19680345589E+04  0.19680345589E+04  0.50400001928E-02 0.  1.
    10030    2    1    2    0    0  0.00000000000E+00  0.00000000000E+00 -0.13530218901E+04  0.25830472277E+04  0.22003328715E+04 0.  0.
        3    1    3    3  502    0 -0.60261626420E+03  0.29025596019E+03  0.34890025914E+03  0.75440458994E+03  0.10100000352E+00 0. -1.
       -3    1    3    3    0  502  0.60261626420E+03 -0.29025596019E+03 -0.17019221492E+04  0.18286426377E+04  0.10100000352E+00 0.  1.
</event>
<event>
 5   0  0.9963173E-06  0.2163990E+04  0.7818609E-02  0.8533568E-01
        2   -1    0    0  501    0  0.00000000000E+00  0.00000000000E+00  0.15454918487E+04  0.15454918487E+04  0.25500000920E-02 0.  1.
       -2   -1    0    0    0  501  0.00000000000E+00  0.00000000000E+00 -0.75750170814E+03  0.75750170815E+03  0.25500000920E-02 0. -1.
    10030    2    1    2    0    0  0.00000000000E+00  0.00000000000E+00  0.78799014055E+03  0.23029935568E+04  0.21639895705E+04 0.  0.
        4    1    3    3  502    0 -0.38884353456E+02  0.66499870100E+03 -0.51340236563E+03  0.84102251290E+03  0.12699999809E+01 0. -1.
       -4    1    3    3    0  502  0.38884353456E+02 -0.66499870100E+03  0.13013925062E+04  0.14619710439E+04  0.12699999809E+01 0.  1.
</event>
<event>
 5   0  0.4630615E-06  0.2202457E+04  0.7818609E-02  0.8517406E-01
       -1   -1    0    0    0  501  0.00000000000E+00  0.00000000000E+00  0.11290722941E+04  0.11290722941E+04  0.50400001928E-02 0.  1.
        1   -1    0    0  501    0  0.00000000000E+00  0.00000000000E+00 -0.10740713106E+04  0.10740713106E+04  0.50400001928E-02 0. -1.
    10030    2    1    2    0    0  0.00000000000E+00  0.00000000000E+00  0.55000983480E+02  0.22031436047E+04  0.22024569541E+04 0.  0.
        2    1    3    3  502    0 -0.74213015845E+03 -0.81306333904E+03 -0.20890166236E+01  0.11008331070E+04  0.25500000920E-02 0.  1.
       -2    1    3    3    0  502  0.74213015845E+03  0.81306333904E+03  0.57090000103E+02  0.11023104978E+04  0.25500000920E-02 0. -1.
</event>
<event>
 5   0  0.3546750E-06  0.2202153E+04  0.7818609E-02  0.8517533E-01
        3   -1    0    0  501    0  0.00000000000E+00  0.00000000000E+00  0.12972862844E+04  0.12972862884E+04  0.10100000352E+00 0.  1.
       -3   -1    0    0    0  501  0.00000000000E+00  0.00000000000E+00 -0.93454275918E+03  0.93454276464E+03  0.10100000352E+00 0. -1.
    10030    2    1    2    0    0  0.00000000000E+00  0.00000000000E+00  0.36274352527E+03  0.22318290530E+04  0.22021530503E+04 0.  0.
        4    1    3    3  502    0 -0.13280142797E+03  0.56703767376E+03 -0.76567250720E+03  0.96198957578E+03  0.12699999809E+01 0. -1.
       -4    1    3    3    0  502  0.13280142797E+03 -0.56703767376E+03  0.11284160325E+04  0.12698394772E+04  0.12699999809E+01 0.  1.
</event>
<event>
 5   0  0.1014015E-05  0.2250342E+04  0.7818609E-02  0.8497762E-01
       -2   -1    0    0    0  501  0.00000000000E+00  0.00000000000E+00  0.87090122855E+03  0.87090122856E+03  0.25500000920E-02 0. -1.
        2   -1    0    0  501    0  0.00000000000E+00  0.00000000000E+00 -0.14536775132E+04  0.14536775132E+04  0.25500000920E-02 0.  1.
    10030    2    1    2    0    0  0.00000000000E+00  0.00000000000E+00 -0.58277628469E+03  0.23245787418E+04  0.22503417804E+04 0.  0.
        1    1    3    3  502    0 -0.19576162977E+03 -0.98568930539E+03  0.23137329513E+03  0.10312320904E+04  0.50400001928E-02 0. -1.
       -1    1    3    3    0  502  0.19576162977E+03  0.98568930539E+03 -0.81414957981E+03  0.12933466514E+04  0.50400001928E-02 0.  1.
</event>
<event>
 5   0  0.9963173E-06  0.2190084E+04  0.7818609E-02  0.8522567E-01
       -2   -1    0    0    0  501  0.00000000000E+00  0.00000000000E+00  0.27227208871E+04  0.27227208871E+04  0.25500000920E-02 0. -1.
        2   -1    0    0  501    0  0.00000000000E+00  0.00000000000E+00 -0.44041122834E+03  0.44041122835E+03  0.25500000920E-02 0.  1.
    10030    2    1    2    0    0  0.00000000000E+00  0.00000000000E+00  0.22823096588E+04  0.31631321155E+04  0.21900838800E+04 0.  0.
        4    1    3    3  502    0  0.82236167208E+03 -0.18500710453E+03  0.13158290448E+03  0.85312485727E+03  0.12699999809E+01 0. -1.
       -4    1    3    3    0  502 -0.82236167208E+03  0.18500710453E+03  0.21507267543E+04  0.23100072582E+04  0.12699999809E+01 0.  1.
</event>
<event>
 5   0  0.9963173E-06  0.2199213E+04  0.7818609E-02  0.8518756E-01
        2   -1    0    0  501    0  0.00000000000E+00  0.00000000000E+00  0.11466789112E+04  0.11466789112E+04  0.25500000920E-02 0.  1.
       -2   -1    0    0    0  501  0.00000000000E+00  0.00000000000E+00 -0.10544666331E+04  0.10544666331E+04  0.25500000920E-02 0. -1.
    10030    2    1    2    0    0  0.00000000000E+00  0.00000000000E+00  0.92212278118E+02  0.22011455443E+04  0.21992131781E+04 0.  0.
        4    1    3    3  502    0  0.33711976212E+03  0.10321574788E+04  0.21985084189E+03  0.11078514343E+04  0.12699999809E+01 0. -1.
       -4    1    3    3    0  502 -0.33711976212E+03 -0.10321574788E+04 -0.12763856377E+03  0.10932941099E+04  0.12699999809E+01 0.  1.
</event>
<event>
 5   0  0.9963573E-06  0.2175710E+04  0.7818609E-02  0.8528607E-01
        2   -1    0    0  501    0  0.00000000000E+00  0.00000000000E+00  0.10704095592E+04  0.10704095592E+04  0.25500000920E-02 0. -1.
       -2   -1    0    0    0  501  0.00000000000E+00  0.00000000000E+00 -0.11055846615E+04  0.11055846615E+04  0.25500000920E-02 0.  1.
    10030    2    1    2    0    0  0.00000000000E+00  0.00000000000E+00 -0.35175102223E+02  0.21759942207E+04  0.21757098981E+04 0.  0.
        2    1    3    3  502    0  0.70658832957E+03  0.71212748190E+03  0.40322362439E+03  0.10811946676E+04  0.25500000920E-02 0. -1.
       -2    1    3    3    0  502 -0.70658832957E+03 -0.71212748190E+03 -0.43839872661E+03  0.10947995531E+04  0.25500000920E-02 0.  1.
</event>
<event>
 5   0  0.1035928E-05  0.2147223E+04  0.7818609E-02  0.8540722E-01
        2   -1    0    0  501    0  0.00000000000E+00  0.00000000000E+00  0.13064083362E+04  0.13064083362E+04  0.25500000920E-02 0.  1.
       -2   -1    0    0    0  501  0.00000000000E+00  0.00000000000E+00 -0.88229818280E+03  0.88229818281E+03  0.25500000920E-02 0. -1.
    10030    2    1    2    0    0  0.00000000000E+00  0.00000000000E+00  0.42411015335E+03  0.21887065190E+04  0.21472230448E+04 0.  0.
        3    1    3    3  502    0  0.43073415744E+03  0.19728802763E+03 -0.76998262660E+03  0.90406179860E+03  0.10100000352E+00 0. -1.
       -3    1    3    3    0  502 -0.43073415744E+03 -0.19728802763E+03  0.11940927799E+04  0.12846447204E+04  0.10100000352E+00 0.  1.
</event>
<event>
 5   0  0.4462201E-06  0.2200609E+04  0.7818609E-02  0.8518175E-01
        1   -1    0    0  501    0  0.00000000000E+00  0.00000000000E+00  0.11541910821E+04  0.11541910821E+04  0.50400001928E-02 0. -1.
       -1   -1    0    0    0  501  0.00000000000E+00  0.00000000000E+00 -0.10489337619E+04  0.10489337619E+04  0.50400001928E-02 0.  1.
    10030    2    1    2    0    0  0.00000000000E+00  0.00000000000E+00  0.10525732019E+03  0.22031248440E+04  0.22006090009E+04 0.  0.
        3    1    3    3  502    0 -0.37024715976E+03  0.72497521583E+02 -0.98215405431E+03  0.10521242543E+04  0.10100000352E+00 0.  1.
       -3    1    3    3    0  502  0.37024715976E+03 -0.72497521583E+02  0.10874113745E+04  0.11510005897E+04  0.10100000352E+00 0. -1.
</event>
<event>
 5   0  0.4309945E-06  0.2199785E+04  0.7818609E-02  0.8518518E-01
       -1   -1    0    0    0  501  0.00000000000E+00  0.00000000000E+00  0.90706148707E+03  0.90706148709E+03  0.50400001928E-02 0.  1.
        1   -1    0    0  501    0  0.00000000000E+00  0.00000000000E+00 -0.13337170720E+04  0.13337170720E+04  0.50400001928E-02 0. -1.
    10030    2    1    2    0    0  0.00000000000E+00  0.00000000000E+00 -0.42665558495E+03  0.22407785591E+04  0.21997848901E+04 0.  0.
        4    1    3    3  502    0  0.26813283952E+03 -0.73542287669E+03 -0.10003972776E+04  0.12702512952E+04  0.12699999809E+01 0. -1.
       -4    1    3    3    0  502 -0.26813283952E+03  0.73542287669E+03  0.57374169262E+03  0.97052726388E+03  0.12699999809E+01 0.  1.
</event>
<event>
 5   0  0.1035928E-05  0.2236552E+04  0.7818609E-02  0.8503366E-01
       -2   -1    0    0    0  501  0.00000000000E+00  0.00000000000E+00  0.16964265601E+04  0.16964265601E+04  0.25500000920E-02 0. -1.
        2   -1    0    0  501    0  0.00000000000E+00  0.00000000000E+00 -0.73716212438E+03  0.73716212438E+03  0.25500000920E-02 0.  1.
    10030    2    1    2    0    0  0.00000000000E+00  0.00000000000E+00  0.95926443575E+03  0.24335886845E+04  0.22365521742E+04 0.  0.
        3    1    3    3  502    0  0.37048491468E+03 -0.58073080775E+03 -0.47890401327E+03  0.83896150520E+03  0.10100000352E+00 0.  1.
       -3    1    3    3    0  502 -0.37048491468E+03  0.58073080775E+03  0.14381684490E+04  0.15946271793E+04  0.10100000352E+00 0. -1.
</event>
<event>
 5   0  0.9963573E-06  0.2197633E+04  0.7818609E-02  0.8519414E-01
        2   -1    0    0  501    0  0.00000000000E+00  0.00000000000E+00  0.10128939999E+04  0.10128939999E+04  0.25500000920E-02 0.  1.
       -2   -1    0    0    0  501  0.00000000000E+00  0.00000000000E+00 -0.11920278492E+04  0.11920278492E+04  0.25500000920E-02 0. -1.
    10030    2    1    2    0    0  0.00000000000E+00  0.00000000000E+00 -0.17913384929E+03  0.22049218490E+04  0.21976331414E+04 0.  0.
        2    1    3    3  502    0 -0.33066896653E+03  0.49757616747E+03  0.83570308760E+03  0.10272894716E+04  0.25500000920E-02 0. -1.
       -2    1    3    3    0  502  0.33066896653E+03 -0.49757616747E+03 -0.10148369369E+04  0.11776323774E+04  0.25500000920E-02 0.  1.
</event>
<event>
 5   0  0.4408787E-06  0.2199158E+04  0.7818609E-02  0.8518779E-01
       -1   -1    0    0    0  501  0.00000000000E+00  0.00000000000E+00  0.11885218480E+04  0.11885218480E+04  0.50400001928E-02 0. -1.
        1   -1    0    0  501    0  0.00000000000E+00  0.00000000000E+00 -0.10172921758E+04  0.10172921758E+04  0.50400001928E-02 0.  1.
    10030    2    1    2    0    0  0.00000000000E+00  0.00000000000E+00  0.17122967219E+03  0.22058140239E+04  0.21991579996E+04 0.  0.
        1    1    3    3  502    0  0.49449059857E+03 -0.28126332092E+03 -0.85821348087E+03  0.10296409017E+04  0.50400001928E-02 0.  1.
       -1    1    3    3    0  502 -0.49449059857E+03  0.28126332092E+03  0.10294431531E+04  0.11761731221E+04  0.50400001928E-02 0. -1.
</event>
<event>
 5   0  0.1014015E-05  0.2203907E+04  0.7818609E-02  0.8516804E-01
       -2   -1    0    0    0  501  0.00000000000E+00  0.00000000000E+00  0.10428419753E+04  0.10428419753E+04  0.25500000920E-02 0. -1.
        2   -1    0    0  501    0  0.00000000000E+00  0.00000000000E+00 -0.11644155466E+04  0.11644155466E+04  0.25500000920E-02 0.  1.
    10030    2    1    2    0    0  0.00000000000E+00  0.00000000000E+00 -0.12157357132E+03  0.22072575219E+04  0.22039069025E+04 0.  0.
        1    1    3    3  502    0 -0.37746090861E+03 -0.65138990274E+03 -0.86669385892E+03  0.11480173292E+04  0.50400001928E-02 0.  1.
       -1    1    3    3    0  502  0.37746090861E+03  0.65138990274E+03  0.74512028760E+03  0.10592401927E+04  0.50400001928E-02 0. -1.
</event>
<event>
 5   0  0.4630615E-06  0.2196752E+04  0.7818609E-02  0.8519781E-01
       -1   -1    0    0    0  501  0.00000000000E+00  0.00000000000E+00  0.93916842977E+03  0.93916842978E+03  0.50400001928E-02 0. -1.
        1   -1    0    0  501    0  0.00000000000E+00  0.00000000000E+00 -0.12845718985E+04  0.12845718985E+04  0.50400001928E-02 0.  1.
    10030    2    1    2    0    0  0.00000000000E+00  0.00000000000E+00 -0.34540346870E+03  0.22237403283E+04  0.21967515771E+04 0.  0.
        2    1    3    3  502    0  0.88029869192E+02  0.34702497794E+03  0.87844566449E+03  0.94860022067E+03  0.25500000920E-02 0. -1.
       -2    1    3    3    0  502 -0.88029869192E+02 -0.34702497794E+03 -0.12238491332E+04  0.12751401076E+04  0.25500000920E-02 0.  1.
</event>
<event>
 5   0  0.1015876E-05  0.2152269E+04  0.7818609E-02  0.8538562E-01
       -2   -1    0    0    0  501  0.00000000000E+00  0.00000000000E+00  0.79793023462E+03  0.79793023462E+03  0.25500000920E-02 0.  1.
        2   -1    0    0  501    0  0.00000000000E+00  0.00000000000E+00 -0.14513370902E+04  0.14513370902E+04  0.25500000920E-02 0. -1.
    10030    2    1    2    0    0  0.00000000000E+00  0.00000000000E+00 -0.65340685556E+03  0.22492673248E+04  0.21522692628E+04 0.  0.
        5    1    3    3  502    0  0.26613784564E+03  0.10046691228E+04 -0.61830217208E+03  0.12093424102E+04  0.46999998093E+01 0.  1.
       -5    1    3    3    0  502 -0.26613784564E+03 -0.10046691228E+04 -0.35104683476E+02  0.10399249146E+04  0.46999998093E+01 0. -1.
</event>
<event>
 5   0  0.4630615E-06  0.2199869E+04  0.7818609E-02  0.8518483E-01
        1   -1    0    0  501    0  0.00000000000E+00  0.00000000000E+00  0.75350757774E+03  0.75350757775E+03  0.50400001928E-02 0.  1.
       -1   -1    0    0    0  501  0.00000000000E+00  0.00000000000E+00 -0.16056313168E+04  0.16056313168E+04  0.50400001928E-02 0. -1.
    10030    2    1    2    0    0  0.00000000000E+00  0.00000000000E+00 -0.85212373908E+03  0.23591388946E+04  0.21998685091E+04 0.  0.
        2    1    3    3  502    0 -0.14691521030E+03  0.72266213824E+03 -0.13012550363E+04  0.14956902469E+04  0.25500000920E-02 0. -1.
       -2    1    3    3    0  502  0.14691521030E+03 -0.72266213824E+03  0.44913129723E+03  0.86344864770E+03  0.25500000920E-02 0.  1.
</event>
<event>
 5   0  0.4462201E-06  0.2200266E+04  0.7818609E-02  0.8518317E-01
       -1   -1    0    0    0  501  0.00000000000E+00  0.00000000000E+00  0.67719130408E+03  0.67719130410E+03  0.50400001928E-02 0. -1.
        1   -1    0    0  501    0  0.00000000000E+00  0.00000000000E+00 -0.17872243308E+04  0.17872243308E+04  0.50400001928E-02 0.  1.
    10030    2    1    2    0    0  0.00000000000E+00  0.00000000000E+00 -0.11100330267E+04  0.24644156349E+04  0.22002661433E+04 0.  0.
        3    1    3    3  502    0  0.18245838740E+03  0.10787262301E+04 -0.42559618172E+03  0.11739137373E+04  0.10100000352E+00 0. -1.
       -3    1    3    3    0  502 -0.18245838740E+03 -0.10787262301E+04 -0.68443684500E+03  0.12905018976E+04  0.10100000352E+00 0.  1.
</event>
<event>
 5   0  0.4794967E-06  0.2200390E+04  0.7818609E-02  0.8518266E-01
       -1   -1    0    0    0  501  0.00000000000E+00  0.00000000000E+00  0.72819503140E+03  0.72819503142E+03  0.50400001928E-02 0. -1.
        1   -1    0    0  501    0  0.00000000000E+00  0.00000000000E+00 -0.16622321964E+04  0.16622321964E+04  0.50400001928E-02 0.  1.
    10030    2    1    2    0    0  0.00000000000E+00  0.00000000000E+00 -0.93403716501E+03  0.23904272278E+04  0.22003901713E+04 0.  0.
        5    1    3    3  502    0  0.75197517756E+03  0.37716380716E+03 -0.12372567936E+04  0.14961770177E+04  0.46999998093E+01 0.  1.
       -5    1    3    3    0  502 -0.75197517756E+03 -0.37716380716E+03  0.30321962860E+03  0.89425021010E+03  0.46999998093E+01 0. -1.
</event>
<event>
 5   0  0.1014015E-05  0.2199563E+04  0.7818609E-02  0.8518610E-01
       -2   -1    0    0    0  501  0.00000000000E+00  0.00000000000E+00  0.83831010338E+03  0.83831010338E+03  0.25500000920E-02 0.  1.
        2   -1    0    0  501    0  0.00000000000E+00  0.00000000000E+00 -0.14428066450E+04  0.14428066450E+04  0.25500000920E-02 0. -1.
    10030    2    1    2    0    0  0.00000000000E+00  0.00000000000E+00 -0.60449654158E+03  0.22811167484E+04  0.21995630363E+04 0.  0.
        1    1    3    3  502    0 -0.90773523225E+03  0.88544788673E+02 -0.93960454878E+03  0.13094579564E+04  0.50400001928E-02 0. -1.
       -1    1    3    3    0  502  0.90773523225E+03 -0.88544788673E+02  0.33510800719E+03  0.97165879195E+03  0.50400001928E-02 0.  1.
</event>
<event>
 5   0  0.4462201E-06  0.2197425E+04  0.7818609E-02  0.8519501E-01
       -1   -1    0    0    0  501  0.00000000000E+00  0.00000000000E+00  0.78385285870E+03  0.78385285872E+03  0.50400001928E-02 0. -1.
        1   -1    0    0  501    0  0.00000000000E+00  0.00000000000E+00 -0.15400449196E+04  0.15400449196E+04  0.50400001928E-02 0.  1.
    10030    2    1    2    0    0  0.00000000000E+00  0.00000000000E+00 -0.75619206093E+03  0.23238977784E+04  0.21974245041E+04 0.  0.
        3    1    3    3  502    0 -0.12986810371E+03 -0.12096564982E+03 -0.15247854645E+04  0.15350795210E+04  0.10100000352E+00 0.  1.
       -3    1    3    3    0  502  0.12986810371E+03  0.12096564982E+03  0.76859340362E+03  0.78881825732E+03  0.10100000352E+00 0. -1.
</event>
<event>
 5   0  0.9963573E-06  0.2211532E+04  0.7818609E-02  0.8513644E-01
       -2   -1    0    0    0  501  0.00000000000E+00  0.00000000000E+00  0.10236619755E+04  0.10236619755E+04  0.25500000920E-02 0. -1.
        2   -1    0    0  501    0  0.00000000000E+00  0.00000000000E+00 -0.11944550144E+04  0.11944550144E+04  0.25500000920E-02 0.  1.
    10030    2    1    2    0    0  0.00000000000E+00  0.00000000000E+00 -0.17079303890E+03  0.22181169899E+04  0.22115317585E+04 0.  0.
        2    1    3    3  502    0  0.39210471563E+02  0.82036830875E+03 -0.82799062434E+03  0.11662375817E+04  0.25500000920E-02 0.  1.
       -2    1    3    3    0  502 -0.39210471563E+02 -0.82036830875E+03  0.65719758545E+03  0.10518794082E+04  0.25500000920E-02 0. -1.
</event>
<event>
 5   0  0.4309945E-06  0.2199437E+04  0.7818609E-02  0.8518662E-01
       -1   -1    0    0    0  501  0.00000000000E+00  0.00000000000E+00  0.98250330001E+03  0.98250330002E+03  0.50400001928E-02 0. -1.
        1   -1    0    0  501    0  0.00000000000E+00  0.00000000000E+00 -0.12309178170E+04  0.12309178170E+04  0.50400001928E-02 0.  1.
    10030    2    1    2    0    0  0.00000000000E+00  0.00000000000E+00 -0.24841451698E+03  0.22134211170E+04  0.21994370346E+04 0.  0.
        4    1    3    3  502    0 -0.90176208438E+03  0.23926982286E+02 -0.75719913607E+03  0.11777518847E+04  0.12699999809E+01 0.  1.
       -4    1    3    3    0  502  0.90176208438E+03 -0.23926982286E+02  0.50878461909E+03  0.10356692323E+04  0.12699999809E+01 0. -1.
</event>
<event>
 5   0  0.4794967E-06  0.2196510E+04  0.7818609E-02  0.8519882E-01
        1   -1    0    0  501    0  0.00000000000E+00  0.00000000000E+00  0.13087435706E+04  0.13087435706E+04  0.50400001928E-02 0.  1.
       -1   -1    0    0    0  501  0.00000000000E+00  0.00000000000E+00 -0.92161966797E+03  0.92161966798E+03  0.50400001928E-02 0. -1.
    10030    2    1    2    0    0  0.00000000000E+00  0.00000000000E+00  0.38712390266E+03  0.22303632386E+04  0.21965097906E+04 0.  0.
        5    1    3    3  502    0  0.44699087792E+03  0.62136265273E+02 -0.82310874444E+03  0.93871819817E+03  0.46999998093E+01 0. -1.
       -5    1    3    3    0  502 -0.44699087792E+03 -0.62136265273E+02  0.12102326471E+04  0.12916450404E+04  0.46999998093E+01 0.  1.
</event>
<event>
 5   0  0.1015876E-05  0.2200603E+04  0.7818609E-02  0.8518177E-01
       -2   -1    0    0    0  501  0.00000000000E+00  0.00000000000E+00  0.14450250054E+04  0.14450250054E+04  0.25500000920E-02 0. -1.
        2   -1    0    0  501    0  0.00000000000E+00  0.00000000000E+00 -0.83781464110E+03  0.83781464111E+03  0.25500000920E-02 0.  1.
    10030    2    1    2    0    0  0.00000000000E+00  0.00000000000E+00  0.60721036427E+03  0.22828396465E+04  0.22006027413E+04 0.  0.
        5    1    3    3  502    0 -0.14833518853E+03 -0.57409049554E+03  0.12650955708E+04  0.13971657448E+04  0.46999998093E+01 0. -1.
       -5    1    3    3    0  502  0.14833518853E+03  0.57409049554E+03 -0.65788520650E+03  0.88567390170E+03  0.46999998093E+01 0.  1.
</event>
<event>
 5   0  0.4794967E-06  0.2198398E+04  0.7818609E-02  0.8519095E-01
       -1   -1    0    0    0  501  0.00000000000E+00  0.00000000000E+00  0.49293712851E+03  0.49293712853E+03  0.50400001928E-02 0. -1.
        1   -1    0    0  501    0  0.00000000000E+00  0.00000000000E+00 -0.24511011599E+04  0.24511011599E+04  0.50400001928E-02 0.  1.
    10030    2    1    2    0    0  0.00000000000E+00  0.00000000000E+00 -0.19581640314E+04  0.29440382884E+04  0.21983982965E+04 0.  0.
        5    1    3    3  502    0  0.21055374717E+02 -0.32260986217E+03 -0.23859775583E+04  0.24077855907E+04  0.46999998093E+01 0.  1.
       -5    1    3    3    0  502 -0.21055374717E+02  0.32260986217E+03  0.42781352695E+03  0.53625269772E+03  0.46999998093E+01 0. -1.
</event>
<event>
 5   0  0.4630615E-06  0.2198427E+04  0.7818609E-02  0.8519083E-01
       -1   -1    0    0    0  501  0.00000000000E+00  0.00000000000E+00  0.86595885590E+03  0.86595885591E+03  0.50400001928E-02 0. -1.
        1   -1    0    0  501    0  0.00000000000E+00  0.00000000000E+00 -0.13952970164E+04  0.13952970164E+04  0.50400001928E-02 0.  1.
    10030    2    1    2    0    0  0.00000000000E+00  0.00000000000E+00 -0.52933816052E+03  0.22612558723E+04  0.21984265355E+04 0.  0.
        2    1    3    3  502    0 -0.26100153554E+02 -0.91024880523E+03  0.36858472765E+03  0.98238933570E+03  0.25500000920E-02 0. -1.
       -2    1    3    3    0  502  0.26100153554E+02  0.91024880523E+03 -0.89792288817E+03  0.12788665366E+04  0.25500000920E-02 0.  1.
</event>
<event>
 5   0  0.1014015E-05  0.2202912E+04  0.7818609E-02  0.8517217E-01
       -2   -1    0    0    0  501  0.00000000000E+00  0.00000000000E+00  0.80561772184E+03  0.80561772184E+03  0.25500000920E-02 0.  1.
        2   -1    0    0  501    0  0.00000000000E+00  0.00000000000E+00 -0.15059322544E+04  0.15059322544E+04  0.25500000920E-02 0. -1.
    10030    2    1    2    0    0  0.00000000000E+00  0.00000000000E+00 -0.70031453259E+03  0.23115499763E+04  0.22029123560E+04 0.  0.
        1    1    3    3  502    0 -0.47220162344E+03 -0.48167894583E+03 -0.12638554268E+04  0.14325918888E+04  0.50400001928E-02 0. -1.
       -1    1    3    3    0  502  0.47220162344E+03  0.48167894583E+03  0.56354089421E+03  0.87895808746E+03  0.50400001928E-02 0.  1.
</event>
<event>
 5   0  0.4309945E-06  0.2192445E+04  0.7818609E-02  0.8521579E-01
       -1   -1    0    0    0  501  0.00000000000E+00  0.00000000000E+00  0.78672816253E+03  0.78672816255E+03  0.50400001928E-02 0.  1.
        1   -1    0    0  501    0  0.00000000000E+00  0.00000000000E+00 -0.15274707044E+04  0.15274707044E+04  0.50400001928E-02 0. -1.
    10030    2    1    2    0    0  0.00000000000E+00  0.00000000000E+00 -0.74074254182E+03  0.23141988669E+04  0.21924454115E+04 0.  0.
        4    1    3    3  502    0  0.95904269513E+03 -0.35889094118E+03  0.42687613575E+02  0.10248850882E+04  0.12699999809E+01 0. -1.
       -4    1    3    3    0  502 -0.95904269513E+03  0.35889094118E+03 -0.78343015540E+03  0.12893137787E+04  0.12699999809E+01 0.  1.
</event>
<event>
 5   0  0.1014015E-05  0.2174102E+04  0.7818609E-02  0.8529285E-01
       -2   -1    0    0    0  501  0.00000000000E+00  0.00000000000E+00  0.67794498786E+03  0.67794498786E+03  0.25500000920E-02 0.  1.
        2   -1    0    0  501    0  0.00000000000E+00  0.00000000000E+00 -0.17430324409E+04  0.17430324409E+04  0.25500000920E-02 0. -1.
    10030    2    1    2    0    0  0.00000000000E+00  0.00000000000E+00 -0.10650874531E+04  0.24209774288E+04  0.21741022120E+04 0.  0.
        1    1    3    3  502    0 -0.26757236543E+03  0.11067753397E+03  0.63421065729E+03  0.69718551700E+03  0.50400001928E-02 0.  1.
       -1    1    3    3    0  502  0.26757236543E+03 -0.11067753397E+03 -0.16992981104E+04  0.17237919118E+04  0.50400001928E-02 0. -1.
</event>
<event>
 5   0  0.1014015E-05  0.2198641E+04  0.7818609E-02  0.8518994E-01
        2   -1    0    0  501    0  0.00000000000E+00  0.00000000000E+00  0.15829915239E+04  0.15829915239E+04  0.25500000920E-02 0.  1.
       -2   -1    0    0    0  501  0.00000000000E+00  0.00000000000E+00 -0.76343159186E+03  0.76343159186E+03  0.25500000920E-02 0. -1.
    10030    2    1    2    0    0  0.00000000000E+00  0.00000000000E+00  0.81955993207E+03  0.23464231158E+04  0.21986411613E+04 0.  0.
        1    1    3    3  502    0 -0.65606707127E+03  0.15042116861E+03  0.13373705560E+04  0.14972008997E+04  0.50400001928E-02 0.  1.
       -1    1    3    3    0  502  0.65606707127E+03 -0.15042116861E+03 -0.51781062395E+03  0.84922221607E+03  0.50400001928E-02 0. -1.
</event>
<event>
 5   0  0.4309945E-06  0.2197260E+04  0.7818609E-02  0.8519569E-01
        1   -1    0    0  501    0  0.00000000000E+00  0.00000000000E+00  0.99787203101E+03  0.99787203102E+03  0.50400001928E-02 0. -1.
       -1   -1    0    0    0  501  0.00000000000E+00  0.00000000000E+00 -0.12095620147E+04  0.12095620147E+04  0.50400001928E-02 0.  1.
    10030    2    1    2    0    0  0.00000000000E+00  0.00000000000E+00 -0.21168998372E+03  0.22074340458E+04  0.21972602070E+04 0.  0.
        4    1    3    3  502    0  0.12197963353E+02 -0.38474423269E+03  0.92790418378E+03  0.10045818543E+04  0.12699999809E+01 0. -1.
       -4    1    3    3    0  502 -0.12197963353E+02  0.38474423269E+03 -0.11395941675E+04  0.12028521914E+04  0.12699999809E+01 0.  1.
</event>
<event>
 5   0  0.4462201E-06  0.2200245E+04  0.7818609E-02  0.8518326E-01
        1   -1    0    0  501    0  0.00000000000E+00  0.00000000000E+00  0.18741863653E+04  0.18741863653E+04  0.50400001928E-02 0. -1.
       -1   -1    0    0    0  501  0.00000000000E+00  0.00000000000E+00 -0.64575742241E+03  0.64575742243E+03  0.50400001928E-02 0.  1.
    10030    2    1    2    0    0  0.00000000000E+00  0.00000000000E+00  0.12284289429E+04  0.25199437877E+04  0.22002452194E+04 0.  0.
        3    1    3    3  502    0  0.27641738174E+03 -0.29434812562E+02  0.18332997946E+04  0.18542548704E+04  0.10100000352E+00 0. -1.
       -3    1    3    3    0  502 -0.27641738174E+03  0.29434812562E+02 -0.60487085178E+03  0.66568891733E+03  0.10100000352E+00 0.  1.
</event>
<event>
 5   0  0.9963173E-06  0.2163842E+04  0.7818609E-02  0.8533630E-01
       -2   -1    0    0    0  501  0.00000000000E+00  0.00000000000E+00  0.57845590079E+03  0.57845590080E+03  0.25500000920E-02 0. -1.
        2   -1    0    0  501    0  0.00000000000E+00  0.00000000000E+00 -0.20235826267E+04  0.20235826267E+04  0.25500000920E-02 0.  1.
    10030    2    1    2    0    0  0.00000000000E+00  0.00000000000E+00 -0.14451267259E+04  0.26020385275E+04  0.21638422411E+04 0.  0.
        4    1    3    3  502    0  0.39657997763E+02 -0.10401967592E+04 -0.36793621988E+03  0.11040655458E+04  0.12699999809E+01 0. -1.
       -4    1    3    3    0  502 -0.39657997763E+02  0.10401967592E+04 -0.10771905060E+04  0.14979729817E+04  0.12699999809E+01 0.  1.
</event>
<event>
 5   0  0.4309945E-06  0.2202045E+04  0.7818609E-02  0.8517577E-01
       -1   -1    0    0    0  501  0.00000000000E+00  0.00000000000E+00  0.79660604535E+03  0.79660604537E+03  0.50400001928E-02 0. -1.
        1   -1    0    0  501    0  0.00000000000E+00  0.00000000000E+00 -0.15217698389E+04  0.15217698389E+04  0.50400001928E-02 0.  1.
    10030    2    1    2    0    0  0.00000000000E+00  0.00000000000E+00 -0.72516379354E+03  0.23183758843E+04  0.22020454612E+04 0.  0.
        4    1    3    3  502    0  0.25812980403E+03 -0.98074493504E+03 -0.81389763810E+03  0.13003547983E+04  0.12699999809E+01 0.  1.
       -4    1    3    3    0  502 -0.25812980403E+03  0.98074493504E+03  0.88733844560E+02  0.10180210859E+04  0.12699999809E+01 0. -1.
</event>
<event>
 5   0  0.4408787E-06  0.2199466E+04  0.7818609E-02  0.8518651E-01
       -1   -1    0    0    0  501  0.00000000000E+00  0.00000000000E+00  0.11801528750E+04  0.11801528750E+04  0.50400001928E-02 0. -1.
        1   -1    0    0  501    0  0.00000000000E+00  0.00000000000E+00 -0.10247928413E+04  0.10247928413E+04  0.50400001928E-02 0.  1.
    10030    2    1    2    0    0  0.00000000000E+00  0.00000000000E+00  0.15536003372E+03  0.22049457163E+04  0.21994655878E+04 0.  0.
        1    1    3    3  502    0  0.98474469357E+03 -0.35515010794E+03  0.41550406987E+03  0.11262758733E+04  0.50400001928E-02 0.  1.
       -1    1    3    3    0  502 -0.98474469357E+03  0.35515010794E+03 -0.26014403615E+03  0.10786698430E+04  0.50400001928E-02 0. -1.
</event>
<event>
 5   0  0.4794967E-06  0.2201086E+04  0.7818609E-02  0.8517976E-01
       -1   -1    0    0    0  501  0.00000000000E+00  0.00000000000E+00  0.13009225853E+04  0.13009225853E+04  0.50400001928E-02 0.  1.
        1   -1    0    0  501    0  0.00000000000E+00  0.00000000000E+00 -0.93102783354E+03  0.93102783356E+03  0.50400001928E-02 0. -1.
    10030    2    1    2    0    0  0.00000000000E+00  0.00000000000E+00  0.36989475173E+03  0.22319504188E+04  0.22010862193E+04 0.  0.
        5    1    3    3  502    0 -0.73707331462E+00  0.44742638721E+03  0.12045224929E+04  0.12849464740E+04  0.46999998093E+01 0.  1.
       -5    1    3    3    0  502  0.73707331462E+00 -0.44742638721E+03 -0.83462774114E+03  0.94700394483E+03  0.46999998093E+01 0. -1.
</event>
<event>
 5   0  0.9963173E-06  0.2196649E+04  0.7818609E-02  0.8519824E-01
       -2   -1    0    0    0  501  0.00000000000E+00  0.00000000000E+00  0.58560107290E+03  0.58560107291E+03  0.25500000920E-02 0. -1.
        2   -1    0    0  501    0  0.00000000000E+00  0.00000000000E+00 -0.20599625981E+04  0.20599625981E+04  0.25500000920E-02 0.  1.
    10030    2    1    2    0    0  0.00000000000E+00  0.00000000000E+00 -0.14743615252E+04  0.26455636710E+04  0.21966486361E+04 0.  0.
        4    1    3    3  502    0  0.86835133254E+03 -0.16606316172E+03 -0.15220560179E+04  0.17601895196E+04  0.12699999809E+01 0.  1.
       -4    1    3    3    0  502 -0.86835133254E+03  0.16606316172E+03  0.47694492720E+02  0.88537415139E+03  0.12699999809E+01 0. -1.
</event>
<event>
 5   0  0.9963573E-06  0.2199912E+04  0.7818609E-02  0.8518465E-01
        2   -1    0    0  501    0  0.00000000000E+00  0.00000000000E+00  0.19417002882E+04  0.19417002882E+04  0.25500000920E-02 0.  1.
       -2   -1    0    0    0  501  0.00000000000E+00  0.00000000000E+00 -0.62311521914E+03  0.62311521914E+03  0.25500000920E-02 0. -1.
    10030    2    1    2    0    0  0.00000000000E+00  0.00000000000E+00  0.13185850690E+04  0.25648155073E+04  0.21999118169E+04 0.  0.
        2    1    3    3  502    0 -0.77650123925E+03 -0.20079881378E+03  0.15368996340E+04  0.17335901543E+04  0.25500000920E-02 0.  1.
       -2    1    3    3    0  502  0.77650123925E+03  0.20079881378E+03 -0.21831456496E+03  0.83122535299E+03  0.25500000920E-02 0. -1.
</event>
<event>
 5   0  0.4794967E-06  0.2201231E+04  0.7818609E-02  0.8517916E-01
        1   -1    0    0  501    0  0.00000000000E+00  0.00000000000E+00  0.10179184826E+04  0.10179184826E+04  0.50400001928E-02 0. -1.
       -1   -1    0    0    0  501  0.00000000000E+00  0.00000000000E+00 -0.11900308653E+04  0.11900308653E+04  0.50400001928E-02 0.  1.
    10030    2    1    2    0    0  0.00000000000E+00  0.00000000000E+00 -0.17211238271E+03  0.22079493479E+04  0.22012309399E+04 0.  0.
        5    1    3    3  502    0 -0.29894262282E+03  0.10226218008E+04  0.19084848246E+03  0.10823896121E+04  0.46999998093E+01 0. -1.
       -5    1    3    3    0  502  0.29894262282E+03 -0.10226218008E+04 -0.36296086517E+03  0.11255597358E+04  0.46999998093E+01 0.  1.
</event>
<event>
 5   0  0.4408787E-06  0.2203265E+04  0.7818609E-02  0.8517070E-01
       -1   -1    0    0    0  501  0.00000000000E+00  0.00000000000E+00  0.12490238783E+04  0.12490238783E+04  0.50400001928E-02 0.  1.
        1   -1    0    0  501    0  0.00000000000E+00  0.00000000000E+00 -0.97163389943E+03  0.97163389944E+03  0.50400001928E-02 0. -1.
    10030    2    1    2    0    0  0.00000000000E+00  0.00000000000E+00  0.27738997882E+03  0.22206577777E+04  0.22032647969E+04 0.  0.
        1    1    3    3  502    0 -0.81727627240E+03  0.40317078894E+03  0.76253732267E+03  0.11882551742E+04  0.50400001928E-02 0.  1.
       -1    1    3    3    0  502  0.81727627240E+03 -0.40317078894E+03 -0.48514734384E+03  0.10324026035E+04  0.50400001928E-02 0. -1.
</event>
<event>
 5   0  0.1035928E-05  0.2198657E+04  0.7818609E-02  0.8518987E-01
       -2   -1    0    0    0  501  0.00000000000E+00  0.00000000000E+00  0.67836751432E+03  0.67836751433E+03  0.25500000920E-02 0.  1.
        2   -1    0    0  501    0  0.00000000000E+00  0.00000000000E+00 -0.17815163188E+04  0.17815163188E+04  0.25500000920E-02 0. -1.
    10030    2    1    2    0    0  0.00000000000E+00  0.00000000000E+00 -0.11031488044E+04  0.24598838331E+04  0.21986566780E+04 0.  0.
        3    1    3    3  502    0 -0.18236491913E+02 -0.21760961470E+03  0.65385745274E+03  0.68935918994E+03  0.10100000352E+00 0.  1.
       -3    1    3    3    0  502  0.18236491913E+02  0.21760961470E+03 -0.17570062572E+04  0.17705246432E+04  0.10100000352E+00 0. -1.
</event>
<event>
 5   0  0.9963173E-06  0.2193797E+04  0.7818609E-02  0.8521014E-01
        2   -1    0    0  501    0  0.00000000000E+00  0.00000000000E+00  0.10613388692E+04  0.10613388692E+04  0.25500000920E-02 0. -1.
       -2   -1    0    0    0  501  0.00000000000E+00  0.00000000000E+00 -0.11336500367E+04  0.11336500367E+04  0.25500000920E-02 0.  1.
    10030    2    1    2    0    0  0.00000000000E+00  0.00000000000E+00 -0.72311167463E+02  0.21949889060E+04  0.21937974821E+04 0.  0.
        4    1    3    3  502    0  0.32333243484E+03  0.31482526273E+03 -0.10364617274E+04  0.11304482893E+04  0.12699999809E+01 0.  1.
       -4    1    3    3    0  502 -0.32333243484E+03 -0.31482526273E+03  0.96415055992E+03  0.10645406167E+04  0.12699999809E+01 0. -1.
</event>
<event>
 5   0  0.9963173E-06  0.2200576E+04  0.7818609E-02  0.8518188E-01
       -2   -1    0    0    0  501  0.00000000000E+00  0.00000000000E+00  0.12034786393E+04  0.12034786393E+04  0.25500000920E-02 0.  1.
        2   -1    0    0  501    0  0.00000000000E+00  0.00000000000E+00 -0.10059457520E+04  0.10059457520E+04  0.25500000920E-02 0. -1.
    10030    2    1    2    0    0  0.00000000000E+00  0.00000000000E+00  0.19753288728E+03  0.22094243913E+04  0.22005764925E+04 0.  0.
        4    1    3    3  502    0  0.74725409263E+02  0.17010274593E+03 -0.99008177320E+03  0.10073640660E+04  0.12699999809E+01 0. -1.
       -4    1    3    3    0  502 -0.74725409263E+02 -0.17010274593E+03  0.11876146605E+04  0.12020603253E+04  0.12699999809E+01 0.  1.
</event>
<event>
 5   0  0.4462201E-06  0.2203431E+04  0.7818609E-02  0.8517001E-01
       -1   -1    0    0    0  501  0.00000000000E+00  0.00000000000E+00  0.78854220351E+03  0.78854220353E+03  0.50400001928E-02 0.  1.
        1   -1    0    0  501    0  0.00000000000E+00  0.00000000000E+00 -0.15392675217E+04  0.15392675218E+04  0.50400001928E-02 0. -1.
    10030    2    1    2    0    0  0.00000000000E+00  0.00000000000E+00 -0.75072531824E+03  0.23278097253E+04  0.22034313272E+04 0.  0.
        3    1    3    3  502    0  0.10247997555E+04  0.34842154692E+03 -0.59229557441E+03  0.12338663505E+04  0.10100000352E+00 0.  1.
       -3    1    3    3    0  502 -0.10247997555E+04 -0.34842154692E+03 -0.15842974383E+03  0.10939433748E+04  0.10100000352E+00 0. -1.
</event>
<event>
 5   0  0.4462201E-06  0.2202787E+04  0.7818609E-02  0.8517269E-01
        1   -1    0    0  501    0  0.00000000000E+00  0.00000000000E+00  0.11405295924E+04  0.11405295924E+04  0.50400001928E-02 0.  1.
       -1   -1    0    0    0  501  0.00000000000E+00  0.00000000000E+00 -0.10636000872E+04  0.10636000872E+04  0.50400001928E-02 0. -1.
    10030    2    1    2    0    0  0.00000000000E+00  0.00000000000E+00  0.76929505198E+02  0.22041296796E+04  0.22027867568E+04 0.  0.
        3    1    3    3  502    0 -0.61758756704E+03 -0.88209851073E+03  0.27002575443E+03  0.11101468839E+04  0.10100000352E+00 0.  1.
       -3    1    3    3    0  502  0.61758756704E+03  0.88209851073E+03 -0.19309624923E+03  0.10939827957E+04  0.10100000352E+00 0. -1.
</event>
<event>
 5   0  0.4408787E-06  0.2200505E+04  0.7818609E-02  0.8518218E-01
       -1   -1    0    0    0  501  0.00000000000E+00  0.00000000000E+00  0.10389711506E+04  0.10389711506E+04  0.50400001928E-02 0.  1.
        1   -1    0    0  501    0  0.00000000000E+00  0.00000000000E+00 -0.11651488861E+04  0.11651488861E+04  0.50400001928E-02 0. -1.
    10030    2    1    2    0    0  0.00000000000E+00  0.00000000000E+00 -0.12617773546E+03  0.22041200367E+04  0.22005054681E+04 0.  0.
        1    1    3    3  502    0 -0.48136726107E+03 -0.63919728746E+03  0.69331278521E+03  0.10587588160E+04  0.50400001928E-02 0.  1.
       -1    1    3    3    0  502  0.48136726107E+03  0.63919728746E+03 -0.81949052067E+03  0.11453612207E+04  0.50400001928E-02 0. -1.
</event>
<event>
 5   0  0.4630615E-06  0.2203366E+04  0.7818609E-02  0.8517028E-01
       -1   -1    0    0    0  501  0.00000000000E+00  0.00000000000E+00  0.88781932113E+03  0.88781932115E+03  0.50400001928E-02 0. -1.
        1   -1    0    0  501    0  0.00000000000E+00  0.00000000000E+00 -0.13670638076E+04  0.13670638076E+04  0.50400001928E-02 0.  1.
    10030    2    1    2    0    0  0.00000000000E+00  0.00000000000E+00 -0.47924448643E+03  0.22548831287E+04  0.22033662080E+04 0.  0.
        2    1    3    3  502    0  0.69840506105E+03  0.68929624286E+02  0.62945947976E+03  0.94273016239E+03  0.25500000920E-02 0. -1.
       -2    1    3    3    0  502 -0.69840506105E+03 -0.68929624286E+02 -0.11087039662E+04  0.13121529663E+04  0.25500000920E-02 0.  1.
</event>
<event>
 5   0  0.1035928E-05  0.2208005E+04  0.7818609E-02  0.8515103E-01
        2   -1    0    0  501    0  0.00000000000E+00  0.00000000000E+00  0.14092423768E+04  0.14092423768E+04  0.25500000920E-02 0. -1.
       -2   -1    0    0    0  501  0.00000000000E+00  0.00000000000E+00 -0.86487752523E+03  0.86487752524E+03  0.25500000920E-02 0.  1.
    10030    2    1    2    0    0  0.00000000000E+00  0.00000000000E+00  0.54436485153E+03  0.22741199020E+04  0.22080054885E+04 0.  0.
        3    1    3    3  502    0  0.10876072677E+03 -0.26122582967E+03 -0.82689480273E+03  0.87396959601E+03  0.10100000352E+00 0.  1.
       -3    1    3    3    0  502 -0.10876072677E+03  0.26122582967E+03  0.13712596543E+04  0.14001503060E+04  0.10100000352E+00 0. -1.
</event>
<event>
 5   0  0.1035928E-05  0.2197485E+04  0.7818609E-02  0.8519475E-01
        2   -1    0    0  501    0  0.00000000000E+00  0.00000000000E+00  0.23255100615E+04  0.23255100615E+04  0.25500000920E-02 0. -1.
       -2   -1    0    0    0  501  0.00000000000E+00  0.00000000000E+00 -0.51912721294E+03  0.51912721295E+03  0.25500000920E-02 0.  1.
    10030    2    1    2    0    0  0.00000000000E+00  0.00000000000E+00  0.18063828485E+04  0.28446372744E+04  0.21974854329E+04 0.  0.
        3    1    3    3  502    0  0.28858508141E+03  0.65281511189E+03  0.19845312858E+04  0.21089839625E+04  0.10100000352E+00 0. -1.
       -3    1    3    3    0  502 -0.28858508141E+03 -0.65281511189E+03 -0.17814843723E+03  0.73565331197E+03  0.10100000352E+00 0.  1.
</event>
<event>
 5   0  0.4462201E-06  0.2198756E+04  0.7818609E-02  0.8518946E-01
       -1   -1    0    0    0  501  0.00000000000E+00  0.00000000000E+00  0.74694605780E+03  0.74694605782E+03  0.50400001928E-02 0.  1.
        1   -1    0    0  501    0  0.00000000000E+00  0.00000000000E+00 -0.16180979421E+04  0.16180979421E+04  0.50400001928E-02 0. -1.
    10030    2    1    2    0    0  0.00000000000E+00  0.00000000000E+00 -0.87115188432E+03  0.23650439999E+04  0.21987559019E+04 0.  0.
        3    1    3    3  502    0 -0.14623373890E+03  0.71222918512E+03  0.45139494685E+03  0.85581080081E+03  0.10100000352E+00 0. -1.
       -3    1    3    3    0  502  0.14623373890E+03 -0.71222918512E+03 -0.13225468312E+04  0.15092331991E+04  0.10100000352E+00 0.  1.
</event>
<event>
 5   0  0.9963573E-06  0.2207681E+04  0.7818609E-02  0.8515238E-01
       -2   -1    0    0    0  501  0.00000000000E+00  0.00000000000E+00  0.80749476986E+03  0.80749476987E+03  0.25500000920E-02 0.  1.
        2   -1    0    0  501    0  0.00000000000E+00  0.00000000000E+00 -0.15089433387E+04  0.15089433387E+04  0.25500000920E-02 0. -1.
    10030    2    1    2    0    0  0.00000000000E+00  0.00000000000E+00 -0.70144856887E+03  0.23164381086E+04  0.22076810042E+04 0.  0.
        2    1    3    3  502    0  0.83443348470E+02 -0.26192653941E+03 -0.14724525179E+04  0.14978934281E+04  0.25500000920E-02 0. -1.
       -2    1    3    3    0  502 -0.83443348470E+02  0.26192653941E+03  0.77100394906E+03  0.81854468047E+03  0.25500000920E-02 0.  1.
</event>
<event>
 5   0  0.1014015E-05  0.2200321E+04  0.7818609E-02  0.8518295E-01
        2   -1    0    0  501    0  0.00000000000E+00  0.00000000000E+00  0.39993948431E+03  0.39993948432E+03  0.25500000920E-02 0. -1.
       -2   -1    0    0    0  501  0.00000000000E+00  0.00000000000E+00 -0.30263399653E+04  0.30263399653E+04  0.25500000920E-02 0.  1.
    10030    2    1    2    0    0  0.00000000000E+00  0.00000000000E+00 -0.26264004810E+04  0.34262794496E+04  0.22003207449E+04 0.  0.
        1    1    3    3  502    0 -0.23837214545E+03 -0.10696201779E+04 -0.11618718883E+04  0.15971395962E+04  0.50400001928E-02 0.  1.
       -1    1    3    3    0  502  0.23837214545E+03  0.10696201779E+04 -0.14645285926E+04  0.18291398534E+04  0.50400001928E-02 0. -1.
</event>
<event>
 5   0  0.9963173E-06  0.2152102E+04  0.7818609E-02  0.8538633E-01
       -2   -1    0    0    0  501  0.00000000000E+00  0.00000000000E+00  0.56268795930E+03  0.56268795931E+03  0.25500000920E-02 0.  1.
        2   -1    0    0  501    0  0.00000000000E+00  0.00000000000E+00 -0.20577756412E+04  0.20577756412E+04  0.25500000920E-02 0. -1.
    10030    2    1    2    0    0  0.00000000000E+00  0.00000000000E+00 -0.14950876819E+04  0.26204636005E+04  0.21521018342E+04 0.  0.
        4    1    3    3  502    0  0.20201578481E+03 -0.12670301583E+03  0.53010911604E+03  0.58127559672E+03  0.12699999809E+01 0.  1.
       -4    1    3    3    0  502 -0.20201578481E+03  0.12670301583E+03 -0.20251967979E+04  0.20391880038E+04  0.12699999809E+01 0. -1.
</event>
<event>
 5   0  0.4794967E-06  0.2201138E+04  0.7818609E-02  0.8517954E-01
       -1   -1    0    0    0  501  0.00000000000E+00  0.00000000000E+00  0.19493661013E+04  0.19493661013E+04  0.50400001928E-02 0.  1.
        1   -1    0    0  501    0  0.00000000000E+00  0.00000000000E+00 -0.62135711704E+03  0.62135711706E+03  0.50400001928E-02 0. -1.
    10030    2    1    2    0    0  0.00000000000E+00  0.00000000000E+00  0.13280089842E+04  0.25707232183E+04  0.22011383426E+04 0.  0.
        5    1    3    3  502    0  0.49254447540E+03 -0.81436570162E+03  0.13094656641E+04  0.16188001642E+04  0.46999998093E+01 0.  1.
       -5    1    3    3    0  502 -0.49254447540E+03  0.81436570162E+03  0.18543320120E+02  0.95192305410E+03  0.46999998093E+01 0. -1.
</event>
<event>
 5   0  0.1014015E-05  0.2177831E+04  0.7818609E-02  0.8527712E-01
       -2   -1    0    0    0  501  0.00000000000E+00  0.00000000000E+00  0.17950337381E+04  0.17950337382E+04  0.25500000920E-02 0.  1.
        2   -1    0    0  501    0  0.00000000000E+00  0.00000000000E+00 -0.66056552850E+03  0.66056552851E+03  0.25500000920E-02 0. -1.
    10030    2    1    2    0    0  0.00000000000E+00  0.00000000000E+00  0.11344682096E+04  0.24555992667E+04  0.21778314075E+04 0.  0.
        1    1    3    3  502    0 -0.59936324006E+02 -0.78604336622E+03  0.14142292153E+04  0.16191049410E+04  0.50400001928E-02 0.  1.
       -1    1    3    3    0  502  0.59936324006E+02  0.78604336622E+03 -0.27976100567E+03  0.83649432565E+03  0.50400001928E-02 0. -1.
</event>
<event>
 5   0  0.1035928E-05  0.2205206E+04  0.7818609E-02  0.8516265E-01
       -2   -1    0    0    0  501  0.00000000000E+00  0.00000000000E+00  0.99256401676E+03  0.99256401676E+03  0.25500000920E-02 0. -1.
        2   -1    0    0  501    0  0.00000000000E+00  0.00000000000E+00 -0.12248409772E+04  0.12248409772E+04  0.25500000920E-02 0.  1.
    10030    2    1    2    0    0  0.00000000000E+00  0.00000000000E+00 -0.23227696046E+03  0.22174049940E+04  0.22052057321E+04 0.  0.
        3    1    3    3  502    0 -0.43331362400E+03  0.60667066417E+03  0.70071199660E+03  0.10231360144E+04  0.10100000352E+00 0. -1.
       -3    1    3    3    0  502  0.43331362400E+03 -0.60667066417E+03 -0.93298895706E+03  0.11942689796E+04  0.10100000352E+00 0.  1.
</event>
<event>
 5   0  0.4309945E-06  0.2205379E+04  0.7818609E-02  0.8516192E-01
        1   -1    0    0  501    0  0.00000000000E+00  0.00000000000E+00  0.14552039926E+04  0.14552039926E+04  0.50400001928E-02 0.  1.
       -1   -1    0    0    0  501  0.00000000000E+00  0.00000000000E+00 -0.83556973139E+03  0.83556973141E+03  0.50400001928E-02 0. -1.
    10030    2    1    2    0    0  0.00000000000E+00  0.00000000000E+00  0.61963426117E+03  0.22907737240E+04  0.22053792501E+04 0.  0.
        4    1    3    3  502    0 -0.69393376773E+03 -0.80413149872E+03  0.61751577096E+03  0.12286166536E+04  0.12699999809E+01 0.  1.
       -4    1    3    3    0  502  0.69393376773E+03  0.80413149872E+03  0.21184902119E+01  0.10621570704E+04  0.12699999809E+01 0. -1.
</event>
<event>
 5   0  0.1015876E-05  0.2191754E+04  0.7818609E-02  0.8521868E-01
       -2   -1    0    0    0  501  0.00000000000E+00  0.00000000000E+00  0.11061511900E+04  0.11061511900E+04  0.25500000920E-02 0. -1.
        2   -1    0    0  501    0  0.00000000000E+00  0.00000000000E+00 -0.10856978805E+04  0.10856978805E+04  0.25500000920E-02 0.  1.
    10030    2    1    2    0    0  0.00000000000E+00  0.00000000000E+00  0.20453309434E+02  0.21918490705E+04  0.21917536380E+04 0.  0.
        5    1    3    3  502    0  0.37720054156E+03  0.82227575742E+03 -0.60827116521E+03  0.10901530031E+04  0.46999998093E+01 0.  1.
       -5    1    3    3    0  502 -0.37720054156E+03 -0.82227575742E+03  0.62872447465E+03  0.11016960674E+04  0.46999998093E+01 0. -1.
</event>
<event>
 5   0  0.9963573E-06  0.2198802E+04  0.7818609E-02  0.8518927E-01
        2   -1    0    0  501    0  0.00000000000E+00  0.00000000000E+00  0.17269380181E+04  0.17269380181E+04  0.25500000920E-02 0. -1.
       -2   -1    0    0    0  501  0.00000000000E+00  0.00000000000E+00 -0.69989944102E+03  0.69989944102E+03  0.25500000920E-02 0.  1.
    10030    2    1    2    0    0  0.00000000000E+00  0.00000000000E+00  0.10270385770E+04  0.24268374591E+04  0.21988023590E+04 0.  0.
        2    1    3    3  502    0  0.85671791836E+03  0.60512635179E+03  0.14989881811E+03  0.10595344020E+04  0.25500000920E-02 0.  1.
       -2    1    3    3    0  502 -0.85671791836E+03 -0.60512635179E+03  0.87713975893E+03  0.13673030571E+04  0.25500000920E-02 0. -1.
</event>
<event>
 5   0  0.9963573E-06  0.2199969E+04  0.7818609E-02  0.8518441E-01
        2   -1    0    0  501    0  0.00000000000E+00  0.00000000000E+00  0.11404485910E+04  0.11404485910E+04  0.25500000920E-02 0. -1.
       -2   -1    0    0    0  501  0.00000000000E+00  0.00000000000E+00 -0.10609561126E+04  0.10609561126E+04  0.25500000920E-02 0.  1.
    10030    2    1    2    0    0  0.00000000000E+00  0.00000000000E+00  0.79492478432E+02  0.22014047036E+04  0.21999690032E+04 0.  0.
        2    1    3    3  502    0  0.22661976726E+03 -0.71137918200E+03 -0.76858601274E+03  0.10715135643E+04  0.25500000920E-02 0.  1.
       -2    1    3    3    0  502 -0.22661976726E+03  0.71137918200E+03  0.84807849117E+03  0.11298911393E+04  0.25500000920E-02 0. -1.
</event>
<event>
 5   0  0.4462201E-06  0.2198308E+04  0.7818609E-02  0.8519133E-01
       -1   -1    0    0    0  501  0.00000000000E+00  0.00000000000E+00  0.99258716959E+03  0.99258716961E+03  0.50400001928E-02 0. -1.
        1   -1    0    0  501    0  0.00000000000E+00  0.00000000000E+00 -0.12171618529E+04  0.12171618530E+04  0.50400001928E-02 0.  1.
    10030    2    1    2    0    0  0.00000000000E+00  0.00000000000E+00 -0.22457468335E+03  0.22097490226E+04  0.21983077479E+04 0.  0.
        3    1    3    3  502    0 -0.72667226744E+01 -0.97783701252E+03  0.39224245280E+03  0.10535996300E+04  0.10100000352E+00 0. -1.
       -3    1    3    3    0  502  0.72667226744E+01  0.97783701252E+03 -0.61681713615E+03  0.11561493926E+04  0.10100000352E+00 0.  1.
</event>
<event>
 5   0  0.4630615E-06  0.2203101E+04  0.7818609E-02  0.8517138E-01
        1   -1    0    0  501    0  0.00000000000E+00  0.00000000000E+00  0.95261073068E+03  0.95261073069E+03  0.50400001928E-02 0. -1.
       -1   -1    0    0    0  501  0.00000000000E+00  0.00000000000E+00 -0.12737773074E+04  0.12737773074E+04  0.50400001928E-02 0.  1.
    10030    2    1    2    0    0  0.00000000000E+00  0.00000000000E+00 -0.32116657669E+03  0.22263880381E+04  0.22031013881E+04 0.  0.
        2    1    3    3  502    0  0.20788397977E+03  0.59199906052E+03  0.75437899764E+03  0.98120655766E+03  0.25500000920E-02 0. -1.
       -2    1    3    3    0  502 -0.20788397977E+03 -0.59199906052E+03 -0.10755455743E+04  0.12451814804E+04  0.25500000920E-02 0.  1.
</event>
<event>
 5   0  0.1014015E-05  0.2195628E+04  0.7818609E-02  0.8520250E-01
        2   -1    0    0  501    0  0.00000000000E+00  0.00000000000E+00  0.88508846956E+03  0.88508846957E+03  0.25500000920E-02 0.  1.
       -2   -1    0    0    0  501  0.00000000000E+00  0.00000000000E+00 -0.13616669332E+04  0.13616669332E+04  0.25500000920E-02 0. -1.
    10030    2    1    2    0    0  0.00000000000E+00  0.00000000000E+00 -0.47657846368E+03  0.22467554028E+04  0.21956281124E+04 0.  0.
        1    1    3    3  502    0  0.88926093529E+02 -0.76962870696E+03  0.55761380975E+03  0.95455191453E+03  0.50400001928E-02 0.  1.
       -1    1    3    3    0  502 -0.88926093529E+02  0.76962870696E+03 -0.10341922734E+04  0.12922034883E+04  0.50400001928E-02 0. -1.
</event>
<event>
 5   0  0.4630615E-06  0.2217966E+04  0.7818609E-02  0.8510987E-01
        1   -1    0    0  501    0  0.00000000000E+00  0.00000000000E+00  0.22089935956E+04  0.22089935956E+04  0.50400001928E-02 0.  1.
       -1   -1    0    0    0  501  0.00000000000E+00  0.00000000000E+00 -0.55674394523E+03  0.55674394525E+03  0.50400001928E-02 0. -1.
    10030    2    1    2    0    0  0.00000000000E+00  0.00000000000E+00  0.16522496504E+04  0.27657375408E+04  0.22179664645E+04 0.  0.
        2    1    3    3  502    0  0.95918318669E+03  0.39148266114E+03  0.33273937346E+03  0.10881206506E+04  0.25500000920E-02 0.  1.
       -2    1    3    3    0  502 -0.95918318669E+03 -0.39148266114E+03  0.13195102769E+04  0.16776168902E+04  0.25500000920E-02 0. -1.
</event>
<event>
 5   0  0.4794967E-06  0.2230698E+04  0.7818609E-02  0.8505758E-01
       -1   -1    0    0    0  501  0.00000000000E+00  0.00000000000E+00  0.97534523345E+03  0.97534523346E+03  0.50400001928E-02 0. -1.
        1   -1    0    0  501    0  0.00000000000E+00  0.00000000000E+00 -0.12754497075E+04  0.12754497075E+04  0.50400001928E-02 0.  1.
    10030    2    1    2    0    0  0.00000000000E+00  0.00000000000E+00 -0.30010447408E+03  0.22507949410E+04  0.22306983595E+04 0.  0.
        5    1    3    3  502    0 -0.36660537240E+03 -0.83886188935E+03 -0.79288918144E+03  0.12111086295E+04  0.46999998093E+01 0.  1.
       -5    1    3    3    0  502  0.36660537240E+03  0.83886188935E+03  0.49278470735E+03  0.10396863115E+04  0.46999998093E+01 0. -1.
</event>
<event>
 5   0  0.1015876E-05  0.2200760E+04  0.7818609E-02  0.8518112E-01
       -2   -1    0    0    0  501  0.00000000000E+00  0.00000000000E+00  0.76456417375E+03  0.76456417375E+03  0.25500000920E-02 0.  1.
        2   -1    0    0  501    0  0.00000000000E+00  0.00000000000E+00 -0.15836942535E+04  0.15836942535E+04  0.25500000920E-02 0. -1.
    10030    2    1    2    0    0  0.00000000000E+00  0.00000000000E+00 -0.81913007979E+03  0.23482584273E+04  0.22007597674E+04 0.  0.
        5    1    3    3  502    0 -0.25068871666E+03  0.84872931197E+03 -0.11073250493E+04  0.14175250024E+04  0.46999998093E+01 0. -1.
       -5    1    3    3    0  502  0.25068871666E+03 -0.84872931197E+03  0.28819496956E+03  0.93073342485E+03  0.46999998093E+01 0.  1.
</event>
<event>
 5   0  0.4630615E-06  0.2200068E+04  0.7818609E-02  0.8518400E-01
        1   -1    0    0  501    0  0.00000000000E+00  0.00000000000E+00  0.97974379084E+03  0.97974379085E+03  0.50400001928E-02 0.  1.
       -1   -1    0    0    0  501  0.00000000000E+00  0.00000000000E+00 -0.12350928790E+04  0.12350928791E+04  0.50400001928E-02 0. -1.
    10030    2    1    2    0    0  0.00000000000E+00  0.00000000000E+00 -0.25534908820E+03  0.22148366699E+04  0.22000677984E+04 0.  0.
        2    1    3    3  502    0 -0.46842655876E+03  0.98878379394E+03 -0.24227079071E+03  0.11206301656E+04  0.25500000920E-02 0. -1.
       -2    1    3    3    0  502  0.46842655876E+03 -0.98878379394E+03 -0.13078297494E+02  0.10942065043E+04  0.25500000920E-02 0.  1.
</event>
<event>
 5   0  0.4462201E-06  0.2199540E+04  0.7818609E-02  0.8518620E-01
        1   -1    0    0  501    0  0.00000000000E+00  0.00000000000E+00  0.13068733305E+04  0.13068733305E+04  0.50400001928E-02 0. -1.
       -1   -1    0    0    0  501  0.00000000000E+00  0.00000000000E+00 -0.92548684243E+03  0.92548684245E+03  0.50400001928E-02 0.  1.
    10030    2    1    2    0    0  0.00000000000E+00  0.00000000000E+00  0.38138648806E+03  0.22323601729E+04  0.21995400175E+04 0.  0.
        3    1    3    3  502    0 -0.92942230566E+03 -0.18777061134E+03  0.75615150830E+03  0.12127855286E+04  0.10100000352E+00 0. -1.
       -3    1    3    3    0  502  0.92942230566E+03  0.18777061134E+03 -0.37476502025E+03  0.10195746443E+04  0.10100000352E+00 0.  1.
</event>
<event>
 5   0  0.4462201E-06  0.2200732E+04  0.7818609E-02  0.8518123E-01
        1   -1    0    0  501    0  0.00000000000E+00  0.00000000000E+00  0.19749567402E+04  0.19749567402E+04  0.50400001928E-02 0.  1.
       -1   -1    0    0    0  501  0.00000000000E+00  0.00000000000E+00 -0.61307959615E+03  0.61307959617E+03  0.50400001928E-02 0. -1.
    10030    2    1    2    0    0  0.00000000000E+00  0.00000000000E+00  0.13618771441E+04  0.25880363364E+04  0.22007323152E+04 0.  0.
        3    1    3    3  502    0  0.57425326502E+03 -0.93780822445E+03  0.72730582939E+03  0.13184175582E+04  0.10100000352E+00 0. -1.
       -3    1    3    3    0  502 -0.57425326502E+03  0.93780822445E+03  0.63457131469E+03  0.12696187782E+04  0.10100000352E+00 0.  1.
</event>
<event>
 5   0  0.9963573E-06  0.2197995E+04  0.7818609E-02  0.8519263E-01
       -2   -1    0    0    0  501  0.00000000000E+00  0.00000000000E+00  0.10414304817E+04  0.10414304817E+04  0.25500000920E-02 0.  1.
        2   -1    0    0  501    0  0.00000000000E+00  0.00000000000E+00 -0.11597467626E+04  0.11597467626E+04  0.25500000920E-02 0. -1.
    10030    2    1    2    0    0  0.00000000000E+00  0.00000000000E+00 -0.11831628089E+03  0.22011772443E+04  0.21979951134E+04 0.  0.
        2    1    3    3  502    0 -0.74077359370E+02  0.97415959605E+03 -0.56319710193E+03  0.11276814042E+04  0.25500000920E-02 0. -1.
       -2    1    3    3    0  502  0.74077359370E+02 -0.97415959605E+03  0.44488082104E+03  0.10734958401E+04  0.25500000920E-02 0.  1.
</event>
<event>
 5   0  0.1014015E-05  0.2200287E+04  0.7818609E-02  0.8518308E-01
        2   -1    0    0  501    0  0.00000000000E+00  0.00000000000E+00  0.13612819017E+04  0.13612819018E+04  0.25500000920E-02 0. -1.
       -2   -1    0    0    0  501  0.00000000000E+00  0.00000000000E+00 -0.88910031735E+03  0.88910031736E+03  0.25500000920E-02 0.  1.
    10030    2    1    2    0    0  0.00000000000E+00  0.00000000000E+00  0.47218158440E+03  0.22503822191E+04  0.22002874093E+04 0.  0.
        1    1    3    3  502    0 -0.41149929291E+03 -0.83228425730E+03 -0.36750439303E+03  0.99854305463E+03  0.50400001928E-02 0.  1.
       -1    1    3    3    0  502  0.41149929291E+03  0.83228425730E+03  0.83968597743E+03  0.12518391645E+04  0.50400001928E-02 0. -1.
</event>
<event>
 5   0  0.4462201E-06  0.2199435E+04  0.7818609E-02  0.8518663E-01
       -1   -1    0    0    0  501  0.00000000000E+00  0.00000000000E+00  0.68159838617E+03  0.68159838619E+03  0.50400001928E-02 0. -1.
        1   -1    0    0  501    0  0.00000000000E+00  0.00000000000E+00 -0.17743272839E+04  0.17743272839E+04  0.50400001928E-02 0.  1.
    10030    2    1    2    0    0  0.00000000000E+00  0.00000000000E+00 -0.10927288977E+04  0.24559256701E+04  0.21994350304E+04 0.  0.
        3    1    3    3  502    0 -0.27735245541E+03 -0.30838907452E+03  0.59091402638E+03  0.72194709125E+03  0.10100000352E+00 0. -1.
       -3    1    3    3    0  502  0.27735245541E+03  0.30838907452E+03 -0.16836429241E+04  0.17339785788E+04  0.10100000352E+00 0.  1.
</event>
<event>
 5   0  0.1014015E-05  0.2133529E+04  0.7818609E-02  0.8546616E-01
        2   -1    0    0  501    0  0.00000000000E+00  0.00000000000E+00  0.20940855128E+04  0.20940855128E+04  0.25500000920E-02 0.  1.
       -2   -1    0    0    0  501  0.00000000000E+00  0.00000000000E+00 -0.54342886881E+03  0.54342886881E+03  0.25500000920E-02 0. -1.
    10030    2    1    2    0    0  0.00000000000E+00  0.00000000000E+00  0.15506566440E+04  0.26375143816E+04  0.21335290215E+04 0.  0.
        1    1    3    3  502    0  0.15470882465E+03 -0.62474781545E+02 -0.52719899414E+03  0.55297079327E+03  0.50400001928E-02 0. -1.
       -1    1    3    3    0  502 -0.15470882465E+03  0.62474781545E+02  0.20778556381E+04  0.20845435883E+04  0.50400001928E-02 0.  1.
</event>
<event>
 5   0  0.1014015E-05  0.2202662E+04  0.7818609E-02  0.8517321E-01
       -2   -1    0    0    0  501  0.00000000000E+00  0.00000000000E+00  0.16919220492E+04  0.16919220492E+04  0.25500000920E-02 0. -1.
        2   -1    0    0  501    0  0.00000000000E+00  0.00000000000E+00 -0.71689454382E+03  0.71689454382E+03  0.25500000920E-02 0.  1.
    10030    2    1    2    0    0  0.00000000000E+00  0.00000000000E+00  0.97502750535E+03  0.24088165930E+04  0.22026617404E+04 0.  0.
        1    1    3    3  502    0 -0.62154293675E+03  0.12807947177E+03 -0.49684781286E+03  0.80596384688E+03  0.50400001928E-02 0.  1.
       -1    1    3    3    0  502  0.62154293675E+03 -0.12807947177E+03  0.14718753182E+04  0.16028527461E+04  0.50400001928E-02 0. -1.
</event>
<event>
 5   0  0.1015876E-05  0.2201128E+04  0.7818609E-02  0.8517959E-01
        2   -1    0    0  501    0  0.00000000000E+00  0.00000000000E+00  0.81409325699E+03  0.81409325699E+03  0.25500000920E-02 0. -1.
       -2   -1    0    0    0  501  0.00000000000E+00  0.00000000000E+00 -0.14878413068E+04  0.14878413068E+04  0.25500000920E-02 0.  1.
    10030    2    1    2    0    0  0.00000000000E+00  0.00000000000E+00 -0.67374804980E+03  0.23019345638E+04  0.22011284155E+04 0.  0.
        5    1    3    3  502    0  0.63668911227E+02 -0.73695058140E+02  0.80956750832E+03  0.81541788819E+03  0.46999998093E+01 0. -1.
       -5    1    3    3    0  502 -0.63668911227E+02  0.73695058140E+02 -0.14833155581E+04  0.14865166756E+04  0.46999998093E+01 0.  1.
</event>
<event>
 5   0  0.1035928E-05  0.2198781E+04  0.7818609E-02  0.8518936E-01
       -2   -1    0    0    0  501  0.00000000000E+00  0.00000000000E+00  0.20141019150E+04  0.20141019150E+04  0.25500000920E-02 0.  1.
        2   -1    0    0  501    0  0.00000000000E+00  0.00000000000E+00 -0.60009862160E+03  0.60009862161E+03  0.25500000920E-02 0. -1.
    10030    2    1    2    0    0  0.00000000000E+00  0.00000000000E+00  0.14140032934E+04  0.26142005366E+04  0.21987812833E+04 0.  0.
        3    1    3    3  502    0 -0.18196612772E+03 -0.36939437997E+03  0.19189515886E+04  0.19626357505E+04  0.10100000352E+00 0.  1.
       -3    1    3    3    0  502  0.18196612772E+03  0.36939437997E+03 -0.50494829514E+03  0.65156478616E+03  0.10100000352E+00 0. -1.
</event>
<event>
 5   0  0.4408787E-06  0.2200939E+04  0.7818609E-02  0.8518037E-01
       -1   -1    0    0    0  501  0.00000000000E+00  0.00000000000E+00  0.68193350760E+03  0.68193350762E+03  0.50400001928E-02 0. -1.
        1   -1    0    0  501    0  0.00000000000E+00  0.00000000000E+00 -0.17758814230E+04  0.17758814230E+04  0.50400001928E-02 0.  1.
    10030    2    1    2    0    0  0.00000000000E+00  0.00000000000E+00 -0.10939479154E+04  0.24578149306E+04  0.22009389341E+04 0.  0.
        1    1    3    3  502    0  0.14111961851E+03  0.26455277478E+03  0.63543904607E+03  0.70262770987E+03  0.50400001928E-02 0. -1.
       -1    1    3    3    0  502 -0.14111961851E+03 -0.26455277478E+03 -0.17293869615E+04  0.17551872207E+04  0.50400001928E-02 0.  1.
</event>
<event>
 5   0  0.4408787E-06  0.2199796E+04  0.7818609E-02  0.8518513E-01
       -1   -1    0    0    0  501  0.00000000000E+00  0.00000000000E+00  0.81678475076E+03  0.81678475078E+03  0.50400001928E-02 0. -1.
        1   -1    0    0  501    0  0.00000000000E+00  0.00000000000E+00 -0.14811440622E+04  0.14811440622E+04  0.50400001928E-02 0.  1.
    10030    2    1    2    0    0  0.00000000000E+00  0.00000000000E+00 -0.66435931139E+03  0.22979288129E+04  0.21997962485E+04 0.  0.
        1    1    3    3  502    0  0.64002481627E+03 -0.50336517631E+03  0.44024389431E+03  0.92564731549E+03  0.50400001928E-02 0. -1.
       -1    1    3    3    0  502 -0.64002481627E+03  0.50336517631E+03 -0.11046032057E+04  0.13722814974E+04  0.50400001928E-02 0.  1.
</event>
<event>
 5   0  0.4408787E-06  0.2197239E+04  0.7818609E-02  0.8519578E-01
        1   -1    0    0  501    0  0.00000000000E+00  0.00000000000E+00  0.87469627730E+03  0.87469627732E+03  0.50400001928E-02 0. -1.
       -1   -1    0    0    0  501  0.00000000000E+00  0.00000000000E+00 -0.13798669018E+04  0.13798669018E+04  0.50400001928E-02 0.  1.
    10030    2    1    2    0    0  0.00000000000E+00  0.00000000000E+00 -0.50517062445E+03  0.22545631791E+04  0.21972386690E+04 0.  0.
        1    1    3    3  502    0 -0.76546353558E+03 -0.11634053449E+03 -0.10523394465E+04  0.13064791827E+04  0.50400001928E-02 0.  1.
       -1    1    3    3    0  502  0.76546353558E+03  0.11634053449E+03  0.54716882205E+03  0.94808399634E+03  0.50400001928E-02 0. -1.
</event>
<event>
 5   0  0.1015876E-05  0.2205010E+04  0.7818609E-02  0.8516346E-01
       -2   -1    0    0    0  501  0.00000000000E+00  0.00000000000E+00  0.97615193605E+03  0.97615193605E+03  0.25500000920E-02 0. -1.
        2   -1    0    0  501    0  0.00000000000E+00  0.00000000000E+00 -0.12452133034E+04  0.12452133034E+04  0.25500000920E-02 0.  1.
    10030    2    1    2    0    0  0.00000000000E+00  0.00000000000E+00 -0.26906136738E+03  0.22213652395E+04  0.22050100924E+04 0.  0.
        5    1    3    3  502    0 -0.37778791857E+02  0.24391285139E+03 -0.12170119374E+04  0.12417974320E+04  0.46999998093E+01 0.  1.
       -5    1    3    3    0  502  0.37778791857E+02 -0.24391285139E+03  0.94795057007E+03  0.97956780750E+03  0.46999998093E+01 0. -1.
</event>
<event>
 5   0  0.1014015E-05  0.2205965E+04  0.7818609E-02  0.8515949E-01
       -2   -1    0    0    0  501  0.00000000000E+00  0.00000000000E+00  0.10696997815E+04  0.10696997815E+04  0.25500000920E-02 0. -1.
        2   -1    0    0  501    0  0.00000000000E+00  0.00000000000E+00 -0.11373009024E+04  0.11373009024E+04  0.25500000920E-02 0.  1.
    10030    2    1    2    0    0  0.00000000000E+00  0.00000000000E+00 -0.67601120874E+02  0.22070006840E+04  0.22059651193E+04 0.  0.
        1    1    3    3  502    0  0.48604981044E+03 -0.97218231519E+03 -0.22147234648E+03  0.11092487875E+04  0.50400001928E-02 0.  1.
       -1    1    3    3    0  502 -0.48604981044E+03  0.97218231519E+03  0.15387122561E+03  0.10977518965E+04  0.50400001928E-02 0. -1.
</event>
<event>
 5   0  0.4794967E-06  0.2198940E+04  0.7818609E-02  0.8518869E-01
       -1   -1    0    0    0  501  0.00000000000E+00  0.00000000000E+00  0.68190795682E+03  0.68190795684E+03  0.50400001928E-02 0.  1.
        1   -1    0    0  501    0  0.00000000000E+00  0.00000000000E+00 -0.17727240895E+04  0.17727240895E+04  0.50400001928E-02 0. -1.
    10030    2    1    2    0    0  0.00000000000E+00  0.00000000000E+00 -0.10908161327E+04  0.24546320464E+04  0.21989403466E+04 0.  0.
        5    1    3    3  502    0 -0.44146722402E+03 -0.27219238344E+03 -0.16275836605E+04  0.17082250044E+04  0.46999998093E+01 0. -1.
       -5    1    3    3    0  502  0.44146722402E+03  0.27219238344E+03  0.53676752781E+03  0.74640704203E+03  0.46999998093E+01 0.  1.
</event>
<event>
 5   0  0.4462201E-06  0.2200494E+04  0.7818609E-02  0.8518223E-01
       -1   -1    0    0    0  501  0.00000000000E+00  0.00000000000E+00  0.69902033639E+03  0.69902033641E+03  0.50400001928E-02 0.  1.
        1   -1    0    0  501    0  0.00000000000E+00  0.00000000000E+00 -0.17317712701E+04  0.17317712701E+04  0.50400001928E-02 0. -1.
    10030    2    1    2    0    0  0.00000000000E+00  0.00000000000E+00 -0.10327509337E+04  0.24307916065E+04  0.22004938862E+04 0.  0.
        3    1    3    3  502    0 -0.52127158027E+03 -0.10232664656E+02  0.55389696337E+03  0.76067773995E+03  0.10100000352E+00 0.  1.
       -3    1    3    3    0  502  0.52127158027E+03  0.10232664656E+02 -0.15866478971E+04  0.16701138666E+04  0.10100000352E+00 0. -1.
</event>
<event>
 5   0  0.1014015E-05  0.2209667E+04  0.7818609E-02  0.8514415E-01
       -2   -1    0    0    0  501  0.00000000000E+00  0.00000000000E+00  0.72337997468E+03  0.72337997469E+03  0.25500000920E-02 0. -1.
        2   -1    0    0  501    0  0.00000000000E+00  0.00000000000E+00 -0.16874349667E+04  0.16874349667E+04  0.25500000920E-02 0.  1.
    10030    2    1    2    0    0  0.00000000000E+00  0.00000000000E+00 -0.96405499197E+03  0.24108149413E+04  0.22096666386E+04 0.  0.
        1    1    3    3  502    0 -0.11864052322E+02 -0.67021231064E+03 -0.14402306848E+04  0.15885810406E+04  0.50400001928E-02 0.  1.
       -1    1    3    3    0  502  0.11864052322E+02  0.67021231064E+03  0.47617569283E+03  0.82223390075E+03  0.50400001928E-02 0. -1.
</event>
<event>
 5   0  0.4408787E-06  0.2195915E+04  0.7818609E-02  0.8520130E-01
       -1   -1    0    0    0  501  0.00000000000E+00  0.00000000000E+00  0.12734429591E+04  0.12734429591E+04  0.50400001928E-02 0. -1.
        1   -1    0    0  501    0  0.00000000000E+00  0.00000000000E+00 -0.94665463176E+03  0.94665463177E+03  0.50400001928E-02 0.  1.
    10030    2    1    2    0    0  0.00000000000E+00  0.00000000000E+00  0.32678832734E+03  0.22200975909E+04  0.21959150034E+04 0.  0.
        1    1    3    3  502    0 -0.65870752317E+03  0.47443993689E+03  0.91080655341E+03  0.12200645198E+04  0.50400001928E-02 0. -1.
       -1    1    3    3    0  502  0.65870752317E+03 -0.47443993689E+03 -0.58401822607E+03  0.10000330711E+04  0.50400001928E-02 0.  1.
</event>
<event>
 5   0  0.4630615E-06  0.2188883E+04  0.7818609E-02  0.8523070E-01
        1   -1    0    0  501    0  0.00000000000E+00  0.00000000000E+00  0.13933789341E+04  0.13933789341E+04  0.50400001928E-02 0. -1.
       -1   -1    0    0    0  501  0.00000000000E+00  0.00000000000E+00 -0.85963845604E+03  0.85963845606E+03  0.50400001928E-02 0.  1.
    10030    2    1    2    0    0  0.00000000000E+00  0.00000000000E+00  0.53374047803E+03  0.22530173901E+04  0.21888829257E+04 0.  0.
        2    1    3    3  502    0  0.35463927737E+03 -0.40948431466E+03 -0.71196962747E+03  0.89462124469E+03  0.25500000920E-02 0.  1.
       -2    1    3    3    0  502 -0.35463927737E+03  0.40948431466E+03  0.12457101055E+04  0.13583961454E+04  0.25500000920E-02 0. -1.
</event>
<event>
 5   0  0.4309945E-06  0.2190875E+04  0.7818609E-02  0.8522236E-01
        1   -1    0    0  501    0  0.00000000000E+00  0.00000000000E+00  0.25546679443E+04  0.25546679443E+04  0.50400001928E-02 0.  1.
       -1   -1    0    0    0  501  0.00000000000E+00  0.00000000000E+00 -0.46972198218E+03  0.46972198221E+03  0.50400001928E-02 0. -1.
    10030    2    1    2    0    0  0.00000000000E+00  0.00000000000E+00  0.20849459621E+04  0.30243899265E+04  0.21908753417E+04 0.  0.
        4    1    3    3  502    0  0.94940988988E+03  0.17811824526E+03  0.32933174369E+03  0.10205715353E+04  0.12699999809E+01 0. -1.
       -4    1    3    3    0  502 -0.94940988988E+03 -0.17811824526E+03  0.17556142184E+04  0.20038183913E+04  0.12699999809E+01 0.  1.
</event>
<event>
 5   0  0.4309945E-06  0.2198782E+04  0.7818609E-02  0.8518935E-01
       -1   -1    0    0    0  501  0.00000000000E+00  0.00000000000E+00  0.59873443295E+03  0.59873443297E+03  0.50400001928E-02 0. -1.
        1   -1    0    0  501    0  0.00000000000E+00  0.00000000000E+00 -0.20186921859E+04  0.20186921859E+04  0.50400001928E-02 0.  1.
    10030    2    1    2    0    0  0.00000000000E+00  0.00000000000E+00 -0.14199577530E+04  0.26174266189E+04  0.21987819549E+04 0.  0.
        4    1    3    3  502    0 -0.68270593693E+03 -0.92429211558E+02  0.30990040296E+03  0.75542731492E+03  0.12699999809E+01 0. -1.
       -4    1    3    3    0  502  0.68270593693E+03  0.92429211558E+02 -0.17298581559E+04  0.18619993040E+04  0.12699999809E+01 0.  1.
</event>
<event>
 5   0  0.4408787E-06  0.2221483E+04  0.7818609E-02  0.8509539E-01
        1   -1    0    0  501    0  0.00000000000E+00  0.00000000000E+00  0.12666902509E+04  0.12666902509E+04  0.50400001928E-02 0.  1.
       -1   -1    0    0    0  501  0.00000000000E+00  0.00000000000E+00 -0.97399273547E+03  0.97399273549E+03  0.50400001928E-02 0. -1.
    10030    2    1    2    0    0  0.00000000000E+00  0.00000000000E+00  0.29269751542E+03  0.22406829864E+04  0.22214833805E+04 0.  0.
        1    1    3    3  502    0 -0.20773387056E+03 -0.84544426425E+03  0.84210588169E+03  0.12112273449E+04  0.50400001928E-02 0.  1.
       -1    1    3    3    0  502  0.20773387056E+03  0.84544426425E+03 -0.54940836627E+03  0.10294556415E+04  0.50400001928E-02 0. -1.
</event>
<event>
 5   0  0.4462201E-06  0.2204131E+04  0.7818609E-02  0.8516711E-01
        1   -1    0    0  501    0  0.00000000000E+00  0.00000000000E+00  0.14078304388E+04  0.14078304388E+04  0.50400001928E-02 0. -1.
       -1   -1    0    0    0  501  0.00000000000E+00  0.00000000000E+00 -0.86270892776E+03  0.86270892777E+03  0.50400001928E-02 0.  1.
    10030    2    1    2    0    0  0.00000000000E+00  0.00000000000E+00  0.54512151103E+03  0.22705393666E+04  0.22041305663E+04 0.  0.
        3    1    3    3  502    0 -0.44949240837E+02  0.10750125468E+04  0.26889576001E+02  0.10762878191E+04  0.10100000352E+00 0. -1.
       -3    1    3    3    0  502  0.44949240837E+02 -0.10750125468E+04  0.51823193503E+03  0.11942515475E+04  0.10100000352E+00 0.  1.
</event>
<event>
 5   0  0.4309945E-06  0.2189706E+04  0.7818609E-02  0.8522725E-01
       -1   -1    0    0    0  501  0.00000000000E+00  0.00000000000E+00  0.97018406897E+03  0.97018406898E+03  0.50400001928E-02 0.  1.
        1   -1    0    0  501    0  0.00000000000E+00  0.00000000000E+00 -0.12355424298E+04  0.12355424298E+04  0.50400001928E-02 0. -1.
    10030    2    1    2    0    0  0.00000000000E+00  0.00000000000E+00 -0.26535836086E+03  0.22057264988E+04  0.21897064479E+04 0.  0.
        4    1    3    3  502    0 -0.31619052034E+03 -0.77422304865E+03 -0.84446342539E+03  0.11884939478E+04  0.12699999809E+01 0. -1.
       -4    1    3    3    0  502  0.31619052034E+03  0.77422304865E+03  0.57910506453E+03  0.10172325510E+04  0.12699999809E+01 0.  1.
</event>
<event>
 5   0  0.1035928E-05  0.2199119E+04  0.7818609E-02  0.8518795E-01
        2   -1    0    0  501    0  0.00000000000E+00  0.00000000000E+00  0.13693084249E+04  0.13693084249E+04  0.25500000920E-02 0. -1.
       -2   -1    0    0    0  501  0.00000000000E+00  0.00000000000E+00 -0.88295043719E+03  0.88295043720E+03  0.25500000920E-02 0.  1.
    10030    2    1    2    0    0  0.00000000000E+00  0.00000000000E+00  0.48635798770E+03  0.22522588621E+04  0.21991193441E+04 0.  0.
        3    1    3    3  502    0  0.92281828368E+03  0.58683951350E+03  0.36020855600E+03  0.11514010654E+04  0.10100000352E+00 0.  1.
       -3    1    3    3    0  502 -0.92281828368E+03 -0.58683951350E+03  0.12614943170E+03  0.11008577967E+04  0.10100000352E+00 0. -1.
</event>
<event>
 5   0  0.4630615E-06  0.2202426E+04  0.7818609E-02  0.8517419E-01
        1   -1    0    0  501    0  0.00000000000E+00  0.00000000000E+00  0.10619215292E+04  0.10619215293E+04  0.50400001928E-02 0.  1.
       -1   -1    0    0    0  501  0.00000000000E+00  0.00000000000E+00 -0.11419579864E+04  0.11419579864E+04  0.50400001928E-02 0. -1.
    10030    2    1    2    0    0  0.00000000000E+00  0.00000000000E+00 -0.80036457163E+02  0.22038795157E+04  0.22024257275E+04 0.  0.
        2    1    3    3  502    0  0.44235849026E+02  0.91702640747E+03 -0.64851133177E+03  0.11240378952E+04  0.25500000920E-02 0. -1.
       -2    1    3    3    0  502 -0.44235849026E+02 -0.91702640747E+03  0.56847487460E+03  0.10798416205E+04  0.25500000920E-02 0.  1.
</event>
<event>
 5   0  0.4462201E-06  0.2202319E+04  0.7818609E-02  0.8517463E-01
       -1   -1    0    0    0  501  0.00000000000E+00  0.00000000000E+00  0.18604922236E+04  0.18604922237E+04  0.50400001928E-02 0.  1.
        1   -1    0    0  501    0  0.00000000000E+00  0.00000000000E+00 -0.65173749385E+03  0.65173749387E+03  0.50400001928E-02 0. -1.
    10030    2    1    2    0    0  0.00000000000E+00  0.00000000000E+00  0.12087547298E+04  0.25122297175E+04  0.22023192677E+04 0.  0.
        3    1    3    3  502    0 -0.29205314649E+02  0.97231021302E+03  0.15703455978E+02  0.97287548509E+03  0.10100000352E+00 0. -1.
       -3    1    3    3    0  502  0.29205314649E+02 -0.97231021302E+03  0.11930512738E+04  0.15393542324E+04  0.10100000352E+00 0.  1.
</event>
<event>
 5   0  0.4630615E-06  0.2191991E+04  0.7818609E-02  0.8521769E-01
        1   -1    0    0  501    0  0.00000000000E+00  0.00000000000E+00  0.17659233860E+04  0.17659233860E+04  0.50400001928E-02 0.  1.
       -1   -1    0    0    0  501  0.00000000000E+00  0.00000000000E+00 -0.68021438008E+03  0.68021438010E+03  0.50400001928E-02 0. -1.
    10030    2    1    2    0    0  0.00000000000E+00  0.00000000000E+00  0.10857090059E+04  0.24461377661E+04  0.21919913150E+04 0.  0.
        2    1    3    3  502    0 -0.48361966695E+03  0.15862901118E+03 -0.54033224914E+03  0.74230053544E+03  0.25500000920E-02 0. -1.
       -2    1    3    3    0  502  0.48361966695E+03 -0.15862901118E+03  0.16260412551E+04  0.17038372307E+04  0.25500000920E-02 0.  1.
</event>
<event>
 5   0  0.1014015E-05  0.2198570E+04  0.7818609E-02  0.8519024E-01
       -2   -1    0    0    0  501  0.00000000000E+00  0.00000000000E+00  0.62202511020E+03  0.62202511020E+03  0.25500000920E-02 0.  1.
        2   -1    0    0  501    0  0.00000000000E+00  0.00000000000E+00 -0.19427312048E+04  0.19427312048E+04  0.25500000920E-02 0. -1.
    10030    2    1    2    0    0  0.00000000000E+00  0.00000000000E+00 -0.13207060946E+04  0.25647563150E+04  0.21985700732E+04 0.  0.
        1    1    3    3  502    0  0.33395730569E+03  0.60032749068E+03  0.34078562827E+03  0.76684771797E+03  0.50400001928E-02 0.  1.
       -1    1    3    3    0  502 -0.33395730569E+03 -0.60032749068E+03 -0.16614917228E+04  0.17979085970E+04  0.50400001928E-02 0. -1.
</event>
<event>
 5   0  0.4408787E-06  0.2191644E+04  0.7818609E-02  0.8521914E-01
        1   -1    0    0  501    0  0.00000000000E+00  0.00000000000E+00  0.23628844689E+04  0.23628844689E+04  0.50400001928E-02 0.  1.
       -1   -1    0    0    0  501  0.00000000000E+00  0.00000000000E+00 -0.50820333025E+03  0.50820333027E+03  0.50400001928E-02 0. -1.
    10030    2    1    2    0    0  0.00000000000E+00  0.00000000000E+00  0.18546811386E+04  0.28710877991E+04  0.21916439091E+04 0.  0.
        1    1    3    3  502    0 -0.90894022448E+02 -0.10902179582E+04  0.10100775349E+04  0.14889907811E+04  0.50400001928E-02 0.  1.
       -1    1    3    3    0  502  0.90894022448E+02  0.10902179582E+04  0.84460360368E+03  0.13820970180E+04  0.50400001928E-02 0. -1.
</event>
<event>
 5   0  0.9963573E-06  0.2203749E+04  0.7818609E-02  0.8516869E-01
        2   -1    0    0  501    0  0.00000000000E+00  0.00000000000E+00  0.16818821756E+04  0.16818821756E+04  0.25500000920E-02 0. -1.
       -2   -1    0    0    0  501  0.00000000000E+00  0.00000000000E+00 -0.72188597646E+03  0.72188597646E+03  0.25500000920E-02 0.  1.
    10030    2    1    2    0    0  0.00000000000E+00  0.00000000000E+00  0.95999619915E+03  0.24037681521E+04  0.22037487667E+04 0.  0.
        2    1    3    3  502    0 -0.50120534839E+03 -0.96760701672E+03  0.30190943980E+03  0.11307605626E+04  0.25500000920E-02 0.  1.
       -2    1    3    3    0  502  0.50120534839E+03  0.96760701672E+03  0.65808675935E+03  0.12730075895E+04  0.25500000920E-02 0. -1.
</event>
<event>
 5   0  0.4794967E-06  0.2198493E+04  0.7818609E-02  0.8519056E-01
       -1   -1    0    0    0  501  0.00000000000E+00  0.00000000000E+00  0.16872107190E+04  0.16872107190E+04  0.50400001928E-02 0. -1.
        1   -1    0    0  501    0  0.00000000000E+00  0.00000000000E+00 -0.71617787498E+03  0.71617787500E+03  0.50400001928E-02 0.  1.
    10030    2    1    2    0    0  0.00000000000E+00  0.00000000000E+00  0.97103284403E+03  0.24033885940E+04  0.21984931088E+04 0.  0.
        5    1    3    3  502    0 -0.10312313017E+04  0.27977138865E+03  0.20337201901E+03  0.10877004623E+04  0.46999998093E+01 0.  1.
       -5    1    3    3    0  502  0.10312313017E+04 -0.27977138865E+03  0.76766082502E+03  0.13156881317E+04  0.46999998093E+01 0. -1.
</event>
<event>
 5   0  0.4309945E-06  0.2198024E+04  0.7818609E-02  0.8519251E-01
       -1   -1    0    0    0  501  0.00000000000E+00  0.00000000000E+00  0.83734628451E+03  0.83734628452E+03  0.50400001928E-02 0.  1.
        1   -1    0    0  501    0  0.00000000000E+00  0.00000000000E+00 -0.14424460837E+04  0.14424460837E+04  0.50400001928E-02 0. -1.
    10030    2    1    2    0    0  0.00000000000E+00  0.00000000000E+00 -0.60509979923E+03  0.22797923683E+04  0.21980235384E+04 0.  0.
        4    1    3    3  502    0  0.40532993907E+03  0.25746887130E+03  0.72278129111E+03  0.86775398983E+03  0.12699999809E+01 0.  1.
       -4    1    3    3    0  502 -0.40532993907E+03 -0.25746887130E+03 -0.13278810903E+04  0.14120383784E+04  0.12699999809E+01 0. -1.
</event>
<event>
 5   0  0.4462201E-06  0.2193257E+04  0.7818609E-02  0.8521240E-01
       -1   -1    0    0    0  501  0.00000000000E+00  0.00000000000E+00  0.95605875734E+03  0.95605875736E+03  0.50400001928E-02 0. -1.
        1   -1    0    0  501    0  0.00000000000E+00  0.00000000000E+00 -0.12578657646E+04  0.12578657646E+04  0.50400001928E-02 0.  1.
    10030    2    1    2    0    0  0.00000000000E+00  0.00000000000E+00 -0.30180700721E+03  0.22139245219E+04  0.21932565557E+04 0.  0.
        3    1    3    3  502    0 -0.23928396897E+03  0.32855046408E+03 -0.11790255797E+04  0.12471180990E+04  0.10100000352E+00 0.  1.
       -3    1    3    3    0  502  0.23928396897E+03 -0.32855046408E+03  0.87721857246E+03  0.96680642288E+03  0.10100000352E+00 0. -1.
</event>
<event>
 5   0  0.1035928E-05  0.2195665E+04  0.7818609E-02  0.8520234E-01
       -2   -1    0    0    0  501  0.00000000000E+00  0.00000000000E+00  0.61517375016E+03  0.61517375016E+03  0.25500000920E-02 0.  1.
        2   -1    0    0  501    0  0.00000000000E+00  0.00000000000E+00 -0.19591809118E+04  0.19591809118E+04  0.25500000920E-02 0. -1.
    10030    2    1    2    0    0  0.00000000000E+00  0.00000000000E+00 -0.13440071617E+04  0.25743546620E+04  0.21956654288E+04 0.  0.
        3    1    3    3  502    0 -0.75347409580E+02  0.10694494425E+04 -0.94905761816E+03  0.14318204199E+04  0.10100000352E+00 0. -1.
       -3    1    3    3    0  502  0.75347409580E+02 -0.10694494425E+04 -0.39494954352E+03  0.11425342421E+04  0.10100000352E+00 0.  1.
</event>
<event>
 5   0  0.9963173E-06  0.2199726E+04  0.7818609E-02  0.8518542E-01
        2   -1    0    0  501    0  0.00000000000E+00  0.00000000000E+00  0.48601512052E+03  0.48601512053E+03  0.25500000920E-02 0.  1.
       -2   -1    0    0    0  501  0.00000000000E+00  0.00000000000E+00 -0.24890146548E+04  0.24890146548E+04  0.25500000920E-02 0. -1.
    10030    2    1    2    0    0  0.00000000000E+00  0.00000000000E+00 -0.20029995343E+04  0.29750297754E+04  0.21997261261E+04 0.  0.
        4    1    3    3  502    0 -0.21117461793E+03 -0.98397011491E+03 -0.40136147417E+03  0.10834595295E+04  0.12699999809E+01 0.  1.
       -4    1    3    3    0  502  0.21117461793E+03  0.98397011491E+03 -0.16016380601E+04  0.18915702458E+04  0.12699999809E+01 0. -1.
</event>
<event>
 5   0  0.4408787E-06  0.2199384E+04  0.7818609E-02  0.8518685E-01
        1   -1    0    0  501    0  0.00000000000E+00  0.00000000000E+00  0.16720279342E+04  0.16720279343E+04  0.50400001928E-02 0. -1.
       -1   -1    0    0    0  501  0.00000000000E+00  0.00000000000E+00 -0.72326681964E+03  0.72326681966E+03  0.50400001928E-02 0.  1.
    10030    2    1    2    0    0  0.00000000000E+00  0.00000000000E+00  0.94876111461E+03  0.23952947539E+04  0.21993838468E+04 0.  0.
        1    1    3    3  502    0 -0.67737539114E+02 -0.82709185321E+02  0.16663550766E+04  0.16697809512E+04  0.50400001928E-02 0. -1.
       -1    1    3    3    0  502  0.67737539114E+02  0.82709185321E+02 -0.71759396203E+03  0.72551380270E+03  0.50400001928E-02 0.  1.
</event>
<event>
 5   0  0.4794967E-06  0.2202477E+04  0.7818609E-02  0.8517398E-01
        1   -1    0    0  501    0  0.00000000000E+00  0.00000000000E+00  0.18331913494E+04  0.18331913494E+04  0.50400001928E-02 0.  1.
       -1   -1    0    0    0  501  0.00000000000E+00  0.00000000000E+00 -0.66153800582E+03  0.66153800584E+03  0.50400001928E-02 0. -1.
    10030    2    1    2    0    0  0.00000000000E+00  0.00000000000E+00  0.11716533436E+04  0.24947293553E+04  0.22024765603E+04 0.  0.
        5    1    3    3  502    0  0.43618883282E+03  0.16731915876E+02  0.17310026289E+04  0.17851982652E+04  0.46999998093E+01 0.  1.
       -5    1    3    3    0  502 -0.43618883282E+03 -0.16731915876E+02 -0.55934928526E+03  0.70953109009E+03  0.46999998093E+01 0. -1.
</event>
<event>
 5   0  0.1035928E-05  0.2195979E+04  0.7818609E-02  0.8520104E-01
        2   -1    0    0  501    0  0.00000000000E+00  0.00000000000E+00  0.18027280324E+04  0.18027280324E+04  0.25500000920E-02 0.  1.
       -2   -1    0    0    0  501  0.00000000000E+00  0.00000000000E+00 -0.66875352701E+03  0.66875352701E+03  0.25500000920E-02 0. -1.
    10030    2    1    2    0    0  0.00000000000E+00  0.00000000000E+00  0.11339745053E+04  0.24714815594E+04  0.21959788067E+04 0.  0.
        3    1    3    3  502    0  0.23464675950E+03 -0.10638180796E+04  0.41262008800E+03  0.11649134541E+04  0.10100000352E+00 0. -1.
       -3    1    3    3    0  502 -0.23464675950E+03  0.10638180796E+04  0.72135441734E+03  0.13065681053E+04  0.10100000352E+00 0.  1.
</event>
<event>
 5   0  0.4309945E-06  0.2200969E+04  0.7818609E-02  0.8518025E-01
       -1   -1    0    0    0  501  0.00000000000E+00  0.00000000000E+00  0.56396174704E+03  0.56396174707E+03  0.50400001928E-02 0.  1.
        1   -1    0    0  501    0  0.00000000000E+00  0.00000000000E+00 -0.21474264663E+04  0.21474264663E+04  0.50400001928E-02 0. -1.
    10030    2    1    2    0    0  0.00000000000E+00  0.00000000000E+00 -0.15834647192E+04  0.27113882134E+04  0.22009692243E+04 0.  0.
        4    1    3    3  502    0 -0.42273844612E+03 -0.32833542582E+03  0.39279091443E+03  0.66392639730E+03  0.12699999809E+01 0.  1.
       -4    1    3    3    0  502  0.42273844612E+03  0.32833542582E+03 -0.19762556337E+04  0.20474618160E+04  0.12699999809E+01 0. -1.
</event>
<event>
 5   0  0.1035928E-05  0.2200112E+04  0.7818609E-02  0.8518381E-01
       -2   -1    0    0    0  501  0.00000000000E+00  0.00000000000E+00  0.67159216854E+03  0.67159216855E+03  0.25500000920E-02 0.  1.
        2   -1    0    0  501    0  0.00000000000E+00  0.00000000000E+00 -0.18018724607E+04  0.18018724607E+04  0.25500000920E-02 0. -1.
    10030    2    1    2    0    0  0.00000000000E+00  0.00000000000E+00 -0.11302802922E+04  0.24734646293E+04  0.22001122093E+04 0.  0.
        3    1    3    3  502    0  0.34639356536E+03  0.70246442418E+03 -0.14335627595E+04  0.16335687818E+04  0.10100000352E+00 0. -1.
       -3    1    3    3    0  502 -0.34639356536E+03 -0.70246442418E+03  0.30328246732E+03  0.83989584744E+03  0.10100000352E+00 0.  1.
</event>
<event>
 5   0  0.4794967E-06  0.2196008E+04  0.7818609E-02  0.8520092E-01
       -1   -1    0    0    0  501  0.00000000000E+00  0.00000000000E+00  0.85799502747E+03  0.85799502748E+03  0.50400001928E-02 0.  1.
        1   -1    0    0  501    0  0.00000000000E+00  0.00000000000E+00 -0.14051510444E+04  0.14051510444E+04  0.50400001928E-02 0. -1.
    10030    2    1    2    0    0  0.00000000000E+00  0.00000000000E+00 -0.54715601690E+03  0.22631460719E+04  0.21960078405E+04 0.  0.
        5    1    3    3  502    0  0.64336156885E+03  0.78437122376E+03 -0.70646546456E+03  0.12362313164E+04  0.46999998093E+01 0. -1.
       -5    1    3    3    0  502 -0.64336156885E+03 -0.78437122376E+03  0.15930944766E+03  0.10269147555E+04  0.46999998093E+01 0.  1.
</event>
<event>
 5   0  0.4630615E-06  0.2200307E+04  0.7818609E-02  0.8518300E-01
       -1   -1    0    0    0  501  0.00000000000E+00  0.00000000000E+00  0.85704692349E+03  0.85704692350E+03  0.50400001928E-02 0. -1.
        1   -1    0    0  501    0  0.00000000000E+00  0.00000000000E+00 -0.14122182817E+04  0.14122182817E+04  0.50400001928E-02 0.  1.
    10030    2    1    2    0    0  0.00000000000E+00  0.00000000000E+00 -0.55517135821E+03  0.22692652052E+04  0.22003066456E+04 0.  0.
        2    1    3    3  502    0 -0.77160303785E+03 -0.63475544329E+03  0.19733691753E+03  0.10184437048E+04  0.25500000920E-02 0. -1.
       -2    1    3    3    0  502  0.77160303785E+03  0.63475544329E+03 -0.75250827574E+03  0.12508215004E+04  0.25500000920E-02 0.  1.
</event>
<event>
 5   0  0.1015876E-05  0.2195568E+04  0.7818609E-02  0.8520275E-01
        2   -1    0    0  501    0  0.00000000000E+00  0.00000000000E+00  0.14813310776E+04  0.14813310776E+04  0.25500000920E-02 0.  1.
       -2   -1    0    0    0  501  0.00000000000E+00  0.00000000000E+00 -0.81354523055E+03  0.81354523055E+03  0.25500000920E-02 0. -1.
    10030    2    1    2    0    0  0.00000000000E+00  0.00000000000E+00  0.66778584704E+03  0.22948763081E+04  0.21955681115E+04 0.  0.
        5    1    3    3  502    0 -0.61700603842E+03 -0.34265490163E+03 -0.54497120759E+03  0.89169756093E+03  0.46999998093E+01 0. -1.
       -5    1    3    3    0  502  0.61700603842E+03  0.34265490163E+03  0.12127570546E+04  0.14031787472E+04  0.46999998093E+01 0.  1.
</event>
<event>
 5   0  0.4408787E-06  0.2203869E+04  0.7818609E-02  0.8516820E-01
       -1   -1    0    0    0  501  0.00000000000E+00  0.00000000000E+00  0.61592172074E+03  0.61592172076E+03  0.50400001928E-02 0.  1.
        1   -1    0    0  501    0  0.00000000000E+00  0.00000000000E+00 -0.19714508480E+04  0.19714508480E+04  0.50400001928E-02 0. -1.
    10030    2    1    2    0    0  0.00000000000E+00  0.00000000000E+00 -0.13555291272E+04  0.25873725687E+04  0.22038687789E+04 0.  0.
        1    1    3    3  502    0 -0.17925858518E+03 -0.98763064805E+03 -0.12115362283E+04  0.15733302164E+04  0.50400001928E-02 0. -1.
       -1    1    3    3    0  502  0.17925858518E+03  0.98763064805E+03 -0.14399289890E+03  0.10140423523E+04  0.50400001928E-02 0.  1.
</event>
<event>
 5   0  0.4408787E-06  0.2200481E+04  0.7818609E-02  0.8518228E-01
        1   -1    0    0  501    0  0.00000000000E+00  0.00000000000E+00  0.13177111126E+04  0.13177111127E+04  0.50400001928E-02 0.  1.
       -1   -1    0    0    0  501  0.00000000000E+00  0.00000000000E+00 -0.91866064655E+03  0.91866064657E+03  0.50400001928E-02 0. -1.
    10030    2    1    2    0    0  0.00000000000E+00  0.00000000000E+00  0.39905046609E+03  0.22363717592E+04  0.22004811681E+04 0.  0.
        1    1    3    3  502    0 -0.82076891335E+03  0.38533766030E+03  0.83289340793E+03  0.12312019130E+04  0.50400001928E-02 0.  1.
       -1    1    3    3    0  502  0.82076891335E+03 -0.38533766030E+03 -0.43384294184E+03  0.10051698462E+04  0.50400001928E-02 0. -1.
</event>
<event>
 5   0  0.1035928E-05  0.2206148E+04  0.7818609E-02  0.8515874E-01
       -2   -1    0    0    0  501  0.00000000000E+00  0.00000000000E+00  0.45529244895E+03  0.45529244896E+03  0.25500000920E-02 0.  1.
        2   -1    0    0  501    0  0.00000000000E+00  0.00000000000E+00 -0.26725066643E+04  0.26725066643E+04  0.25500000920E-02 0. -1.
    10030    2    1    2    0    0  0.00000000000E+00  0.00000000000E+00 -0.22172142154E+04  0.31277991133E+04  0.22061478682E+04 0.  0.
        3    1    3    3  502    0 -0.11832296192E+03 -0.19756618949E+03  0.42083167309E+03  0.47972078319E+03  0.10100000352E+00 0.  1.
       -3    1    3    3    0  502  0.11832296192E+03  0.19756618949E+03 -0.26380458885E+04  0.26480783301E+04  0.10100000352E+00 0. -1.
</event>
<event>
 5   0  0.4309945E-06  0.2199811E+04  0.7818609E-02  0.8518507E-01
       -1   -1    0    0    0  501  0.00000000000E+00  0.00000000000E+00  0.10833549995E+04  0.10833549995E+04  0.50400001928E-02 0.  1.
        1   -1    0    0  501    0  0.00000000000E+00  0.00000000000E+00 -0.11167088720E+04  0.11167088720E+04  0.50400001928E-02 0. -1.
    10030    2    1    2    0    0  0.00000000000E+00  0.00000000000E+00 -0.33353872507E+02  0.22000638714E+04  0.21998110277E+04 0.  0.
        4    1    3    3  502    0 -0.14068185373E+03  0.96618979745E+03 -0.52317015379E+03  0.11077105811E+04  0.12699999809E+01 0. -1.
       -4    1    3    3    0  502  0.14068185373E+03 -0.96618979745E+03  0.48981628129E+03  0.10923532904E+04  0.12699999809E+01 0.  1.
</event>
<event>
 5   0  0.4408787E-06  0.2186767E+04  0.7818609E-02  0.8523956E-01
       -1   -1    0    0    0  501  0.00000000000E+00  0.00000000000E+00  0.58214302623E+03  0.58214302626E+03  0.50400001928E-02 0.  1.
        1   -1    0    0  501    0  0.00000000000E+00  0.00000000000E+00 -0.20535968630E+04  0.20535968630E+04  0.50400001928E-02 0. -1.
    10030    2    1    2    0    0  0.00000000000E+00  0.00000000000E+00 -0.14714538368E+04  0.26357398892E+04  0.21867666474E+04 0.  0.
        1    1    3    3  502    0  0.53584061825E+02 -0.46828989177E+03 -0.19248533287E+04  0.19817232429E+04  0.50400001928E-02 0. -1.
       -1    1    3    3    0  502 -0.53584061825E+02  0.46828989177E+03  0.45339949193E+03  0.65401664637E+03  0.50400001928E-02 0.  1.
</event>
<event>
 5   0  0.1015876E-05  0.2205092E+04  0.7818609E-02  0.8516312E-01
       -2   -1    0    0    0  501  0.00000000000E+00  0.00000000000E+00  0.84121924796E+03  0.84121924797E+03  0.25500000920E-02 0. -1.
        2   -1    0    0  501    0  0.00000000000E+00  0.00000000000E+00 -0.14450551518E+04  0.14450551518E+04  0.25500000920E-02 0.  1.
    10030    2    1    2    0    0  0.00000000000E+00  0.00000000000E+00 -0.60383590380E+03  0.22862743997E+04  0.22050924770E+04 0.  0.
        5    1    3    3  502    0 -0.58064307002E+03 -0.31311897895E+03 -0.12178413050E+04  0.13850449104E+04  0.46999998093E+01 0.  1.
       -5    1    3    3    0  502  0.58064307002E+03  0.31311897895E+03  0.61400540118E+03  0.90122948932E+03  0.46999998093E+01 0. -1.
</event>
<event>
 5   0  0.4794967E-06  0.2198182E+04  0.7818609E-02  0.8519185E-01
       -1   -1    0    0    0  501  0.00000000000E+00  0.00000000000E+00  0.12840245523E+04  0.12840245523E+04  0.50400001928E-02 0. -1.
        1   -1    0    0  501    0  0.00000000000E+00  0.00000000000E+00 -0.94079278959E+03  0.94079278961E+03  0.50400001928E-02 0.  1.
    10030    2    1    2    0    0  0.00000000000E+00  0.00000000000E+00  0.34323176270E+03  0.22248173419E+04  0.21981820129E+04 0.  0.
        5    1    3    3  502    0  0.13797325715E+03  0.12061004694E+03  0.12684423170E+04  0.12816206165E+04  0.46999998093E+01 0. -1.
       -5    1    3    3    0  502 -0.13797325715E+03 -0.12061004694E+03 -0.92521055427E+03  0.94319672542E+03  0.46999998093E+01 0.  1.
</event>
<event>
 5   0  0.1035928E-05  0.2201585E+04  0.7818609E-02  0.8517769E-01
        2   -1    0    0  501    0  0.00000000000E+00  0.00000000000E+00  0.14804841814E+04  0.14804841814E+04  0.25500000920E-02 0. -1.
       -2   -1    0    0    0  501  0.00000000000E+00  0.00000000000E+00 -0.81847792035E+03  0.81847792035E+03  0.25500000920E-02 0.  1.
    10030    2    1    2    0    0  0.00000000000E+00  0.00000000000E+00  0.66200626105E+03  0.22989621017E+04  0.22015845329E+04 0.  0.
        3    1    3    3  502    0  0.40218239275E+03 -0.26446979848E+03  0.13647644177E+04  0.14471616625E+04  0.10100000352E+00 0. -1.
       -3    1    3    3    0  502 -0.40218239275E+03  0.26446979848E+03 -0.70275815666E+03  0.85180043925E+03  0.10100000352E+00 0.  1.
</event>
<event>
 5   0  0.4630615E-06  0.2188222E+04  0.7818609E-02  0.8523346E-01
       -1   -1    0    0    0  501  0.00000000000E+00  0.00000000000E+00  0.57777605982E+03  0.57777605985E+03  0.50400001928E-02 0. -1.
        1   -1    0    0  501    0  0.00000000000E+00  0.00000000000E+00 -0.20718733626E+04  0.20718733626E+04  0.50400001928E-02 0.  1.
    10030    2    1    2    0    0  0.00000000000E+00  0.00000000000E+00 -0.14940973028E+04  0.26496494225E+04  0.21882219521E+04 0.  0.
        2    1    3    3  502    0  0.50359366631E+03 -0.93269152080E+03 -0.41864022857E+03  0.11396401602E+04  0.25500000920E-02 0.  1.
       -2    1    3    3    0  502 -0.50359366631E+03  0.93269152080E+03 -0.10754570742E+04  0.15100092623E+04  0.25500000920E-02 0. -1.
</event>
<event>
 5   0  0.4309945E-06  0.2200735E+04  0.7818609E-02  0.8518122E-01
       -1   -1    0    0    0  501  0.00000000000E+00  0.00000000000E+00  0.17062485568E+04  0.17062485569E+04  0.50400001928E-02 0. -1.
        1   -1    0    0  501    0  0.00000000000E+00  0.00000000000E+00 -0.70963199874E+03  0.70963199875E+03  0.50400001928E-02 0.  1.
    10030    2    1    2    0    0  0.00000000000E+00  0.00000000000E+00  0.99661655811E+03  0.24158805556E+04  0.22007349443E+04 0.  0.
        4    1    3    3  502    0  0.10772586618E+04 -0.76648368133E+02  0.72974001190E+03  0.13034121738E+04  0.12699999809E+01 0. -1.
       -4    1    3    3    0  502 -0.10772586618E+04  0.76648368133E+02  0.26687654620E+03  0.11124683819E+04  0.12699999809E+01 0.  1.
</event>
<event>
 5   0  0.4408787E-06  0.2202087E+04  0.7818609E-02  0.8517560E-01
        1   -1    0    0  501    0  0.00000000000E+00  0.00000000000E+00  0.83877647898E+03  0.83877647899E+03  0.50400001928E-02 0. -1.
       -1   -1    0    0    0  501  0.00000000000E+00  0.00000000000E+00 -0.14453161613E+04  0.14453161613E+04  0.50400001928E-02 0.  1.
    10030    2    1    2    0    0  0.00000000000E+00  0.00000000000E+00 -0.60653968232E+03  0.22840926403E+04  0.22020873741E+04 0.  0.
        1    1    3    3  502    0 -0.39072442411E+03 -0.81011953994E+03  0.35546967160E+03  0.96711836506E+03  0.50400001928E-02 0. -1.
       -1    1    3    3    0  502  0.39072442411E+03  0.81011953994E+03 -0.96200935392E+03  0.13169742752E+04  0.50400001928E-02 0.  1.
</event>
<event>
 5   0  0.4309945E-06  0.2200886E+04  0.7818609E-02  0.8518059E-01
       -1   -1    0    0    0  501  0.00000000000E+00  0.00000000000E+00  0.85038606581E+03  0.85038606582E+03  0.50400001928E-02 0. -1.
        1   -1    0    0  501    0  0.00000000000E+00  0.00000000000E+00 -0.14240298316E+04  0.14240298317E+04  0.50400001928E-02 0.  1.
    10030    2    1    2    0    0  0.00000000000E+00  0.00000000000E+00 -0.57364376584E+03  0.22744158975E+04  0.22008862998E+04 0.  0.
        4    1    3    3  502    0 -0.10740300483E+04  0.16571507870E+03 -0.46572848969E+03  0.11823310328E+04  0.12699999809E+01 0.  1.
       -4    1    3    3    0  502  0.10740300483E+04 -0.16571507870E+03 -0.10791527616E+03  0.10920848647E+04  0.12699999809E+01 0. -1.
</event>
<event>
 5   0  0.9963573E-06  0.2199962E+04  0.7818609E-02  0.8518444E-01
       -2   -1    0    0    0  501  0.00000000000E+00  0.00000000000E+00  0.72403169640E+03  0.72403169640E+03  0.25500000920E-02 0.  1.
        2   -1    0    0  501    0  0.00000000000E+00  0.00000000000E+00 -0.16711401406E+04  0.16711401406E+04  0.25500000920E-02 0. -1.
    10030    2    1    2    0    0  0.00000000000E+00  0.00000000000E+00 -0.94710844418E+03  0.23951718370E+04  0.21999622096E+04 0.  0.
        2    1    3    3  502    0  0.71064648107E+02  0.98222166208E+03  0.59979303547E+02  0.98661395415E+03  0.25500000920E-02 0.  1.
       -2    1    3    3    0  502 -0.71064648107E+02 -0.98222166208E+03 -0.10070877477E+04  0.14085578828E+04  0.25500000920E-02 0. -1.
</event>
<event>
 5   0  0.1014015E-05  0.2198271E+04  0.7818609E-02  0.8519148E-01
       -2   -1    0    0    0  501  0.00000000000E+00  0.00000000000E+00  0.11659749089E+04  0.11659749089E+04  0.25500000920E-02 0.  1.
        2   -1    0    0  501    0  0.00000000000E+00  0.00000000000E+00 -0.10361277757E+04  0.10361277757E+04  0.25500000920E-02 0. -1.
    10030    2    1    2    0    0  0.00000000000E+00  0.00000000000E+00  0.12984713317E+03  0.22021026846E+04  0.21982711288E+04 0.  0.
        1    1    3    3  502    0  0.57204040274E+03  0.82631226583E+03  0.51075750186E+03  0.11273399704E+04  0.50400001928E-02 0.  1.
       -1    1    3    3    0  502 -0.57204040274E+03 -0.82631226583E+03 -0.38091036869E+03  0.10747627143E+04  0.50400001928E-02 0. -1.
</event>
<event>
 5   0  0.1035928E-05  0.2199613E+04  0.7818609E-02  0.8518589E-01
       -2   -1    0    0    0  501  0.00000000000E+00  0.00000000000E+00  0.15999944826E+04  0.15999944826E+04  0.25500000920E-02 0.  1.
        2   -1    0    0  501    0  0.00000000000E+00  0.00000000000E+00 -0.75598673512E+03  0.75598673512E+03  0.25500000920E-02 0. -1.
    10030    2    1    2    0    0  0.00000000000E+00  0.00000000000E+00  0.84400774745E+03  0.23559812177E+04  0.21996132434E+04 0.  0.
        3    1    3    3  502    0  0.71905328734E+03 -0.67411230086E+03  0.94465744713E+03  0.13652262548E+04  0.10100000352E+00 0.  1.
       -3    1    3    3    0  502 -0.71905328734E+03  0.67411230086E+03 -0.10064969968E+03  0.99075496288E+03  0.10100000352E+00 0. -1.
</event>
<event>
 5   0  0.1014015E-05  0.2192584E+04  0.7818609E-02  0.8521521E-01
       -2   -1    0    0    0  501  0.00000000000E+00  0.00000000000E+00  0.96306843660E+03  0.96306843661E+03  0.25500000920E-02 0. -1.
        2   -1    0    0  501    0  0.00000000000E+00  0.00000000000E+00 -0.12479447233E+04  0.12479447233E+04  0.25500000920E-02 0.  1.
    10030    2    1    2    0    0  0.00000000000E+00  0.00000000000E+00 -0.28487628674E+03  0.22110131600E+04  0.21925840223E+04 0.  0.
        1    1    3    3  502    0 -0.24557161808E+03  0.97140437404E+03 -0.59106434759E+03  0.11633094775E+04  0.50400001928E-02 0. -1.
       -1    1    3    3    0  502  0.24557161808E+03 -0.97140437404E+03  0.30618806085E+03  0.10477036824E+04  0.50400001928E-02 0.  1.
</event>
<event>
 5   0  0.9963173E-06  0.2198151E+04  0.7818609E-02  0.8519198E-01
        2   -1    0    0  501    0  0.00000000000E+00  0.00000000000E+00  0.13381317309E+04  0.13381317309E+04  0.25500000920E-02 0. -1.
       -2   -1    0    0    0  501  0.00000000000E+00  0.00000000000E+00 -0.90272632679E+03  0.90272632679E+03  0.25500000920E-02 0.  1.
    10030    2    1    2    0    0  0.00000000000E+00  0.00000000000E+00  0.43540540416E+03  0.22408580577E+04  0.21981508067E+04 0.  0.
        4    1    3    3  502    0 -0.10828754642E+04  0.16223169811E+03  0.31455773569E+03  0.11392482508E+04  0.12699999809E+01 0. -1.
       -4    1    3    3    0  502  0.10828754642E+04 -0.16223169811E+03  0.12084766847E+03  0.11016098070E+04  0.12699999809E+01 0.  1.
</event>
<event>
 5   0  0.4462201E-06  0.2216488E+04  0.7818609E-02  0.8511597E-01
        1   -1    0    0  501    0  0.00000000000E+00  0.00000000000E+00  0.21090767341E+04  0.21090767341E+04  0.50400001928E-02 0. -1.
       -1   -1    0    0    0  501  0.00000000000E+00  0.00000000000E+00 -0.58234251028E+03  0.58234251030E+03  0.50400001928E-02 0.  1.
    10030    2    1    2    0    0  0.00000000000E+00  0.00000000000E+00  0.15267342238E+04  0.26914192444E+04  0.22164882492E+04 0.  0.
        3    1    3    3  502    0  0.33943206114E+03  0.10549044912E+04  0.77907867188E+03  0.13546221602E+04  0.10100000352E+00 0.  1.
       -3    1    3    3    0  502 -0.33943206114E+03 -0.10549044912E+04  0.74765555193E+03  0.13367970842E+04  0.10100000352E+00 0. -1.
</event>
<event>
 5   0  0.4408787E-06  0.2202170E+04  0.7818609E-02  0.8517526E-01
        1   -1    0    0  501    0  0.00000000000E+00  0.00000000000E+00  0.14050294010E+04  0.14050294011E+04  0.50400001928E-02 0.  1.
       -1   -1    0    0    0  501  0.00000000000E+00  0.00000000000E+00 -0.86289158242E+03  0.86289158243E+03  0.50400001928E-02 0. -1.
    10030    2    1    2    0    0  0.00000000000E+00  0.00000000000E+00  0.54213781862E+03  0.22679209835E+04  0.22021698783E+04 0.  0.
        1    1    3    3  502    0 -0.26107680573E+03  0.64945302917E+02  0.13706600984E+04  0.13968135510E+04  0.50400001928E-02 0.  1.
       -1    1    3    3    0  502  0.26107680573E+03 -0.64945302917E+02 -0.82852227977E+03  0.87110743250E+03  0.50400001928E-02 0. -1.
</event>
<event>
 5   0  0.4794967E-06  0.2192921E+04  0.7818609E-02  0.8521381E-01
       -1   -1    0    0    0  501  0.00000000000E+00  0.00000000000E+00  0.11303370625E+04  0.11303370625E+04  0.50400001928E-02 0.  1.
        1   -1    0    0  501    0  0.00000000000E+00  0.00000000000E+00 -0.10635987936E+04  0.10635987937E+04  0.50400001928E-02 0. -1.
    10030    2    1    2    0    0  0.00000000000E+00  0.00000000000E+00  0.66738268841E+02  0.21939358561E+04  0.21929205513E+04 0.  0.
        5    1    3    3  502    0  0.20373833077E+03 -0.80446973029E+03  0.75030554388E+03  0.11187767219E+04  0.46999998093E+01 0.  1.
       -5    1    3    3    0  502 -0.20373833077E+03  0.80446973029E+03 -0.68356727504E+03  0.10751591342E+04  0.46999998093E+01 0. -1.
</event>
<event>
 5   0  0.4408787E-06  0.2158616E+04  0.7818609E-02  0.8535853E-01
        1   -1    0    0  501    0  0.00000000000E+00  0.00000000000E+00  0.15646170267E+04  0.15646170267E+04  0.50400001928E-02 0.  1.
       -1   -1    0    0    0  501  0.00000000000E+00  0.00000000000E+00 -0.74453121424E+03  0.74453121426E+03  0.50400001928E-02 0. -1.
    10030    2    1    2    0    0  0.00000000000E+00  0.00000000000E+00  0.82008581245E+03  0.23091482410E+04  0.21586164224E+04 0.  0.
        1    1    3    3  502    0 -0.52289816996E+03 -0.86786761660E+03  0.12237235236E+02  0.10132948465E+04  0.50400001928E-02 0. -1.
       -1    1    3    3    0  502  0.52289816996E+03  0.86786761660E+03  0.80784857721E+03  0.12958533944E+04  0.50400001928E-02 0.  1.
</event>
<event>
 5   0  0.4309945E-06  0.2203122E+04  0.7818609E-02  0.8517130E-01
        1   -1    0    0  501    0  0.00000000000E+00  0.00000000000E+00  0.99084299140E+03  0.99084299142E+03  0.50400001928E-02 0. -1.
       -1   -1    0    0    0  501  0.00000000000E+00  0.00000000000E+00 -0.12246512505E+04  0.12246512506E+04  0.50400001928E-02 0.  1.
    10030    2    1    2    0    0  0.00000000000E+00  0.00000000000E+00 -0.23380825914E+03  0.22154942420E+04  0.22031224283E+04 0.  0.
        4    1    3    3  502    0  0.10938860233E+04 -0.12660665601E+03 -0.14569387409E+03  0.11107853957E+04  0.12699999809E+01 0.  1.
       -4    1    3    3    0  502 -0.10938860233E+04  0.12660665601E+03 -0.88114385046E+02  0.11047088463E+04  0.12699999809E+01 0. -1.
</event>
<event>
 5   0  0.4462201E-06  0.2201016E+04  0.7818609E-02  0.8518005E-01
        1   -1    0    0  501    0  0.00000000000E+00  0.00000000000E+00  0.14572553867E+04  0.14572553867E+04  0.50400001928E-02 0. -1.
       -1   -1    0    0    0  501  0.00000000000E+00  0.00000000000E+00 -0.83109528717E+03  0.83109528719E+03  0.50400001928E-02 0.  1.
    10030    2    1    2    0    0  0.00000000000E+00  0.00000000000E+00  0.62616009948E+03  0.22883506739E+04  0.22010162054E+04 0.  0.
        3    1    3    3  502    0 -0.91740136672E+03  0.44946351020E+03 -0.11239568477E+03  0.10277526525E+04  0.10100000352E+00 0.  1.
       -3    1    3    3    0  502  0.91740136672E+03 -0.44946351020E+03  0.73855578425E+03  0.12605980213E+04  0.10100000352E+00 0. -1.
</event>
<event>
 5   0  0.9963173E-06  0.2196768E+04  0.7818609E-02  0.8519775E-01
       -2   -1    0    0    0  501  0.00000000000E+00  0.00000000000E+00  0.71268662274E+03  0.71268662275E+03  0.25500000920E-02 0.  1.
        2   -1    0    0  501    0  0.00000000000E+00  0.00000000000E+00 -0.16928154370E+04  0.16928154370E+04  0.25500000920E-02 0. -1.
    10030    2    1    2    0    0  0.00000000000E+00  0.00000000000E+00 -0.98012881430E+03  0.24055020598E+04  0.21967675496E+04 0.  0.
        4    1    3    3  502    0 -0.17797357182E+03  0.21091463200E+03 -0.16542326572E+04  0.16770947711E+04  0.12699999809E+01 0. -1.
       -4    1    3    3    0  502  0.17797357182E+03 -0.21091463200E+03  0.67410384291E+03  0.72840728867E+03  0.12699999809E+01 0.  1.
</event>
<event>
 5   0  0.4630615E-06  0.2198062E+04  0.7818609E-02  0.8519235E-01
       -1   -1    0    0    0  501  0.00000000000E+00  0.00000000000E+00  0.62930433330E+03  0.62930433332E+03  0.50400001928E-02 0.  1.
        1   -1    0    0  501    0  0.00000000000E+00  0.00000000000E+00 -0.19193712727E+04  0.19193712727E+04  0.50400001928E-02 0. -1.
    10030    2    1    2    0    0  0.00000000000E+00  0.00000000000E+00 -0.12900669394E+04  0.25486756061E+04  0.21980615634E+04 0.  0.
        2    1    3    3  502    0  0.37867000573E+03  0.85864413914E+02 -0.18371913431E+04  0.18777741350E+04  0.25500000920E-02 0. -1.
       -2    1    3    3    0  502 -0.37867000573E+03 -0.85864413914E+02  0.54712440366E+03  0.67090147109E+03  0.25500000920E-02 0.  1.
</event>
<event>
 5   0  0.4462201E-06  0.2179075E+04  0.7818609E-02  0.8527188E-01
        1   -1    0    0  501    0  0.00000000000E+00  0.00000000000E+00  0.17256196421E+04  0.17256196421E+04  0.50400001928E-02 0. -1.
       -1   -1    0    0    0  501  0.00000000000E+00  0.00000000000E+00 -0.68792222538E+03  0.68792222540E+03  0.50400001928E-02 0.  1.
    10030    2    1    2    0    0  0.00000000000E+00  0.00000000000E+00  0.10376974167E+04  0.24135418675E+04  0.21790751289E+04 0.  0.
        3    1    3    3  502    0  0.16008444166E+03 -0.50241309921E+03  0.15748771070E+04  0.16608081958E+04  0.10100000352E+00 0. -1.
       -3    1    3    3    0  502 -0.16008444166E+03  0.50241309921E+03 -0.53717969029E+03  0.75273367175E+03  0.10100000352E+00 0.  1.
</event>
<event>
 5   0  0.1015876E-05  0.2200931E+04  0.7818609E-02  0.8518041E-01
       -2   -1    0    0    0  501  0.00000000000E+00  0.00000000000E+00  0.50867201097E+03  0.50867201097E+03  0.25500000920E-02 0.  1.
        2   -1    0    0  501    0  0.00000000000E+00  0.00000000000E+00 -0.23807566844E+04  0.23807566844E+04  0.25500000920E-02 0. -1.
    10030    2    1    2    0    0  0.00000000000E+00  0.00000000000E+00 -0.18720846734E+04  0.28894286954E+04  0.22009309760E+04 0.  0.
        5    1    3    3  502    0  0.76376496296E+03  0.74449372643E+01 -0.19760832784E+04  0.21185654484E+04  0.46999998093E+01 0. -1.
       -5    1    3    3    0  502 -0.76376496296E+03 -0.74449372643E+01  0.10399860501E+03  0.77086324700E+03  0.46999998093E+01 0.  1.
</event>
<event>
 5   0  0.4630615E-06  0.2197521E+04  0.7818609E-02  0.8519461E-01
        1   -1    0    0  501    0  0.00000000000E+00  0.00000000000E+00  0.11654293796E+04  0.11654293796E+04  0.50400001928E-02 0. -1.
       -1   -1    0    0    0  501  0.00000000000E+00  0.00000000000E+00 -0.10359050505E+04  0.10359050505E+04  0.50400001928E-02 0.  1.
    10030    2    1    2    0    0  0.00000000000E+00  0.00000000000E+00  0.12952432911E+03  0.22013344300E+04  0.21975205849E+04 0.  0.
        2    1    3    3  502    0  0.49433439095E+03 -0.94275014852E+03  0.33750266188E+03  0.11167149947E+04  0.25500000920E-02 0. -1.
       -2    1    3    3    0  502 -0.49433439095E+03  0.94275014852E+03 -0.20797833277E+03  0.10846194353E+04  0.25500000920E-02 0.  1.
</event>
<event>
 5   0  0.4462201E-06  0.2197420E+04  0.7818609E-02  0.8519503E-01
        1   -1    0    0  501    0  0.00000000000E+00  0.00000000000E+00  0.57871223197E+03  0.57871223199E+03  0.50400001928E-02 0.  1.
       -1   -1    0    0    0  501  0.00000000000E+00  0.00000000000E+00 -0.20859475685E+04  0.20859475685E+04  0.50400001928E-02 0. -1.
    10030    2    1    2    0    0  0.00000000000E+00  0.00000000000E+00 -0.15072353366E+04  0.26646598005E+04  0.21974197352E+04 0.  0.
        3    1    3    3  502    0 -0.59987050526E+02  0.10969767145E+04 -0.73617075295E+03  0.13224612456E+04  0.10100000352E+00 0.  1.
       -3    1    3    3    0  502  0.59987050526E+02 -0.10969767145E+04 -0.77106458360E+03  0.13421985549E+04  0.10100000352E+00 0. -1.
</event>
<event>
 5   0  0.4794967E-06  0.2200911E+04  0.7818609E-02  0.8518049E-01
        1   -1    0    0  501    0  0.00000000000E+00  0.00000000000E+00  0.13612929537E+04  0.13612929537E+04  0.50400001928E-02 0.  1.
       -1   -1    0    0    0  501  0.00000000000E+00  0.00000000000E+00 -0.88959708370E+03  0.88959708371E+03  0.50400001928E-02 0. -1.
    10030    2    1    2    0    0  0.00000000000E+00  0.00000000000E+00  0.47169587002E+03  0.22508900374E+04  0.22009109402E+04 0.  0.
        5    1    3    3  502    0 -0.21315150990E+03 -0.11539772898E+03  0.13336432917E+04  0.13554986985E+04  0.46999998093E+01 0.  1.
       -5    1    3    3    0  502  0.21315150990E+03  0.11539772898E+03 -0.86194742172E+03  0.89539133894E+03  0.46999998093E+01 0. -1.
</event>
<event>
 5   0  0.9963573E-06  0.2204239E+04  0.7818609E-02  0.8516666E-01
        2   -1    0    0  501    0  0.00000000000E+00  0.00000000000E+00  0.15100020436E+04  0.15100020436E+04  0.25500000920E-02 0. -1.
       -2   -1    0    0    0  501  0.00000000000E+00  0.00000000000E+00 -0.80441469824E+03  0.80441469825E+03  0.25500000920E-02 0.  1.
    10030    2    1    2    0    0  0.00000000000E+00  0.00000000000E+00  0.70558734540E+03  0.23144167419E+04  0.22042394047E+04 0.  0.
        2    1    3    3  502    0  0.53548647049E+03 -0.56077785389E+03  0.11751735663E+04  0.14079241714E+04  0.25500000920E-02 0. -1.
       -2    1    3    3    0  502 -0.53548647049E+03  0.56077785389E+03 -0.46958622089E+03  0.90649257049E+03  0.25500000920E-02 0.  1.
</event>
<event>
 5   0  0.9963573E-06  0.2181579E+04  0.7818609E-02  0.8526135E-01
        2   -1    0    0  501    0  0.00000000000E+00  0.00000000000E+00  0.12600206619E+04  0.12600206619E+04  0.25500000920E-02 0.  1.
       -2   -1    0    0    0  501  0.00000000000E+00  0.00000000000E+00 -0.94428734157E+03  0.94428734158E+03  0.25500000920E-02 0. -1.
    10030    2    1    2    0    0  0.00000000000E+00  0.00000000000E+00  0.31573332035E+03  0.22043080035E+04  0.21815788422E+04 0.  0.
        2    1    3    3  502    0  0.20939175393E+03  0.27807601256E+03 -0.88665917913E+03  0.95254169217E+03  0.25500000920E-02 0. -1.
       -2    1    3    3    0  502 -0.20939175393E+03 -0.27807601256E+03  0.12023924995E+04  0.12517663113E+04  0.25500000920E-02 0.  1.
</event>
<event>
 5   0  0.1015876E-05  0.2199092E+04  0.7818609E-02  0.8518806E-01
        2   -1    0    0  501    0  0.00000000000E+00  0.00000000000E+00  0.22529212164E+04  0.22529212164E+04  0.25500000920E-02 0. -1.
       -2   -1    0    0    0  501  0.00000000000E+00  0.00000000000E+00 -0.53663732792E+03  0.53663732792E+03  0.25500000920E-02 0.  1.
    10030    2    1    2    0    0  0.00000000000E+00  0.00000000000E+00  0.17162838885E+04  0.27895585443E+04  0.21990921960E+04 0.  0.
        5    1    3    3  502    0 -0.63607569219E+02  0.10406143530E+04  0.41497179348E+03  0.11221175669E+04  0.46999998093E+01 0.  1.
       -5    1    3    3    0  502  0.63607569219E+02 -0.10406143530E+04  0.13013120950E+04  0.16674409774E+04  0.46999998093E+01 0. -1.
</event>
<event>
 5   0  0.9963173E-06  0.2189574E+04  0.7818609E-02  0.8522780E-01
        2   -1    0    0  501    0  0.00000000000E+00  0.00000000000E+00  0.20574967367E+04  0.20574967367E+04  0.25500000920E-02 0. -1.
       -2   -1    0    0    0  501  0.00000000000E+00  0.00000000000E+00 -0.58253260745E+03  0.58253260745E+03  0.25500000920E-02 0.  1.
    10030    2    1    2    0    0  0.00000000000E+00  0.00000000000E+00  0.14749641293E+04  0.26400293442E+04  0.21895743320E+04 0.  0.
        4    1    3    3  502    0 -0.35031751118E+03 -0.24340434416E+03  0.19531692153E+04  0.19992097513E+04  0.12699999809E+01 0. -1.
       -4    1    3    3    0  502  0.35031751118E+03  0.24340434416E+03 -0.47820508601E+03  0.64081959285E+03  0.12699999809E+01 0.  1.
</event>
<event>
 5   0  0.4408787E-06  0.2198590E+04  0.7818609E-02  0.8519015E-01
       -1   -1    0    0    0  501  0.00000000000E+00  0.00000000000E+00  0.59469541851E+03  0.59469541853E+03  0.50400001928E-02 0. -1.
        1   -1    0    0  501    0  0.00000000000E+00  0.00000000000E+00 -0.20320473348E+04  0.20320473348E+04  0.50400001928E-02 0.  1.
    10030    2    1    2    0    0  0.00000000000E+00  0.00000000000E+00 -0.14373519163E+04  0.26267427534E+04  0.21985897664E+04 0.  0.
        1    1    3    3  502    0 -0.68086293724E+03 -0.94080702052E+02 -0.17436650574E+04  0.18742447413E+04  0.50400001928E-02 0.  1.
       -1    1    3    3    0  502  0.68086293724E+03  0.94080702052E+02  0.30631314106E+03  0.75249801211E+03  0.50400001928E-02 0. -1.
</event>
<event>
 5   0  0.9963173E-06  0.2199567E+04  0.7818609E-02  0.8518608E-01
        2   -1    0    0  501    0  0.00000000000E+00  0.00000000000E+00  0.12844361612E+04  0.12844361612E+04  0.25500000920E-02 0. -1.
       -2   -1    0    0    0  501  0.00000000000E+00  0.00000000000E+00 -0.94167705640E+03  0.94167705641E+03  0.25500000920E-02 0.  1.
    10030    2    1    2    0    0  0.00000000000E+00  0.00000000000E+00  0.34275910479E+03  0.22261132176E+04  0.21995672878E+04 0.  0.
        4    1    3    3  502    0 -0.46124916547E+03 -0.12481162446E+03 -0.83112735864E+03  0.95869861449E+03  0.12699999809E+01 0.  1.
       -4    1    3    3    0  502  0.46124916547E+03  0.12481162446E+03  0.11738864634E+04  0.12674146031E+04  0.12699999809E+01 0. -1.
</event>
<event>
 5   0  0.4309945E-06  0.2251842E+04  0.7818609E-02  0.8497155E-01
       -1   -1    0    0    0  501  0.00000000000E+00  0.00000000000E+00  0.10460653014E+04  0.10460653014E+04  0.50400001928E-02 0. -1.
        1   -1    0    0  501    0  0.00000000000E+00  0.00000000000E+00 -0.12118732140E+04  0.12118732140E+04  0.50400001928E-02 0.  1.
    10030    2    1    2    0    0  0.00000000000E+00  0.00000000000E+00 -0.16580791265E+03  0.22579385154E+04  0.22518423736E+04 0.  0.
        4    1    3    3  502    0 -0.29517865689E+02 -0.18834040974E+02 -0.12113264351E+04  0.12118330622E+04  0.12699999809E+01 0.  1.
       -4    1    3    3    0  502  0.29517865689E+02  0.18834040974E+02  0.10455185224E+04  0.10461054532E+04  0.12699999809E+01 0. -1.
</event>
<event>
 5   0  0.1014015E-05  0.2201250E+04  0.7818609E-02  0.8517908E-01
        2   -1    0    0  501    0  0.00000000000E+00  0.00000000000E+00  0.89791143553E+03  0.89791143554E+03  0.25500000920E-02 0.  1.
       -2   -1    0    0    0  501  0.00000000000E+00  0.00000000000E+00 -0.13491032202E+04  0.13491032202E+04  0.25500000920E-02 0. -1.
    10030    2    1    2    0    0  0.00000000000E+00  0.00000000000E+00 -0.45119178467E+03  0.22470146558E+04  0.22012498351E+04 0.  0.
        1    1    3    3  502    0 -0.77353424669E+03 -0.48046974845E+03  0.40545470540E+03  0.99679482750E+03  0.50400001928E-02 0.  1.
       -1    1    3    3    0  502  0.77353424669E+03  0.48046974845E+03 -0.85664649008E+03  0.12502198283E+04  0.50400001928E-02 0. -1.
</event>
<event>
 5   0  0.4462201E-06  0.2197499E+04  0.7818609E-02  0.8519470E-01
        1   -1    0    0  501    0  0.00000000000E+00  0.00000000000E+00  0.14223071529E+04  0.14223071529E+04  0.50400001928E-02 0.  1.
       -1   -1    0    0    0  501  0.00000000000E+00  0.00000000000E+00 -0.84879712025E+03  0.84879712026E+03  0.50400001928E-02 0. -1.
    10030    2    1    2    0    0  0.00000000000E+00  0.00000000000E+00  0.57351003264E+03  0.22711042732E+04  0.21974987741E+04 0.  0.
        3    1    3    3  502    0 -0.42513674355E+02 -0.49879642891E+03 -0.72408823678E+03  0.88028919955E+03  0.10100000352E+00 0. -1.
       -3    1    3    3    0  502  0.42513674355E+02  0.49879642891E+03  0.12975982694E+04  0.13908150736E+04  0.10100000352E+00 0.  1.
</event>
<event>
 5   0  0.1035928E-05  0.2198243E+04  0.7818609E-02  0.8519160E-01
       -2   -1    0    0    0  501  0.00000000000E+00  0.00000000000E+00  0.79987212777E+03  0.79987212777E+03  0.25500000920E-02 0. -1.
        2   -1    0    0  501    0  0.00000000000E+00  0.00000000000E+00 -0.15103262414E+04  0.15103262414E+04  0.25500000920E-02 0.  1.
    10030    2    1    2    0    0  0.00000000000E+00  0.00000000000E+00 -0.71045411364E+03  0.23101983692E+04  0.21982428113E+04 0.  0.
        3    1    3    3  502    0 -0.73647336152E+03 -0.63396949020E+03  0.18450230253E+03  0.98911649292E+03  0.10100000352E+00 0. -1.
       -3    1    3    3    0  502  0.73647336152E+03  0.63396949020E+03 -0.89495641617E+03  0.13210818763E+04  0.10100000352E+00 0.  1.
</event>
<event>
 5   0  0.4794967E-06  0.2199942E+04  0.7818609E-02  0.8518452E-01
       -1   -1    0    0    0  501  0.00000000000E+00  0.00000000000E+00  0.77518078759E+03  0.77518078760E+03  0.50400001928E-02 0. -1.
        1   -1    0    0  501    0  0.00000000000E+00  0.00000000000E+00 -0.15608445432E+04  0.15608445432E+04  0.50400001928E-02 0.  1.
    10030    2    1    2    0    0  0.00000000000E+00  0.00000000000E+00 -0.78566375558E+03  0.23360253308E+04  0.21999424559E+04 0.  0.
        5    1    3    3  502    0  0.56784451704E+03 -0.93973124749E+03 -0.32261748693E+03  0.11443978093E+04  0.46999998093E+01 0. -1.
       -5    1    3    3    0  502 -0.56784451704E+03  0.93973124749E+03 -0.46304626866E+03  0.11916275215E+04  0.46999998093E+01 0.  1.
</event>
<event>
 5   0  0.1014015E-05  0.2197435E+04  0.7818609E-02  0.8519497E-01
       -2   -1    0    0    0  501  0.00000000000E+00  0.00000000000E+00  0.15864682656E+04  0.15864682656E+04  0.25500000920E-02 0. -1.
        2   -1    0    0  501    0  0.00000000000E+00  0.00000000000E+00 -0.76092265626E+03  0.76092265626E+03  0.25500000920E-02 0.  1.
    10030    2    1    2    0    0  0.00000000000E+00  0.00000000000E+00  0.82554560932E+03  0.23473909218E+04  0.21974345467E+04 0.  0.
        1    1    3    3  502    0 -0.23682669121E+03 -0.10715383983E+04  0.47028177536E+03  0.11939205874E+04  0.50400001928E-02 0.  1.
       -1    1    3    3    0  502  0.23682669121E+03  0.10715383983E+04  0.35526383396E+03  0.11534703345E+04  0.50400001928E-02 0. -1.
</event>
<event>
 5   0  0.1035928E-05  0.2197434E+04  0.7818609E-02  0.8519497E-01
       -2   -1    0    0    0  501  0.00000000000E+00  0.00000000000E+00  0.13145014496E+04  0.13145014496E+04  0.25500000920E-02 0. -1.
        2   -1    0    0  501    0  0.00000000000E+00  0.00000000000E+00 -0.91835468670E+03  0.91835468671E+03  0.25500000920E-02 0.  1.
    10030    2    1    2    0    0  0.00000000000E+00  0.00000000000E+00  0.39614676286E+03  0.22328561363E+04  0.21974335639E+04 0.  0.
        3    1    3    3  502    0 -0.93576356676E+03  0.52564843061E+03  0.43684823835E+03  0.11587908004E+04  0.10100000352E+00 0. -1.
       -3    1    3    3    0  502  0.93576356676E+03 -0.52564843061E+03 -0.40701475492E+02  0.10740653359E+04  0.10100000352E+00 0.  1.
</event>
<event>
 5   0  0.4794967E-06  0.2198937E+04  0.7818609E-02  0.8518871E-01
       -1   -1    0    0    0  501  0.00000000000E+00  0.00000000000E+00  0.12912180665E+04  0.12912180665E+04  0.50400001928E-02 0. -1.
        1   -1    0    0  501    0  0.00000000000E+00  0.00000000000E+00 -0.93619422616E+03  0.93619422617E+03  0.50400001928E-02 0.  1.
    10030    2    1    2    0    0  0.00000000000E+00  0.00000000000E+00  0.35502384037E+03  0.22274122927E+04  0.21989369237E+04 0.  0.
        5    1    3    3  502    0  0.31462330449E+03 -0.10292278192E+04  0.40516900574E+03  0.11499920612E+04  0.46999998093E+01 0.  1.
       -5    1    3    3    0  502 -0.31462330449E+03  0.10292278192E+04 -0.50145165366E+02  0.10774202315E+04  0.46999998093E+01 0. -1.
</event>
<event>
 5   0  0.4309945E-06  0.2196555E+04  0.7818609E-02  0.8519863E-01
        1   -1    0    0  501    0  0.00000000000E+00  0.00000000000E+00  0.96711012741E+03  0.96711012742E+03  0.50400001928E-02 0. -1.
       -1   -1    0    0    0  501  0.00000000000E+00  0.00000000000E+00 -0.12472350394E+04  0.12472350394E+04  0.50400001928E-02 0.  1.
    10030    2    1    2    0    0  0.00000000000E+00  0.00000000000E+00 -0.28012491194E+03  0.22143451668E+04  0.21965551556E+04 0.  0.
        4    1    3    3  502    0 -0.47718748003E+03 -0.20404880595E+03  0.83569630431E+03  0.98373458425E+03  0.12699999809E+01 0. -1.
       -4    1    3    3    0  502  0.47718748003E+03  0.20404880595E+03 -0.11158212163E+04  0.12306105825E+04  0.12699999809E+01 0.  1.
</event>
<event>
 5   0  0.4630615E-06  0.2199862E+04  0.7818609E-02  0.8518486E-01
        1   -1    0    0  501    0  0.00000000000E+00  0.00000000000E+00  0.13067604867E+04  0.13067604867E+04  0.50400001928E-02 0.  1.
       -1   -1    0    0    0  501  0.00000000000E+00  0.00000000000E+00 -0.92583785229E+03  0.92583785230E+03  0.50400001928E-02 0. -1.
    10030    2    1    2    0    0  0.00000000000E+00  0.00000000000E+00  0.38092263438E+03  0.22325983390E+04  0.21998621070E+04 0.  0.
        2    1    3    3  502    0 -0.22317984152E+03 -0.23164220101E+03 -0.87703770824E+03  0.93416406087E+03  0.25500000920E-02 0. -1.
       -2    1    3    3    0  502  0.22317984152E+03  0.23164220101E+03  0.12579603426E+04  0.12984342781E+04  0.25500000920E-02 0.  1.
</event>
<event>
 5   0  0.9963173E-06  0.2202950E+04  0.7818609E-02  0.8517201E-01
       -2   -1    0    0    0  501  0.00000000000E+00  0.00000000000E+00  0.10638771607E+04  0.10638771607E+04  0.25500000920E-02 0.  1.
        2   -1    0    0  501    0  0.00000000000E+00  0.00000000000E+00 -0.11404019398E+04  0.11404019398E+04  0.25500000920E-02 0. -1.
    10030    2    1    2    0    0  0.00000000000E+00  0.00000000000E+00 -0.76524779065E+02  0.22042791005E+04  0.22029503651E+04 0.  0.
        4    1    3    3  502    0 -0.11064402752E+03 -0.10374148745E+04  0.31518464416E+03  0.10898691185E+04  0.12699999809E+01 0.  1.
       -4    1    3    3    0  502  0.11064402752E+03  0.10374148745E+04 -0.39170942322E+03  0.11144099819E+04  0.12699999809E+01 0. -1.
</event>
<event>
 5   0  0.1014015E-05  0.2132352E+04  0.7818609E-02  0.8547124E-01
        2   -1    0    0  501    0  0.00000000000E+00  0.00000000000E+00  0.19492788711E+04  0.19492788711E+04  0.25500000920E-02 0. -1.
       -2   -1    0    0    0  501  0.00000000000E+00  0.00000000000E+00 -0.58315482772E+03  0.58315482772E+03  0.25500000920E-02 0.  1.
    10030    2    1    2    0    0  0.00000000000E+00  0.00000000000E+00  0.13661240434E+04  0.25324336989E+04  0.21323521138E+04 0.  0.
        1    1    3    3  502    0 -0.99107245876E+03 -0.21607805525E+03  0.29309950472E+03  0.10558511563E+04  0.50400001928E-02 0. -1.
       -1    1    3    3    0  502  0.99107245876E+03  0.21607805525E+03  0.10730245387E+04  0.14765825426E+04  0.50400001928E-02 0.  1.
</event>
<event>
 5   0  0.4408787E-06  0.2188814E+04  0.7818609E-02  0.8523098E-01
       -1   -1    0    0    0  501  0.00000000000E+00  0.00000000000E+00  0.83877626129E+03  0.83877626131E+03  0.50400001928E-02 0.  1.
        1   -1    0    0  501    0  0.00000000000E+00  0.00000000000E+00 -0.14279453631E+04  0.14279453631E+04  0.50400001928E-02 0. -1.
    10030    2    1    2    0    0  0.00000000000E+00  0.00000000000E+00 -0.58916910181E+03  0.22667216244E+04  0.21888139921E+04 0.  0.
        1    1    3    3  502    0 -0.64415458189E+03 -0.83032529624E+03 -0.61099430682E+03  0.12156024292E+04  0.50400001928E-02 0.  1.
       -1    1    3    3    0  502  0.64415458189E+03  0.83032529624E+03  0.21825205002E+02  0.10511191952E+04  0.50400001928E-02 0. -1.
</event>
<event>
 5   0  0.1015876E-05  0.2196283E+04  0.7818609E-02  0.8519977E-01
        2   -1    0    0  501    0  0.00000000000E+00  0.00000000000E+00  0.19916135493E+04  0.19916135493E+04  0.25500000920E-02 0.  1.
       -2   -1    0    0    0  501  0.00000000000E+00  0.00000000000E+00 -0.60549646889E+03  0.60549646889E+03  0.25500000920E-02 0. -1.
    10030    2    1    2    0    0  0.00000000000E+00  0.00000000000E+00  0.13861170804E+04  0.25971100182E+04  0.21962831980E+04 0.  0.
        5    1    3    3  502    0 -0.21665314739E+03  0.83439414722E+03 -0.11133923182E+03  0.86923569515E+03  0.46999998093E+01 0. -1.
       -5    1    3    3    0  502  0.21665314739E+03 -0.83439414722E+03  0.14974563122E+04  0.17278743230E+04  0.46999998093E+01 0.  1.
</event>
<event>
 5   0  0.4309945E-06  0.2206115E+04  0.7818609E-02  0.8515887E-01
        1   -1    0    0  501    0  0.00000000000E+00  0.00000000000E+00  0.11306010985E+04  0.11306010986E+04  0.50400001928E-02 0. -1.
       -1   -1    0    0    0  501  0.00000000000E+00  0.00000000000E+00 -0.10761853876E+04  0.10761853876E+04  0.50400001928E-02 0.  1.
    10030    2    1    2    0    0  0.00000000000E+00  0.00000000000E+00  0.54415710947E+02  0.22067864862E+04  0.22061154834E+04 0.  0.
        4    1    3    3  502    0 -0.47038435323E+03  0.99142544275E+03  0.13926389102E+03  0.11061563599E+04  0.12699999809E+01 0. -1.
       -4    1    3    3    0  502  0.47038435323E+03 -0.99142544275E+03 -0.84848180074E+02  0.11006301263E+04  0.12699999809E+01 0.  1.
</event>
<event>
 5   0  0.4462201E-06  0.2196685E+04  0.7818609E-02  0.8519809E-01
        1   -1    0    0  501    0  0.00000000000E+00  0.00000000000E+00  0.12158235092E+04  0.12158235092E+04  0.50400001928E-02 0.  1.
       -1   -1    0    0    0  501  0.00000000000E+00  0.00000000000E+00 -0.99221357511E+03  0.99221357512E+03  0.50400001928E-02 0. -1.
    10030    2    1    2    0    0  0.00000000000E+00  0.00000000000E+00  0.22360993405E+03  0.22080370843E+04  0.21966853127E+04 0.  0.
        3    1    3    3  502    0  0.69443690604E+03  0.38603890048E+03 -0.65045944407E+03  0.10268233284E+04  0.10100000352E+00 0. -1.
       -3    1    3    3    0  502 -0.69443690604E+03 -0.38603890048E+03  0.87406937812E+03  0.11812137559E+04  0.10100000352E+00 0.  1.
</event>
<event>
 5   0  0.4630615E-06  0.2202224E+04  0.7818609E-02  0.8517503E-01
        1   -1    0    0  501    0  0.00000000000E+00  0.00000000000E+00  0.12483203761E+04  0.12483203761E+04  0.50400001928E-02 0. -1.
       -1   -1    0    0    0  501  0.00000000000E+00  0.00000000000E+00 -0.97126359506E+03  0.97126359507E+03  0.50400001928E-02 0.  1.
    10030    2    1    2    0    0  0.00000000000E+00  0.00000000000E+00  0.27705678103E+03  0.22195839712E+04  0.22022244539E+04 0.  0.
        2    1    3    3  502    0 -0.62386240153E+03 -0.20556304769E+03  0.10292296959E+04  0.12209726572E+04  0.25500000920E-02 0. -1.
       -2    1    3    3    0  502  0.62386240153E+03  0.20556304769E+03 -0.75217291486E+03  0.99861131401E+03  0.25500000920E-02 0.  1.
</event>
<event>
 5   0  0.9963173E-06  0.2202015E+04  0.7818609E-02  0.8517590E-01
       -2   -1    0    0    0  501  0.00000000000E+00  0.00000000000E+00  0.51918666816E+03  0.51918666817E+03  0.25500000920E-02 0. -1.
        2   -1    0    0  501    0  0.00000000000E+00  0.00000000000E+00 -0.23348385075E+04  0.23348385075E+04  0.25500000920E-02 0.  1.
    10030    2    1    2    0    0  0.00000000000E+00  0.00000000000E+00 -0.18156518393E+04  0.28540251757E+04  0.22020145553E+04 0.  0.
        4    1    3    3  502    0  0.24164626703E+03  0.77661041420E+03 -0.18696478236E+04  0.20388970673E+04  0.12699999809E+01 0.  1.
       -4    1    3    3    0  502 -0.24164626703E+03 -0.77661041420E+03  0.53995984274E+02  0.81512810836E+03  0.12699999809E+01 0. -1.
</event>
<event>
 5   0  0.4408787E-06  0.2196647E+04  0.7818609E-02  0.8519825E-01
       -1   -1    0    0    0  501  0.00000000000E+00  0.00000000000E+00  0.73667152166E+03  0.73667152168E+03  0.50400001928E-02 0. -1.
        1   -1    0    0  501    0  0.00000000000E+00  0.00000000000E+00 -0.16375203172E+04  0.16375203172E+04  0.50400001928E-02 0.  1.
    10030    2    1    2    0    0  0.00000000000E+00  0.00000000000E+00 -0.90084879551E+03  0.23741918389E+04  0.21966470666E+04 0.  0.
        1    1    3    3  502    0  0.10642131022E+04 -0.27133187481E+03 -0.46339747959E+03  0.11920183461E+04  0.50400001928E-02 0.  1.
       -1    1    3    3    0  502 -0.10642131022E+04  0.27133187481E+03 -0.43745131593E+03  0.11821734928E+04  0.50400001928E-02 0. -1.
</event>
<event>
 5   0  0.4462201E-06  0.2189993E+04  0.7818609E-02  0.8522605E-01
        1   -1    0    0  501    0  0.00000000000E+00  0.00000000000E+00  0.16806182263E+04  0.16806182263E+04  0.50400001928E-02 0. -1.
       -1   -1    0    0    0  501  0.00000000000E+00  0.00000000000E+00 -0.71343822428E+03  0.71343822430E+03  0.50400001928E-02 0.  1.
    10030    2    1    2    0    0  0.00000000000E+00  0.00000000000E+00  0.96718000200E+03  0.23940564506E+04  0.21899929526E+04 0.  0.
        3    1    3    3  502    0  0.46820933332E+03 -0.71552936410E+03  0.12312923604E+04  0.14990941057E+04  0.10100000352E+00 0. -1.
       -3    1    3    3    0  502 -0.46820933332E+03  0.71552936410E+03 -0.26411235843E+03  0.89496234489E+03  0.10100000352E+00 0.  1.
</event>
<event>
 5   0  0.9963573E-06  0.2196295E+04  0.7818609E-02  0.8519972E-01
        2   -1    0    0  501    0  0.00000000000E+00  0.00000000000E+00  0.78259761692E+03  0.78259761692E+03  0.25500000920E-02 0.  1.
       -2   -1    0    0    0  501  0.00000000000E+00  0.00000000000E+00 -0.15409300972E+04  0.15409300972E+04  0.25500000920E-02 0. -1.
    10030    2    1    2    0    0  0.00000000000E+00  0.00000000000E+00 -0.75833248032E+03  0.23235277142E+04  0.21962952642E+04 0.  0.
        2    1    3    3  502    0  0.64713710902E+03 -0.88081163521E+03 -0.49168870996E+03  0.11984879483E+04  0.25500000920E-02 0. -1.
       -2    1    3    3    0  502 -0.64713710902E+03  0.88081163521E+03 -0.26664377036E+03  0.11250397659E+04  0.25500000920E-02 0.  1.
</event>
<event>
 5   0  0.9963173E-06  0.2203341E+04  0.7818609E-02  0.8517039E-01
       -2   -1    0    0    0  501  0.00000000000E+00  0.00000000000E+00  0.61760524639E+03  0.61760524639E+03  0.25500000920E-02 0. -1.
        2   -1    0    0  501    0  0.00000000000E+00  0.00000000000E+00 -0.19651350720E+04  0.19651350720E+04  0.25500000920E-02 0.  1.
    10030    2    1    2    0    0  0.00000000000E+00  0.00000000000E+00 -0.13475298256E+04  0.25827403184E+04  0.22033408546E+04 0.  0.
        4    1    3    3  502    0 -0.10015195084E+04  0.14243817694E+03 -0.11851771458E+04  0.15581965344E+04  0.12699999809E+01 0.  1.
       -4    1    3    3    0  502  0.10015195084E+04 -0.14243817694E+03 -0.16235267983E+03  0.10245437841E+04  0.12699999809E+01 0. -1.
</event>
<event>
 5   0  0.4794967E-06  0.2183167E+04  0.7818609E-02  0.8525467E-01
        1   -1    0    0  501    0  0.00000000000E+00  0.00000000000E+00  0.24291445112E+04  0.24291445112E+04  0.50400001928E-02 0. -1.
       -1   -1    0    0    0  501  0.00000000000E+00  0.00000000000E+00 -0.49052418941E+03  0.49052418943E+03  0.50400001928E-02 0.  1.
    10030    2    1    2    0    0  0.00000000000E+00  0.00000000000E+00  0.19386203217E+04  0.29196687006E+04  0.21831666380E+04 0.  0.
        5    1    3    3  502    0 -0.21889132129E+03  0.56098835504E+03 -0.24827841013E+03  0.65137209333E+03  0.46999998093E+01 0.  1.
       -5    1    3    3    0  502  0.21889132129E+03 -0.56098835504E+03  0.21868987319E+04  0.22682966073E+04  0.46999998093E+01 0. -1.
</event>
<event>
 5   0  0.9963173E-06  0.2199175E+04  0.7818609E-02  0.8518772E-01
        2   -1    0    0  501    0  0.00000000000E+00  0.00000000000E+00  0.10408128695E+04  0.10408128695E+04  0.25500000920E-02 0.  1.
       -2   -1    0    0    0  501  0.00000000000E+00  0.00000000000E+00 -0.11616809963E+04  0.11616809963E+04  0.25500000920E-02 0. -1.
    10030    2    1    2    0    0  0.00000000000E+00  0.00000000000E+00 -0.12086812678E+03  0.22024938658E+04  0.21991748736E+04 0.  0.
        4    1    3    3  502    0  0.98845100085E+03  0.39852348112E+03  0.21059322323E+03  0.10863735383E+04  0.12699999809E+01 0.  1.
       -4    1    3    3    0  502 -0.98845100085E+03 -0.39852348112E+03 -0.33146135001E+03  0.11161203275E+04  0.12699999809E+01 0. -1.
</event>
<event>
 5   0  0.4630615E-06  0.2200990E+04  0.7818609E-02  0.8518016E-01
       -1   -1    0    0    0  501  0.00000000000E+00  0.00000000000E+00  0.17760666644E+04  0.17760666644E+04  0.50400001928E-02 0.  1.
        1   -1    0    0  501    0  0.00000000000E+00  0.00000000000E+00 -0.68189396239E+03  0.68189396241E+03  0.50400001928E-02 0. -1.
    10030    2    1    2    0    0  0.00000000000E+00  0.00000000000E+00  0.10941727020E+04  0.24579606268E+04  0.22009899003E+04 0.  0.
        2    1    3    3  502    0 -0.75177452218E+03 -0.40606675972E+03  0.13216279618E+04  0.15737711444E+04  0.25500000920E-02 0.  1.
       -2    1    3    3    0  502  0.75177452218E+03  0.40606675972E+03 -0.22745525982E+03  0.88418948239E+03  0.25500000920E-02 0. -1.
</event>
<event>
 5   0  0.1015876E-05  0.2200504E+04  0.7818609E-02  0.8518218E-01
       -2   -1    0    0    0  501  0.00000000000E+00  0.00000000000E+00  0.60132021590E+03  0.60132021591E+03  0.25500000920E-02 0. -1.
        2   -1    0    0  501    0  0.00000000000E+00  0.00000000000E+00 -0.20131612137E+04  0.20131612137E+04  0.25500000920E-02 0.  1.
    10030    2    1    2    0    0  0.00000000000E+00  0.00000000000E+00 -0.14118409978E+04  0.26144814296E+04  0.22005040656E+04 0.  0.
        5    1    3    3  502    0  0.16575412450E+03 -0.10666314869E+04 -0.45288739334E+03  0.11706008029E+04  0.46999998093E+01 0. -1.
       -5    1    3    3    0  502 -0.16575412450E+03  0.10666314869E+04 -0.95895360444E+03  0.14438806267E+04  0.46999998093E+01 0.  1.
</event>
<event>
 5   0  0.4309945E-06  0.2201265E+04  0.7818609E-02  0.8517902E-01
        1   -1    0    0  501    0  0.00000000000E+00  0.00000000000E+00  0.82816901870E+03  0.82816901871E+03  0.50400001928E-02 0.  1.
       -1   -1    0    0    0  501  0.00000000000E+00  0.00000000000E+00 -0.14627352575E+04  0.14627352575E+04  0.50400001928E-02 0. -1.
    10030    2    1    2    0    0  0.00000000000E+00  0.00000000000E+00 -0.63456623876E+03  0.22909042762E+04  0.22012651115E+04 0.  0.
        4    1    3    3  502    0  0.74923119554E+03 -0.38145762913E+00  0.52180118111E+03  0.91303100461E+03  0.12699999809E+01 0.  1.
       -4    1    3    3    0  502 -0.74923119554E+03  0.38145762913E+00 -0.11563674199E+04  0.13778732716E+04  0.12699999809E+01 0. -1.
</event>
<event>
 5   0  0.1035928E-05  0.2198295E+04  0.7818609E-02  0.8519138E-01
        2   -1    0    0  501    0  0.00000000000E+00  0.00000000000E+00  0.20032562961E+04  0.20032562961E+04  0.25500000920E-02 0. -1.
       -2   -1    0    0    0  501  0.00000000000E+00  0.00000000000E+00 -0.60308085065E+03  0.60308085065E+03  0.25500000920E-02 0.  1.
    10030    2    1    2    0    0  0.00000000000E+00  0.00000000000E+00  0.14001754454E+04  0.26063371467E+04  0.21982952587E+04 0.  0.
        3    1    3    3  502    0 -0.58039151495E+03 -0.48936816367E+03  0.16424783133E+04  0.18094392861E+04  0.10100000352E+00 0. -1.
       -3    1    3    3    0  502  0.58039151495E+03  0.48936816367E+03 -0.24230286790E+03  0.79689786060E+03  0.10100000352E+00 0.  1.
</event>
<event>
 5   0  0.3546750E-06  0.2195431E+04  0.7818609E-02  0.8520332E-01
        4   -1    0    0  501    0  0.00000000000E+00  0.00000000000E+00  0.12699455192E+04  0.12699461542E+04  0.12699999809E+01 0. -1.
       -4   -1    0    0    0  501  0.00000000000E+00  0.00000000000E+00 -0.94884162202E+03  0.94884247195E+03  0.12699999809E+01 0.  1.
    10030    2    1    2    0    0  0.00000000000E+00  0.00000000000E+00  0.32110389719E+03  0.22187886262E+04  0.21954305397E+04 0.  0.
        5    1    3    3  502    0  0.99625630670E+03 -0.33449200438E+03 -0.15991030918E+03  0.10630168986E+04  0.46999998093E+01 0.  1.
       -5    1    3    3    0  502 -0.99625630670E+03  0.33449200438E+03  0.48101420636E+03  0.11557717276E+04  0.46999998093E+01 0. -1.
</event>
<event>
 5   0  0.9963573E-06  0.2205497E+04  0.7818609E-02  0.8516144E-01
        2   -1    0    0  501    0  0.00000000000E+00  0.00000000000E+00  0.84597788843E+03  0.84597788844E+03  0.25500000920E-02 0. -1.
       -2   -1    0    0    0  501  0.00000000000E+00  0.00000000000E+00 -0.14374534794E+04  0.14374534794E+04  0.25500000920E-02 0.  1.
    10030    2    1    2    0    0  0.00000000000E+00  0.00000000000E+00 -0.59147559098E+03  0.22834313678E+04  0.22054966418E+04 0.  0.
        2    1    3    3  502    0  0.54241317086E+03  0.91141541430E+03 -0.60834045024E+03  0.12226889256E+04  0.25500000920E-02 0.  1.
       -2    1    3    3    0  502 -0.54241317086E+03 -0.91141541430E+03  0.16864859264E+02  0.10607424423E+04  0.25500000920E-02 0. -1.
</event>
<event>
 5   0  0.3546750E-06  0.2201771E+04  0.7818609E-02  0.8517691E-01
       -3   -1    0    0    0  501  0.00000000000E+00  0.00000000000E+00  0.29923474757E+04  0.29923474774E+04  0.10100000352E+00 0.  1.
        3   -1    0    0  501    0  0.00000000000E+00  0.00000000000E+00 -0.40501620005E+03  0.40501621264E+03  0.10100000352E+00 0. -1.
    10030    2    1    2    0    0  0.00000000000E+00  0.00000000000E+00  0.25873312757E+04  0.33973636901E+04  0.22017713125E+04 0.  0.
        4    1    3    3  502    0  0.42151925111E+03 -0.43760112528E+02  0.28614422958E+04  0.28926539806E+04  0.12699999809E+01 0.  1.
       -4    1    3    3    0  502 -0.42151925111E+03  0.43760112528E+02 -0.27411102015E+03  0.50470970942E+03  0.12699999809E+01 0. -1.
</event>
<event>
 5   0  0.9963173E-06  0.2197025E+04  0.7818609E-02  0.8519668E-01
       -2   -1    0    0    0  501  0.00000000000E+00  0.00000000000E+00  0.16137869580E+04  0.16137869580E+04  0.25500000920E-02 0. -1.
        2   -1    0    0  501    0  0.00000000000E+00  0.00000000000E+00 -0.74776251247E+03  0.74776251247E+03  0.25500000920E-02 0.  1.
    10030    2    1    2    0    0  0.00000000000E+00  0.00000000000E+00  0.86602444556E+03  0.23615494705E+04  0.21970247066E+04 0.  0.
        4    1    3    3  502    0  0.66352931879E+03 -0.66669985079E+03 -0.17690151324E+03  0.95710793865E+03  0.12699999809E+01 0.  1.
       -4    1    3    3    0  502 -0.66352931879E+03  0.66669985079E+03  0.10429259588E+04  0.14044415318E+04  0.12699999809E+01 0. -1.
</event>
<event>
 5   0  0.1015876E-05  0.2199676E+04  0.7818609E-02  0.8518563E-01
       -2   -1    0    0    0  501  0.00000000000E+00  0.00000000000E+00  0.59089994729E+03  0.59089994730E+03  0.25500000920E-02 0.  1.
        2   -1    0    0  501    0  0.00000000000E+00  0.00000000000E+00 -0.20471210095E+04  0.20471210095E+04  0.25500000920E-02 0. -1.
    10030    2    1    2    0    0  0.00000000000E+00  0.00000000000E+00 -0.14562210622E+04  0.26380209568E+04  0.21996760640E+04 0.  0.
        5    1    3    3  502    0  0.62442135415E+03  0.17494935920E+03 -0.17934522122E+04  0.19070926127E+04  0.46999998093E+01 0. -1.
       -5    1    3    3    0  502 -0.62442135415E+03 -0.17494935920E+03  0.33723114997E+03  0.73092834417E+03  0.46999998093E+01 0.  1.
</event>
<event>
 5   0  0.4309945E-06  0.2189121E+04  0.7818609E-02  0.8522970E-01
        1   -1    0    0  501    0  0.00000000000E+00  0.00000000000E+00  0.13814480309E+04  0.13814480309E+04  0.50400001928E-02 0.  1.
       -1   -1    0    0    0  501  0.00000000000E+00  0.00000000000E+00 -0.86725097385E+03  0.86725097387E+03  0.50400001928E-02 0. -1.
    10030    2    1    2    0    0  0.00000000000E+00  0.00000000000E+00  0.51419705703E+03  0.22486990048E+04  0.21891205085E+04 0.  0.
        4    1    3    3  502    0  0.45297613044E+03 -0.99364092941E+03  0.33363034573E+03  0.11418495925E+04  0.12699999809E+01 0. -1.
       -4    1    3    3    0  502 -0.45297613044E+03  0.99364092941E+03  0.18056671130E+03  0.11068494123E+04  0.12699999809E+01 0.  1.
</event>
<event>
 5   0  0.4630615E-06  0.2198414E+04  0.7818609E-02  0.8519089E-01
       -1   -1    0    0    0  501  0.00000000000E+00  0.00000000000E+00  0.94859008608E+03  0.94859008609E+03  0.50400001928E-02 0. -1.
        1   -1    0    0  501    0  0.00000000000E+00  0.00000000000E+00 -0.12737388753E+04  0.12737388754E+04  0.50400001928E-02 0.  1.
    10030    2    1    2    0    0  0.00000000000E+00  0.00000000000E+00 -0.32514878927E+03  0.22223289614E+04  0.21984140369E+04 0.  0.
        2    1    3    3  502    0 -0.31454279480E+03  0.85597382393E+03  0.45780161340E+03  0.10203973120E+04  0.25500000920E-02 0. -1.
       -2    1    3    3    0  502  0.31454279480E+03 -0.85597382393E+03 -0.78295040266E+03  0.12019316495E+04  0.25500000920E-02 0.  1.
</event>
<event>
 5   0  0.1015876E-05  0.2200188E+04  0.7818609E-02  0.8518350E-01
       -2   -1    0    0    0  501  0.00000000000E+00  0.00000000000E+00  0.68408650602E+03  0.68408650603E+03  0.25500000920E-02 0. -1.
        2   -1    0    0  501    0  0.00000000000E+00  0.00000000000E+00 -0.17690838245E+04  0.17690838245E+04  0.25500000920E-02 0.  1.
    10030    2    1    2    0    0  0.00000000000E+00  0.00000000000E+00 -0.10849973185E+04  0.24531703305E+04  0.22001876032E+04 0.  0.
        5    1    3    3  502    0 -0.71624323561E+03  0.81641022437E+03 -0.34728357359E+03  0.11402447095E+04  0.46999998093E+01 0.  1.
       -5    1    3    3    0  502  0.71624323561E+03 -0.81641022437E+03 -0.73771374488E+03  0.13129256210E+04  0.46999998093E+01 0. -1.
</event>
<event>
 5   0  0.4462201E-06  0.2193420E+04  0.7818609E-02  0.8521172E-01
       -1   -1    0    0    0  501  0.00000000000E+00  0.00000000000E+00  0.99091674813E+03  0.99091674815E+03  0.50400001928E-02 0. -1.
        1   -1    0    0  501    0  0.00000000000E+00  0.00000000000E+00 -0.12137981953E+04  0.12137981953E+04  0.50400001928E-02 0.  1.
    10030    2    1    2    0    0  0.00000000000E+00  0.00000000000E+00 -0.22288144714E+03  0.22047149434E+04  0.21934201244E+04 0.  0.
        3    1    3    3  502    0  0.50815514060E+03  0.79269497552E+03 -0.67664042783E+03  0.11594952565E+04  0.10100000352E+00 0.  1.
       -3    1    3    3    0  502 -0.50815514060E+03 -0.79269497552E+03  0.45375898069E+03  0.10452196869E+04  0.10100000352E+00 0. -1.
</event>
<event>
 5   0  0.1014015E-05  0.2201756E+04  0.7818609E-02  0.8517697E-01
        2   -1    0    0  501    0  0.00000000000E+00  0.00000000000E+00  0.86606359215E+03  0.86606359216E+03  0.25500000920E-02 0. -1.
       -2   -1    0    0    0  501  0.00000000000E+00  0.00000000000E+00 -0.13993576030E+04  0.13993576030E+04  0.25500000920E-02 0.  1.
    10030    2    1    2    0    0  0.00000000000E+00  0.00000000000E+00 -0.53329401080E+03  0.22654211951E+04  0.22017562738E+04 0.  0.
        1    1    3    3  502    0 -0.67179446584E+02  0.19045866703E+03 -0.13801337925E+04  0.13948322003E+04  0.50400001928E-02 0.  1.
       -1    1    3    3    0  502  0.67179446584E+02 -0.19045866703E+03  0.84683978171E+03  0.87058899476E+03  0.50400001928E-02 0. -1.
</event>
<event>
 5   0  0.4408787E-06  0.2155554E+04  0.7818609E-02  0.8537159E-01
       -1   -1    0    0    0  501  0.00000000000E+00  0.00000000000E+00  0.51064914194E+03  0.51064914196E+03  0.50400001928E-02 0. -1.
        1   -1    0    0  501    0  0.00000000000E+00  0.00000000000E+00 -0.22747584545E+04  0.22747584545E+04  0.50400001928E-02 0.  1.
    10030    2    1    2    0    0  0.00000000000E+00  0.00000000000E+00 -0.17641093126E+04  0.27854075965E+04  0.21555541774E+04 0.  0.
        1    1    3    3  502    0  0.34192189068E+03 -0.89684013251E+03 -0.24851977392E+03  0.99146098292E+03  0.50400001928E-02 0. -1.
       -1    1    3    3    0  502 -0.34192189068E+03  0.89684013251E+03 -0.15155895387E+04  0.17939466136E+04  0.50400001928E-02 0.  1.
</event>
<event>
 5   0  0.1014015E-05  0.2193951E+04  0.7818609E-02  0.8520950E-01
       -2   -1    0    0    0  501  0.00000000000E+00  0.00000000000E+00  0.85812084520E+03  0.85812084520E+03  0.25500000920E-02 0.  1.
        2   -1    0    0  501    0  0.00000000000E+00  0.00000000000E+00 -0.14023148282E+04  0.14023148282E+04  0.25500000920E-02 0. -1.
    10030    2    1    2    0    0  0.00000000000E+00  0.00000000000E+00 -0.54419398299E+03  0.22604356734E+04  0.21939513081E+04 0.  0.
        1    1    3    3  502    0  0.25524664520E+03 -0.15402754287E+03  0.81558354338E+03  0.86836158949E+03  0.50400001928E-02 0.  1.
       -1    1    3    3    0  502 -0.25524664520E+03  0.15402754287E+03 -0.13597775264E+04  0.13920740839E+04  0.50400001928E-02 0. -1.
</event>
<event>
 5   0  0.1014015E-05  0.2199404E+04  0.7818609E-02  0.8518676E-01
       -2   -1    0    0    0  501  0.00000000000E+00  0.00000000000E+00  0.15631489057E+04  0.15631489057E+04  0.25500000920E-02 0.  1.
        2   -1    0    0  501    0  0.00000000000E+00  0.00000000000E+00 -0.77365933362E+03  0.77365933362E+03  0.25500000920E-02 0. -1.
    10030    2    1    2    0    0  0.00000000000E+00  0.00000000000E+00  0.78948957208E+03  0.23368082393E+04  0.21994042291E+04 0.  0.
        1    1    3    3  502    0 -0.83101699045E+03 -0.21469232536E+03  0.11252001603E+04  0.14151881267E+04  0.50400001928E-02 0.  1.
       -1    1    3    3    0  502  0.83101699045E+03  0.21469232536E+03 -0.33571058826E+03  0.92162011267E+03  0.50400001928E-02 0. -1.
</event>
<event>
 5   0  0.1015876E-05  0.2179755E+04  0.7818609E-02  0.8526902E-01
        2   -1    0    0  501    0  0.00000000000E+00  0.00000000000E+00  0.12448458688E+04  0.12448458688E+04  0.25500000920E-02 0. -1.
       -2   -1    0    0    0  501  0.00000000000E+00  0.00000000000E+00 -0.95420048431E+03  0.95420048432E+03  0.25500000920E-02 0.  1.
    10030    2    1    2    0    0  0.00000000000E+00  0.00000000000E+00  0.29064538452E+03  0.21990463532E+04  0.21797546017E+04 0.  0.
        5    1    3    3  502    0 -0.57677135998E+03  0.41537061263E+03  0.97883860801E+03  0.12096880003E+04  0.46999998093E+01 0. -1.
       -5    1    3    3    0  502  0.57677135998E+03 -0.41537061263E+03 -0.68819322349E+03  0.98935835286E+03  0.46999998093E+01 0.  1.
</event>
<event>
 5   0  0.1035928E-05  0.2204279E+04  0.7818609E-02  0.8516649E-01
       -2   -1    0    0    0  501  0.00000000000E+00  0.00000000000E+00  0.78059564235E+03  0.78059564235E+03  0.25500000920E-02 0. -1.
        2   -1    0    0  501    0  0.00000000000E+00  0.00000000000E+00 -0.15561337536E+04  0.15561337536E+04  0.25500000920E-02 0.  1.
    10030    2    1    2    0    0  0.00000000000E+00  0.00000000000E+00 -0.77553811123E+03  0.23367293959E+04  0.22042787727E+04 0.  0.
        3    1    3    3  502    0 -0.10972534198E+04 -0.77455788046E+02 -0.31473253141E+03  0.11441245749E+04  0.10100000352E+00 0. -1.
       -3    1    3    3    0  502  0.10972534198E+04  0.77455788046E+02 -0.46080557981E+03  0.11926048210E+04  0.10100000352E+00 0.  1.
</event>
<event>
 5   0  0.4630615E-06  0.2187992E+04  0.7818609E-02  0.8523443E-01
       -1   -1    0    0    0  501  0.00000000000E+00  0.00000000000E+00  0.44629867361E+03  0.44629867364E+03  0.50400001928E-02 0.  1.
        1   -1    0    0  501    0  0.00000000000E+00  0.00000000000E+00 -0.26816737096E+04  0.26816737096E+04  0.50400001928E-02 0. -1.
    10030    2    1    2    0    0  0.00000000000E+00  0.00000000000E+00 -0.22353750360E+04  0.31279723833E+04  0.21879921569E+04 0.  0.
        2    1    3    3  502    0  0.39249172808E+03 -0.93740881189E+03 -0.53866536052E+03  0.11501936393E+04  0.25500000920E-02 0.  1.
       -2    1    3    3    0  502 -0.39249172808E+03  0.93740881189E+03 -0.16967096755E+04  0.19777787440E+04  0.25500000920E-02 0. -1.
</event>
<event>
 5   0  0.4462201E-06  0.2199369E+04  0.7818609E-02  0.8518691E-01
       -1   -1    0    0    0  501  0.00000000000E+00  0.00000000000E+00  0.13597366127E+04  0.13597366127E+04  0.50400001928E-02 0.  1.
        1   -1    0    0  501    0  0.00000000000E+00  0.00000000000E+00 -0.88936815807E+03  0.88936815808E+03  0.50400001928E-02 0. -1.
    10030    2    1    2    0    0  0.00000000000E+00  0.00000000000E+00  0.47036845466E+03  0.22491047708E+04  0.21993694067E+04 0.  0.
        3    1    3    3  502    0 -0.29221657669E+03 -0.10253082876E+04 -0.40464308333E+02  0.10669043926E+04  0.10100000352E+00 0.  1.
       -3    1    3    3    0  502  0.29221657669E+03  0.10253082876E+04  0.51083276299E+03  0.11822003783E+04  0.10100000352E+00 0. -1.
</event>
<event>
 5   0  0.3546750E-06  0.2199219E+04  0.7818609E-02  0.8518753E-01
       -3   -1    0    0    0  501  0.00000000000E+00  0.00000000000E+00  0.76906007132E+03  0.76906007795E+03  0.10100000352E+00 0.  1.
        3   -1    0    0  501    0  0.00000000000E+00  0.00000000000E+00 -0.15722321698E+04  0.15722321731E+04  0.10100000352E+00 0. -1.
    10030    2    1    2    0    0  0.00000000000E+00  0.00000000000E+00 -0.80317209851E+03  0.23412922510E+04  0.21992189488E+04 0.  0.
        3    1    3    3  502    0  0.30493840234E+03 -0.10179382042E+04 -0.10055521971E+03  0.10673785548E+04  0.10100000352E+00 0. -1.
       -3    1    3    3    0  502 -0.30493840234E+03  0.10179382042E+04 -0.70261687880E+03  0.12739136962E+04  0.10100000352E+00 0.  1.
</event>
<event>
 5   0  0.4630615E-06  0.2206976E+04  0.7818609E-02  0.8515530E-01
       -1   -1    0    0    0  501  0.00000000000E+00  0.00000000000E+00  0.10208387848E+04  0.10208387848E+04  0.50400001928E-02 0. -1.
        1   -1    0    0  501    0  0.00000000000E+00  0.00000000000E+00 -0.11928283976E+04  0.11928283976E+04  0.50400001928E-02 0.  1.
    10030    2    1    2    0    0  0.00000000000E+00  0.00000000000E+00 -0.17198961282E+03  0.22136671824E+04  0.22069757515E+04 0.  0.
        2    1    3    3  502    0 -0.78228051660E+03  0.72821609637E+03  0.18947217636E+03  0.10854313407E+04  0.25500000920E-02 0. -1.
       -2    1    3    3    0  502  0.78228051660E+03 -0.72821609637E+03 -0.36146178918E+03  0.11282358418E+04  0.25500000920E-02 0.  1.
</event>
<event>
 5   0  0.4408787E-06  0.2195451E+04  0.7818609E-02  0.8520324E-01
       -1   -1    0    0    0  501  0.00000000000E+00  0.00000000000E+00  0.73256192611E+03  0.73256192613E+03  0.50400001928E-02 0.  1.
        1   -1    0    0  501    0  0.00000000000E+00  0.00000000000E+00 -0.16449141411E+04  0.16449141411E+04  0.50400001928E-02 0. -1.
    10030    2    1    2    0    0  0.00000000000E+00  0.00000000000E+00 -0.91235221501E+03  0.23774760673E+04  0.21954511805E+04 0.  0.
        1    1    3    3  502    0 -0.57563074680E+03 -0.85097447703E+03 -0.87487616672E+03  0.13494134371E+04  0.50400001928E-02 0. -1.
       -1    1    3    3    0  502  0.57563074680E+03  0.85097447703E+03 -0.37476048294E+02  0.10280626301E+04  0.50400001928E-02 0.  1.
</event>
<event>
 5   0  0.9963173E-06  0.2202412E+04  0.7818609E-02  0.8517425E-01
        2   -1    0    0  501    0  0.00000000000E+00  0.00000000000E+00  0.19590010054E+04  0.19590010054E+04  0.25500000920E-02 0.  1.
       -2   -1    0    0    0  501  0.00000000000E+00  0.00000000000E+00 -0.61901687688E+03  0.61901687689E+03  0.25500000920E-02 0. -1.
    10030    2    1    2    0    0  0.00000000000E+00  0.00000000000E+00  0.13399841285E+04  0.25780178823E+04  0.22024120270E+04 0.  0.
        4    1    3    3  502    0  0.12836008048E+03 -0.10750229806E+04  0.43441799791E+03  0.11665638983E+04  0.12699999809E+01 0.  1.
       -4    1    3    3    0  502 -0.12836008048E+03  0.10750229806E+04  0.90556613062E+03  0.14114539840E+04  0.12699999809E+01 0. -1.
</event>
<event>
 5   0  0.4462201E-06  0.2199176E+04  0.7818609E-02  0.8518771E-01
       -1   -1    0    0    0  501  0.00000000000E+00  0.00000000000E+00  0.10524043736E+04  0.10524043736E+04  0.50400001928E-02 0.  1.
        1   -1    0    0  501    0  0.00000000000E+00  0.00000000000E+00 -0.11488870011E+04  0.11488870011E+04  0.50400001928E-02 0. -1.
    10030    2    1    2    0    0  0.00000000000E+00  0.00000000000E+00 -0.96482627542E+02  0.22012913747E+04  0.21991759409E+04 0.  0.
        3    1    3    3  502    0 -0.13817076232E+02 -0.43596719843E+03  0.96210338291E+03  0.10563622671E+04  0.10100000352E+00 0.  1.
       -3    1    3    3    0  502  0.13817076232E+02  0.43596719843E+03 -0.10585860105E+04  0.11449291076E+04  0.10100000352E+00 0. -1.
</event>
<event>
 5   0  0.9963573E-06  0.2199912E+04  0.7818609E-02  0.8518465E-01
        2   -1    0    0  501    0  0.00000000000E+00  0.00000000000E+00  0.10498230320E+04  0.10498230320E+04  0.25500000920E-02 0.  1.
       -2   -1    0    0    0  501  0.00000000000E+00  0.00000000000E+00 -0.11524830361E+04  0.11524830361E+04  0.25500000920E-02 0. -1.
    10030    2    1    2    0    0  0.00000000000E+00  0.00000000000E+00 -0.10266000407E+03  0.22023060681E+04  0.21999120303E+04 0.  0.
        2    1    3    3  502    0  0.86730581367E+02  0.61256221027E+02  0.10446804604E+04  0.10500627518E+04  0.25500000920E-02 0.  1.
       -2    1    3    3    0  502 -0.86730581367E+02 -0.61256221027E+02 -0.11473404645E+04  0.11522433163E+04  0.25500000920E-02 0. -1.
</event>
<event>
 5   0  0.4794967E-06  0.2168403E+04  0.7818609E-02  0.8531696E-01
        1   -1    0    0  501    0  0.00000000000E+00  0.00000000000E+00  0.16984823024E+04  0.16984823024E+04  0.50400001928E-02 0.  1.
       -1   -1    0    0    0  501  0.00000000000E+00  0.00000000000E+00 -0.69208408361E+03  0.69208408363E+03  0.50400001928E-02 0. -1.
    10030    2    1    2    0    0  0.00000000000E+00  0.00000000000E+00  0.10063982188E+04  0.23905663861E+04  0.21684027005E+04 0.  0.
        5    1    3    3  502    0 -0.36536276947E+03 -0.95427377051E+03  0.10365674118E+03  0.10270809084E+04  0.46999998093E+01 0. -1.
       -5    1    3    3    0  502  0.36536276947E+03  0.95427377051E+03  0.90274147763E+03  0.13634854777E+04  0.46999998093E+01 0.  1.
</event>
<event>
 5   0  0.9963173E-06  0.2197684E+04  0.7818609E-02  0.8519393E-01
       -2   -1    0    0    0  501  0.00000000000E+00  0.00000000000E+00  0.56018743329E+03  0.56018743330E+03  0.25500000920E-02 0.  1.
        2   -1    0    0  501    0  0.00000000000E+00  0.00000000000E+00 -0.21554452443E+04  0.21554452443E+04  0.25500000920E-02 0. -1.
    10030    2    1    2    0    0  0.00000000000E+00  0.00000000000E+00 -0.15952578110E+04  0.27156326776E+04  0.21976836342E+04 0.  0.
        4    1    3    3  502    0  0.61849857247E+03  0.68354338699E+03 -0.58614360498E+02  0.92369329444E+03  0.12699999809E+01 0.  1.
       -4    1    3    3    0  502 -0.61849857247E+03 -0.68354338699E+03 -0.15366434505E+04  0.17919393832E+04  0.12699999809E+01 0. -1.
</event>
<event>
 5   0  0.1014015E-05  0.2201208E+04  0.7818609E-02  0.8517925E-01
       -2   -1    0    0    0  501  0.00000000000E+00  0.00000000000E+00  0.88998878365E+03  0.88998878366E+03  0.25500000920E-02 0.  1.
        2   -1    0    0  501    0  0.00000000000E+00  0.00000000000E+00 -0.13610616471E+04  0.13610616471E+04  0.25500000920E-02 0. -1.
    10030    2    1    2    0    0  0.00000000000E+00  0.00000000000E+00 -0.47107286349E+03  0.22510504308E+04  0.22012083952E+04 0.  0.
        1    1    3    3  502    0  0.67525123314E+03  0.86473584843E+03 -0.14640040825E+03  0.11068718964E+04  0.50400001928E-02 0. -1.
       -1    1    3    3    0  502 -0.67525123314E+03 -0.86473584843E+03 -0.32467245524E+03  0.11441785344E+04  0.50400001928E-02 0.  1.
</event>
<event>
 5   0  0.1014015E-05  0.2201035E+04  0.7818609E-02  0.8517997E-01
       -2   -1    0    0    0  501  0.00000000000E+00  0.00000000000E+00  0.17556911151E+04  0.17556911151E+04  0.25500000920E-02 0. -1.
        2   -1    0    0  501    0  0.00000000000E+00  0.00000000000E+00 -0.68983589695E+03  0.68983589695E+03  0.25500000920E-02 0.  1.
    10030    2    1    2    0    0  0.00000000000E+00  0.00000000000E+00  0.10658552181E+04  0.24455270120E+04  0.22010349885E+04 0.  0.
        1    1    3    3  502    0  0.83486421247E+03 -0.11117203871E+03  0.13199783738E+04  0.15657906574E+04  0.50400001928E-02 0. -1.
       -1    1    3    3    0  502 -0.83486421247E+03  0.11117203871E+03 -0.25412315565E+03  0.87973635466E+03  0.50400001928E-02 0.  1.
</event>
<event>
 5   0  0.4309945E-06  0.2198579E+04  0.7818609E-02  0.8519020E-01
       -1   -1    0    0    0  501  0.00000000000E+00  0.00000000000E+00  0.10895359160E+04  0.10895359160E+04  0.50400001928E-02 0.  1.
        1   -1    0    0  501    0  0.00000000000E+00  0.00000000000E+00 -0.11091301967E+04  0.11091301968E+04  0.50400001928E-02 0. -1.
    10030    2    1    2    0    0  0.00000000000E+00  0.00000000000E+00 -0.19594280719E+02  0.21986661128E+04  0.21985788000E+04 0.  0.
        4    1    3    3  502    0  0.49112115548E+03  0.81019393389E+03  0.54773856264E+03  0.10943643570E+04  0.12699999809E+01 0.  1.
       -4    1    3    3    0  502 -0.49112115548E+03 -0.81019393389E+03 -0.56733284336E+03  0.11043017558E+04  0.12699999809E+01 0. -1.
</event>
<event>
 5   0  0.9963173E-06  0.2196451E+04  0.7818609E-02  0.8519907E-01
        2   -1    0    0  501    0  0.00000000000E+00  0.00000000000E+00  0.66017623670E+03  0.66017623671E+03  0.25500000920E-02 0. -1.
       -2   -1    0    0    0  501  0.00000000000E+00  0.00000000000E+00 -0.18269346046E+04  0.18269346046E+04  0.25500000920E-02 0.  1.
    10030    2    1    2    0    0  0.00000000000E+00  0.00000000000E+00 -0.11667583679E+04  0.24871108413E+04  0.21964506022E+04 0.  0.
        4    1    3    3  502    0  0.66763402272E+03  0.17980672584E+03 -0.15495386224E+04  0.16968020516E+04  0.12699999809E+01 0. -1.
       -4    1    3    3    0  502 -0.66763402272E+03 -0.17980672584E+03  0.38278025453E+03  0.79030878973E+03  0.12699999809E+01 0.  1.
</event>
<event>
 5   0  0.9963173E-06  0.2208193E+04  0.7818609E-02  0.8515026E-01
        2   -1    0    0  501    0  0.00000000000E+00  0.00000000000E+00  0.15978575133E+04  0.15978575133E+04  0.25500000920E-02 0. -1.
       -2   -1    0    0    0  501  0.00000000000E+00  0.00000000000E+00 -0.76291496802E+03  0.76291496802E+03  0.25500000920E-02 0.  1.
    10030    2    1    2    0    0  0.00000000000E+00  0.00000000000E+00  0.83494254524E+03  0.23607724813E+04  0.22081933010E+04 0.  0.
        4    1    3    3  502    0 -0.46537607188E+03  0.47722132737E+02  0.14866619279E+04  0.15585305871E+04  0.12699999809E+01 0. -1.
       -4    1    3    3    0  502  0.46537607188E+03 -0.47722132737E+02 -0.65171938262E+03  0.80224189420E+03  0.12699999809E+01 0.  1.
</event>
<event>
 5   0  0.4630615E-06  0.2207294E+04  0.7818609E-02  0.8515398E-01
        1   -1    0    0  501    0  0.00000000000E+00  0.00000000000E+00  0.11430777607E+04  0.11430777608E+04  0.50400001928E-02 0.  1.
       -1   -1    0    0    0  501  0.00000000000E+00  0.00000000000E+00 -0.10655761264E+04  0.10655761264E+04  0.50400001928E-02 0. -1.
    10030    2    1    2    0    0  0.00000000000E+00  0.00000000000E+00  0.77501634354E+02  0.22086538872E+04  0.22072937027E+04 0.  0.
        2    1    3    3  502    0 -0.47226406715E+03  0.88630430415E+03 -0.41920763165E+03  0.10882571879E+04  0.25500000920E-02 0. -1.
       -2    1    3    3    0  502  0.47226406715E+03 -0.88630430415E+03  0.49670926601E+03  0.11203966992E+04  0.25500000920E-02 0.  1.
</event>
<event>
 5   0  0.9963173E-06  0.2157361E+04  0.7818609E-02  0.8536388E-01
       -2   -1    0    0    0  501  0.00000000000E+00  0.00000000000E+00  0.10738945952E+04  0.10738945952E+04  0.25500000920E-02 0.  1.
        2   -1    0    0  501    0  0.00000000000E+00  0.00000000000E+00 -0.10834876958E+04  0.10834876958E+04  0.25500000920E-02 0. -1.
    10030    2    1    2    0    0  0.00000000000E+00  0.00000000000E+00 -0.95931005889E+01  0.21573822911E+04  0.21573609624E+04 0.  0.
        4    1    3    3  502    0 -0.89367015140E+03  0.13669828523E+03 -0.59320461679E+03  0.10813075839E+04  0.12699999809E+01 0. -1.
       -4    1    3    3    0  502  0.89367015140E+03 -0.13669828523E+03  0.58361151620E+03  0.10760747072E+04  0.12699999809E+01 0.  1.
</event>
<event>
 5   0  0.4462201E-06  0.2199881E+04  0.7818609E-02  0.8518478E-01
       -1   -1    0    0    0  501  0.00000000000E+00  0.00000000000E+00  0.64811594510E+03  0.64811594512E+03  0.50400001928E-02 0. -1.
        1   -1    0    0  501    0  0.00000000000E+00  0.00000000000E+00 -0.18667472740E+04  0.18667472740E+04  0.50400001928E-02 0.  1.
    10030    2    1    2    0    0  0.00000000000E+00  0.00000000000E+00 -0.12186313289E+04  0.25148632191E+04  0.21998806093E+04 0.  0.
        3    1    3    3  502    0  0.13808406372E+03  0.33406147536E+03  0.57827591143E+03  0.68195844296E+03  0.10100000352E+00 0. -1.
       -3    1    3    3    0  502 -0.13808406372E+03 -0.33406147536E+03 -0.17969072403E+04  0.18329047762E+04  0.10100000352E+00 0.  1.
</event>
<event>
 5   0  0.4794967E-06  0.2200909E+04  0.7818609E-02  0.8518050E-01
        1   -1    0    0  501    0  0.00000000000E+00  0.00000000000E+00  0.11462745060E+04  0.11462745061E+04  0.50400001928E-02 0.  1.
       -1   -1    0    0    0  501  0.00000000000E+00  0.00000000000E+00 -0.10564660704E+04  0.10564660704E+04  0.50400001928E-02 0. -1.
    10030    2    1    2    0    0  0.00000000000E+00  0.00000000000E+00  0.89808435663E+02  0.22027405764E+04  0.22009090149E+04 0.  0.
        5    1    3    3  502    0 -0.16523545899E+02  0.82273533158E+02 -0.10532490947E+04  0.10565972304E+04  0.46999998093E+01 0. -1.
       -5    1    3    3    0  502  0.16523545899E+02 -0.82273533158E+02  0.11430575304E+04  0.11461433460E+04  0.46999998093E+01 0.  1.
</event>
<event>
 5   0  0.4794967E-06  0.2196885E+04  0.7818609E-02  0.8519726E-01
       -1   -1    0    0    0  501  0.00000000000E+00  0.00000000000E+00  0.16961023174E+04  0.16961023174E+04  0.50400001928E-02 0. -1.
        1   -1    0    0  501    0  0.00000000000E+00  0.00000000000E+00 -0.71138178668E+03  0.71138178670E+03  0.50400001928E-02 0.  1.
    10030    2    1    2    0    0  0.00000000000E+00  0.00000000000E+00  0.98472053074E+03  0.24074841041E+04  0.21968853379E+04 0.  0.
        5    1    3    3  502    0  0.92460870857E+03 -0.58754818055E+03  0.58030333498E+03  0.12397129422E+04  0.46999998093E+01 0. -1.
       -5    1    3    3    0  502 -0.92460870857E+03  0.58754818055E+03  0.40441719576E+03  0.11677711619E+04  0.46999998093E+01 0.  1.
</event>
<event>
 5   0  0.4630615E-06  0.2201729E+04  0.7818609E-02  0.8517709E-01
       -1   -1    0    0    0  501  0.00000000000E+00  0.00000000000E+00  0.95719833563E+03  0.95719833565E+03  0.50400001928E-02 0. -1.
        1   -1    0    0  501    0  0.00000000000E+00  0.00000000000E+00 -0.12660938493E+04  0.12660938493E+04  0.50400001928E-02 0.  1.
    10030    2    1    2    0    0  0.00000000000E+00  0.00000000000E+00 -0.30889551363E+03  0.22232921849E+04  0.22017292525E+04 0.  0.
        2    1    3    3  502    0 -0.93166709844E+03  0.37444442979E+03 -0.61018890480E+03  0.11749649837E+04  0.25500000920E-02 0.  1.
       -2    1    3    3    0  502  0.93166709844E+03 -0.37444442979E+03  0.30129339117E+03  0.10483272012E+04  0.25500000920E-02 0. -1.
</event>
<event>
 5   0  0.1035928E-05  0.2138665E+04  0.7818609E-02  0.8544400E-01
        2   -1    0    0  501    0  0.00000000000E+00  0.00000000000E+00  0.18086544250E+04  0.18086544250E+04  0.25500000920E-02 0.  1.
       -2   -1    0    0    0  501  0.00000000000E+00  0.00000000000E+00 -0.63222267963E+03  0.63222267963E+03  0.25500000920E-02 0. -1.
    10030    2    1    2    0    0  0.00000000000E+00  0.00000000000E+00  0.11764317454E+04  0.24408771046E+04  0.21386653288E+04 0.  0.
        3    1    3    3  502    0 -0.65882689975E+02 -0.95825539433E+03  0.11246046910E+04  0.14789623561E+04  0.10100000352E+00 0.  1.
       -3    1    3    3    0  502  0.65882689975E+02  0.95825539433E+03  0.51827054334E+02  0.96191474849E+03  0.10100000352E+00 0. -1.
</event>
<event>
 5   0  0.1015876E-05  0.2193726E+04  0.7818609E-02  0.8521044E-01
        2   -1    0    0  501    0  0.00000000000E+00  0.00000000000E+00  0.12680926082E+04  0.12680926082E+04  0.25500000920E-02 0.  1.
       -2   -1    0    0    0  501  0.00000000000E+00  0.00000000000E+00 -0.94875481012E+03  0.94875481013E+03  0.25500000920E-02 0. -1.
    10030    2    1    2    0    0  0.00000000000E+00  0.00000000000E+00  0.31933779806E+03  0.22168474183E+04  0.21937264749E+04 0.  0.
        5    1    3    3  502    0 -0.45223130667E+03  0.55858709243E+03  0.99698748776E+03  0.12290398022E+04  0.46999998093E+01 0.  1.
       -5    1    3    3    0  502  0.45223130667E+03 -0.55858709243E+03 -0.67764968970E+03  0.98780761614E+03  0.46999998093E+01 0. -1.
</event>
<event>
 5   0  0.9963573E-06  0.2199469E+04  0.7818609E-02  0.8518649E-01
        2   -1    0    0  501    0  0.00000000000E+00  0.00000000000E+00  0.22708416256E+04  0.22708416256E+04  0.25500000920E-02 0.  1.
       -2   -1    0    0    0  501  0.00000000000E+00  0.00000000000E+00 -0.53258494334E+03  0.53258494334E+03  0.25500000920E-02 0. -1.
    10030    2    1    2    0    0  0.00000000000E+00  0.00000000000E+00  0.17382566822E+04  0.28034265689E+04  0.21994690800E+04 0.  0.
        2    1    3    3  502    0  0.77806359430E+03 -0.49833166936E+03  0.16293013264E+04  0.18730563851E+04  0.25500000920E-02 0.  1.
       -2    1    3    3    0  502 -0.77806359430E+03  0.49833166936E+03  0.10895535587E+03  0.93037018387E+03  0.25500000920E-02 0. -1.
</event>
<event>
 5   0  0.4309945E-06  0.2202834E+04  0.7818609E-02  0.8517250E-01
        1   -1    0    0  501    0  0.00000000000E+00  0.00000000000E+00  0.77181267067E+03  0.77181267069E+03  0.50400001928E-02 0. -1.
       -1   -1    0    0    0  501  0.00000000000E+00  0.00000000000E+00 -0.15717793460E+04  0.15717793460E+04  0.50400001928E-02 0.  1.
    10030    2    1    2    0    0  0.00000000000E+00  0.00000000000E+00 -0.79996667533E+03  0.23435920167E+04  0.22028338247E+04 0.  0.
        4    1    3    3  502    0  0.52360398773E+03 -0.87585559101E+03  0.41032440891E+02  0.10212587460E+04  0.12699999809E+01 0. -1.
       -4    1    3    3    0  502 -0.52360398773E+03  0.87585559101E+03 -0.84099911622E+03  0.13223332706E+04  0.12699999809E+01 0.  1.
</event>
<event>
 5   0  0.1014015E-05  0.2177155E+04  0.7818609E-02  0.8527997E-01
       -2   -1    0    0    0  501  0.00000000000E+00  0.00000000000E+00  0.61884513868E+03  0.61884513868E+03  0.25500000920E-02 0. -1.
        2   -1    0    0  501    0  0.00000000000E+00  0.00000000000E+00 -0.19148578992E+04  0.19148578992E+04  0.25500000920E-02 0.  1.
    10030    2    1    2    0    0  0.00000000000E+00  0.00000000000E+00 -0.12960127605E+04  0.25337030379E+04  0.21771545670E+04 0.  0.
        1    1    3    3  502    0  0.91052970425E+03  0.41813614019E+03 -0.15275730905E+03  0.10135269950E+04  0.50400001928E-02 0. -1.
       -1    1    3    3    0  502 -0.91052970425E+03 -0.41813614019E+03 -0.11432554515E+04  0.15201760429E+04  0.50400001928E-02 0.  1.
</event>
<event>
 5   0  0.3546750E-06  0.2206132E+04  0.7818609E-02  0.8515880E-01
       -3   -1    0    0    0  501  0.00000000000E+00  0.00000000000E+00  0.27747353857E+04  0.27747353875E+04  0.10100000352E+00 0. -1.
        3   -1    0    0  501    0  0.00000000000E+00  0.00000000000E+00 -0.43851188793E+03  0.43851189956E+03  0.10100000352E+00 0.  1.
    10030    2    1    2    0    0  0.00000000000E+00  0.00000000000E+00  0.23362234977E+04  0.32132472871E+04  0.22061318856E+04 0.  0.
        5    1    3    3  502    0  0.15056531932E+03 -0.33188388989E+02  0.27589491795E+04  0.27632578688E+04  0.46999998093E+01 0. -1.
       -5    1    3    3    0  502 -0.15056531932E+03  0.33188388989E+02 -0.42272568174E+03  0.44998941826E+03  0.46999998093E+01 0.  1.
</event>
<event>
 5   0  0.4630615E-06  0.2213306E+04  0.7818609E-02  0.8512910E-01
        1   -1    0    0  501    0  0.00000000000E+00  0.00000000000E+00  0.73496259529E+03  0.73496259531E+03  0.50400001928E-02 0.  1.
       -1   -1    0    0    0  501  0.00000000000E+00  0.00000000000E+00 -0.16663174211E+04  0.16663174212E+04  0.50400001928E-02 0. -1.
    10030    2    1    2    0    0  0.00000000000E+00  0.00000000000E+00 -0.93135482586E+03  0.24012800165E+04  0.22133061031E+04 0.  0.
        2    1    3    3  502    0 -0.62240913438E+03  0.71564349502E+03 -0.10843174422E+04  0.14405842766E+04  0.25500000920E-02 0. -1.
       -2    1    3    3    0  502  0.62240913438E+03 -0.71564349502E+03  0.15296261637E+03  0.96069573984E+03  0.25500000920E-02 0.  1.
</event>
<event>
 5   0  0.4408787E-06  0.2200340E+04  0.7818609E-02  0.8518286E-01
        1   -1    0    0  501    0  0.00000000000E+00  0.00000000000E+00  0.12356572354E+04  0.12356572354E+04  0.50400001928E-02 0.  1.
       -1   -1    0    0    0  501  0.00000000000E+00  0.00000000000E+00 -0.97953890339E+03  0.97953890341E+03  0.50400001928E-02 0. -1.
    10030    2    1    2    0    0  0.00000000000E+00  0.00000000000E+00  0.25611833204E+03  0.22151961388E+04  0.22003402768E+04 0.  0.
        1    1    3    3  502    0 -0.67560566594E+03  0.60200952618E+03  0.75799601015E+03  0.11804306150E+04  0.50400001928E-02 0.  1.
       -1    1    3    3    0  502  0.67560566594E+03 -0.60200952618E+03 -0.50187767811E+03  0.10347655238E+04  0.50400001928E-02 0. -1.
</event>
<event>
 5   0  0.4462201E-06  0.2205611E+04  0.7818609E-02  0.8516096E-01
       -1   -1    0    0    0  501  0.00000000000E+00  0.00000000000E+00  0.84137688799E+03  0.84137688801E+03  0.50400001928E-02 0.  1.
        1   -1    0    0  501    0  0.00000000000E+00  0.00000000000E+00 -0.14454641617E+04  0.14454641617E+04  0.50400001928E-02 0. -1.
    10030    2    1    2    0    0  0.00000000000E+00  0.00000000000E+00 -0.60408727368E+03  0.22868410497E+04  0.22056111517E+04 0.  0.
        3    1    3    3  502    0  0.33264430757E+03  0.80364856221E+03 -0.10050080848E+04  0.13291141816E+04  0.10100000352E+00 0. -1.
       -3    1    3    3    0  502 -0.33264430757E+03 -0.80364856221E+03  0.40092081114E+03  0.95772686812E+03  0.10100000352E+00 0.  1.
</event>
<event>
 5   0  0.4630615E-06  0.2197772E+04  0.7818609E-02  0.8519356E-01
        1   -1    0    0  501    0  0.00000000000E+00  0.00000000000E+00  0.70582906885E+03  0.70582906887E+03  0.50400001928E-02 0. -1.
       -1   -1    0    0    0  501  0.00000000000E+00  0.00000000000E+00 -0.17108253516E+04  0.17108253516E+04  0.50400001928E-02 0.  1.
    10030    2    1    2    0    0  0.00000000000E+00  0.00000000000E+00 -0.10049962828E+04  0.24166544205E+04  0.21977718398E+04 0.  0.
        2    1    3    3  502    0 -0.65794784850E+03 -0.75762797266E+03 -0.99409460444E+01  0.10034910756E+04  0.25500000920E-02 0. -1.
       -2    1    3    3    0  502  0.65794784850E+03  0.75762797266E+03 -0.99505533672E+03  0.14131633449E+04  0.25500000920E-02 0.  1.
</event>
<event>
 5   0  0.4462201E-06  0.2199499E+04  0.7818609E-02  0.8518637E-01
        1   -1    0    0  501    0  0.00000000000E+00  0.00000000000E+00  0.12772884398E+04  0.12772884398E+04  0.50400001928E-02 0.  1.
       -1   -1    0    0    0  501  0.00000000000E+00  0.00000000000E+00 -0.94688814141E+03  0.94688814142E+03  0.50400001928E-02 0. -1.
    10030    2    1    2    0    0  0.00000000000E+00  0.00000000000E+00  0.33040029835E+03  0.22241765812E+04  0.21994992856E+04 0.  0.
        3    1    3    3  502    0 -0.64932408297E+02  0.10847299980E+04  0.33619458834E+03  0.11374894274E+04  0.10100000352E+00 0.  1.
       -3    1    3    3    0  502  0.64932408297E+02 -0.10847299980E+04 -0.57942899932E+01  0.10866871537E+04  0.10100000352E+00 0. -1.
</event>
<event>
 5   0  0.4309945E-06  0.2198511E+04  0.7818609E-02  0.8519048E-01
        1   -1    0    0  501    0  0.00000000000E+00  0.00000000000E+00  0.21608976768E+04  0.21608976768E+04  0.50400001928E-02 0. -1.
       -1   -1    0    0    0  501  0.00000000000E+00  0.00000000000E+00 -0.55919452591E+03  0.55919452593E+03  0.50400001928E-02 0.  1.
    10030    2    1    2    0    0  0.00000000000E+00  0.00000000000E+00  0.16017031509E+04  0.27200922027E+04  0.21985105430E+04 0.  0.
        4    1    3    3  502    0  0.75558345667E+02  0.66036267537E+03 -0.28240596901E+03  0.72217911273E+03  0.12699999809E+01 0.  1.
       -4    1    3    3    0  502 -0.75558345667E+02 -0.66036267537E+03  0.18841091199E+04  0.19979130900E+04  0.12699999809E+01 0. -1.
</event>
<event>
 5   0  0.4630615E-06  0.2198648E+04  0.7818609E-02  0.8518991E-01
       -1   -1    0    0    0  501  0.00000000000E+00  0.00000000000E+00  0.69768594959E+03  0.69768594961E+03  0.50400001928E-02 0. -1.
        1   -1    0    0  501    0  0.00000000000E+00  0.00000000000E+00 -0.17321735542E+04  0.17321735542E+04  0.50400001928E-02 0.  1.
    10030    2    1    2    0    0  0.00000000000E+00  0.00000000000E+00 -0.10344876046E+04  0.24298595038E+04  0.21986479036E+04 0.  0.
        2    1    3    3  502    0  0.76583169500E+03  0.11922774135E+03  0.34435626046E+03  0.84811241796E+03  0.25500000920E-02 0. -1.
       -2    1    3    3    0  502 -0.76583169500E+03 -0.11922774135E+03 -0.13788438651E+04  0.15817470859E+04  0.25500000920E-02 0.  1.
</event>
<event>
 5   0  0.9963573E-06  0.2196564E+04  0.7818609E-02  0.8519859E-01
        2   -1    0    0  501    0  0.00000000000E+00  0.00000000000E+00  0.21669237191E+04  0.21669237191E+04  0.25500000920E-02 0. -1.
       -2   -1    0    0    0  501  0.00000000000E+00  0.00000000000E+00 -0.55665267007E+03  0.55665267008E+03  0.25500000920E-02 0.  1.
    10030    2    1    2    0    0  0.00000000000E+00  0.00000000000E+00  0.16102710491E+04  0.27235763892E+04  0.21965644758E+04 0.  0.
        2    1    3    3  502    0  0.49860128936E+03 -0.27662155175E+03  0.19690162816E+04  0.20499141070E+04  0.25500000920E-02 0. -1.
       -2    1    3    3    0  502 -0.49860128936E+03  0.27662155175E+03 -0.35874523255E+03  0.67366228225E+03  0.25500000920E-02 0.  1.
</event>
<event>
 5   0  0.4630615E-06  0.2189978E+04  0.7818609E-02  0.8522611E-01
        1   -1    0    0  501    0  0.00000000000E+00  0.00000000000E+00  0.11438899881E+04  0.11438899881E+04  0.50400001928E-02 0.  1.
       -1   -1    0    0    0  501  0.00000000000E+00  0.00000000000E+00 -0.10481785064E+04  0.10481785064E+04  0.50400001928E-02 0. -1.
    10030    2    1    2    0    0  0.00000000000E+00  0.00000000000E+00  0.95711481681E+02  0.21920684946E+04  0.21899779901E+04 0.  0.
        2    1    3    3  502    0  0.86947720321E+03  0.61869490966E+03  0.29350170264E+03  0.11067597967E+04  0.25500000920E-02 0.  1.
       -2    1    3    3    0  502 -0.86947720321E+03 -0.61869490966E+03 -0.19779022096E+03  0.10853086979E+04  0.25500000920E-02 0. -1.
</event>
<event>
 5   0  0.4794967E-06  0.2199748E+04  0.7818609E-02  0.8518533E-01
       -1   -1    0    0    0  501  0.00000000000E+00  0.00000000000E+00  0.12233699590E+04  0.12233699590E+04  0.50400001928E-02 0.  1.
        1   -1    0    0  501    0  0.00000000000E+00  0.00000000000E+00 -0.98884464605E+03  0.98884464606E+03  0.50400001928E-02 0. -1.
    10030    2    1    2    0    0  0.00000000000E+00  0.00000000000E+00  0.23452531292E+03  0.22122146050E+04  0.21997480166E+04 0.  0.
        5    1    3    3  502    0  0.36559800010E+03  0.38340392478E+03  0.10865925173E+04  0.12088696604E+04  0.46999998093E+01 0.  1.
       -5    1    3    3    0  502 -0.36559800010E+03 -0.38340392478E+03 -0.85206720436E+03  0.10033449447E+04  0.46999998093E+01 0. -1.
</event>
<event>
 5   0  0.3546750E-06  0.2199727E+04  0.7818609E-02  0.8518542E-01
       -3   -1    0    0    0  501  0.00000000000E+00  0.00000000000E+00  0.11275405873E+04  0.11275405918E+04  0.10100000352E+00 0.  1.
        3   -1    0    0  501    0  0.00000000000E+00  0.00000000000E+00 -0.10728655862E+04  0.10728655909E+04  0.10100000352E+00 0. -1.
    10030    2    1    2    0    0  0.00000000000E+00  0.00000000000E+00  0.54675001115E+02  0.22004061828E+04  0.21997268043E+04 0.  0.
        1    1    3    3  502    0  0.96157914015E+03 -0.32175569956E+03  0.45354224326E+03  0.11107932928E+04  0.50400001928E-02 0.  1.
       -1    1    3    3    0  502 -0.96157914015E+03  0.32175569956E+03 -0.39886724215E+03  0.10896128899E+04  0.50400001928E-02 0. -1.
</event>
<event>
 5   0  0.1035928E-05  0.2200318E+04  0.7818609E-02  0.8518296E-01
       -2   -1    0    0    0  501  0.00000000000E+00  0.00000000000E+00  0.73355864005E+03  0.73355864005E+03  0.25500000920E-02 0. -1.
        2   -1    0    0  501    0  0.00000000000E+00  0.00000000000E+00 -0.16499702944E+04  0.16499702944E+04  0.25500000920E-02 0.  1.
    10030    2    1    2    0    0  0.00000000000E+00  0.00000000000E+00 -0.91641165438E+03  0.23835289345E+04  0.22003181273E+04 0.  0.
        3    1    3    3  502    0 -0.58342058852E+03 -0.73767491511E+03  0.16011596300E+03  0.95403406402E+03  0.10100000352E+00 0. -1.
       -3    1    3    3    0  502  0.58342058852E+03  0.73767491511E+03 -0.10765276174E+04  0.14294948705E+04  0.10100000352E+00 0.  1.
</event>
<event>
 5   0  0.1035928E-05  0.2200897E+04  0.7818609E-02  0.8518055E-01
       -2   -1    0    0    0  501  0.00000000000E+00  0.00000000000E+00  0.69152152223E+03  0.69152152223E+03  0.25500000920E-02 0. -1.
        2   -1    0    0  501    0  0.00000000000E+00  0.00000000000E+00 -0.17511913016E+04  0.17511913016E+04  0.25500000920E-02 0.  1.
    10030    2    1    2    0    0  0.00000000000E+00  0.00000000000E+00 -0.10596697794E+04  0.24427128239E+04  0.22008966124E+04 0.  0.
        3    1    3    3  502    0 -0.47875613382E+03  0.32128406774E+03 -0.15701319957E+04  0.16726462214E+04  0.10100000352E+00 0.  1.
       -3    1    3    3    0  502  0.47875613382E+03 -0.32128406774E+03  0.51046221625E+03  0.77006660250E+03  0.10100000352E+00 0. -1.
</event>
<event>
 5   0  0.9963173E-06  0.2199162E+04  0.7818609E-02  0.8518777E-01
        2   -1    0    0  501    0  0.00000000000E+00  0.00000000000E+00  0.11579663297E+04  0.11579663297E+04  0.25500000920E-02 0. -1.
       -2   -1    0    0    0  501  0.00000000000E+00  0.00000000000E+00 -0.10441391897E+04  0.10441391897E+04  0.25500000920E-02 0.  1.
    10030    2    1    2    0    0  0.00000000000E+00  0.00000000000E+00  0.11382714000E+03  0.22021055194E+04  0.21991616813E+04 0.  0.
        4    1    3    3  502    0  0.34753949625E+03 -0.79500932548E+03  0.73328269824E+03  0.11360143738E+04  0.12699999809E+01 0. -1.
       -4    1    3    3    0  502 -0.34753949625E+03  0.79500932548E+03 -0.61945555825E+03  0.10660911455E+04  0.12699999809E+01 0.  1.
</event>
<event>
 5   0  0.1035928E-05  0.2202215E+04  0.7818609E-02  0.8517507E-01
       -2   -1    0    0    0  501  0.00000000000E+00  0.00000000000E+00  0.11380575340E+04  0.11380575340E+04  0.25500000920E-02 0.  1.
        2   -1    0    0  501    0  0.00000000000E+00  0.00000000000E+00 -0.10653573266E+04  0.10653573266E+04  0.25500000920E-02 0. -1.
    10030    2    1    2    0    0  0.00000000000E+00  0.00000000000E+00  0.72700207373E+02  0.22034148607E+04  0.22022151866E+04 0.  0.
        3    1    3    3  502    0 -0.16940765563E+03  0.52798087956E+02 -0.10509577393E+04  0.10658324314E+04  0.10100000352E+00 0. -1.
       -3    1    3    3    0  502  0.16940765563E+03 -0.52798087956E+02  0.11236579467E+04  0.11375824292E+04  0.10100000352E+00 0.  1.
</event>
<event>
 5   0  0.1014015E-05  0.2201753E+04  0.7818609E-02  0.8517699E-01
        2   -1    0    0  501    0  0.00000000000E+00  0.00000000000E+00  0.19777371527E+04  0.19777371527E+04  0.25500000920E-02 0.  1.
       -2   -1    0    0    0  501  0.00000000000E+00  0.00000000000E+00 -0.61278565740E+03  0.61278565740E+03  0.25500000920E-02 0. -1.
    10030    2    1    2    0    0  0.00000000000E+00  0.00000000000E+00  0.13649514953E+04  0.25905228101E+04  0.22017529028E+04 0.  0.
        1    1    3    3  502    0 -0.59501826382E+03  0.34418779325E+03 -0.32925175459E+03  0.76218022096E+03  0.50400001928E-02 0. -1.
       -1    1    3    3    0  502  0.59501826382E+03 -0.34418779325E+03  0.16942032499E+04  0.18283425891E+04  0.50400001928E-02 0.  1.
</event>
<event>
 5   0  0.1035928E-05  0.2200648E+04  0.7818609E-02  0.8518158E-01
        2   -1    0    0  501    0  0.00000000000E+00  0.00000000000E+00  0.92248995577E+03  0.92248995577E+03  0.25500000920E-02 0.  1.
       -2   -1    0    0    0  501  0.00000000000E+00  0.00000000000E+00 -0.13124406331E+04  0.13124406331E+04  0.25500000920E-02 0. -1.
    10030    2    1    2    0    0  0.00000000000E+00  0.00000000000E+00 -0.38995067734E+03  0.22349305889E+04  0.22006483604E+04 0.  0.
        3    1    3    3  502    0 -0.10306196743E+04 -0.27035859656E+03  0.83971685478E+02  0.10687946191E+04  0.10100000352E+00 0.  1.
       -3    1    3    3    0  502  0.10306196743E+04  0.27035859656E+03 -0.47392236282E+03  0.11661359697E+04  0.10100000352E+00 0. -1.
</event>
<event>
 5   0  0.1015876E-05  0.2191584E+04  0.7818609E-02  0.8521939E-01
        2   -1    0    0  501    0  0.00000000000E+00  0.00000000000E+00  0.18489389634E+04  0.18489389634E+04  0.25500000920E-02 0. -1.
       -2   -1    0    0    0  501  0.00000000000E+00  0.00000000000E+00 -0.64943192520E+03  0.64943192520E+03  0.25500000920E-02 0.  1.
    10030    2    1    2    0    0  0.00000000000E+00  0.00000000000E+00  0.11995070382E+04  0.24983708886E+04  0.21915838935E+04 0.  0.
        5    1    3    3  502    0 -0.92224065000E+03 -0.32970724769E+03  0.39531378032E+02  0.98021401007E+03  0.46999998093E+01 0.  1.
       -5    1    3    3    0  502  0.92224065000E+03  0.32970724769E+03  0.11599756602E+04  0.15181568786E+04  0.46999998093E+01 0. -1.
</event>
<event>
 5   0  0.4462201E-06  0.2200173E+04  0.7818609E-02  0.8518356E-01
       -1   -1    0    0    0  501  0.00000000000E+00  0.00000000000E+00  0.94900469683E+03  0.94900469684E+03  0.50400001928E-02 0.  1.
        1   -1    0    0  501    0  0.00000000000E+00  0.00000000000E+00 -0.12752205607E+04  0.12752205607E+04  0.50400001928E-02 0. -1.
    10030    2    1    2    0    0  0.00000000000E+00  0.00000000000E+00 -0.32621586382E+03  0.22242252575E+04  0.22001729946E+04 0.  0.
        3    1    3    3  502    0  0.49897134021E+03 -0.71525305265E+03 -0.84098359763E+03  0.12115332226E+04  0.10100000352E+00 0. -1.
       -3    1    3    3    0  502 -0.49897134021E+03  0.71525305265E+03  0.51476773381E+03  0.10126920349E+04  0.10100000352E+00 0.  1.
</event>
<event>
 5   0  0.4408787E-06  0.2199334E+04  0.7818609E-02  0.8518706E-01
       -1   -1    0    0    0  501  0.00000000000E+00  0.00000000000E+00  0.16871220245E+04  0.16871220245E+04  0.50400001928E-02 0. -1.
        1   -1    0    0  501    0  0.00000000000E+00  0.00000000000E+00 -0.71676327034E+03  0.71676327036E+03  0.50400001928E-02 0.  1.
    10030    2    1    2    0    0  0.00000000000E+00  0.00000000000E+00  0.97035875415E+03  0.24038852949E+04  0.21993336261E+04 0.  0.
        1    1    3    3  502    0  0.62961312076E+03  0.26370391044E+03 -0.45716355431E+03  0.82155398461E+03  0.50400001928E-02 0.  1.
       -1    1    3    3    0  502 -0.62961312076E+03 -0.26370391044E+03  0.14275223085E+04  0.15823313102E+04  0.50400001928E-02 0. -1.
</event>
<event>
 5   0  0.4462201E-06  0.2195791E+04  0.7818609E-02  0.8520182E-01
       -1   -1    0    0    0  501  0.00000000000E+00  0.00000000000E+00  0.11773239949E+04  0.11773239949E+04  0.50400001928E-02 0.  1.
        1   -1    0    0  501    0  0.00000000000E+00  0.00000000000E+00 -0.10238258499E+04  0.10238258499E+04  0.50400001928E-02 0. -1.
    10030    2    1    2    0    0  0.00000000000E+00  0.00000000000E+00  0.15349814497E+03  0.22011498448E+04  0.21957911920E+04 0.  0.
        3    1    3    3  502    0 -0.96636596700E+03  0.39987179120E+02 -0.44404991028E+03  0.10642567781E+04  0.10100000352E+00 0. -1.
       -3    1    3    3    0  502  0.96636596700E+03 -0.39987179120E+02  0.59754805526E+03  0.11368930667E+04  0.10100000352E+00 0.  1.
</event>
<event>
 5   0  0.4408787E-06  0.2198195E+04  0.7818609E-02  0.8519180E-01
        1   -1    0    0  501    0  0.00000000000E+00  0.00000000000E+00  0.20663970318E+04  0.20663970318E+04  0.50400001928E-02 0. -1.
       -1   -1    0    0    0  501  0.00000000000E+00  0.00000000000E+00 -0.58459959590E+03  0.58459959592E+03  0.50400001928E-02 0.  1.
    10030    2    1    2    0    0  0.00000000000E+00  0.00000000000E+00  0.14817974359E+04  0.26509966277E+04  0.21981945954E+04 0.  0.
        1    1    3    3  502    0  0.99750896810E+03 -0.41296014088E+03  0.98938686281E+03  0.14643929062E+04  0.50400001928E-02 0. -1.
       -1    1    3    3    0  502 -0.99750896810E+03  0.41296014088E+03  0.49241057307E+03  0.11866037215E+04  0.50400001928E-02 0.  1.
</event>
<event>
 5   0  0.4309945E-06  0.2238880E+04  0.7818609E-02  0.8502417E-01
        1   -1    0    0  501    0  0.00000000000E+00  0.00000000000E+00  0.53322247314E+03  0.53322247316E+03  0.50400001928E-02 0.  1.
       -1   -1    0    0    0  501  0.00000000000E+00  0.00000000000E+00 -0.23501375451E+04  0.23501375451E+04  0.50400001928E-02 0. -1.
    10030    2    1    2    0    0  0.00000000000E+00  0.00000000000E+00 -0.18169150720E+04  0.28833600183E+04  0.22388802148E+04 0.  0.
        4    1    3    3  502    0 -0.46811855063E+03  0.21015857918E+03 -0.21897585136E+04  0.22490766031E+04  0.12699999809E+01 0. -1.
       -4    1    3    3    0  502  0.46811855063E+03 -0.21015857918E+03  0.37284344166E+03  0.63428341515E+03  0.12699999809E+01 0.  1.
</event>
<event>
 5   0  0.9963173E-06  0.2204985E+04  0.7818609E-02  0.8516356E-01
        2   -1    0    0  501    0  0.00000000000E+00  0.00000000000E+00  0.11310544297E+04  0.11310544297E+04  0.25500000920E-02 0. -1.
       -2   -1    0    0    0  501  0.00000000000E+00  0.00000000000E+00 -0.10746514401E+04  0.10746514401E+04  0.25500000920E-02 0.  1.
    10030    2    1    2    0    0  0.00000000000E+00  0.00000000000E+00  0.56402989537E+02  0.22057058698E+04  0.22049846002E+04 0.  0.
        4    1    3    3  502    0  0.59792324953E+03 -0.78299838848E+03 -0.46682295612E+03  0.10901944661E+04  0.12699999809E+01 0.  1.
       -4    1    3    3    0  502 -0.59792324953E+03  0.78299838848E+03  0.52322594566E+03  0.11155114037E+04  0.12699999809E+01 0. -1.
</event>
<event>
 5   0  0.1015876E-05  0.2167820E+04  0.7818609E-02  0.8531943E-01
        2   -1    0    0  501    0  0.00000000000E+00  0.00000000000E+00  0.12092284236E+04  0.12092284236E+04  0.25500000920E-02 0.  1.
       -2   -1    0    0    0  501  0.00000000000E+00  0.00000000000E+00 -0.97157880991E+03  0.97157880991E+03  0.25500000920E-02 0. -1.
    10030    2    1    2    0    0  0.00000000000E+00  0.00000000000E+00  0.23764961371E+03  0.21808072335E+04  0.21678198382E+04 0.  0.
        5    1    3    3  502    0 -0.44318255468E+03  0.77385736660E+03 -0.50096086596E+03  0.10228635685E+04  0.46999998093E+01 0. -1.
       -5    1    3    3    0  502  0.44318255468E+03 -0.77385736660E+03  0.73861047968E+03  0.11579436650E+04  0.46999998093E+01 0.  1.
</event>
<event>
 5   0  0.4408787E-06  0.2200249E+04  0.7818609E-02  0.8518325E-01
       -1   -1    0    0    0  501  0.00000000000E+00  0.00000000000E+00  0.15218530923E+04  0.15218530924E+04  0.50400001928E-02 0.  1.
        1   -1    0    0  501    0  0.00000000000E+00  0.00000000000E+00 -0.79526307660E+03  0.79526307662E+03  0.50400001928E-02 0. -1.
    10030    2    1    2    0    0  0.00000000000E+00  0.00000000000E+00  0.72659001575E+03  0.23171161690E+04  0.22002486881E+04 0.  0.
        1    1    3    3  502    0 -0.46961105778E+03  0.40341457197E+03 -0.59440097412E+03  0.85824843754E+03  0.50400001928E-02 0. -1.
       -1    1    3    3    0  502  0.46961105778E+03 -0.40341457197E+03  0.13209909899E+04  0.14588677314E+04  0.50400001928E-02 0.  1.
</event>
<event>
 5   0  0.1035928E-05  0.2199062E+04  0.7818609E-02  0.8518819E-01
       -2   -1    0    0    0  501  0.00000000000E+00  0.00000000000E+00  0.13908168311E+04  0.13908168311E+04  0.25500000920E-02 0.  1.
        2   -1    0    0  501    0  0.00000000000E+00  0.00000000000E+00 -0.86925028530E+03  0.86925028530E+03  0.25500000920E-02 0. -1.
    10030    2    1    2    0    0  0.00000000000E+00  0.00000000000E+00  0.52156654583E+03  0.22600671164E+04  0.21990615519E+04 0.  0.
        3    1    3    3  502    0 -0.68918479496E+03  0.36156441208E+03  0.10590305463E+04  0.13142489163E+04  0.10100000352E+00 0.  1.
       -3    1    3    3    0  502  0.68918479496E+03 -0.36156441208E+03 -0.53746400051E+03  0.94581820015E+03  0.10100000352E+00 0. -1.
</event>
<event>
 5   0  0.1014015E-05  0.2196841E+04  0.7818609E-02  0.8519744E-01
        2   -1    0    0  501    0  0.00000000000E+00  0.00000000000E+00  0.88521300779E+03  0.88521300780E+03  0.25500000920E-02 0. -1.
       -2   -1    0    0    0  501  0.00000000000E+00  0.00000000000E+00 -0.13629797785E+04  0.13629797785E+04  0.25500000920E-02 0.  1.
    10030    2    1    2    0    0  0.00000000000E+00  0.00000000000E+00 -0.47776677072E+03  0.22481927863E+04  0.21968408493E+04 0.  0.
        1    1    3    3  502    0  0.41468308410E+03  0.45215203907E+03  0.69352552273E+03  0.92594879846E+03  0.50400001928E-02 0. -1.
       -1    1    3    3    0  502 -0.41468308410E+03 -0.45215203907E+03 -0.11712922934E+04  0.13222439878E+04  0.50400001928E-02 0.  1.
</event>
<event>
 5   0  0.9963573E-06  0.2204212E+04  0.7818609E-02  0.8516677E-01
       -2   -1    0    0    0  501  0.00000000000E+00  0.00000000000E+00  0.89749858290E+03  0.89749858291E+03  0.25500000920E-02 0.  1.
        2   -1    0    0  501    0  0.00000000000E+00  0.00000000000E+00 -0.13533588888E+04  0.13533588888E+04  0.25500000920E-02 0. -1.
    10030    2    1    2    0    0  0.00000000000E+00  0.00000000000E+00 -0.45586030593E+03  0.22508574717E+04  0.22042120451E+04 0.  0.
        2    1    3    3  502    0  0.10400605931E+04  0.23180407040E+03  0.59411321266E+02  0.10672342149E+04  0.25500000920E-02 0.  1.
       -2    1    3    3    0  502 -0.10400605931E+04 -0.23180407040E+03 -0.51527162720E+03  0.11836232568E+04  0.25500000920E-02 0. -1.
</event>
<event>
 5   0  0.4630615E-06  0.2201632E+04  0.7818609E-02  0.8517749E-01
        1   -1    0    0  501    0  0.00000000000E+00  0.00000000000E+00  0.13134275961E+04  0.13134275961E+04  0.50400001928E-02 0. -1.
       -1   -1    0    0    0  501  0.00000000000E+00  0.00000000000E+00 -0.92262109961E+03  0.92262109963E+03  0.50400001928E-02 0.  1.
    10030    2    1    2    0    0  0.00000000000E+00  0.00000000000E+00  0.39080649646E+03  0.22360486957E+04  0.22016321336E+04 0.  0.
        2    1    3    3  502    0  0.61716403480E+03 -0.58612740296E+03 -0.51362102228E+03  0.99410428672E+03  0.25500000920E-02 0.  1.
       -2    1    3    3    0  502 -0.61716403480E+03  0.58612740296E+03  0.90442751875E+03  0.12419444090E+04  0.25500000920E-02 0. -1.
</event>
<event>
 5   0  0.4309945E-06  0.2205467E+04  0.7818609E-02  0.8516156E-01
       -1   -1    0    0    0  501  0.00000000000E+00  0.00000000000E+00  0.12691271496E+04  0.12691271496E+04  0.50400001928E-02 0. -1.
        1   -1    0    0  501    0  0.00000000000E+00  0.00000000000E+00 -0.95815533533E+03  0.95815533534E+03  0.50400001928E-02 0.  1.
    10030    2    1    2    0    0  0.00000000000E+00  0.00000000000E+00  0.31097181429E+03  0.22272824850E+04  0.22054667983E+04 0.  0.
        4    1    3    3  502    0 -0.61412743357E+03  0.32913525894E+03  0.10186548992E+04  0.12341563677E+04  0.12699999809E+01 0. -1.
       -4    1    3    3    0  502  0.61412743357E+03 -0.32913525894E+03 -0.70768308488E+03  0.99312611730E+03  0.12699999809E+01 0.  1.
</event>
<event>
 5   0  0.1015876E-05  0.2201562E+04  0.7818609E-02  0.8517778E-01
        2   -1    0    0  501    0  0.00000000000E+00  0.00000000000E+00  0.15138374288E+04  0.15138374288E+04  0.25500000920E-02 0. -1.
       -2   -1    0    0    0  501  0.00000000000E+00  0.00000000000E+00 -0.80042857646E+03  0.80042857646E+03  0.25500000920E-02 0.  1.
    10030    2    1    2    0    0  0.00000000000E+00  0.00000000000E+00  0.71340885229E+03  0.23142660052E+04  0.22015619347E+04 0.  0.
        5    1    3    3  502    0 -0.11690646286E+03  0.73382418450E+03  0.12103943795E+04  0.14202963418E+04  0.46999998093E+01 0.  1.
       -5    1    3    3    0  502  0.11690646286E+03 -0.73382418450E+03 -0.49698552717E+03  0.89396966337E+03  0.46999998093E+01 0. -1.
</event>
<event>
 5   0  0.3546750E-06  0.2203472E+04  0.7818609E-02  0.8516984E-01
       -4   -1    0    0    0  501  0.00000000000E+00  0.00000000000E+00  0.22804032770E+04  0.22804036306E+04  0.12699999809E+01 0.  1.
        4   -1    0    0  501    0  0.00000000000E+00  0.00000000000E+00 -0.53228296504E+03  0.53228448012E+03  0.12699999809E+01 0. -1.
    10030    2    1    2    0    0  0.00000000000E+00  0.00000000000E+00  0.17481203119E+04  0.28126881107E+04  0.22034722107E+04 0.  0.
        5    1    3    3  502    0 -0.10743452428E+04  0.18870591485E+03  0.67642109949E+03  0.12835089469E+04  0.46999998093E+01 0. -1.
       -5    1    3    3    0  502  0.10743452428E+04 -0.18870591485E+03  0.10716992124E+04  0.15291791638E+04  0.46999998093E+01 0.  1.
</event>
<event>
 5   0  0.4794967E-06  0.2199207E+04  0.7818609E-02  0.8518758E-01
        1   -1    0    0  501    0  0.00000000000E+00  0.00000000000E+00  0.24823064154E+04  0.24823064154E+04  0.50400001928E-02 0.  1.
       -1   -1    0    0    0  501  0.00000000000E+00  0.00000000000E+00 -0.48709833927E+03  0.48709833930E+03  0.50400001928E-02 0. -1.
    10030    2    1    2    0    0  0.00000000000E+00  0.00000000000E+00  0.19952080761E+04  0.29694047547E+04  0.21992065228E+04 0.  0.
        5    1    3    3  502    0  0.59323311502E+03  0.86191946503E+03  0.54116987416E+03  0.11780142680E+04  0.46999998093E+01 0. -1.
       -5    1    3    3    0  502 -0.59323311502E+03 -0.86191946503E+03  0.14540382019E+04  0.17913904866E+04  0.46999998093E+01 0.  1.
</event>
<event>
 5   0  0.4309945E-06  0.2206630E+04  0.7818609E-02  0.8515674E-01
       -1   -1    0    0    0  501  0.00000000000E+00  0.00000000000E+00  0.16127612721E+04  0.16127612721E+04  0.50400001928E-02 0. -1.
        1   -1    0    0  501    0  0.00000000000E+00  0.00000000000E+00 -0.75479490404E+03  0.75479490406E+03  0.50400001928E-02 0.  1.
    10030    2    1    2    0    0  0.00000000000E+00  0.00000000000E+00  0.85796636806E+03  0.23675561762E+04  0.22066300004E+04 0.  0.
        4    1    3    3  502    0  0.10363764323E+04  0.23213571563E+02  0.83427103224E+03  0.13306482433E+04  0.12699999809E+01 0. -1.
       -4    1    3    3    0  502 -0.10363764323E+04 -0.23213571563E+02  0.23695335827E+02  0.10369079328E+04  0.12699999809E+01 0.  1.
</event>
<event>
 5   0  0.4462201E-06  0.2198117E+04  0.7818609E-02  0.8519212E-01
       -1   -1    0    0    0  501  0.00000000000E+00  0.00000000000E+00  0.76539892553E+03  0.76539892555E+03  0.50400001928E-02 0. -1.
        1   -1    0    0  501    0  0.00000000000E+00  0.00000000000E+00 -0.15781695573E+04  0.15781695573E+04  0.50400001928E-02 0.  1.
    10030    2    1    2    0    0  0.00000000000E+00  0.00000000000E+00 -0.81277063175E+03  0.23435684828E+04  0.21981167244E+04 0.  0.
        3    1    3    3  502    0 -0.98383377438E+03 -0.48988197030E+03 -0.41065437322E+03  0.11732647889E+04  0.10100000352E+00 0. -1.
       -3    1    3    3    0  502  0.98383377438E+03  0.48988197030E+03 -0.40211625852E+03  0.11703036939E+04  0.10100000352E+00 0.  1.
</event>
<event>
 5   0  0.4794967E-06  0.2205600E+04  0.7818609E-02  0.8516101E-01
       -1   -1    0    0    0  501  0.00000000000E+00  0.00000000000E+00  0.82281608130E+03  0.82281608132E+03  0.50400001928E-02 0. -1.
        1   -1    0    0  501    0  0.00000000000E+00  0.00000000000E+00 -0.14780552034E+04  0.14780552034E+04  0.50400001928E-02 0.  1.
    10030    2    1    2    0    0  0.00000000000E+00  0.00000000000E+00 -0.65523912212E+03  0.23008712847E+04  0.22055997737E+04 0.  0.
        5    1    3    3  502    0  0.37111201284E+03 -0.81241073750E+03  0.34716747521E+03  0.95827067069E+03  0.46999998093E+01 0. -1.
       -5    1    3    3    0  502 -0.37111201284E+03  0.81241073750E+03 -0.10024065973E+04  0.13426006140E+04  0.46999998093E+01 0.  1.
</event>
<event>
 5   0  0.4408787E-06  0.2208617E+04  0.7818609E-02  0.8514850E-01
       -1   -1    0    0    0  501  0.00000000000E+00  0.00000000000E+00  0.10957161829E+04  0.10957161829E+04  0.50400001928E-02 0.  1.
        1   -1    0    0  501    0  0.00000000000E+00  0.00000000000E+00 -0.11129684543E+04  0.11129684543E+04  0.50400001928E-02 0. -1.
    10030    2    1    2    0    0  0.00000000000E+00  0.00000000000E+00 -0.17252271369E+02  0.22086846372E+04  0.22086172565E+04 0.  0.
        1    1    3    3  502    0  0.14597543636E+03 -0.79503750773E+03 -0.76104797328E+03  0.11102195658E+04  0.50400001928E-02 0. -1.
       -1    1    3    3    0  502 -0.14597543636E+03  0.79503750773E+03  0.74379570191E+03  0.10984650713E+04  0.50400001928E-02 0.  1.
</event>
<event>
 5   0  0.3546750E-06  0.2201895E+04  0.7818609E-02  0.8517640E-01
        3   -1    0    0  501    0  0.00000000000E+00  0.00000000000E+00  0.16844556629E+04  0.16844556660E+04  0.10100000352E+00 0.  1.
       -3   -1    0    0    0  501  0.00000000000E+00  0.00000000000E+00 -0.71957120616E+03  0.71957121325E+03  0.10100000352E+00 0. -1.
    10030    2    1    2    0    0  0.00000000000E+00  0.00000000000E+00  0.96488445678E+03  0.24040268792E+04  0.22018953701E+04 0.  0.
        3    1    3    3  502    0 -0.93238514424E+03  0.39389262703E+03  0.95630553021E+01  0.10122178229E+04  0.10100000352E+00 0. -1.
       -3    1    3    3    0  502  0.93238514424E+03 -0.39389262703E+03  0.95532140148E+03  0.13918090563E+04  0.10100000352E+00 0.  1.
</event>
<event>
 5   0  0.1014015E-05  0.2202637E+04  0.7818609E-02  0.8517331E-01
        2   -1    0    0  501    0  0.00000000000E+00  0.00000000000E+00  0.65041607028E+03  0.65041607029E+03  0.25500000920E-02 0. -1.
       -2   -1    0    0    0  501  0.00000000000E+00  0.00000000000E+00 -0.18648107162E+04  0.18648107162E+04  0.25500000920E-02 0.  1.
    10030    2    1    2    0    0  0.00000000000E+00  0.00000000000E+00 -0.12143946459E+04  0.25152267865E+04  0.22026373808E+04 0.  0.
        1    1    3    3  502    0 -0.67736985409E+02 -0.10667283299E+04 -0.30420152799E+03  0.11113218250E+04  0.50400001928E-02 0. -1.
       -1    1    3    3    0  502  0.67736985409E+02  0.10667283299E+04 -0.91019311794E+03  0.14039049615E+04  0.50400001928E-02 0.  1.
</event>
<event>
 5   0  0.4408787E-06  0.2198154E+04  0.7818609E-02  0.8519197E-01
       -1   -1    0    0    0  501  0.00000000000E+00  0.00000000000E+00  0.49019722840E+03  0.49019722843E+03  0.50400001928E-02 0. -1.
        1   -1    0    0  501    0  0.00000000000E+00  0.00000000000E+00 -0.24642542322E+04  0.24642542322E+04  0.50400001928E-02 0.  1.
    10030    2    1    2    0    0  0.00000000000E+00  0.00000000000E+00 -0.19740570038E+04  0.29544514606E+04  0.21981543119E+04 0.  0.
        1    1    3    3  502    0 -0.40102492941E+03 -0.75395459471E+03 -0.57096196878E+02  0.85587878851E+03  0.50400001928E-02 0. -1.
       -1    1    3    3    0  502  0.40102492941E+03  0.75395459471E+03 -0.19169608069E+04  0.20985726721E+04  0.50400001928E-02 0.  1.
</event>
<event>
 5   0  0.9963173E-06  0.2200936E+04  0.7818609E-02  0.8518039E-01
       -2   -1    0    0    0  501  0.00000000000E+00  0.00000000000E+00  0.64644561514E+03  0.64644561515E+03  0.25500000920E-02 0. -1.
        2   -1    0    0  501    0  0.00000000000E+00  0.00000000000E+00 -0.18733667528E+04  0.18733667528E+04  0.25500000920E-02 0.  1.
    10030    2    1    2    0    0  0.00000000000E+00  0.00000000000E+00 -0.12269211377E+04  0.25198123680E+04  0.22009359127E+04 0.  0.
        4    1    3    3  502    0 -0.96824378179E+03  0.21208770682E+03 -0.11607943687E+04  0.15264083319E+04  0.12699999809E+01 0.  1.
       -4    1    3    3    0  502  0.96824378179E+03 -0.21208770682E+03 -0.66126768936E+02  0.99340403604E+03  0.12699999809E+01 0. -1.
</event>
<event>
 5   0  0.1015876E-05  0.2198953E+04  0.7818609E-02  0.8518864E-01
       -2   -1    0    0    0  501  0.00000000000E+00  0.00000000000E+00  0.89369484406E+03  0.89369484406E+03  0.25500000920E-02 0.  1.
        2   -1    0    0  501    0  0.00000000000E+00  0.00000000000E+00 -0.13526418603E+04  0.13526418603E+04  0.25500000920E-02 0. -1.
    10030    2    1    2    0    0  0.00000000000E+00  0.00000000000E+00 -0.45894701627E+03  0.22463367044E+04  0.21989534387E+04 0.  0.
        5    1    3    3  502    0 -0.39508018958E+03  0.84210943242E+03 -0.82827003958E+03  0.12455079289E+04  0.46999998093E+01 0. -1.
       -5    1    3    3    0  502  0.39508018958E+03 -0.84210943242E+03  0.36932302332E+03  0.10008287755E+04  0.46999998093E+01 0.  1.
</event>
<event>
 5   0  0.4630615E-06  0.2212227E+04  0.7818609E-02  0.8513356E-01
        1   -1    0    0  501    0  0.00000000000E+00  0.00000000000E+00  0.12789902691E+04  0.12789902691E+04  0.50400001928E-02 0. -1.
       -1   -1    0    0    0  501  0.00000000000E+00  0.00000000000E+00 -0.95660400191E+03  0.95660400193E+03  0.50400001928E-02 0.  1.
    10030    2    1    2    0    0  0.00000000000E+00  0.00000000000E+00  0.32238626717E+03  0.22355942710E+04  0.22122271220E+04 0.  0.
        2    1    3    3  502    0 -0.21066130215E+03  0.76435689483E+03  0.94061649684E+03  0.12301947167E+04  0.25500000920E-02 0. -1.
       -2    1    3    3    0  502  0.21066130215E+03 -0.76435689483E+03 -0.61823022967E+03  0.10053995543E+04  0.25500000920E-02 0.  1.
</event>
<event>
 5   0  0.4408787E-06  0.2195504E+04  0.7818609E-02  0.8520302E-01
        1   -1    0    0  501    0  0.00000000000E+00  0.00000000000E+00  0.94416996736E+03  0.94416996738E+03  0.50400001928E-02 0. -1.
       -1   -1    0    0    0  501  0.00000000000E+00  0.00000000000E+00 -0.12763164882E+04  0.12763164882E+04  0.50400001928E-02 0.  1.
    10030    2    1    2    0    0  0.00000000000E+00  0.00000000000E+00 -0.33214652082E+03  0.22204864556E+04  0.21955042218E+04 0.  0.
        1    1    3    3  502    0 -0.88550806931E+03  0.62167803435E+03 -0.35379665976E+03  0.11383234144E+04  0.50400001928E-02 0.  1.
       -1    1    3    3    0  502  0.88550806931E+03 -0.62167803435E+03  0.21650138938E+02  0.10821630412E+04  0.50400001928E-02 0. -1.
</event>
<event>
 5   0  0.9963573E-06  0.2190728E+04  0.7818609E-02  0.8522297E-01
        2   -1    0    0  501    0  0.00000000000E+00  0.00000000000E+00  0.14295909799E+04  0.14295909799E+04  0.25500000920E-02 0.  1.
       -2   -1    0    0    0  501  0.00000000000E+00  0.00000000000E+00 -0.83927639239E+03  0.83927639240E+03  0.25500000920E-02 0. -1.
    10030    2    1    2    0    0  0.00000000000E+00  0.00000000000E+00  0.59031458755E+03  0.22688673723E+04  0.21907276967E+04 0.  0.
        2    1    3    3  502    0  0.10139809741E+04 -0.65964963368E+01  0.72420537449E+03  0.12460635434E+04  0.25500000920E-02 0. -1.
       -2    1    3    3    0  502 -0.10139809741E+04  0.65964963368E+01 -0.13389078694E+03  0.10228038290E+04  0.25500000920E-02 0.  1.
</event>
<event>
 5   0  0.4462201E-06  0.2198503E+04  0.7818609E-02  0.8519051E-01
        1   -1    0    0  501    0  0.00000000000E+00  0.00000000000E+00  0.11736848462E+04  0.11736848462E+04  0.50400001928E-02 0.  1.
       -1   -1    0    0    0  501  0.00000000000E+00  0.00000000000E+00 -0.10295388474E+04  0.10295388474E+04  0.50400001928E-02 0. -1.
    10030    2    1    2    0    0  0.00000000000E+00  0.00000000000E+00  0.14414599879E+03  0.22032236936E+04  0.21985032579E+04 0.  0.
        3    1    3    3  502    0 -0.21491318519E+02  0.10162569945E+03  0.11687555461E+04  0.11733623465E+04  0.10100000352E+00 0.  1.
       -3    1    3    3    0  502  0.21491318519E+02 -0.10162569945E+03 -0.10246095473E+04  0.10298613470E+04  0.10100000352E+00 0. -1.
</event>
<event>
 5   0  0.4462201E-06  0.2200104E+04  0.7818609E-02  0.8518385E-01
        1   -1    0    0  501    0  0.00000000000E+00  0.00000000000E+00  0.16672770158E+04  0.16672770158E+04  0.50400001928E-02 0.  1.
       -1   -1    0    0    0  501  0.00000000000E+00  0.00000000000E+00 -0.72580279676E+03  0.72580279677E+03  0.50400001928E-02 0. -1.
    10030    2    1    2    0    0  0.00000000000E+00  0.00000000000E+00  0.94147421903E+03  0.23930798126E+04  0.22001039258E+04 0.  0.
        3    1    3    3  502    0  0.23243592572E+03 -0.10502910009E+04  0.22038209572E+03  0.10980464127E+04  0.10100000352E+00 0. -1.
       -3    1    3    3    0  502 -0.23243592572E+03  0.10502910009E+04  0.72109212331E+03  0.12950333998E+04  0.10100000352E+00 0.  1.
</event>
<event>
 5   0  0.9963573E-06  0.2189868E+04  0.7818609E-02  0.8522657E-01
        2   -1    0    0  501    0  0.00000000000E+00  0.00000000000E+00  0.12356719840E+04  0.12356719840E+04  0.25500000920E-02 0.  1.
       -2   -1    0    0    0  501  0.00000000000E+00  0.00000000000E+00 -0.97022576005E+03  0.97022576006E+03  0.25500000920E-02 0. -1.
    10030    2    1    2    0    0  0.00000000000E+00  0.00000000000E+00  0.26544622395E+03  0.22058977441E+04  0.21898682973E+04 0.  0.
        2    1    3    3  502    0 -0.91401348491E+03  0.49234573212E+03  0.48320067138E+03  0.11451235127E+04  0.25500000920E-02 0.  1.
       -2    1    3    3    0  502  0.91401348491E+03 -0.49234573212E+03 -0.21775444743E+03  0.10607742314E+04  0.25500000920E-02 0. -1.
</event>
<event>
 5   0  0.4794967E-06  0.2198344E+04  0.7818609E-02  0.8519118E-01
       -1   -1    0    0    0  501  0.00000000000E+00  0.00000000000E+00  0.91326234850E+03  0.91326234852E+03  0.50400001928E-02 0.  1.
        1   -1    0    0  501    0  0.00000000000E+00  0.00000000000E+00 -0.13229261129E+04  0.13229261129E+04  0.50400001928E-02 0. -1.
    10030    2    1    2    0    0  0.00000000000E+00  0.00000000000E+00 -0.40966376438E+03  0.22361884614E+04  0.21983435662E+04 0.  0.
        5    1    3    3  502    0 -0.48017074512E+03  0.48016653805E+03  0.67435790198E+03  0.95702900619E+03  0.46999998093E+01 0.  1.
       -5    1    3    3    0  502  0.48017074512E+03 -0.48016653805E+03 -0.10840216664E+04  0.12791594552E+04  0.46999998093E+01 0. -1.
</event>
<event>
 5   0  0.1035928E-05  0.2200483E+04  0.7818609E-02  0.8518227E-01
        2   -1    0    0  501    0  0.00000000000E+00  0.00000000000E+00  0.10447153671E+04  0.10447153671E+04  0.25500000920E-02 0.  1.
       -2   -1    0    0    0  501  0.00000000000E+00  0.00000000000E+00 -0.11587192756E+04  0.11587192756E+04  0.25500000920E-02 0. -1.
    10030    2    1    2    0    0  0.00000000000E+00  0.00000000000E+00 -0.11400390846E+03  0.22034346427E+04  0.22004834318E+04 0.  0.
        3    1    3    3  502    0 -0.76185282637E+03  0.33177667874E+03  0.66510065195E+03  0.10643563224E+04  0.10100000352E+00 0.  1.
       -3    1    3    3    0  502  0.76185282637E+03 -0.33177667874E+03 -0.77910456041E+03  0.11390783203E+04  0.10100000352E+00 0. -1.
</event>
<event>
 5   0  0.1035928E-05  0.2201371E+04  0.7818609E-02  0.8517858E-01
        2   -1    0    0  501    0  0.00000000000E+00  0.00000000000E+00  0.14341241967E+04  0.14341241967E+04  0.25500000920E-02 0.  1.
       -2   -1    0    0    0  501  0.00000000000E+00  0.00000000000E+00 -0.84477244722E+03  0.84477244723E+03  0.25500000920E-02 0. -1.
    10030    2    1    2    0    0  0.00000000000E+00  0.00000000000E+00  0.58935174951E+03  0.22788966440E+04  0.22013710340E+04 0.  0.
        3    1    3    3  502    0 -0.10314763985E+04  0.20344263232E+03  0.63199800206E+03  0.12266841281E+04  0.10100000352E+00 0. -1.
       -3    1    3    3    0  502  0.10314763985E+04 -0.20344263232E+03 -0.42646252551E+02  0.10522125158E+04  0.10100000352E+00 0.  1.
</event>
<event>
 5   0  0.9963573E-06  0.2202927E+04  0.7818609E-02  0.8517211E-01
       -2   -1    0    0    0  501  0.00000000000E+00  0.00000000000E+00  0.18447007672E+04  0.18447007672E+04  0.25500000920E-02 0. -1.
        2   -1    0    0  501    0  0.00000000000E+00  0.00000000000E+00 -0.65767951121E+03  0.65767951121E+03  0.25500000920E-02 0.  1.
    10030    2    1    2    0    0  0.00000000000E+00  0.00000000000E+00  0.11870212560E+04  0.25023802784E+04  0.22029270518E+04 0.  0.
        2    1    3    3  502    0  0.37141386136E+03 -0.61433881065E+03  0.15424485500E+04  0.17013253540E+04  0.25500000920E-02 0. -1.
       -2    1    3    3    0  502 -0.37141386136E+03  0.61433881065E+03 -0.35542729399E+03  0.80105492446E+03  0.25500000920E-02 0.  1.
</event>
<event>
 5   0  0.4309945E-06  0.2201186E+04  0.7818609E-02  0.8517934E-01
        1   -1    0    0  501    0  0.00000000000E+00  0.00000000000E+00  0.78179714164E+03  0.78179714165E+03  0.50400001928E-02 0.  1.
       -1   -1    0    0    0  501  0.00000000000E+00  0.00000000000E+00 -0.15493858442E+04  0.15493858442E+04  0.50400001928E-02 0. -1.
    10030    2    1    2    0    0  0.00000000000E+00  0.00000000000E+00 -0.76758870252E+03  0.23311829858E+04  0.22011864294E+04 0.  0.
        4    1    3    3  502    0 -0.47010107370E+03 -0.88045115302E+03 -0.87498992015E+03  0.13273274749E+04  0.12699999809E+01 0. -1.
       -4    1    3    3    0  502  0.47010107370E+03  0.88045115302E+03  0.10740121763E+03  0.10038555109E+04  0.12699999809E+01 0.  1.
</event>
<event>
 5   0  0.1014015E-05  0.2201561E+04  0.7818609E-02  0.8517779E-01
        2   -1    0    0  501    0  0.00000000000E+00  0.00000000000E+00  0.88543102233E+03  0.88543102233E+03  0.25500000920E-02 0.  1.
       -2   -1    0    0    0  501  0.00000000000E+00  0.00000000000E+00 -0.13685057462E+04  0.13685057462E+04  0.25500000920E-02 0. -1.
    10030    2    1    2    0    0  0.00000000000E+00  0.00000000000E+00 -0.48307472391E+03  0.22539367686E+04  0.22015607572E+04 0.  0.
        1    1    3    3  502    0  0.88935182117E+03  0.29534174341E+03 -0.83280980940E+03  0.12536927797E+04  0.50400001928E-02 0. -1.
       -1    1    3    3    0  502 -0.88935182117E+03 -0.29534174341E+03  0.34973508549E+03  0.10002439889E+04  0.50400001928E-02 0.  1.
</event>
<event>
 5   0  0.9963573E-06  0.2202300E+04  0.7818609E-02  0.8517471E-01
       -2   -1    0    0    0  501  0.00000000000E+00  0.00000000000E+00  0.13597930234E+04  0.13597930234E+04  0.25500000920E-02 0.  1.
        2   -1    0    0  501    0  0.00000000000E+00  0.00000000000E+00 -0.89170299010E+03  0.89170299010E+03  0.25500000920E-02 0. -1.
    10030    2    1    2    0    0  0.00000000000E+00  0.00000000000E+00  0.46809003328E+03  0.22514960135E+04  0.22023001656E+04 0.  0.
        2    1    3    3  502    0 -0.57973727702E+03 -0.93517869674E+03  0.18975286604E+03  0.11165395897E+04  0.25500000920E-02 0.  1.
       -2    1    3    3    0  502  0.57973727702E+03  0.93517869674E+03  0.27833716724E+03  0.11349564238E+04  0.25500000920E-02 0. -1.
</event>
<event>
 5   0  0.1014015E-05  0.2203008E+04  0.7818609E-02  0.8517177E-01
        2   -1    0    0  501    0  0.00000000000E+00  0.00000000000E+00  0.11732230326E+04  0.11732230326E+04  0.25500000920E-02 0.  1.
       -2   -1    0    0    0  501  0.00000000000E+00  0.00000000000E+00 -0.10341687059E+04  0.10341687059E+04  0.25500000920E-02 0. -1.
    10030    2    1    2    0    0  0.00000000000E+00  0.00000000000E+00  0.13905432679E+03  0.22073917385E+04  0.22030075309E+04 0.  0.
        1    1    3    3  502    0  0.10772383774E+04 -0.19466018121E+03  0.19214487034E+03  0.11114201542E+04  0.50400001928E-02 0.  1.
       -1    1    3    3    0  502 -0.10772383774E+04  0.19466018121E+03 -0.53090543555E+02  0.10959715843E+04  0.50400001928E-02 0. -1.
</event>
<event>
 5   0  0.1035928E-05  0.2199334E+04  0.7818609E-02  0.8518705E-01
        2   -1    0    0  501    0  0.00000000000E+00  0.00000000000E+00  0.14590054526E+04  0.14590054526E+04  0.25500000920E-02 0.  1.
       -2   -1    0    0    0  501  0.00000000000E+00  0.00000000000E+00 -0.82883030460E+03  0.82883030460E+03  0.25500000920E-02 0. -1.
    10030    2    1    2    0    0  0.00000000000E+00  0.00000000000E+00  0.63017514799E+03  0.22878357572E+04  0.21993343845E+04 0.  0.
        3    1    3    3  502    0  0.33550341652E+03 -0.10358410686E+04  0.15481408373E+03  0.10997711910E+04  0.10100000352E+00 0. -1.
       -3    1    3    3    0  502 -0.33550341652E+03  0.10358410686E+04  0.47536106426E+03  0.11880645662E+04  0.10100000352E+00 0.  1.
</event>
<event>
 5   0  0.4630615E-06  0.2199191E+04  0.7818609E-02  0.8518765E-01
        1   -1    0    0  501    0  0.00000000000E+00  0.00000000000E+00  0.17225633527E+04  0.17225633527E+04  0.50400001928E-02 0.  1.
       -1   -1    0    0    0  501  0.00000000000E+00  0.00000000000E+00 -0.70192528090E+03  0.70192528092E+03  0.50400001928E-02 0. -1.
    10030    2    1    2    0    0  0.00000000000E+00  0.00000000000E+00  0.10206380718E+04  0.24244886336E+04  0.21991914562E+04 0.  0.
        2    1    3    3  502    0  0.11207373544E+03 -0.29384596717E+03 -0.65128646850E+03  0.72324272458E+03  0.25500000920E-02 0. -1.
       -2    1    3    3    0  502 -0.11207373544E+03  0.29384596717E+03  0.16719245403E+04  0.17012459091E+04  0.25500000920E-02 0.  1.
</event>
<event>
 5   0  0.1014015E-05  0.2195017E+04  0.7818609E-02  0.8520505E-01
        2   -1    0    0  501    0  0.00000000000E+00  0.00000000000E+00  0.63606894056E+03  0.63606894056E+03  0.25500000920E-02 0. -1.
       -2   -1    0    0    0  501  0.00000000000E+00  0.00000000000E+00 -0.18937017041E+04  0.18937017041E+04  0.25500000920E-02 0.  1.
    10030    2    1    2    0    0  0.00000000000E+00  0.00000000000E+00 -0.12576327635E+04  0.25297706447E+04  0.21950169354E+04 0.  0.
        1    1    3    3  502    0  0.44876849792E+02  0.57481505146E+01  0.63499370871E+03  0.63660347392E+03  0.50400001928E-02 0. -1.
       -1    1    3    3    0  502 -0.44876849792E+02 -0.57481505146E+01 -0.18926264723E+04  0.18931671707E+04  0.50400001928E-02 0.  1.
</event>
<event>
 5   0  0.9963173E-06  0.2201565E+04  0.7818609E-02  0.8517777E-01
        2   -1    0    0  501    0  0.00000000000E+00  0.00000000000E+00  0.18884300661E+04  0.18884300661E+04  0.25500000920E-02 0.  1.
       -2   -1    0    0    0  501  0.00000000000E+00  0.00000000000E+00 -0.64165561371E+03  0.64165561371E+03  0.25500000920E-02 0. -1.
    10030    2    1    2    0    0  0.00000000000E+00  0.00000000000E+00  0.12467744524E+04  0.25300856798E+04  0.22015646736E+04 0.  0.
        4    1    3    3  502    0  0.37712804891E+03 -0.26813143359E+03 -0.52445454366E+03  0.69940990286E+03  0.12699999809E+01 0. -1.
       -4    1    3    3    0  502 -0.37712804891E+03  0.26813143359E+03  0.17712289961E+04  0.18306757770E+04  0.12699999809E+01 0.  1.
</event>
<event>
 5   0  0.4408787E-06  0.2205012E+04  0.7818609E-02  0.8516345E-01
       -1   -1    0    0    0  501  0.00000000000E+00  0.00000000000E+00  0.44423663779E+03  0.44423663782E+03  0.50400001928E-02 0.  1.
        1   -1    0    0  501    0  0.00000000000E+00  0.00000000000E+00 -0.27361986842E+04  0.27361986842E+04  0.50400001928E-02 0. -1.
    10030    2    1    2    0    0  0.00000000000E+00  0.00000000000E+00 -0.22919620464E+04  0.31804353221E+04  0.22050122030E+04 0.  0.
        1    1    3    3  502    0  0.18823526000E+03 -0.24921011577E+03  0.37909987339E+03  0.49117706475E+03  0.50400001928E-02 0.  1.
       -1    1    3    3    0  502 -0.18823526000E+03  0.24921011577E+03 -0.26710619198E+04  0.26892582573E+04  0.50400001928E-02 0. -1.
</event>
<event>
 5   0  0.4630615E-06  0.2198496E+04  0.7818609E-02  0.8519054E-01
       -1   -1    0    0    0  501  0.00000000000E+00  0.00000000000E+00  0.62280735174E+03  0.62280735176E+03  0.50400001928E-02 0. -1.
        1   -1    0    0  501    0  0.00000000000E+00  0.00000000000E+00 -0.19401606115E+04  0.19401606115E+04  0.50400001928E-02 0.  1.
    10030    2    1    2    0    0  0.00000000000E+00  0.00000000000E+00 -0.13173532597E+04  0.25629679632E+04  0.21984961155E+04 0.  0.
        2    1    3    3  502    0 -0.77702324138E+03  0.11328064184E+03  0.23810379662E+03  0.82054313685E+03  0.25500000920E-02 0. -1.
       -2    1    3    3    0  502  0.77702324138E+03 -0.11328064184E+03 -0.15554570564E+04  0.17424248264E+04  0.25500000920E-02 0.  1.
</event>
<event>
 5   0  0.4794967E-06  0.2204969E+04  0.7818609E-02  0.8516363E-01
        1   -1    0    0  501    0  0.00000000000E+00  0.00000000000E+00  0.19376751464E+04  0.19376751464E+04  0.50400001928E-02 0.  1.
       -1   -1    0    0    0  501  0.00000000000E+00  0.00000000000E+00 -0.62728375988E+03  0.62728375990E+03  0.50400001928E-02 0. -1.
    10030    2    1    2    0    0  0.00000000000E+00  0.00000000000E+00  0.13103913866E+04  0.25649589063E+04  0.22049690713E+04 0.  0.
        5    1    3    3  502    0  0.84606637648E+03  0.53895137565E+03  0.11871938499E+04  0.15542677459E+04  0.46999998093E+01 0.  1.
       -5    1    3    3    0  502 -0.84606637648E+03 -0.53895137565E+03  0.12319753664E+03  0.10106911604E+04  0.46999998093E+01 0. -1.
</event>
<event>
 5   0  0.3546750E-06  0.2200404E+04  0.7818609E-02  0.8518260E-01
       -3   -1    0    0    0  501  0.00000000000E+00  0.00000000000E+00  0.55648813021E+03  0.55648813938E+03  0.10100000352E+00 0.  1.
        3   -1    0    0  501    0  0.00000000000E+00  0.00000000000E+00 -0.21751481809E+04  0.21751481832E+04  0.10100000352E+00 0. -1.
    10030    2    1    2    0    0  0.00000000000E+00  0.00000000000E+00 -0.16186600507E+04  0.27316363226E+04  0.22004037446E+04 0.  0.
        4    1    3    3  502    0 -0.78106915753E+03  0.63246952180E+03 -0.13650058300E+04  0.16950897480E+04  0.12699999809E+01 0.  1.
       -4    1    3    3    0  502  0.78106915753E+03 -0.63246952180E+03 -0.25365422069E+03  0.10365465746E+04  0.12699999809E+01 0. -1.
</event>
<event>
 5   0  0.4462201E-06  0.2195684E+04  0.7818609E-02  0.8520227E-01
        1   -1    0    0  501    0  0.00000000000E+00  0.00000000000E+00  0.12641184545E+04  0.12641184545E+04  0.50400001928E-02 0. -1.
       -1   -1    0    0    0  501  0.00000000000E+00  0.00000000000E+00 -0.95343703333E+03  0.95343703335E+03  0.50400001928E-02 0.  1.
    10030    2    1    2    0    0  0.00000000000E+00  0.00000000000E+00  0.31068142118E+03  0.22175554879E+04  0.21956842661E+04 0.  0.
        3    1    3    3  502    0  0.18335651007E+03  0.31653813594E+03 -0.89007447612E+03  0.96231418182E+03  0.10100000352E+00 0.  1.
       -3    1    3    3    0  502 -0.18335651007E+03 -0.31653813594E+03  0.12007558973E+04  0.12552413060E+04  0.10100000352E+00 0. -1.
</event>
<event>
 5   0  0.9963173E-06  0.2200705E+04  0.7818609E-02  0.8518135E-01
       -2   -1    0    0    0  501  0.00000000000E+00  0.00000000000E+00  0.63965172117E+03  0.63965172117E+03  0.25500000920E-02 0. -1.
        2   -1    0    0  501    0  0.00000000000E+00  0.00000000000E+00 -0.18928670391E+04  0.18928670392E+04  0.25500000920E-02 0.  1.
    10030    2    1    2    0    0  0.00000000000E+00  0.00000000000E+00 -0.12532153180E+04  0.25325187603E+04  0.22007050321E+04 0.  0.
        4    1    3    3  502    0 -0.69169550668E+03  0.38849862164E+03  0.25085454926E+03  0.83204775750E+03  0.12699999809E+01 0. -1.
       -4    1    3    3    0  502  0.69169550668E+03 -0.38849862164E+03 -0.15040698672E+04  0.17004710028E+04  0.12699999809E+01 0.  1.
</event>
<event>
 5   0  0.4408787E-06  0.2183342E+04  0.7818609E-02  0.8525394E-01
       -1   -1    0    0    0  501  0.00000000000E+00  0.00000000000E+00  0.10445433483E+04  0.10445433483E+04  0.50400001928E-02 0.  1.
        1   -1    0    0  501    0  0.00000000000E+00  0.00000000000E+00 -0.11409245997E+04  0.11409245997E+04  0.50400001928E-02 0. -1.
    10030    2    1    2    0    0  0.00000000000E+00  0.00000000000E+00 -0.96381251350E+02  0.21854679480E+04  0.21833416604E+04 0.  0.
        1    1    3    3  502    0 -0.72286830185E+03 -0.16719441338E+03 -0.84975300470E+03  0.11280836506E+04  0.50400001928E-02 0. -1.
       -1    1    3    3    0  502  0.72286830185E+03  0.16719441338E+03  0.75337175335E+03  0.10573842974E+04  0.50400001928E-02 0.  1.
</event>
<event>
 5   0  0.1015876E-05  0.2201846E+04  0.7818609E-02  0.8517660E-01
       -2   -1    0    0    0  501  0.00000000000E+00  0.00000000000E+00  0.95020669704E+03  0.95020669704E+03  0.25500000920E-02 0. -1.
        2   -1    0    0  501    0  0.00000000000E+00  0.00000000000E+00 -0.12755447092E+04  0.12755447092E+04  0.25500000920E-02 0.  1.
    10030    2    1    2    0    0  0.00000000000E+00  0.00000000000E+00 -0.32533801218E+03  0.22257514063E+04  0.22018457031E+04 0.  0.
        5    1    3    3  502    0 -0.58134567598E+03 -0.84608498213E+03 -0.56471376488E+03  0.11716425727E+04  0.46999998093E+01 0. -1.
       -5    1    3    3    0  502  0.58134567598E+03  0.84608498213E+03  0.23937575270E+03  0.10541088335E+04  0.46999998093E+01 0.  1.
</event>
<event>
 5   0  0.1015876E-05  0.2207922E+04  0.7818609E-02  0.8515138E-01
        2   -1    0    0  501    0  0.00000000000E+00  0.00000000000E+00  0.10313281272E+04  0.10313281272E+04  0.25500000920E-02 0.  1.
       -2   -1    0    0    0  501  0.00000000000E+00  0.00000000000E+00 -0.11817093042E+04  0.11817093042E+04  0.25500000920E-02 0. -1.
    10030    2    1    2    0    0  0.00000000000E+00  0.00000000000E+00 -0.15038117698E+03  0.22130374314E+04  0.22079221396E+04 0.  0.
        5    1    3    3  502    0  0.11497106985E+03 -0.38544786203E+03  0.95525715234E+03  0.10364973316E+04  0.46999998093E+01 0.  1.
       -5    1    3    3    0  502 -0.11497106985E+03  0.38544786203E+03 -0.11056383293E+04  0.11765400998E+04  0.46999998093E+01 0. -1.
</event>
<event>
 5   0  0.1015876E-05  0.2204115E+04  0.7818609E-02  0.8516717E-01
       -2   -1    0    0    0  501  0.00000000000E+00  0.00000000000E+00  0.79955906069E+03  0.79955906070E+03  0.25500000920E-02 0.  1.
        2   -1    0    0  501    0  0.00000000000E+00  0.00000000000E+00 -0.15190000850E+04  0.15190000850E+04  0.25500000920E-02 0. -1.
    10030    2    1    2    0    0  0.00000000000E+00  0.00000000000E+00 -0.71944102432E+03  0.23185591457E+04  0.22041145897E+04 0.  0.
        5    1    3    3  502    0 -0.68204718995E+03 -0.51236245048E+03 -0.10936618011E+04  0.13870190608E+04  0.46999998093E+01 0. -1.
       -5    1    3    3    0  502  0.68204718995E+03  0.51236245048E+03  0.37422077676E+03  0.93154008488E+03  0.46999998093E+01 0.  1.
</event>
<event>
 5   0  0.9963573E-06  0.2197909E+04  0.7818609E-02  0.8519299E-01
       -2   -1    0    0    0  501  0.00000000000E+00  0.00000000000E+00  0.51201945269E+03  0.51201945269E+03  0.25500000920E-02 0. -1.
        2   -1    0    0  501    0  0.00000000000E+00  0.00000000000E+00 -0.23587008061E+04  0.23587008061E+04  0.25500000920E-02 0.  1.
    10030    2    1    2    0    0  0.00000000000E+00  0.00000000000E+00 -0.18466813534E+04  0.28707202588E+04  0.21979087295E+04 0.  0.
        2    1    3    3  502    0  0.10021666308E+04 -0.36503596849E+03 -0.12691811308E+04  0.16578329098E+04  0.25500000920E-02 0.  1.
       -2    1    3    3    0  502 -0.10021666308E+04  0.36503596849E+03 -0.57750022263E+03  0.12128873490E+04  0.25500000920E-02 0. -1.
</event>
<event>
 5   0  0.4309945E-06  0.2214414E+04  0.7818609E-02  0.8512453E-01
       -1   -1    0    0    0  501  0.00000000000E+00  0.00000000000E+00  0.14528551736E+04  0.14528551736E+04  0.50400001928E-02 0. -1.
        1   -1    0    0  501    0  0.00000000000E+00  0.00000000000E+00 -0.84379185365E+03  0.84379185366E+03  0.50400001928E-02 0.  1.
    10030    2    1    2    0    0  0.00000000000E+00  0.00000000000E+00  0.60906331991E+03  0.22966470272E+04  0.22144140173E+04 0.  0.
        4    1    3    3  502    0 -0.12653203800E+03  0.10228203711E+04 -0.11513523038E+03  0.10370292196E+04  0.12699999809E+01 0.  1.
       -4    1    3    3    0  502  0.12653203800E+03 -0.10228203711E+04  0.72419855029E+03  0.12596178076E+04  0.12699999809E+01 0. -1.
</event>
<event>
 5   0  0.1014015E-05  0.2184481E+04  0.7818609E-02  0.8524915E-01
        2   -1    0    0  501    0  0.00000000000E+00  0.00000000000E+00  0.13479011917E+04  0.13479011917E+04  0.25500000920E-02 0.  1.
       -2   -1    0    0    0  501  0.00000000000E+00  0.00000000000E+00 -0.88507214314E+03  0.88507214314E+03  0.25500000920E-02 0. -1.
    10030    2    1    2    0    0  0.00000000000E+00  0.00000000000E+00  0.46282904857E+03  0.22329733349E+04  0.21844814456E+04 0.  0.
        1    1    3    3  502    0  0.34091493040E+03  0.31678675780E+03 -0.77865657165E+03  0.90712893036E+03  0.50400001928E-02 0. -1.
       -1    1    3    3    0  502 -0.34091493040E+03 -0.31678675780E+03  0.12414856202E+04  0.13258444045E+04  0.50400001928E-02 0.  1.
</event>
<event>
 5   0  0.1015876E-05  0.2198991E+04  0.7818609E-02  0.8518848E-01
        2   -1    0    0  501    0  0.00000000000E+00  0.00000000000E+00  0.17475578195E+04  0.17475578195E+04  0.25500000920E-02 0. -1.
       -2   -1    0    0    0  501  0.00000000000E+00  0.00000000000E+00 -0.69175977912E+03  0.69175977912E+03  0.25500000920E-02 0.  1.
    10030    2    1    2    0    0  0.00000000000E+00  0.00000000000E+00  0.10557980404E+04  0.24393175986E+04  0.21989908697E+04 0.  0.
        5    1    3    3  502    0  0.74911744432E+03  0.42377989565E+03 -0.23105430359E+03  0.89116470226E+03  0.46999998093E+01 0. -1.
       -5    1    3    3    0  502 -0.74911744432E+03 -0.42377989565E+03  0.12868523440E+04  0.15481528964E+04  0.46999998093E+01 0.  1.
</event>
<event>
 5   0  0.9963173E-06  0.2189740E+04  0.7818609E-02  0.8522711E-01
       -2   -1    0    0    0  501  0.00000000000E+00  0.00000000000E+00  0.15093787929E+04  0.15093787929E+04  0.25500000920E-02 0. -1.
        2   -1    0    0  501    0  0.00000000000E+00  0.00000000000E+00 -0.79419432637E+03  0.79419432637E+03  0.25500000920E-02 0.  1.
    10030    2    1    2    0    0  0.00000000000E+00  0.00000000000E+00  0.71518446657E+03  0.23035731193E+04  0.21897397779E+04 0.  0.
        4    1    3    3  502    0 -0.76474301459E+03 -0.49550419552E+03 -0.28090467409E+03  0.95355405456E+03  0.12699999809E+01 0.  1.
       -4    1    3    3    0  502  0.76474301459E+03  0.49550419552E+03  0.99608914066E+03  0.13500190648E+04  0.12699999809E+01 0. -1.
</event>
<event>
 5   0  0.1035928E-05  0.2204200E+04  0.7818609E-02  0.8516682E-01
       -2   -1    0    0    0  501  0.00000000000E+00  0.00000000000E+00  0.78646229313E+03  0.78646229313E+03  0.25500000920E-02 0.  1.
        2   -1    0    0  501    0  0.00000000000E+00  0.00000000000E+00 -0.15444148775E+04  0.15444148775E+04  0.25500000920E-02 0. -1.
    10030    2    1    2    0    0  0.00000000000E+00  0.00000000000E+00 -0.75795258440E+03  0.23308771707E+04  0.22041996880E+04 0.  0.
        3    1    3    3  502    0  0.16905352622E+03  0.17424728363E+03 -0.15157860301E+04  0.15351053741E+04  0.10100000352E+00 0. -1.
       -3    1    3    3    0  502 -0.16905352622E+03 -0.17424728363E+03  0.75783344566E+03  0.79577179652E+03  0.10100000352E+00 0.  1.
</event>
<event>
 5   0  0.1015876E-05  0.2200871E+04  0.7818609E-02  0.8518066E-01
       -2   -1    0    0    0  501  0.00000000000E+00  0.00000000000E+00  0.10772553724E+04  0.10772553724E+04  0.25500000920E-02 0.  1.
        2   -1    0    0  501    0  0.00000000000E+00  0.00000000000E+00 -0.11241142878E+04  0.11241142878E+04  0.25500000920E-02 0. -1.
    10030    2    1    2    0    0  0.00000000000E+00  0.00000000000E+00 -0.46858915340E+02  0.22013696602E+04  0.22008708783E+04 0.  0.
        5    1    3    3  502    0  0.94328386782E+03 -0.56072096950E+02  0.54061990752E+03  0.10886783316E+04  0.46999998093E+01 0.  1.
       -5    1    3    3    0  502 -0.94328386782E+03  0.56072096950E+02 -0.58747882286E+03  0.11126913286E+04  0.46999998093E+01 0. -1.
</event>
<event>
 5   0  0.4309945E-06  0.2197955E+04  0.7818609E-02  0.8519280E-01
       -1   -1    0    0    0  501  0.00000000000E+00  0.00000000000E+00  0.21042562388E+04  0.21042562388E+04  0.50400001928E-02 0. -1.
        1   -1    0    0  501    0  0.00000000000E+00  0.00000000000E+00 -0.57395658547E+03  0.57395658549E+03  0.50400001928E-02 0.  1.
    10030    2    1    2    0    0  0.00000000000E+00  0.00000000000E+00  0.15302996533E+04  0.26782128243E+04  0.21979551641E+04 0.  0.
        4    1    3    3  502    0 -0.30579429730E+03 -0.93458697934E+03  0.16723007621E+03  0.99746202208E+03  0.12699999809E+01 0.  1.
       -4    1    3    3    0  502  0.30579429730E+03  0.93458697934E+03  0.13630695771E+04  0.16807508022E+04  0.12699999809E+01 0. -1.
</event>
<event>
 5   0  0.4462201E-06  0.2198739E+04  0.7818609E-02  0.8518953E-01
       -1   -1    0    0    0  501  0.00000000000E+00  0.00000000000E+00  0.52511593055E+03  0.52511593058E+03  0.50400001928E-02 0. -1.
        1   -1    0    0  501    0  0.00000000000E+00  0.00000000000E+00 -0.23016124341E+04  0.23016124341E+04  0.50400001928E-02 0.  1.
    10030    2    1    2    0    0  0.00000000000E+00  0.00000000000E+00 -0.17764965036E+04  0.28267283647E+04  0.21987390524E+04 0.  0.
        3    1    3    3  502    0  0.78167920612E+03 -0.72834901111E+03 -0.12212660005E+04  0.16226537885E+04  0.10100000352E+00 0.  1.
       -3    1    3    3    0  502 -0.78167920612E+03  0.72834901111E+03 -0.55523050310E+03  0.12040745762E+04  0.10100000352E+00 0. -1.
</event>
<event>
 5   0  0.4794967E-06  0.2193919E+04  0.7818609E-02  0.8520964E-01
       -1   -1    0    0    0  501  0.00000000000E+00  0.00000000000E+00  0.10213657694E+04  0.10213657694E+04  0.50400001928E-02 0. -1.
        1   -1    0    0  501    0  0.00000000000E+00  0.00000000000E+00 -0.11781476548E+04  0.11781476548E+04  0.50400001928E-02 0.  1.
    10030    2    1    2    0    0  0.00000000000E+00  0.00000000000E+00 -0.15678188538E+03  0.21995134242E+04  0.21939185818E+04 0.  0.
        5    1    3    3  502    0 -0.52539365263E+03  0.76971701630E+02  0.88391854719E+03  0.10311630430E+04  0.46999998093E+01 0. -1.
       -5    1    3    3    0  502  0.52539365263E+03 -0.76971701630E+02 -0.10407004326E+04  0.11683503813E+04  0.46999998093E+01 0.  1.
</event>
<event>
 5   0  0.1014015E-05  0.2201019E+04  0.7818609E-02  0.8518004E-01
        2   -1    0    0  501    0  0.00000000000E+00  0.00000000000E+00  0.23037508391E+04  0.23037508391E+04  0.25500000920E-02 0.  1.
       -2   -1    0    0    0  501  0.00000000000E+00  0.00000000000E+00 -0.52571711165E+03  0.52571711166E+03  0.25500000920E-02 0. -1.
    10030    2    1    2    0    0  0.00000000000E+00  0.00000000000E+00  0.17780337274E+04  0.28294679507E+04  0.22010190704E+04 0.  0.
        1    1    3    3  502    0  0.52113960104E+03 -0.74592036398E+03  0.16847333210E+04  0.19147610911E+04  0.50400001928E-02 0.  1.
       -1    1    3    3    0  502 -0.52113960104E+03  0.74592036398E+03  0.93300406449E+02  0.91470685963E+03  0.50400001928E-02 0. -1.
</event>
<event>
 5   0  0.1015876E-05  0.2204021E+04  0.7818609E-02  0.8516756E-01
       -2   -1    0    0    0  501  0.00000000000E+00  0.00000000000E+00  0.12582279269E+04  0.12582279269E+04  0.25500000920E-02 0. -1.
        2   -1    0    0  501    0  0.00000000000E+00  0.00000000000E+00 -0.96518823699E+03  0.96518823699E+03  0.25500000920E-02 0.  1.
    10030    2    1    2    0    0  0.00000000000E+00  0.00000000000E+00  0.29303968989E+03  0.22234161639E+04  0.22040206846E+04 0.  0.
        5    1    3    3  502    0  0.10715205504E+04 -0.25621364297E+03  0.12174802577E+03  0.11084432293E+04  0.46999998093E+01 0.  1.
       -5    1    3    3    0  502 -0.10715205504E+04  0.25621364297E+03  0.17129166413E+03  0.11149729346E+04  0.46999998093E+01 0. -1.
</event>
<event>
 5   0  0.4794967E-06  0.2192498E+04  0.7818609E-02  0.8521557E-01
        1   -1    0    0  501    0  0.00000000000E+00  0.00000000000E+00  0.26923689181E+04  0.26923689181E+04  0.50400001928E-02 0.  1.
       -1   -1    0    0    0  501  0.00000000000E+00  0.00000000000E+00 -0.44635838161E+03  0.44635838164E+03  0.50400001928E-02 0. -1.
    10030    2    1    2    0    0  0.00000000000E+00  0.00000000000E+00  0.22460105365E+04  0.31387272997E+04  0.21924976014E+04 0.  0.
        5    1    3    3  502    0 -0.81544718952E+02 -0.80489775293E+03  0.21820131013E+04  0.23271684938E+04  0.46999998093E+01 0.  1.
       -5    1    3    3    0  502  0.81544718952E+02  0.80489775293E+03  0.63997435131E+02  0.81155880598E+03  0.46999998093E+01 0. -1.
</event>
<event>
 5   0  0.4408787E-06  0.2201625E+04  0.7818609E-02  0.8517752E-01
        1   -1    0    0  501    0  0.00000000000E+00  0.00000000000E+00  0.27661966283E+04  0.27661966283E+04  0.50400001928E-02 0.  1.
       -1   -1    0    0    0  501  0.00000000000E+00  0.00000000000E+00 -0.43807009289E+03  0.43807009292E+03  0.50400001928E-02 0. -1.
    10030    2    1    2    0    0  0.00000000000E+00  0.00000000000E+00  0.23281265354E+04  0.32042667212E+04  0.22016248672E+04 0.  0.
        1    1    3    3  502    0 -0.21417292226E+02  0.12183946744E+03 -0.42792135386E+03  0.44544387003E+03  0.50400001928E-02 0. -1.
       -1    1    3    3    0  502  0.21417292226E+02 -0.12183946744E+03  0.27560478893E+04  0.27588228512E+04  0.50400001928E-02 0.  1.
</event>
<event>
 5   0  0.9963173E-06  0.2183419E+04  0.7818609E-02  0.8525361E-01
       -2   -1    0    0    0  501  0.00000000000E+00  0.00000000000E+00  0.67261026085E+03  0.67261026086E+03  0.25500000920E-02 0. -1.
        2   -1    0    0  501    0  0.00000000000E+00  0.00000000000E+00 -0.17719465382E+04  0.17719465382E+04  0.25500000920E-02 0.  1.
    10030    2    1    2    0    0  0.00000000000E+00  0.00000000000E+00 -0.10993362773E+04  0.24445567990E+04  0.21834188084E+04 0.  0.
        4    1    3    3  502    0 -0.90536843953E+03 -0.61000593513E+03 -0.55565126703E+03  0.12249690591E+04  0.12699999809E+01 0.  1.
       -4    1    3    3    0  502  0.90536843953E+03  0.61000593513E+03 -0.54368501029E+03  0.12195877400E+04  0.12699999809E+01 0. -1.
</event>
<event>
 5   0  0.4408787E-06  0.2204413E+04  0.7818609E-02  0.8516594E-01
        1   -1    0    0  501    0  0.00000000000E+00  0.00000000000E+00  0.69822946380E+03  0.69822946382E+03  0.50400001928E-02 0. -1.
       -1   -1    0    0    0  501  0.00000000000E+00  0.00000000000E+00 -0.17399135758E+04  0.17399135759E+04  0.50400001928E-02 0.  1.
    10030    2    1    2    0    0  0.00000000000E+00  0.00000000000E+00 -0.10416841120E+04  0.24381430397E+04  0.22044127773E+04 0.  0.
        1    1    3    3  502    0 -0.10665030465E+04 -0.10522416496E+03 -0.80575558335E+03  0.13407993635E+04  0.50400001928E-02 0. -1.
       -1    1    3    3    0  502  0.10665030465E+04  0.10522416496E+03 -0.23592852869E+03  0.10973436762E+04  0.50400001928E-02 0.  1.
</event>
<event>
 5   0  0.9963173E-06  0.2156684E+04  0.7818609E-02  0.8536676E-01
        2   -1    0    0  501    0  0.00000000000E+00  0.00000000000E+00  0.12496125932E+04  0.12496125933E+04  0.25500000920E-02 0. -1.
       -2   -1    0    0    0  501  0.00000000000E+00  0.00000000000E+00 -0.93054594611E+03  0.93054594612E+03  0.25500000920E-02 0.  1.
    10030    2    1    2    0    0  0.00000000000E+00  0.00000000000E+00  0.31906664714E+03  0.21801585394E+04  0.21566844302E+04 0.  0.
        4    1    3    3  502    0 -0.11771589549E+03 -0.10618275497E+04  0.11358425708E+02  0.10683938431E+04  0.12699999809E+01 0. -1.
       -4    1    3    3    0  502  0.11771589549E+03  0.10618275497E+04  0.30770822143E+03  0.11117646962E+04  0.12699999809E+01 0.  1.
</event>
<event>
 5   0  0.1014015E-05  0.2198741E+04  0.7818609E-02  0.8518952E-01
        2   -1    0    0  501    0  0.00000000000E+00  0.00000000000E+00  0.10437933298E+04  0.10437933298E+04  0.25500000920E-02 0.  1.
       -2   -1    0    0    0  501  0.00000000000E+00  0.00000000000E+00 -0.11579071976E+04  0.11579071976E+04  0.25500000920E-02 0. -1.
    10030    2    1    2    0    0  0.00000000000E+00  0.00000000000E+00 -0.11411386774E+03  0.22017005274E+04  0.21987412848E+04 0.  0.
        1    1    3    3  502    0 -0.76995564031E+03 -0.17297042463E+03  0.70939164500E+03  0.10611253281E+04  0.50400001928E-02 0.  1.
       -1    1    3    3    0  502  0.76995564031E+03  0.17297042463E+03 -0.82350551274E+03  0.11405751994E+04  0.50400001928E-02 0. -1.
</event>
<event>
 5   0  0.3546750E-06  0.2201292E+04  0.7818609E-02  0.8517890E-01
       -4   -1    0    0    0  501  0.00000000000E+00  0.00000000000E+00  0.99758225891E+03  0.99758306732E+03  0.12699999809E+01 0.  1.
        4   -1    0    0  501    0  0.00000000000E+00  0.00000000000E+00 -0.12143563583E+04  0.12143570224E+04  0.12699999809E+01 0. -1.
    10030    2    1    2    0    0  0.00000000000E+00  0.00000000000E+00 -0.21677409935E+03  0.22119400897E+04  0.22012923364E+04 0.  0.
        1    1    3    3  502    0 -0.72703490616E+03  0.65825727406E+03  0.39356862723E+03  0.10567774875E+04  0.50400001928E-02 0.  1.
       -1    1    3    3    0  502  0.72703490616E+03 -0.65825727406E+03 -0.61034272658E+03  0.11551626022E+04  0.50400001928E-02 0. -1.
</event>
<event>
 5   0  0.4408787E-06  0.2203660E+04  0.7818609E-02  0.8516906E-01
        1   -1    0    0  501    0  0.00000000000E+00  0.00000000000E+00  0.15815375752E+04  0.15815375752E+04  0.50400001928E-02 0. -1.
       -1   -1    0    0    0  501  0.00000000000E+00  0.00000000000E+00 -0.76762596225E+03  0.76762596227E+03  0.50400001928E-02 0.  1.
    10030    2    1    2    0    0  0.00000000000E+00  0.00000000000E+00  0.81391161291E+03  0.23491635374E+04  0.22036599583E+04 0.  0.
        1    1    3    3  502    0 -0.64033439139E+03  0.50879205251E+03 -0.38012520757E+03  0.90188284103E+03  0.50400001928E-02 0.  1.
       -1    1    3    3    0  502  0.64033439139E+03 -0.50879205251E+03  0.11940368205E+04  0.14472806964E+04  0.50400001928E-02 0. -1.
</event>
<event>
 5   0  0.3546750E-06  0.2201703E+04  0.7818609E-02  0.8517720E-01
       -3   -1    0    0    0  501  0.00000000000E+00  0.00000000000E+00  0.15232317385E+04  0.15232317419E+04  0.10100000352E+00 0.  1.
        3   -1    0    0  501    0  0.00000000000E+00  0.00000000000E+00 -0.79559366138E+03  0.79559366779E+03  0.10100000352E+00 0. -1.
    10030    2    1    2    0    0  0.00000000000E+00  0.00000000000E+00  0.72763807713E+03  0.23188254096E+04  0.22017025478E+04 0.  0.
        2    1    3    3  502    0  0.62786776678E+03  0.53770539024E+03  0.11294925351E+04  0.13996779652E+04  0.25500000920E-02 0.  1.
       -2    1    3    3    0  502 -0.62786776678E+03 -0.53770539024E+03 -0.40185445801E+03  0.91914744447E+03  0.25500000920E-02 0. -1.
</event>
<event>
 5   0  0.9963173E-06  0.2196594E+04  0.7818609E-02  0.8519847E-01
        2   -1    0    0  501    0  0.00000000000E+00  0.00000000000E+00  0.15294578667E+04  0.15294578667E+04  0.25500000920E-02 0.  1.
       -2   -1    0    0    0  501  0.00000000000E+00  0.00000000000E+00 -0.78868234236E+03  0.78868234237E+03  0.25500000920E-02 0. -1.
    10030    2    1    2    0    0  0.00000000000E+00  0.00000000000E+00  0.74077552431E+03  0.23181402090E+04  0.21965941025E+04 0.  0.
        4    1    3    3  502    0  0.50725221455E+03 -0.83507326941E+03 -0.15896778826E+03  0.98991138242E+03  0.12699999809E+01 0. -1.
       -4    1    3    3    0  502 -0.50725221455E+03  0.83507326941E+03  0.89974331257E+03  0.13282288266E+04  0.12699999809E+01 0.  1.
</event>
<event>
 5   0  0.4309945E-06  0.2198114E+04  0.7818609E-02  0.8519213E-01
       -1   -1    0    0    0  501  0.00000000000E+00  0.00000000000E+00  0.18121029185E+04  0.18121029185E+04  0.50400001928E-02 0.  1.
        1   -1    0    0  501    0  0.00000000000E+00  0.00000000000E+00 -0.66658817119E+03  0.66658817121E+03  0.50400001928E-02 0. -1.
    10030    2    1    2    0    0  0.00000000000E+00  0.00000000000E+00  0.11455147473E+04  0.24786910897E+04  0.21981140739E+04 0.  0.
        4    1    3    3  502    0 -0.90192956155E+03 -0.30143481052E+03 -0.48558209950E+02  0.95220764103E+03  0.12699999809E+01 0. -1.
       -4    1    3    3    0  502  0.90192956155E+03  0.30143481052E+03  0.11940729573E+04  0.15264834487E+04  0.12699999809E+01 0.  1.
</event>
<event>
 5   0  0.9963173E-06  0.2199677E+04  0.7818609E-02  0.8518563E-01
        2   -1    0    0  501    0  0.00000000000E+00  0.00000000000E+00  0.21684315868E+04  0.21684315868E+04  0.25500000920E-02 0.  1.
       -2   -1    0    0    0  501  0.00000000000E+00  0.00000000000E+00 -0.55784313553E+03  0.55784313553E+03  0.25500000920E-02 0. -1.
    10030    2    1    2    0    0  0.00000000000E+00  0.00000000000E+00  0.16105884513E+04  0.27262747223E+04  0.21996769541E+04 0.  0.
        4    1    3    3  502    0  0.98221379567E+03  0.17455912279E+03  0.23137377881E+03  0.10240850874E+04  0.12699999809E+01 0. -1.
       -4    1    3    3    0  502 -0.98221379567E+03 -0.17455912279E+03  0.13792146725E+04  0.17021896350E+04  0.12699999809E+01 0.  1.
</event>
<event>
 5   0  0.4630615E-06  0.2197258E+04  0.7818609E-02  0.8519570E-01
        1   -1    0    0  501    0  0.00000000000E+00  0.00000000000E+00  0.11974689100E+04  0.11974689100E+04  0.50400001928E-02 0.  1.
       -1   -1    0    0    0  501  0.00000000000E+00  0.00000000000E+00 -0.10079475688E+04  0.10079475689E+04  0.50400001928E-02 0. -1.
    10030    2    1    2    0    0  0.00000000000E+00  0.00000000000E+00  0.18952134114E+03  0.22054164789E+04  0.21972581793E+04 0.  0.
        2    1    3    3  502    0  0.12653422159E+03 -0.38874782538E+03  0.11182772772E+04  0.11906636174E+04  0.25500000920E-02 0.  1.
       -2    1    3    3    0  502 -0.12653422159E+03  0.38874782538E+03 -0.92875593611E+03  0.10147528615E+04  0.25500000920E-02 0. -1.
</event>
<event>
 5   0  0.1014015E-05  0.2207366E+04  0.7818609E-02  0.8515368E-01
       -2   -1    0    0    0  501  0.00000000000E+00  0.00000000000E+00  0.10093078127E+04  0.10093078127E+04  0.25500000920E-02 0. -1.
        2   -1    0    0  501    0  0.00000000000E+00  0.00000000000E+00 -0.12068831681E+04  0.12068831681E+04  0.25500000920E-02 0.  1.
    10030    2    1    2    0    0  0.00000000000E+00  0.00000000000E+00 -0.19757535541E+03  0.22161909809E+04  0.22073664043E+04 0.  0.
        1    1    3    3  502    0  0.75328122728E+03 -0.60272269098E+03 -0.63703665009E+03  0.11560808549E+04  0.50400001928E-02 0.  1.
       -1    1    3    3    0  502 -0.75328122728E+03  0.60272269098E+03  0.43946129468E+03  0.10601101259E+04  0.50400001928E-02 0. -1.
</event>
<event>
 5   0  0.4408787E-06  0.2189467E+04  0.7818609E-02  0.8522825E-01
        1   -1    0    0  501    0  0.00000000000E+00  0.00000000000E+00  0.12321203722E+04  0.12321203722E+04  0.50400001928E-02 0.  1.
       -1   -1    0    0    0  501  0.00000000000E+00  0.00000000000E+00 -0.97266559996E+03  0.97266559997E+03  0.50400001928E-02 0. -1.
    10030    2    1    2    0    0  0.00000000000E+00  0.00000000000E+00  0.25945477227E+03  0.22047859722E+04  0.21894666941E+04 0.  0.
        1    1    3    3  502    0 -0.24186196150E+03  0.78167186667E+03 -0.60263902812E+03  0.10162095816E+04  0.50400001928E-02 0. -1.
       -1    1    3    3    0  502  0.24186196150E+03 -0.78167186667E+03  0.86209380038E+03  0.11885763906E+04  0.50400001928E-02 0.  1.
</event>
<event>
 5   0  0.4408787E-06  0.2199888E+04  0.7818609E-02  0.8518475E-01
       -1   -1    0    0    0  501  0.00000000000E+00  0.00000000000E+00  0.10189553664E+04  0.10189553664E+04  0.50400001928E-02 0.  1.
        1   -1    0    0  501    0  0.00000000000E+00  0.00000000000E+00 -0.11873701500E+04  0.11873701500E+04  0.50400001928E-02 0. -1.
    10030    2    1    2    0    0  0.00000000000E+00  0.00000000000E+00 -0.16841478358E+03  0.22063255164E+04  0.21998883483E+04 0.  0.
        1    1    3    3  502    0  0.72117838033E+03 -0.73993203292E+02  0.74543983746E+03  0.10398335452E+04  0.50400001928E-02 0.  1.
       -1    1    3    3    0  502 -0.72117838033E+03  0.73993203292E+02 -0.91385462104E+03  0.11664919712E+04  0.50400001928E-02 0. -1.
</event>
<event>
 5   0  0.4462201E-06  0.2199755E+04  0.7818609E-02  0.8518530E-01
       -1   -1    0    0    0  501  0.00000000000E+00  0.00000000000E+00  0.12607039077E+04  0.12607039077E+04  0.50400001928E-02 0. -1.
        1   -1    0    0  501    0  0.00000000000E+00  0.00000000000E+00 -0.95956764848E+03  0.95956764849E+03  0.50400001928E-02 0.  1.
    10030    2    1    2    0    0  0.00000000000E+00  0.00000000000E+00  0.30113625925E+03  0.22202715562E+04  0.21997551538E+04 0.  0.
        3    1    3    3  502    0  0.22276958686E+03  0.45297394077E+03 -0.83574546080E+03  0.97636169799E+03  0.10100000352E+00 0.  1.
       -3    1    3    3    0  502 -0.22276958686E+03 -0.45297394077E+03  0.11368817200E+04  0.12439098582E+04  0.10100000352E+00 0. -1.
</event>
<event>
 5   0  0.1035928E-05  0.2201221E+04  0.7818609E-02  0.8517920E-01
       -2   -1    0    0    0  501  0.00000000000E+00  0.00000000000E+00  0.72657166382E+03  0.72657166382E+03  0.25500000920E-02 0.  1.
        2   -1    0    0  501    0  0.00000000000E+00  0.00000000000E+00 -0.16672044432E+04  0.16672044432E+04  0.25500000920E-02 0. -1.
    10030    2    1    2    0    0  0.00000000000E+00  0.00000000000E+00 -0.94063277940E+03  0.23937761070E+04  0.22012210305E+04 0.  0.
        3    1    3    3  502    0 -0.55333754026E+03 -0.68711940381E+03 -0.11859287904E+04  0.14780874854E+04  0.10100000352E+00 0. -1.
       -3    1    3    3    0  502  0.55333754026E+03  0.68711940381E+03  0.24529601097E+03  0.91568862161E+03  0.10100000352E+00 0.  1.
</event>
<event>
 5   0  0.9963573E-06  0.2198171E+04  0.7818609E-02  0.8519190E-01
       -2   -1    0    0    0  501  0.00000000000E+00  0.00000000000E+00  0.98988147537E+03  0.98988147537E+03  0.25500000920E-02 0.  1.
        2   -1    0    0  501    0  0.00000000000E+00  0.00000000000E+00 -0.12203370361E+04  0.12203370361E+04  0.25500000920E-02 0. -1.
    10030    2    1    2    0    0  0.00000000000E+00  0.00000000000E+00 -0.23045556075E+03  0.22102185115E+04  0.21981710814E+04 0.  0.
        2    1    3    3  502    0  0.51385314478E+03  0.11753156353E+03  0.85449058042E+03  0.10039984436E+04  0.25500000920E-02 0.  1.
       -2    1    3    3    0  502 -0.51385314478E+03 -0.11753156353E+03 -0.10849461412E+04  0.12062200678E+04  0.25500000920E-02 0. -1.
</event>
<event>
 5   0  0.4309945E-06  0.2196392E+04  0.7818609E-02  0.8519931E-01
       -1   -1    0    0    0  501  0.00000000000E+00  0.00000000000E+00  0.76983149485E+03  0.76983149486E+03  0.50400001928E-02 0. -1.
        1   -1    0    0  501    0  0.00000000000E+00  0.00000000000E+00 -0.15666215259E+04  0.15666215259E+04  0.50400001928E-02 0.  1.
    10030    2    1    2    0    0  0.00000000000E+00  0.00000000000E+00 -0.79679003101E+03  0.23364530207E+04  0.21963921245E+04 0.  0.
        4    1    3    3  502    0 -0.33902599610E+03  0.57641713074E+03 -0.13250575586E+04  0.14842420561E+04  0.12699999809E+01 0.  1.
       -4    1    3    3    0  502  0.33902599610E+03 -0.57641713074E+03  0.52826752757E+03  0.85221096463E+03  0.12699999809E+01 0. -1.
</event>
<event>
 5   0  0.1014015E-05  0.2202597E+04  0.7818609E-02  0.8517348E-01
       -2   -1    0    0    0  501  0.00000000000E+00  0.00000000000E+00  0.99328979822E+03  0.99328979822E+03  0.25500000920E-02 0. -1.
        2   -1    0    0  501    0  0.00000000000E+00  0.00000000000E+00 -0.12210518253E+04  0.12210518253E+04  0.25500000920E-02 0.  1.
    10030    2    1    2    0    0  0.00000000000E+00  0.00000000000E+00 -0.22776202708E+03  0.22143416235E+04  0.22025969410E+04 0.  0.
        1    1    3    3  502    0 -0.43676134906E+02  0.10349101754E+04  0.26216113340E+03  0.10684919915E+04  0.50400001928E-02 0. -1.
       -1    1    3    3    0  502  0.43676134906E+02 -0.10349101754E+04 -0.48992316048E+03  0.11458496320E+04  0.50400001928E-02 0.  1.
</event>
<event>
 5   0  0.1015876E-05  0.2210451E+04  0.7818609E-02  0.8514091E-01
       -2   -1    0    0    0  501  0.00000000000E+00  0.00000000000E+00  0.50271113637E+03  0.50271113638E+03  0.25500000920E-02 0.  1.
        2   -1    0    0  501    0  0.00000000000E+00  0.00000000000E+00 -0.24298712833E+04  0.24298712833E+04  0.25500000920E-02 0. -1.
    10030    2    1    2    0    0  0.00000000000E+00  0.00000000000E+00 -0.19271601469E+04  0.29325824197E+04  0.22104509532E+04 0.  0.
        5    1    3    3  502    0  0.10335675023E+04  0.11455691573E+03 -0.46697230185E+03  0.11399431080E+04  0.46999998093E+01 0.  1.
       -5    1    3    3    0  502 -0.10335675023E+04 -0.11455691573E+03 -0.14601878451E+04  0.17926393117E+04  0.46999998093E+01 0. -1.
</event>
<event>
 5   0  0.4309945E-06  0.2198534E+04  0.7818609E-02  0.8519039E-01
       -1   -1    0    0    0  501  0.00000000000E+00  0.00000000000E+00  0.11563648597E+04  0.11563648597E+04  0.50400001928E-02 0. -1.
        1   -1    0    0  501    0  0.00000000000E+00  0.00000000000E+00 -0.10449882637E+04  0.10449882637E+04  0.50400001928E-02 0.  1.
    10030    2    1    2    0    0  0.00000000000E+00  0.00000000000E+00  0.11137659602E+03  0.22013531233E+04  0.21985337904E+04 0.  0.
        4    1    3    3  502    0  0.10727924100E+04 -0.23235280903E+03 -0.36727275293E+01  0.10976732139E+04  0.12699999809E+01 0.  1.
       -4    1    3    3    0  502 -0.10727924100E+04  0.23235280903E+03  0.11504932354E+03  0.11036799094E+04  0.12699999809E+01 0. -1.
</event>
<event>
 5   0  0.1014015E-05  0.2198242E+04  0.7818609E-02  0.8519160E-01
       -2   -1    0    0    0  501  0.00000000000E+00  0.00000000000E+00  0.10485842400E+04  0.10485842400E+04  0.25500000920E-02 0.  1.
        2   -1    0    0  501    0  0.00000000000E+00  0.00000000000E+00 -0.11520932757E+04  0.11520932757E+04  0.25500000920E-02 0. -1.
    10030    2    1    2    0    0  0.00000000000E+00  0.00000000000E+00 -0.10350903571E+03  0.22006775158E+04  0.21982418902E+04 0.  0.
        1    1    3    3  502    0 -0.80501968249E+03  0.24255048334E+03  0.65697014140E+03  0.10670038392E+04  0.50400001928E-02 0.  1.
       -1    1    3    3    0  502  0.80501968249E+03 -0.24255048334E+03 -0.76047917710E+03  0.11336736766E+04  0.50400001928E-02 0. -1.
</event>
<event>
 5   0  0.4408787E-06  0.2201699E+04  0.7818609E-02  0.8517721E-01
        1   -1    0    0  501    0  0.00000000000E+00  0.00000000000E+00  0.25485292760E+04  0.25485292760E+04  0.50400001928E-02 0.  1.
       -1   -1    0    0    0  501  0.00000000000E+00  0.00000000000E+00 -0.47551744077E+03  0.47551744080E+03  0.50400001928E-02 0. -1.
    10030    2    1    2    0    0  0.00000000000E+00  0.00000000000E+00  0.20730118352E+04  0.30240467168E+04  0.22016994519E+04 0.  0.
        1    1    3    3  502    0 -0.45980938684E+03  0.89446829443E+03  0.16513271944E+04  0.19334889979E+04  0.50400001928E-02 0. -1.
       -1    1    3    3    0  502  0.45980938684E+03 -0.89446829443E+03  0.42168464086E+03  0.10905577189E+04  0.50400001928E-02 0.  1.
</event>
<event>
 5   0  0.1014015E-05  0.2197207E+04  0.7818609E-02  0.8519592E-01
       -2   -1    0    0    0  501  0.00000000000E+00  0.00000000000E+00  0.62892545877E+03  0.62892545877E+03  0.25500000920E-02 0.  1.
        2   -1    0    0  501    0  0.00000000000E+00  0.00000000000E+00 -0.19190341547E+04  0.19190341547E+04  0.25500000920E-02 0. -1.
    10030    2    1    2    0    0  0.00000000000E+00  0.00000000000E+00 -0.12901086960E+04  0.25479596135E+04  0.21972068052E+04 0.  0.
        1    1    3    3  502    0  0.32600312832E+03  0.10403528313E+04 -0.48810724078E+03  0.11945127592E+04  0.50400001928E-02 0.  1.
       -1    1    3    3    0  502 -0.32600312832E+03 -0.10403528313E+04 -0.80200145519E+03  0.13534468543E+04  0.50400001928E-02 0. -1.
</event>
<event>
 5   0  0.4309945E-06  0.2200116E+04  0.7818609E-02  0.8518380E-01
       -1   -1    0    0    0  501  0.00000000000E+00  0.00000000000E+00  0.79155514190E+03  0.79155514191E+03  0.50400001928E-02 0. -1.
        1   -1    0    0  501    0  0.00000000000E+00  0.00000000000E+00 -0.15287974489E+04  0.15287974489E+04  0.50400001928E-02 0.  1.
    10030    2    1    2    0    0  0.00000000000E+00  0.00000000000E+00 -0.73724230704E+03  0.23203525909E+04  0.22001158894E+04 0.  0.
        4    1    3    3  502    0 -0.55268438060E+03 -0.76485190274E+03  0.22766895859E+03  0.97071789171E+03  0.12699999809E+01 0.  1.
       -4    1    3    3    0  502  0.55268438060E+03  0.76485190274E+03 -0.96491126563E+03  0.13496346991E+04  0.12699999809E+01 0. -1.
</event>
<event>
 5   0  0.9963573E-06  0.2197919E+04  0.7818609E-02  0.8519295E-01
        2   -1    0    0  501    0  0.00000000000E+00  0.00000000000E+00  0.71104504947E+03  0.71104504947E+03  0.25500000920E-02 0. -1.
       -2   -1    0    0    0  501  0.00000000000E+00  0.00000000000E+00 -0.16985022173E+04  0.16985022173E+04  0.25500000920E-02 0.  1.
    10030    2    1    2    0    0  0.00000000000E+00  0.00000000000E+00 -0.98745716786E+03  0.24095472668E+04  0.21979186456E+04 0.  0.
        2    1    3    3  502    0 -0.75362460832E+02 -0.10925249044E+04 -0.39312425817E+03  0.11635449495E+04  0.25500000920E-02 0. -1.
       -2    1    3    3    0  502  0.75362460832E+02  0.10925249044E+04 -0.59433290969E+03  0.12460023173E+04  0.25500000920E-02 0.  1.
</event>
<event>
 5   0  0.9963573E-06  0.2199616E+04  0.7818609E-02  0.8518588E-01
       -2   -1    0    0    0  501  0.00000000000E+00  0.00000000000E+00  0.12651567579E+04  0.12651567579E+04  0.25500000920E-02 0. -1.
        2   -1    0    0  501    0  0.00000000000E+00  0.00000000000E+00 -0.95606933390E+03  0.95606933390E+03  0.25500000920E-02 0.  1.
    10030    2    1    2    0    0  0.00000000000E+00  0.00000000000E+00  0.30908742397E+03  0.22212260918E+04  0.21996159472E+04 0.  0.
        2    1    3    3  502    0  0.52796954877E+02 -0.10979453164E+04  0.11804805508E+03  0.11055346126E+04  0.25500000920E-02 0. -1.
       -2    1    3    3    0  502 -0.52796954877E+02  0.10979453164E+04  0.19103936889E+03  0.11156914792E+04  0.25500000920E-02 0.  1.
</event>
<event>
 5   0  0.4309945E-06  0.2196245E+04  0.7818609E-02  0.8519992E-01
        1   -1    0    0  501    0  0.00000000000E+00  0.00000000000E+00  0.11852024792E+04  0.11852024792E+04  0.50400001928E-02 0.  1.
       -1   -1    0    0    0  501  0.00000000000E+00  0.00000000000E+00 -0.10174408374E+04  0.10174408374E+04  0.50400001928E-02 0. -1.
    10030    2    1    2    0    0  0.00000000000E+00  0.00000000000E+00  0.16776164179E+03  0.22026433167E+04  0.21962453442E+04 0.  0.
        4    1    3    3  502    0  0.52753123927E+03  0.44664947352E+03 -0.77188494587E+03  0.10361433024E+04  0.12699999809E+01 0. -1.
       -4    1    3    3    0  502 -0.52753123927E+03 -0.44664947352E+03  0.93964658767E+03  0.11665000142E+04  0.12699999809E+01 0.  1.
</event>
<event>
 5   0  0.4794967E-06  0.2195418E+04  0.7818609E-02  0.8520338E-01
        1   -1    0    0  501    0  0.00000000000E+00  0.00000000000E+00  0.89501907337E+03  0.89501907338E+03  0.50400001928E-02 0.  1.
       -1   -1    0    0    0  501  0.00000000000E+00  0.00000000000E+00 -0.13463009578E+04  0.13463009578E+04  0.50400001928E-02 0. -1.
    10030    2    1    2    0    0  0.00000000000E+00  0.00000000000E+00 -0.45128188438E+03  0.22413200311E+04  0.21954179882E+04 0.  0.
        5    1    3    3  502    0  0.35814957654E+03  0.98751344223E+03  0.99593252670E+02  0.10551752574E+04  0.46999998093E+01 0. -1.
       -5    1    3    3    0  502 -0.35814957654E+03 -0.98751344223E+03 -0.55087513705E+03  0.11861447738E+04  0.46999998093E+01 0.  1.
</event>
<event>
 5   0  0.4630615E-06  0.2200542E+04  0.7818609E-02  0.8518203E-01
        1   -1    0    0  501    0  0.00000000000E+00  0.00000000000E+00  0.12883963746E+04  0.12883963746E+04  0.50400001928E-02 0. -1.
       -1   -1    0    0    0  501  0.00000000000E+00  0.00000000000E+00 -0.93961478540E+03  0.93961478541E+03  0.50400001928E-02 0.  1.
    10030    2    1    2    0    0  0.00000000000E+00  0.00000000000E+00  0.34878158920E+03  0.22280111600E+04  0.22005420087E+04 0.  0.
        2    1    3    3  502    0 -0.65632614753E+03 -0.75958339149E+03  0.63041891886E+03  0.11853940078E+04  0.25500000920E-02 0. -1.
       -2    1    3    3    0  502  0.65632614753E+03  0.75958339149E+03 -0.28163732966E+03  0.10426171522E+04  0.25500000920E-02 0.  1.
</event>
<event>
 5   0  0.1035928E-05  0.2200370E+04  0.7818609E-02  0.8518274E-01
        2   -1    0    0  501    0  0.00000000000E+00  0.00000000000E+00  0.11843426816E+04  0.11843426816E+04  0.25500000920E-02 0. -1.
       -2   -1    0    0    0  501  0.00000000000E+00  0.00000000000E+00 -0.10220076054E+04  0.10220076054E+04  0.25500000920E-02 0.  1.
    10030    2    1    2    0    0  0.00000000000E+00  0.00000000000E+00  0.16233507611E+03  0.22063502870E+04  0.22003701761E+04 0.  0.
        3    1    3    3  502    0  0.10982422953E+04 -0.63229661456E+02  0.64597234069E+02  0.11019559619E+04  0.10100000352E+00 0.  1.
       -3    1    3    3    0  502 -0.10982422953E+04  0.63229661456E+02  0.97737842043E+02  0.11043943250E+04  0.10100000352E+00 0. -1.
</event>
<event>
 5   0  0.4630615E-06  0.2202954E+04  0.7818609E-02  0.8517200E-01
       -1   -1    0    0    0  501  0.00000000000E+00  0.00000000000E+00  0.80941702069E+03  0.80941702071E+03  0.50400001928E-02 0. -1.
        1   -1    0    0  501    0  0.00000000000E+00  0.00000000000E+00 -0.14989204557E+04  0.14989204557E+04  0.50400001928E-02 0.  1.
    10030    2    1    2    0    0  0.00000000000E+00  0.00000000000E+00 -0.68950343505E+03  0.23083374765E+04  0.22029541344E+04 0.  0.
        2    1    3    3  502    0  0.46148927572E+03  0.72056994156E+03 -0.10715145690E+04  0.13712537562E+04  0.25500000920E-02 0.  1.
       -2    1    3    3    0  502 -0.46148927572E+03 -0.72056994156E+03  0.38201113397E+03  0.93708372025E+03  0.25500000920E-02 0. -1.
</event>
<event>
 5   0  0.4408787E-06  0.2196662E+04  0.7818609E-02  0.8519819E-01
       -1   -1    0    0    0  501  0.00000000000E+00  0.00000000000E+00  0.13304528320E+04  0.13304528320E+04  0.50400001928E-02 0.  1.
        1   -1    0    0  501    0  0.00000000000E+00  0.00000000000E+00 -0.90670739839E+03  0.90670739840E+03  0.50400001928E-02 0. -1.
    10030    2    1    2    0    0  0.00000000000E+00  0.00000000000E+00  0.42374543362E+03  0.22371602304E+04  0.21966624010E+04 0.  0.
        1    1    3    3  502    0 -0.10257673411E+04 -0.32636910871E+03 -0.10361126058E+02  0.10764863148E+04  0.50400001928E-02 0. -1.
       -1    1    3    3    0  502  0.10257673411E+04  0.32636910871E+03  0.43410655968E+03  0.11606739156E+04  0.50400001928E-02 0.  1.
</event>
<event>
 5   0  0.1014015E-05  0.2181480E+04  0.7818609E-02  0.8526176E-01
       -2   -1    0    0    0  501  0.00000000000E+00  0.00000000000E+00  0.86263515767E+03  0.86263515767E+03  0.25500000920E-02 0.  1.
        2   -1    0    0  501    0  0.00000000000E+00  0.00000000000E+00 -0.13791620396E+04  0.13791620396E+04  0.25500000920E-02 0. -1.
    10030    2    1    2    0    0  0.00000000000E+00  0.00000000000E+00 -0.51652688189E+03  0.22417971972E+04  0.21814799229E+04 0.  0.
        1    1    3    3  502    0 -0.43370122836E+03 -0.42854995039E+03  0.67115572765E+03  0.90675345395E+03  0.50400001928E-02 0.  1.
       -1    1    3    3    0  502  0.43370122836E+03  0.42854995039E+03 -0.11876826095E+04  0.13350437433E+04  0.50400001928E-02 0. -1.
</event>
<event>
 5   0  0.4794967E-06  0.2201407E+04  0.7818609E-02  0.8517843E-01
       -1   -1    0    0    0  501  0.00000000000E+00  0.00000000000E+00  0.98785906472E+03  0.98785906473E+03  0.50400001928E-02 0.  1.
        1   -1    0    0  501    0  0.00000000000E+00  0.00000000000E+00 -0.12264380038E+04  0.12264380038E+04  0.50400001928E-02 0. -1.
    10030    2    1    2    0    0  0.00000000000E+00  0.00000000000E+00 -0.23857893909E+03  0.22142970685E+04  0.22014067315E+04 0.  0.
        5    1    3    3  502    0 -0.19883872985E+03  0.94392276628E+03  0.41390767173E+03  0.10496993283E+04  0.46999998093E+01 0. -1.
       -5    1    3    3    0  502  0.19883872985E+03 -0.94392276628E+03 -0.65248661082E+03  0.11645977402E+04  0.46999998093E+01 0.  1.
</event>
<event>
 5   0  0.4794967E-06  0.2199751E+04  0.7818609E-02  0.8518532E-01
        1   -1    0    0  501    0  0.00000000000E+00  0.00000000000E+00  0.85910627555E+03  0.85910627556E+03  0.50400001928E-02 0. -1.
       -1   -1    0    0    0  501  0.00000000000E+00  0.00000000000E+00 -0.14081219440E+04  0.14081219440E+04  0.50400001928E-02 0.  1.
    10030    2    1    2    0    0  0.00000000000E+00  0.00000000000E+00 -0.54901566845E+03  0.22672282196E+04  0.21997512576E+04 0.  0.
        5    1    3    3  502    0 -0.40298387472E+03 -0.28938007214E+03 -0.12862334147E+04  0.13786062950E+04  0.46999998093E+01 0.  1.
       -5    1    3    3    0  502  0.40298387472E+03  0.28938007214E+03  0.73721774627E+03  0.88862192458E+03  0.46999998093E+01 0. -1.
</event>
<event>
 5   0  0.9963573E-06  0.2201584E+04  0.7818609E-02  0.8517769E-01
       -2   -1    0    0    0  501  0.00000000000E+00  0.00000000000E+00  0.10203937484E+04  0.10203937484E+04  0.25500000920E-02 0. -1.
        2   -1    0    0  501    0  0.00000000000E+00  0.00000000000E+00 -0.11875248643E+04  0.11875248644E+04  0.25500000920E-02 0.  1.
    10030    2    1    2    0    0  0.00000000000E+00  0.00000000000E+00 -0.16713111593E+03  0.22079186128E+04  0.22015839277E+04 0.  0.
        2    1    3    3  502    0  0.25778939927E+03  0.10593697000E+04  0.68605709288E+02  0.10924405151E+04  0.25500000920E-02 0.  1.
       -2    1    3    3    0  502 -0.25778939927E+03 -0.10593697000E+04 -0.23573682521E+03  0.11154780977E+04  0.25500000920E-02 0. -1.
</event>
<event>
 5   0  0.9963573E-06  0.2164974E+04  0.7818609E-02  0.8533150E-01
       -2   -1    0    0    0  501  0.00000000000E+00  0.00000000000E+00  0.94408233356E+03  0.94408233356E+03  0.25500000920E-02 0. -1.
        2   -1    0    0  501    0  0.00000000000E+00  0.00000000000E+00 -0.12411824621E+04  0.12411824621E+04  0.25500000920E-02 0.  1.
    10030    2    1    2    0    0  0.00000000000E+00  0.00000000000E+00 -0.29710012856E+03  0.21852647957E+04  0.21649743049E+04 0.  0.
        2    1    3    3  502    0 -0.51284484290E+03  0.84408900486E+03  0.29863980069E+03  0.10318341977E+04  0.25500000920E-02 0. -1.
       -2    1    3    3    0  502  0.51284484290E+03 -0.84408900486E+03 -0.59573992925E+03  0.11534305980E+04  0.25500000920E-02 0.  1.
</event>
<event>
 5   0  0.4462201E-06  0.2203025E+04  0.7818609E-02  0.8517170E-01
       -1   -1    0    0    0  501  0.00000000000E+00  0.00000000000E+00  0.80810776145E+03  0.80810776146E+03  0.50400001928E-02 0.  1.
        1   -1    0    0  501    0  0.00000000000E+00  0.00000000000E+00 -0.15014456893E+04  0.15014456893E+04  0.50400001928E-02 0. -1.
    10030    2    1    2    0    0  0.00000000000E+00  0.00000000000E+00 -0.69333792783E+03  0.23095534508E+04  0.22030251155E+04 0.  0.
        3    1    3    3  502    0 -0.10847401617E+04  0.13150089077E+03 -0.49259839711E+03  0.11985853719E+04  0.10100000352E+00 0.  1.
       -3    1    3    3    0  502  0.10847401617E+04 -0.13150089077E+03 -0.20073953072E+03  0.11109680788E+04  0.10100000352E+00 0. -1.
</event>
<event>
 5   0  0.1015876E-05  0.2200076E+04  0.7818609E-02  0.8518397E-01
       -2   -1    0    0    0  501  0.00000000000E+00  0.00000000000E+00  0.65747105002E+03  0.65747105002E+03  0.25500000920E-02 0.  1.
        2   -1    0    0  501    0  0.00000000000E+00  0.00000000000E+00 -0.18405120231E+04  0.18405120231E+04  0.25500000920E-02 0. -1.
    10030    2    1    2    0    0  0.00000000000E+00  0.00000000000E+00 -0.11830409731E+04  0.24979830731E+04  0.22000757918E+04 0.  0.
        5    1    3    3  502    0  0.10253136724E+04  0.39733294942E+03 -0.62595317241E+03  0.12652988041E+04  0.46999998093E+01 0. -1.
       -5    1    3    3    0  502 -0.10253136724E+04 -0.39733294942E+03 -0.55708780067E+03  0.12326842691E+04  0.46999998093E+01 0.  1.
</event>
<event>
 5   0  0.4309945E-06  0.2198641E+04  0.7818609E-02  0.8518994E-01
       -1   -1    0    0    0  501  0.00000000000E+00  0.00000000000E+00  0.32701198282E+04  0.32701198282E+04  0.50400001928E-02 0.  1.
        1   -1    0    0  501    0  0.00000000000E+00  0.00000000000E+00 -0.36956015110E+03  0.36956015113E+03  0.50400001928E-02 0. -1.
    10030    2    1    2    0    0  0.00000000000E+00  0.00000000000E+00  0.29005596771E+04  0.36396799793E+04  0.21986413785E+04 0.  0.
        4    1    3    3  502    0  0.93053515939E+03 -0.40437323122E+03  0.74971933417E+03  0.12615443258E+04  0.12699999809E+01 0. -1.
       -4    1    3    3    0  502 -0.93053515939E+03  0.40437323122E+03  0.21508403429E+04  0.23781356535E+04  0.12699999809E+01 0.  1.
</event>
<event>
 5   0  0.9963573E-06  0.2159829E+04  0.7818609E-02  0.8535337E-01
       -2   -1    0    0    0  501  0.00000000000E+00  0.00000000000E+00  0.97452866864E+03  0.97452866864E+03  0.25500000920E-02 0.  1.
        2   -1    0    0  501    0  0.00000000000E+00  0.00000000000E+00 -0.11966969124E+04  0.11966969124E+04  0.25500000920E-02 0. -1.
    10030    2    1    2    0    0  0.00000000000E+00  0.00000000000E+00 -0.22216824377E+03  0.21712255810E+04  0.21598291125E+04 0.  0.
        2    1    3    3  502    0  0.63050645899E+03 -0.83409217325E+03 -0.38263405245E+03  0.11133988353E+04  0.25500000920E-02 0.  1.
       -2    1    3    3    0  502 -0.63050645899E+03  0.83409217325E+03  0.16046580867E+03  0.10578267458E+04  0.25500000920E-02 0. -1.
</event>
<event>
 5   0  0.4462201E-06  0.2200849E+04  0.7818609E-02  0.8518075E-01
       -1   -1    0    0    0  501  0.00000000000E+00  0.00000000000E+00  0.64521645429E+03  0.64521645431E+03  0.50400001928E-02 0. -1.
        1   -1    0    0  501    0  0.00000000000E+00  0.00000000000E+00 -0.18767880383E+04  0.18767880384E+04  0.50400001928E-02 0.  1.
    10030    2    1    2    0    0  0.00000000000E+00  0.00000000000E+00 -0.12315715841E+04  0.25220044927E+04  0.22008494029E+04 0.  0.
        3    1    3    3  502    0 -0.75171687946E+03  0.56795244056E+03 -0.12673379104E+04  0.15791749843E+04  0.10100000352E+00 0.  1.
       -3    1    3    3    0  502  0.75171687946E+03 -0.56795244056E+03  0.35766326329E+02  0.94282950840E+03  0.10100000352E+00 0. -1.
</event>
<event>
 5   0  0.4794967E-06  0.2205619E+04  0.7818609E-02  0.8516093E-01
       -1   -1    0    0    0  501  0.00000000000E+00  0.00000000000E+00  0.69947845111E+03  0.69947845112E+03  0.50400001928E-02 0. -1.
        1   -1    0    0  501    0  0.00000000000E+00  0.00000000000E+00 -0.17387075753E+04  0.17387075753E+04  0.50400001928E-02 0.  1.
    10030    2    1    2    0    0  0.00000000000E+00  0.00000000000E+00 -0.10392291242E+04  0.24381860264E+04  0.22056187175E+04 0.  0.
        5    1    3    3  502    0 -0.27326808158E+03  0.38956690391E+03  0.58013666142E+03  0.75034555570E+03  0.46999998093E+01 0. -1.
       -5    1    3    3    0  502  0.27326808158E+03 -0.38956690391E+03 -0.16193657856E+04  0.16878404707E+04  0.46999998093E+01 0.  1.
</event>
<event>
 5   0  0.4630615E-06  0.2200579E+04  0.7818609E-02  0.8518187E-01
        1   -1    0    0  501    0  0.00000000000E+00  0.00000000000E+00  0.12314896020E+04  0.12314896020E+04  0.50400001928E-02 0.  1.
       -1   -1    0    0    0  501  0.00000000000E+00  0.00000000000E+00 -0.98306724013E+03  0.98306724014E+03  0.50400001928E-02 0. -1.
    10030    2    1    2    0    0  0.00000000000E+00  0.00000000000E+00  0.24842236184E+03  0.22145568421E+04  0.22005790913E+04 0.  0.
        2    1    3    3  502    0  0.10765962086E+04 -0.22703910756E+03  0.11861424677E+03  0.11066505737E+04  0.25500000920E-02 0. -1.
       -2    1    3    3    0  502 -0.10765962086E+04  0.22703910756E+03  0.12980811507E+03  0.11079062684E+04  0.25500000920E-02 0.  1.
</event>
<event>
 5   0  0.4794967E-06  0.2204276E+04  0.7818609E-02  0.8516650E-01
        1   -1    0    0  501    0  0.00000000000E+00  0.00000000000E+00  0.15109930807E+04  0.15109930807E+04  0.50400001928E-02 0. -1.
       -1   -1    0    0    0  501  0.00000000000E+00  0.00000000000E+00 -0.80391404787E+03  0.80391404789E+03  0.50400001928E-02 0.  1.
    10030    2    1    2    0    0  0.00000000000E+00  0.00000000000E+00  0.70707903278E+03  0.23149071286E+04  0.22042763564E+04 0.  0.
        5    1    3    3  502    0 -0.17319298528E+03  0.78876284588E+03 -0.43413304195E+03  0.91686216265E+03  0.46999998093E+01 0.  1.
       -5    1    3    3    0  502  0.17319298528E+03 -0.78876284588E+03  0.11412120747E+04  0.13980449659E+04  0.46999998093E+01 0. -1.
</event>
<event>
 5   0  0.9963573E-06  0.2209565E+04  0.7818609E-02  0.8514457E-01
        2   -1    0    0  501    0  0.00000000000E+00  0.00000000000E+00  0.26002545366E+04  0.26002545366E+04  0.25500000920E-02 0. -1.
       -2   -1    0    0    0  501  0.00000000000E+00  0.00000000000E+00 -0.46939426745E+03  0.46939426745E+03  0.25500000920E-02 0.  1.
    10030    2    1    2    0    0  0.00000000000E+00  0.00000000000E+00  0.21308602692E+04  0.30696488041E+04  0.22095651820E+04 0.  0.
        2    1    3    3  502    0  0.10214531448E+03 -0.31634692860E+03  0.25291242036E+04  0.25508779433E+04  0.25500000920E-02 0. -1.
       -2    1    3    3    0  502 -0.10214531448E+03  0.31634692860E+03 -0.39826393442E+03  0.51877086076E+03  0.25500000920E-02 0.  1.
</event>
<event>
 5   0  0.9963573E-06  0.2205442E+04  0.7818609E-02  0.8516166E-01
        2   -1    0    0  501    0  0.00000000000E+00  0.00000000000E+00  0.11829501014E+04  0.11829501014E+04  0.25500000920E-02 0.  1.
       -2   -1    0    0    0  501  0.00000000000E+00  0.00000000000E+00 -0.10279335576E+04  0.10279335576E+04  0.25500000920E-02 0. -1.
    10030    2    1    2    0    0  0.00000000000E+00  0.00000000000E+00  0.15501654384E+03  0.22108836590E+04  0.22054424556E+04 0.  0.
        2    1    3    3  502    0 -0.76601467248E+03 -0.77677030361E+03  0.23866410113E+03  0.11167413023E+04  0.25500000920E-02 0.  1.
       -2    1    3    3    0  502  0.76601467248E+03  0.77677030361E+03 -0.83647557290E+02  0.10941423568E+04  0.25500000920E-02 0. -1.
</event>
<event>
 5   0  0.4309945E-06  0.2186905E+04  0.7818609E-02  0.8523899E-01
        1   -1    0    0  501    0  0.00000000000E+00  0.00000000000E+00  0.17564616053E+04  0.17564616053E+04  0.50400001928E-02 0.  1.
       -1   -1    0    0    0  501  0.00000000000E+00  0.00000000000E+00 -0.68070820725E+03  0.68070820727E+03  0.50400001928E-02 0. -1.
    10030    2    1    2    0    0  0.00000000000E+00  0.00000000000E+00  0.10757533980E+04  0.24371698126E+04  0.21869045068E+04 0.  0.
        4    1    3    3  502    0  0.77337692394E+03  0.62224618587E+03  0.26770971735E+02  0.99298563945E+03  0.12699999809E+01 0. -1.
       -4    1    3    3    0  502 -0.77337692394E+03 -0.62224618587E+03  0.10489824263E+04  0.14441841731E+04  0.12699999809E+01 0.  1.
</event>
<event>
 5   0  0.9963173E-06  0.2186037E+04  0.7818609E-02  0.8524263E-01
        2   -1    0    0  501    0  0.00000000000E+00  0.00000000000E+00  0.15807975716E+04  0.15807975716E+04  0.25500000920E-02 0.  1.
       -2   -1    0    0    0  501  0.00000000000E+00  0.00000000000E+00 -0.75575082476E+03  0.75575082477E+03  0.25500000920E-02 0. -1.
    10030    2    1    2    0    0  0.00000000000E+00  0.00000000000E+00  0.82504674685E+03  0.23365483964E+04  0.21860366589E+04 0.  0.
        4    1    3    3  502    0 -0.45434755454E+03  0.61831838063E+02 -0.64797578755E+03  0.79380672122E+03  0.12699999809E+01 0. -1.
       -4    1    3    3    0  502  0.45434755454E+03 -0.61831838063E+02  0.14730225344E+04  0.15427416752E+04  0.12699999809E+01 0.  1.
</event>
<event>
 5   0  0.3546750E-06  0.2200535E+04  0.7818609E-02  0.8518205E-01
       -3   -1    0    0    0  501  0.00000000000E+00  0.00000000000E+00  0.62304569604E+03  0.62304570422E+03  0.10100000352E+00 0.  1.
        3   -1    0    0  501    0  0.00000000000E+00  0.00000000000E+00 -0.19430176468E+04  0.19430176494E+04  0.10100000352E+00 0. -1.
    10030    2    1    2    0    0  0.00000000000E+00  0.00000000000E+00 -0.13199719508E+04  0.25660633536E+04  0.22005352040E+04 0.  0.
        4    1    3    3  502    0  0.65072861713E+03 -0.75866850268E+03 -0.11963472657E+04  0.15589336173E+04  0.12699999809E+01 0. -1.
       -4    1    3    3    0  502 -0.65072861713E+03  0.75866850268E+03 -0.12362468502E+03  0.10071297363E+04  0.12699999809E+01 0.  1.
</event>
<event>
 5   0  0.4794967E-06  0.2193174E+04  0.7818609E-02  0.8521275E-01
        1   -1    0    0  501    0  0.00000000000E+00  0.00000000000E+00  0.16653915879E+04  0.16653915879E+04  0.50400001928E-02 0.  1.
       -1   -1    0    0    0  501  0.00000000000E+00  0.00000000000E+00 -0.72205415970E+03  0.72205415972E+03  0.50400001928E-02 0. -1.
    10030    2    1    2    0    0  0.00000000000E+00  0.00000000000E+00  0.94333742821E+03  0.23874457476E+04  0.21931738860E+04 0.  0.
        5    1    3    3  502    0 -0.76514836109E+03 -0.78530728947E+03  0.45215668407E+03  0.11860131999E+04  0.46999998093E+01 0.  1.
       -5    1    3    3    0  502  0.76514836109E+03  0.78530728947E+03  0.49118074414E+03  0.12014325477E+04  0.46999998093E+01 0. -1.
</event>
<event>
 5   0  0.4462201E-06  0.2198984E+04  0.7818609E-02  0.8518851E-01
       -1   -1    0    0    0  501  0.00000000000E+00  0.00000000000E+00  0.40883174253E+03  0.40883174256E+03  0.50400001928E-02 0. -1.
        1   -1    0    0  501    0  0.00000000000E+00  0.00000000000E+00 -0.29569186265E+04  0.29569186266E+04  0.50400001928E-02 0.  1.
    10030    2    1    2    0    0  0.00000000000E+00  0.00000000000E+00 -0.25480868840E+04  0.33657503691E+04  0.21989835785E+04 0.  0.
        3    1    3    3  502    0  0.57512775306E+03 -0.14004741383E+03  0.14412984377E+03  0.60922789868E+03  0.10100000352E+00 0. -1.
       -3    1    3    3    0  502 -0.57512775306E+03  0.14004741383E+03 -0.26922167278E+04  0.27565224704E+04  0.10100000352E+00 0.  1.
</event>
<event>
 5   0  0.9963573E-06  0.2199427E+04  0.7818609E-02  0.8518666E-01
        2   -1    0    0  501    0  0.00000000000E+00  0.00000000000E+00  0.14975058432E+04  0.14975058432E+04  0.25500000920E-02 0. -1.
       -2   -1    0    0    0  501  0.00000000000E+00  0.00000000000E+00 -0.80758966010E+03  0.80758966010E+03  0.25500000920E-02 0.  1.
    10030    2    1    2    0    0  0.00000000000E+00  0.00000000000E+00  0.68991618307E+03  0.23050955033E+04  0.21994274117E+04 0.  0.
        2    1    3    3  502    0 -0.19413263461E+03  0.43922966433E+02  0.14784710045E+04  0.14918087069E+04  0.25500000920E-02 0. -1.
       -2    1    3    3    0  502  0.19413263461E+03 -0.43922966433E+02 -0.78855482142E+03  0.81328679639E+03  0.25500000920E-02 0.  1.
</event>
<event>
 5   0  0.4408787E-06  0.2203661E+04  0.7818609E-02  0.8516906E-01
        1   -1    0    0  501    0  0.00000000000E+00  0.00000000000E+00  0.19250768178E+04  0.19250768178E+04  0.50400001928E-02 0. -1.
       -1   -1    0    0    0  501  0.00000000000E+00  0.00000000000E+00 -0.63063992419E+03  0.63063992421E+03  0.50400001928E-02 0.  1.
    10030    2    1    2    0    0  0.00000000000E+00  0.00000000000E+00  0.12944368936E+04  0.25557167420E+04  0.22036608618E+04 0.  0.
        1    1    3    3  502    0 -0.31437068523E+03 -0.73514117628E+03  0.15264728672E+04  0.17231891629E+04  0.50400001928E-02 0. -1.
       -1    1    3    3    0  502  0.31437068523E+03  0.73514117628E+03 -0.23203597366E+03  0.83252757906E+03  0.50400001928E-02 0.  1.
</event>
<event>
 5   0  0.9963573E-06  0.2201152E+04  0.7818609E-02  0.8517949E-01
       -2   -1    0    0    0  501  0.00000000000E+00  0.00000000000E+00  0.11161027047E+04  0.11161027047E+04  0.25500000920E-02 0. -1.
        2   -1    0    0  501    0  0.00000000000E+00  0.00000000000E+00 -0.10852654054E+04  0.10852654054E+04  0.25500000920E-02 0.  1.
    10030    2    1    2    0    0  0.00000000000E+00  0.00000000000E+00  0.30837299274E+02  0.22013681101E+04  0.22011521113E+04 0.  0.
        2    1    3    3  502    0  0.37494804106E+02  0.89564895840E+03 -0.62313812259E+03  0.10917389967E+04  0.25500000920E-02 0.  1.
       -2    1    3    3    0  502 -0.37494804106E+02 -0.89564895840E+03  0.65397542187E+03  0.11096291135E+04  0.25500000920E-02 0. -1.
</event>
<event>
 5   0  0.9963573E-06  0.2198574E+04  0.7818609E-02  0.8519022E-01
       -2   -1    0    0    0  501  0.00000000000E+00  0.00000000000E+00  0.13245278368E+04  0.13245278368E+04  0.25500000920E-02 0. -1.
        2   -1    0    0  501    0  0.00000000000E+00  0.00000000000E+00 -0.91234903048E+03  0.91234903048E+03  0.25500000920E-02 0.  1.
    10030    2    1    2    0    0  0.00000000000E+00  0.00000000000E+00  0.41217880628E+03  0.22368768672E+04  0.21985737993E+04 0.  0.
        2    1    3    3  502    0  0.25992016935E+02  0.22157210219E+03  0.13012539963E+04  0.13202392754E+04  0.25500000920E-02 0. -1.
       -2    1    3    3    0  502 -0.25992016935E+02 -0.22157210219E+03 -0.88907518998E+03  0.91663759188E+03  0.25500000920E-02 0.  1.
</event>
<event>
 5   0  0.4462201E-06  0.2196445E+04  0.7818609E-02  0.8519909E-01
       -1   -1    0    0    0  501  0.00000000000E+00  0.00000000000E+00  0.55261224887E+03  0.55261224889E+03  0.50400001928E-02 0. -1.
        1   -1    0    0  501    0  0.00000000000E+00  0.00000000000E+00 -0.21825302512E+04  0.21825302512E+04  0.50400001928E-02 0.  1.
    10030    2    1    2    0    0  0.00000000000E+00  0.00000000000E+00 -0.16299180023E+04  0.27351425001E+04  0.21964452648E+04 0.  0.
        3    1    3    3  502    0 -0.10239224774E+04 -0.36917629866E+03 -0.63285908695E+03  0.12590548095E+04  0.10100000352E+00 0.  1.
       -3    1    3    3    0  502  0.10239224774E+04  0.36917629866E+03 -0.99705891537E+03  0.14760876906E+04  0.10100000352E+00 0. -1.
</event>
<event>
 5   0  0.4408787E-06  0.2199848E+04  0.7818609E-02  0.8518491E-01
        1   -1    0    0  501    0  0.00000000000E+00  0.00000000000E+00  0.22794664320E+04  0.22794664320E+04  0.50400001928E-02 0. -1.
       -1   -1    0    0    0  501  0.00000000000E+00  0.00000000000E+00 -0.53075286590E+03  0.53075286592E+03  0.50400001928E-02 0.  1.
    10030    2    1    2    0    0  0.00000000000E+00  0.00000000000E+00  0.17487135661E+04  0.28102192979E+04  0.21998484871E+04 0.  0.
        1    1    3    3  502    0  0.42373114149E+03  0.89231146242E+01 -0.42225332537E+03  0.59826881337E+03  0.50400001928E-02 0.  1.
       -1    1    3    3    0  502 -0.42373114149E+03 -0.89231146242E+01  0.21709668914E+04  0.22119504845E+04  0.50400001928E-02 0. -1.
</event>
<event>
 5   0  0.4462201E-06  0.2199329E+04  0.7818609E-02  0.8518707E-01
       -1   -1    0    0    0  501  0.00000000000E+00  0.00000000000E+00  0.56300174959E+03  0.56300174961E+03  0.50400001928E-02 0. -1.
        1   -1    0    0  501    0  0.00000000000E+00  0.00000000000E+00 -0.21478832136E+04  0.21478832136E+04  0.50400001928E-02 0.  1.
    10030    2    1    2    0    0  0.00000000000E+00  0.00000000000E+00 -0.15848814640E+04  0.27108849632E+04  0.21993289951E+04 0.  0.
        3    1    3    3  502    0  0.53601027597E+03  0.95633158360E+03 -0.68651713848E+03  0.12935157152E+04  0.10100000352E+00 0. -1.
       -3    1    3    3    0  502 -0.53601027597E+03 -0.95633158360E+03 -0.89836432549E+03  0.14173692480E+04  0.10100000352E+00 0.  1.
</event>
<event>
 5   0  0.3546750E-06  0.2198206E+04  0.7818609E-02  0.8519175E-01
        3   -1    0    0  501    0  0.00000000000E+00  0.00000000000E+00  0.11404301120E+04  0.11404301165E+04  0.10100000352E+00 0.  1.
       -3   -1    0    0    0  501  0.00000000000E+00  0.00000000000E+00 -0.10592736133E+04  0.10592736181E+04  0.10100000352E+00 0. -1.
    10030    2    1    2    0    0  0.00000000000E+00  0.00000000000E+00  0.81156498748E+02  0.21997037345E+04  0.21982061192E+04 0.  0.
        2    1    3    3  502    0 -0.10333325712E+03  0.92438209177E+03  0.62652608444E+03  0.11214699943E+04  0.25500000920E-02 0.  1.
       -2    1    3    3    0  502  0.10333325712E+03 -0.92438209177E+03 -0.54536958569E+03  0.10782337403E+04  0.25500000920E-02 0. -1.
</event>
<event>
 5   0  0.4309945E-06  0.2198911E+04  0.7818609E-02  0.8518881E-01
       -1   -1    0    0    0  501  0.00000000000E+00  0.00000000000E+00  0.69358698607E+03  0.69358698609E+03  0.50400001928E-02 0. -1.
        1   -1    0    0  501    0  0.00000000000E+00  0.00000000000E+00 -0.17428275981E+04  0.17428275981E+04  0.50400001928E-02 0.  1.
    10030    2    1    2    0    0  0.00000000000E+00  0.00000000000E+00 -0.10492406121E+04  0.24364145842E+04  0.21989111315E+04 0.  0.
        4    1    3    3  502    0 -0.42781468226E+03 -0.34433367324E+03  0.53073182273E+03  0.76372047337E+03  0.12699999809E+01 0. -1.
       -4    1    3    3    0  502  0.42781468226E+03  0.34433367324E+03 -0.15799724348E+04  0.16726941108E+04  0.12699999809E+01 0.  1.
</event>
<event>
 5   0  0.4309945E-06  0.2198345E+04  0.7818609E-02  0.8519117E-01
        1   -1    0    0  501    0  0.00000000000E+00  0.00000000000E+00  0.14229008372E+04  0.14229008372E+04  0.50400001928E-02 0.  1.
       -1   -1    0    0    0  501  0.00000000000E+00  0.00000000000E+00 -0.84909674759E+03  0.84909674760E+03  0.50400001928E-02 0. -1.
    10030    2    1    2    0    0  0.00000000000E+00  0.00000000000E+00  0.57380408964E+03  0.22719975848E+04  0.21983452623E+04 0.  0.
        4    1    3    3  502    0  0.68733297272E+02 -0.82797838411E+03  0.10306702312E+04  0.13238410815E+04  0.12699999809E+01 0.  1.
       -4    1    3    3    0  502 -0.68733297272E+02  0.82797838411E+03 -0.45686614151E+03  0.94815650336E+03  0.12699999809E+01 0. -1.
</event>
<event>
 5   0  0.1014015E-05  0.2201732E+04  0.7818609E-02  0.8517707E-01
       -2   -1    0    0    0  501  0.00000000000E+00  0.00000000000E+00  0.96637858030E+03  0.96637858030E+03  0.25500000920E-02 0.  1.
        2   -1    0    0  501    0  0.00000000000E+00  0.00000000000E+00 -0.12540699222E+04  0.12540699222E+04  0.25500000920E-02 0. -1.
    10030    2    1    2    0    0  0.00000000000E+00  0.00000000000E+00 -0.28769134188E+03  0.22204485025E+04  0.22017323280E+04 0.  0.
        1    1    3    3  502    0  0.68762382627E+03  0.85958493716E+03 -0.15787508294E+03  0.11120419653E+04  0.50400001928E-02 0.  1.
       -1    1    3    3    0  502 -0.68762382627E+03 -0.85958493716E+03 -0.12981625895E+03  0.11084065372E+04  0.50400001928E-02 0. -1.
</event>
<event>
 5   0  0.1035928E-05  0.2194363E+04  0.7818609E-02  0.8520778E-01
        2   -1    0    0  501    0  0.00000000000E+00  0.00000000000E+00  0.10130352867E+04  0.10130352867E+04  0.25500000920E-02 0.  1.
       -2   -1    0    0    0  501  0.00000000000E+00  0.00000000000E+00 -0.11883175356E+04  0.11883175356E+04  0.25500000920E-02 0. -1.
    10030    2    1    2    0    0  0.00000000000E+00  0.00000000000E+00 -0.17528224884E+03  0.22013528223E+04  0.21943633203E+04 0.  0.
        3    1    3    3  502    0  0.85692775580E+03 -0.64066039929E+03  0.15610740643E+03  0.10812679864E+04  0.10100000352E+00 0.  1.
       -3    1    3    3    0  502 -0.85692775580E+03  0.64066039929E+03 -0.33138965527E+03  0.11200848359E+04  0.10100000352E+00 0. -1.
</event>
<event>
 5   0  0.4794967E-06  0.2187692E+04  0.7818609E-02  0.8523568E-01
        1   -1    0    0  501    0  0.00000000000E+00  0.00000000000E+00  0.16026612603E+04  0.16026612603E+04  0.50400001928E-02 0.  1.
       -1   -1    0    0    0  501  0.00000000000E+00  0.00000000000E+00 -0.74657021674E+03  0.74657021676E+03  0.50400001928E-02 0. -1.
    10030    2    1    2    0    0  0.00000000000E+00  0.00000000000E+00  0.85609104359E+03  0.23492314771E+04  0.21876920848E+04 0.  0.
        5    1    3    3  502    0  0.10564139590E+04  0.27418996178E+03  0.34996851042E+03  0.11461634422E+04  0.46999998093E+01 0. -1.
       -5    1    3    3    0  502 -0.10564139590E+04 -0.27418996178E+03  0.50612253317E+03  0.12030680349E+04  0.46999998093E+01 0.  1.
</event>
<event>
 5   0  0.9963573E-06  0.2207571E+04  0.7818609E-02  0.8515284E-01
        2   -1    0    0  501    0  0.00000000000E+00  0.00000000000E+00  0.17102774720E+04  0.17102774720E+04  0.25500000920E-02 0.  1.
       -2   -1    0    0    0  501  0.00000000000E+00  0.00000000000E+00 -0.71236518805E+03  0.71236518805E+03  0.25500000920E-02 0. -1.
    10030    2    1    2    0    0  0.00000000000E+00  0.00000000000E+00  0.99791228399E+03  0.24226426601E+04  0.22075707309E+04 0.  0.
        2    1    3    3  502    0  0.43567571878E+03 -0.63518738272E+03 -0.36867992753E+03  0.85393280302E+03  0.25500000920E-02 0. -1.
       -2    1    3    3    0  502 -0.43567571878E+03  0.63518738272E+03  0.13665922115E+04  0.15687098571E+04  0.25500000920E-02 0.  1.
</event>
<event>
 5   0  0.9963173E-06  0.2201575E+04  0.7818609E-02  0.8517773E-01
        2   -1    0    0  501    0  0.00000000000E+00  0.00000000000E+00  0.29644504133E+04  0.29644504133E+04  0.25500000920E-02 0.  1.
       -2   -1    0    0    0  501  0.00000000000E+00  0.00000000000E+00 -0.40875468335E+03  0.40875468336E+03  0.25500000920E-02 0. -1.
    10030    2    1    2    0    0  0.00000000000E+00  0.00000000000E+00  0.25556957299E+04  0.33732050967E+04  0.22015748818E+04 0.  0.
        4    1    3    3  502    0  0.71640993611E+03  0.39436746814E+03  0.14884720346E+03  0.83121958552E+03  0.12699999809E+01 0. -1.
       -4    1    3    3    0  502 -0.71640993611E+03 -0.39436746814E+03  0.24068485265E+04  0.25419855111E+04  0.12699999809E+01 0.  1.
</event>
<event>
 5   0  0.4309945E-06  0.2230775E+04  0.7818609E-02  0.8505727E-01
        1   -1    0    0  501    0  0.00000000000E+00  0.00000000000E+00  0.15990324744E+04  0.15990324744E+04  0.50400001928E-02 0.  1.
       -1   -1    0    0    0  501  0.00000000000E+00  0.00000000000E+00 -0.77802649494E+03  0.77802649495E+03  0.50400001928E-02 0. -1.
    10030    2    1    2    0    0  0.00000000000E+00  0.00000000000E+00  0.82100597946E+03  0.23770589694E+04  0.22307753194E+04 0.  0.
        4    1    3    3  502    0  0.20897362551E+03  0.65608229821E+03  0.13455257272E+04  0.15114744634E+04  0.12699999809E+01 0.  1.
       -4    1    3    3    0  502 -0.20897362551E+03 -0.65608229821E+03 -0.52451974775E+03  0.86558450591E+03  0.12699999809E+01 0. -1.
</event>
<event>
 5   0  0.1015876E-05  0.2195452E+04  0.7818609E-02  0.8520323E-01
       -2   -1    0    0    0  501  0.00000000000E+00  0.00000000000E+00  0.84646841141E+03  0.84646841141E+03  0.25500000920E-02 0.  1.
        2   -1    0    0  501    0  0.00000000000E+00  0.00000000000E+00 -0.14235647508E+04  0.14235647508E+04  0.25500000920E-02 0. -1.
    10030    2    1    2    0    0  0.00000000000E+00  0.00000000000E+00 -0.57709633935E+03  0.22700331622E+04  0.21954522023E+04 0.  0.
        5    1    3    3  502    0  0.48575385927E+02 -0.19196809476E+03 -0.14049344768E+04  0.14188284927E+04  0.46999998093E+01 0. -1.
       -5    1    3    3    0  502 -0.48575385927E+02  0.19196809476E+03  0.82783813746E+03  0.85120466949E+03  0.46999998093E+01 0.  1.
</event>
<event>
 5   0  0.1014015E-05  0.2210393E+04  0.7818609E-02  0.8514115E-01
        2   -1    0    0  501    0  0.00000000000E+00  0.00000000000E+00  0.15873375266E+04  0.15873375266E+04  0.25500000920E-02 0. -1.
       -2   -1    0    0    0  501  0.00000000000E+00  0.00000000000E+00 -0.76950214692E+03  0.76950214693E+03  0.25500000920E-02 0.  1.
    10030    2    1    2    0    0  0.00000000000E+00  0.00000000000E+00  0.81783537964E+03  0.23568396735E+04  0.22103932995E+04 0.  0.
        1    1    3    3  502    0 -0.65914817365E+03  0.83076014054E+03  0.77141617292E+02  0.10632918485E+04  0.50400001928E-02 0. -1.
       -1    1    3    3    0  502  0.65914817365E+03 -0.83076014054E+03  0.74069376235E+03  0.12935478250E+04  0.50400001928E-02 0.  1.
</event>
<event>
 5   0  0.4309945E-06  0.2198822E+04  0.7818609E-02  0.8518919E-01
       -1   -1    0    0    0  501  0.00000000000E+00  0.00000000000E+00  0.75028352644E+03  0.75028352646E+03  0.50400001928E-02 0.  1.
        1   -1    0    0  501    0  0.00000000000E+00  0.00000000000E+00 -0.16109971290E+04  0.16109971290E+04  0.50400001928E-02 0. -1.
    10030    2    1    2    0    0  0.00000000000E+00  0.00000000000E+00 -0.86071360251E+03  0.23612806554E+04  0.21988220547E+04 0.  0.
        4    1    3    3  502    0  0.95573289096E+03 -0.30782114537E+03  0.50527349656E+02  0.10053525960E+04  0.12699999809E+01 0.  1.
       -4    1    3    3    0  502 -0.95573289096E+03  0.30782114537E+03 -0.91124095217E+03  0.13559280594E+04  0.12699999809E+01 0. -1.
</event>
<event>
 5   0  0.4408787E-06  0.2203675E+04  0.7818609E-02  0.8516900E-01
        1   -1    0    0  501    0  0.00000000000E+00  0.00000000000E+00  0.12139445887E+04  0.12139445887E+04  0.50400001928E-02 0.  1.
       -1   -1    0    0    0  501  0.00000000000E+00  0.00000000000E+00 -0.10000830635E+04  0.10000830635E+04  0.50400001928E-02 0. -1.
    10030    2    1    2    0    0  0.00000000000E+00  0.00000000000E+00  0.21386152517E+03  0.22140276522E+04  0.22036745886E+04 0.  0.
        1    1    3    3  502    0  0.46145253262E+03 -0.90651577726E+03 -0.31853975581E+03  0.10659159772E+04  0.50400001928E-02 0. -1.
       -1    1    3    3    0  502 -0.46145253262E+03  0.90651577726E+03  0.53240128099E+03  0.11481116750E+04  0.50400001928E-02 0.  1.
</event>
<event>
 5   0  0.9963173E-06  0.2204514E+04  0.7818609E-02  0.8516552E-01
        2   -1    0    0  501    0  0.00000000000E+00  0.00000000000E+00  0.21038669918E+04  0.21038669918E+04  0.25500000920E-02 0.  1.
       -2   -1    0    0    0  501  0.00000000000E+00  0.00000000000E+00 -0.57749380482E+03  0.57749380482E+03  0.25500000920E-02 0. -1.
    10030    2    1    2    0    0  0.00000000000E+00  0.00000000000E+00  0.15263731870E+04  0.26813607966E+04  0.22045136914E+04 0.  0.
        4    1    3    3  502    0 -0.90050977926E+03 -0.54031928374E+03  0.35594099473E+03  0.11088545421E+04  0.12699999809E+01 0. -1.
       -4    1    3    3    0  502  0.90050977926E+03  0.54031928374E+03  0.11704321923E+04  0.15725062545E+04  0.12699999809E+01 0.  1.
</event>
<event>
 5   0  0.1035928E-05  0.2201123E+04  0.7818609E-02  0.8517961E-01
       -2   -1    0    0    0  501  0.00000000000E+00  0.00000000000E+00  0.89727536020E+03  0.89727536020E+03  0.25500000920E-02 0. -1.
        2   -1    0    0  501    0  0.00000000000E+00  0.00000000000E+00 -0.13499043401E+04  0.13499043401E+04  0.25500000920E-02 0.  1.
    10030    2    1    2    0    0  0.00000000000E+00  0.00000000000E+00 -0.45262897986E+03  0.22471797003E+04  0.22011232614E+04 0.  0.
        3    1    3    3  502    0  0.62854078749E+02  0.82554933409E+03  0.51394596264E+03  0.97448591624E+03  0.10100000352E+00 0. -1.
       -3    1    3    3    0  502 -0.62854078749E+02 -0.82554933409E+03 -0.96657494250E+03  0.12726937840E+04  0.10100000352E+00 0.  1.
</event>
<event>
 5   0  0.9963573E-06  0.2200060E+04  0.7818609E-02  0.8518403E-01
        2   -1    0    0  501    0  0.00000000000E+00  0.00000000000E+00  0.16140249423E+04  0.16140249423E+04  0.25500000920E-02 0.  1.
       -2   -1    0    0    0  501  0.00000000000E+00  0.00000000000E+00 -0.74971942172E+03  0.74971942172E+03  0.25500000920E-02 0. -1.
    10030    2    1    2    0    0  0.00000000000E+00  0.00000000000E+00  0.86430552057E+03  0.23637443640E+04  0.22000598595E+04 0.  0.
        2    1    3    3  502    0  0.90349828085E+03 -0.66977099227E+01  0.11063007576E+04  0.14283750799E+04  0.25500000920E-02 0.  1.
       -2    1    3    3    0  502 -0.90349828085E+03  0.66977099227E+01 -0.24199523700E+03  0.93536928406E+03  0.25500000920E-02 0. -1.
</event>
<event>
 5   0  0.9963573E-06  0.2200191E+04  0.7818609E-02  0.8518349E-01
       -2   -1    0    0    0  501  0.00000000000E+00  0.00000000000E+00  0.11429433221E+04  0.11429433222E+04  0.25500000920E-02 0. -1.
        2   -1    0    0  501    0  0.00000000000E+00  0.00000000000E+00 -0.10588540654E+04  0.10588540654E+04  0.25500000920E-02 0.  1.
    10030    2    1    2    0    0  0.00000000000E+00  0.00000000000E+00  0.84089256702E+02  0.22017973876E+04  0.22001910674E+04 0.  0.
        2    1    3    3  502    0 -0.94164568255E+03 -0.52986680364E+03 -0.16487857948E+03  0.10929960508E+04  0.25500000920E-02 0.  1.
       -2    1    3    3    0  502  0.94164568255E+03  0.52986680364E+03  0.24896783618E+03  0.11088013368E+04  0.25500000920E-02 0. -1.
</event>
<event>
 5   0  0.9963173E-06  0.2198685E+04  0.7818609E-02  0.8518975E-01
       -2   -1    0    0    0  501  0.00000000000E+00  0.00000000000E+00  0.11668107370E+04  0.11668107370E+04  0.25500000920E-02 0.  1.
        2   -1    0    0  501    0  0.00000000000E+00  0.00000000000E+00 -0.10357758837E+04  0.10357758837E+04  0.25500000920E-02 0. -1.
    10030    2    1    2    0    0  0.00000000000E+00  0.00000000000E+00  0.13103485332E+03  0.22025866206E+04  0.21986854456E+04 0.  0.
        4    1    3    3  502    0  0.40600165149E+03 -0.73901888565E+03 -0.64111812827E+03  0.10592546066E+04  0.12699999809E+01 0. -1.
       -4    1    3    3    0  502 -0.40600165149E+03  0.73901888565E+03  0.77215298160E+03  0.11433320140E+04  0.12699999809E+01 0.  1.
</event>
<event>
 5   0  0.1015876E-05  0.2191926E+04  0.7818609E-02  0.8521796E-01
        2   -1    0    0  501    0  0.00000000000E+00  0.00000000000E+00  0.22353105658E+04  0.22353105658E+04  0.25500000920E-02 0.  1.
       -2   -1    0    0    0  501  0.00000000000E+00  0.00000000000E+00 -0.53734590617E+03  0.53734590618E+03  0.25500000920E-02 0. -1.
    10030    2    1    2    0    0  0.00000000000E+00  0.00000000000E+00  0.16979646596E+04  0.27726564719E+04  0.21919260768E+04 0.  0.
        5    1    3    3  502    0  0.64459971943E+03  0.10204315392E+02 -0.27211481407E+03  0.69977245471E+03  0.46999998093E+01 0. -1.
       -5    1    3    3    0  502 -0.64459971943E+03 -0.10204315392E+02  0.19700794737E+04  0.20728840172E+04  0.46999998093E+01 0.  1.
</event>
<event>
 5   0  0.1015876E-05  0.2203455E+04  0.7818609E-02  0.8516991E-01
        2   -1    0    0  501    0  0.00000000000E+00  0.00000000000E+00  0.10103375062E+04  0.10103375062E+04  0.25500000920E-02 0. -1.
       -2   -1    0    0    0  501  0.00000000000E+00  0.00000000000E+00 -0.12013842294E+04  0.12013842294E+04  0.25500000920E-02 0.  1.
    10030    2    1    2    0    0  0.00000000000E+00  0.00000000000E+00 -0.19104672317E+03  0.22117217356E+04  0.22034550564E+04 0.  0.
        5    1    3    3  502    0 -0.49829326186E+03  0.35530422875E+03  0.82401628756E+03  0.10264317814E+04  0.46999998093E+01 0. -1.
       -5    1    3    3    0  502  0.49829326186E+03 -0.35530422875E+03 -0.10150630107E+04  0.11852899542E+04  0.46999998093E+01 0.  1.
</event>
<event>
 5   0  0.1035928E-05  0.2201448E+04  0.7818609E-02  0.8517826E-01
        2   -1    0    0  501    0  0.00000000000E+00  0.00000000000E+00  0.65256039972E+03  0.65256039972E+03  0.25500000920E-02 0.  1.
       -2   -1    0    0    0  501  0.00000000000E+00  0.00000000000E+00 -0.18566756592E+04  0.18566756592E+04  0.25500000920E-02 0. -1.
    10030    2    1    2    0    0  0.00000000000E+00  0.00000000000E+00 -0.12041152595E+04  0.25092360589E+04  0.22014477149E+04 0.  0.
        3    1    3    3  502    0  0.35413703341E+03  0.10193905951E+04 -0.35489245549E+03  0.11360100743E+04  0.10100000352E+00 0.  1.
       -3    1    3    3    0  502 -0.35413703341E+03 -0.10193905951E+04 -0.84922280402E+03  0.13732259846E+04  0.10100000352E+00 0. -1.
</event>
<event>
 5   0  0.4408787E-06  0.2199677E+04  0.7818609E-02  0.8518563E-01
       -1   -1    0    0    0  501  0.00000000000E+00  0.00000000000E+00  0.11881335080E+04  0.11881335080E+04  0.50400001928E-02 0. -1.
        1   -1    0    0  501    0  0.00000000000E+00  0.00000000000E+00 -0.10181050102E+04  0.10181050102E+04  0.50400001928E-02 0.  1.
    10030    2    1    2    0    0  0.00000000000E+00  0.00000000000E+00  0.17002849784E+03  0.22062385182E+04  0.21996769556E+04 0.  0.
        1    1    3    3  502    0 -0.49548489183E+03  0.90922477714E+03  0.45686225900E+03  0.11317765226E+04  0.50400001928E-02 0. -1.
       -1    1    3    3    0  502  0.49548489183E+03 -0.90922477714E+03 -0.28683376116E+03  0.10744619956E+04  0.50400001928E-02 0.  1.
</event>
<event>
 5   0  0.4408787E-06  0.2195086E+04  0.7818609E-02  0.8520476E-01
        1   -1    0    0  501    0  0.00000000000E+00  0.00000000000E+00  0.22550667276E+04  0.22550667276E+04  0.50400001928E-02 0. -1.
       -1   -1    0    0    0  501  0.00000000000E+00  0.00000000000E+00 -0.53417509876E+03  0.53417509878E+03  0.50400001928E-02 0.  1.
    10030    2    1    2    0    0  0.00000000000E+00  0.00000000000E+00  0.17208916288E+04  0.27892418264E+04  0.21950858680E+04 0.  0.
        1    1    3    3  502    0  0.52115430037E+03 -0.48541978241E+03 -0.20067574975E+03  0.73993575837E+03  0.50400001928E-02 0.  1.
       -1    1    3    3    0  502 -0.52115430037E+03  0.48541978241E+03  0.19215673786E+04  0.20493060680E+04  0.50400001928E-02 0. -1.
</event>
<event>
 5   0  0.9963573E-06  0.2193904E+04  0.7818609E-02  0.8520970E-01
       -2   -1    0    0    0  501  0.00000000000E+00  0.00000000000E+00  0.58648798193E+03  0.58648798194E+03  0.25500000920E-02 0. -1.
        2   -1    0    0  501    0  0.00000000000E+00  0.00000000000E+00 -0.20517110628E+04  0.20517110628E+04  0.25500000920E-02 0.  1.
    10030    2    1    2    0    0  0.00000000000E+00  0.00000000000E+00 -0.14652230809E+04  0.26381990448E+04  0.21939041736E+04 0.  0.
        2    1    3    3  502    0 -0.16706216227E+03 -0.10218480811E+04 -0.29700846530E+03  0.10771709685E+04  0.25500000920E-02 0. -1.
       -2    1    3    3    0  502  0.16706216227E+03  0.10218480811E+04 -0.11682146156E+04  0.15610280763E+04  0.25500000920E-02 0.  1.
</event>
<event>
 5   0  0.9963173E-06  0.2200233E+04  0.7818609E-02  0.8518331E-01
        2   -1    0    0  501    0  0.00000000000E+00  0.00000000000E+00  0.12740570952E+04  0.12740570952E+04  0.25500000920E-02 0. -1.
       -2   -1    0    0    0  501  0.00000000000E+00  0.00000000000E+00 -0.94992321861E+03  0.94992321862E+03  0.25500000920E-02 0.  1.
    10030    2    1    2    0    0  0.00000000000E+00  0.00000000000E+00  0.32413387658E+03  0.22239803138E+04  0.22002330936E+04 0.  0.
        4    1    3    3  502    0 -0.39488513585E+03 -0.97064498505E+03  0.50059788228E+03  0.11613293289E+04  0.12699999809E+01 0. -1.
       -4    1    3    3    0  502  0.39488513585E+03  0.97064498505E+03 -0.17646400571E+03  0.10626509849E+04  0.12699999809E+01 0.  1.
</event>
<event>
 5   0  0.4794967E-06  0.2208118E+04  0.7818609E-02  0.8515057E-01
        1   -1    0    0  501    0  0.00000000000E+00  0.00000000000E+00  0.14018947348E+04  0.14018947348E+04  0.50400001928E-02 0. -1.
       -1   -1    0    0    0  501  0.00000000000E+00  0.00000000000E+00 -0.86949910355E+03  0.86949910356E+03  0.50400001928E-02 0.  1.
    10030    2    1    2    0    0  0.00000000000E+00  0.00000000000E+00  0.53239563121E+03  0.22713938383E+04  0.22081179454E+04 0.  0.
        5    1    3    3  502    0  0.42798316457E+03 -0.21758353572E+03 -0.75648078334E+03  0.89598964823E+03  0.46999998093E+01 0.  1.
       -5    1    3    3    0  502 -0.42798316457E+03  0.21758353572E+03  0.12888764145E+04  0.13754041901E+04  0.46999998093E+01 0. -1.
</event>
<event>
 5   0  0.3546750E-06  0.2201752E+04  0.7818609E-02  0.8517699E-01
       -3   -1    0    0    0  501  0.00000000000E+00  0.00000000000E+00  0.11821468131E+04  0.11821468174E+04  0.10100000352E+00 0.  1.
        3   -1    0    0  501    0  0.00000000000E+00  0.00000000000E+00 -0.10251920486E+04  0.10251920536E+04  0.10100000352E+00 0. -1.
    10030    2    1    2    0    0  0.00000000000E+00  0.00000000000E+00  0.15695476447E+03  0.22073388710E+04  0.22017515966E+04 0.  0.
        5    1    3    3  502    0 -0.65272064380E+03  0.78959439611E+03  0.48249120392E+03  0.11323971923E+04  0.46999998093E+01 0.  1.
       -5    1    3    3    0  502  0.65272064380E+03 -0.78959439611E+03 -0.32553643944E+03  0.10749416787E+04  0.46999998093E+01 0. -1.
</event>
<event>
 5   0  0.1014015E-05  0.2207460E+04  0.7818609E-02  0.8515330E-01
       -2   -1    0    0    0  501  0.00000000000E+00  0.00000000000E+00  0.14876386132E+04  0.14876386132E+04  0.25500000920E-02 0.  1.
        2   -1    0    0  501    0  0.00000000000E+00  0.00000000000E+00 -0.81889498703E+03  0.81889498703E+03  0.25500000920E-02 0. -1.
    10030    2    1    2    0    0  0.00000000000E+00  0.00000000000E+00  0.66874362619E+03  0.23065336002E+04  0.22074599003E+04 0.  0.
        1    1    3    3  502    0 -0.51621530792E+03  0.38939837751E+03 -0.60026296463E+03  0.88228394934E+03  0.50400001928E-02 0. -1.
       -1    1    3    3    0  502  0.51621530792E+03 -0.38939837751E+03  0.12690065908E+04  0.14242496509E+04  0.50400001928E-02 0.  1.
</event>
<event>
 5   0  0.4794967E-06  0.2199783E+04  0.7818609E-02  0.8518518E-01
        1   -1    0    0  501    0  0.00000000000E+00  0.00000000000E+00  0.11052713610E+04  0.11052713611E+04  0.50400001928E-02 0.  1.
       -1   -1    0    0    0  501  0.00000000000E+00  0.00000000000E+00 -0.10945378455E+04  0.10945378455E+04  0.50400001928E-02 0. -1.
    10030    2    1    2    0    0  0.00000000000E+00  0.00000000000E+00  0.10733515553E+02  0.21998092066E+04  0.21997830204E+04 0.  0.
        5    1    3    3  502    0  0.42765698568E+03 -0.57383074826E+03  0.84058147683E+03  0.11039798613E+04  0.46999998093E+01 0.  1.
       -5    1    3    3    0  502 -0.42765698568E+03  0.57383074826E+03 -0.82984796128E+03  0.10958293452E+04  0.46999998093E+01 0. -1.
</event>
<event>
 5   0  0.4309945E-06  0.2241046E+04  0.7818609E-02  0.8501535E-01
        1   -1    0    0  501    0  0.00000000000E+00  0.00000000000E+00  0.78138058523E+03  0.78138058525E+03  0.50400001928E-02 0.  1.
       -1   -1    0    0    0  501  0.00000000000E+00  0.00000000000E+00 -0.16068633995E+04  0.16068633996E+04  0.50400001928E-02 0. -1.
    10030    2    1    2    0    0  0.00000000000E+00  0.00000000000E+00 -0.82548281431E+03  0.23882439848E+04  0.22410460625E+04 0.  0.
        4    1    3    3  502    0  0.94237112492E+03  0.54079383739E+03 -0.12079698112E+03  0.10932130786E+04  0.12699999809E+01 0.  1.
       -4    1    3    3    0  502 -0.94237112492E+03 -0.54079383739E+03 -0.70468583319E+03  0.12950309062E+04  0.12699999809E+01 0. -1.
</event>
<event>
 5   0  0.4408787E-06  0.2203521E+04  0.7818609E-02  0.8516964E-01
       -1   -1    0    0    0  501  0.00000000000E+00  0.00000000000E+00  0.96493593663E+03  0.96493593664E+03  0.50400001928E-02 0.  1.
        1   -1    0    0  501    0  0.00000000000E+00  0.00000000000E+00 -0.12579858531E+04  0.12579858532E+04  0.50400001928E-02 0. -1.
    10030    2    1    2    0    0  0.00000000000E+00  0.00000000000E+00 -0.29304991652E+03  0.22229217898E+04  0.22035205989E+04 0.  0.
        1    1    3    3  502    0 -0.40812672700E+03 -0.75701208198E+03 -0.84123989313E+03  0.12030458326E+04  0.50400001928E-02 0. -1.
       -1    1    3    3    0  502  0.40812672700E+03  0.75701208198E+03  0.54818997661E+03  0.10198759572E+04  0.50400001928E-02 0.  1.
</event>
<event>
 5   0  0.4408787E-06  0.2198938E+04  0.7818609E-02  0.8518870E-01
        1   -1    0    0  501    0  0.00000000000E+00  0.00000000000E+00  0.17455074908E+04  0.17455074908E+04  0.50400001928E-02 0.  1.
       -1   -1    0    0    0  501  0.00000000000E+00  0.00000000000E+00 -0.69253880004E+03  0.69253880006E+03  0.50400001928E-02 0. -1.
    10030    2    1    2    0    0  0.00000000000E+00  0.00000000000E+00  0.10529686907E+04  0.24380462909E+04  0.21989376191E+04 0.  0.
        1    1    3    3  502    0 -0.86050729991E+02  0.27415955028E+03  0.17031390573E+04  0.17272089728E+04  0.50400001928E-02 0.  1.
       -1    1    3    3    0  502  0.86050729991E+02 -0.27415955028E+03 -0.65017036657E+03  0.71083731805E+03  0.50400001928E-02 0. -1.
</event>
<event>
 5   0  0.4408787E-06  0.2201162E+04  0.7818609E-02  0.8517945E-01
       -1   -1    0    0    0  501  0.00000000000E+00  0.00000000000E+00  0.99728247055E+03  0.99728247056E+03  0.50400001928E-02 0. -1.
        1   -1    0    0  501    0  0.00000000000E+00  0.00000000000E+00 -0.12145791873E+04  0.12145791873E+04  0.50400001928E-02 0.  1.
    10030    2    1    2    0    0  0.00000000000E+00  0.00000000000E+00 -0.21729671678E+03  0.22118616579E+04  0.22011619955E+04 0.  0.
        1    1    3    3  502    0 -0.35853566552E+03 -0.67812211562E+03 -0.90171290054E+03  0.11838427185E+04  0.50400001928E-02 0.  1.
       -1    1    3    3    0  502  0.35853566552E+03  0.67812211562E+03  0.68441618376E+03  0.10280189394E+04  0.50400001928E-02 0. -1.
</event>
<event>
 5   0  0.4630615E-06  0.2202326E+04  0.7818609E-02  0.8517461E-01
        1   -1    0    0  501    0  0.00000000000E+00  0.00000000000E+00  0.10542400651E+04  0.10542400651E+04  0.50400001928E-02 0. -1.
       -1   -1    0    0    0  501  0.00000000000E+00  0.00000000000E+00 -0.11501743672E+04  0.11501743672E+04  0.50400001928E-02 0.  1.
    10030    2    1    2    0    0  0.00000000000E+00  0.00000000000E+00 -0.95934302099E+02  0.22044144323E+04  0.22023259521E+04 0.  0.
        2    1    3    3  502    0 -0.52927720449E+03 -0.37070898436E+02  0.91785786962E+03  0.10601753060E+04  0.25500000920E-02 0. -1.
       -2    1    3    3    0  502  0.52927720449E+03  0.37070898436E+02 -0.10137921717E+04  0.11442391263E+04  0.25500000920E-02 0.  1.
</event>
<event>
 5   0  0.4794967E-06  0.2202117E+04  0.7818609E-02  0.8517548E-01
       -1   -1    0    0    0  501  0.00000000000E+00  0.00000000000E+00  0.13052022704E+04  0.13052022704E+04  0.50400001928E-02 0.  1.
        1   -1    0    0  501    0  0.00000000000E+00  0.00000000000E+00 -0.92884426862E+03  0.92884426863E+03  0.50400001928E-02 0. -1.
    10030    2    1    2    0    0  0.00000000000E+00  0.00000000000E+00  0.37635800182E+03  0.22340465391E+04  0.22021168437E+04 0.  0.
        5    1    3    3  502    0  0.38053824628E+03 -0.67052888414E+03  0.98563580024E+03  0.12513665978E+04  0.46999998093E+01 0.  1.
       -5    1    3    3    0  502 -0.38053824628E+03  0.67052888414E+03 -0.60927779843E+03  0.98267994128E+03  0.46999998093E+01 0. -1.
</event>
<event>
 5   0  0.1035928E-05  0.2200303E+04  0.7818609E-02  0.8518302E-01
        2   -1    0    0  501    0  0.00000000000E+00  0.00000000000E+00  0.12424272450E+04  0.12424272450E+04  0.25500000920E-02 0.  1.
       -2   -1    0    0    0  501  0.00000000000E+00  0.00000000000E+00 -0.97416859806E+03  0.97416859807E+03  0.25500000920E-02 0. -1.
    10030    2    1    2    0    0  0.00000000000E+00  0.00000000000E+00  0.26825864690E+03  0.22165958430E+04  0.22003032586E+04 0.  0.
        3    1    3    3  502    0  0.20200392350E+03  0.10809237720E+04  0.16802083810E+03  0.11123995677E+04  0.10100000352E+00 0.  1.
       -3    1    3    3    0  502 -0.20200392350E+03 -0.10809237720E+04  0.10023780880E+03  0.11041962753E+04  0.10100000352E+00 0. -1.
</event>
<event>
 5   0  0.4462201E-06  0.2200054E+04  0.7818609E-02  0.8518406E-01
        1   -1    0    0  501    0  0.00000000000E+00  0.00000000000E+00  0.48042693062E+03  0.48042693065E+03  0.50400001928E-02 0. -1.
       -1   -1    0    0    0  501  0.00000000000E+00  0.00000000000E+00 -0.25187168806E+04  0.25187168806E+04  0.50400001928E-02 0.  1.
    10030    2    1    2    0    0  0.00000000000E+00  0.00000000000E+00 -0.20382899500E+04  0.29991438113E+04  0.22000540176E+04 0.  0.
        3    1    3    3  502    0 -0.17575420393E+03 -0.99111092993E+03 -0.41428811824E+03  0.10884967022E+04  0.10100000352E+00 0. -1.
       -3    1    3    3    0  502  0.17575420393E+03  0.99111092993E+03 -0.16240018318E+04  0.19106471091E+04  0.10100000352E+00 0.  1.
</event>
<event>
 5   0  0.4630615E-06  0.2196826E+04  0.7818609E-02  0.8519750E-01
        1   -1    0    0  501    0  0.00000000000E+00  0.00000000000E+00  0.98323190085E+03  0.98323190087E+03  0.50400001928E-02 0. -1.
       -1   -1    0    0    0  501  0.00000000000E+00  0.00000000000E+00 -0.12270870173E+04  0.12270870173E+04  0.50400001928E-02 0.  1.
    10030    2    1    2    0    0  0.00000000000E+00  0.00000000000E+00 -0.24385511646E+03  0.22103189182E+04  0.21968259836E+04 0.  0.
        2    1    3    3  502    0 -0.85390639825E+02  0.54054177497E+03  0.83630538707E+03  0.99944168030E+03  0.25500000920E-02 0. -1.
       -2    1    3    3    0  502  0.85390639825E+02 -0.54054177497E+03 -0.10801605035E+04  0.12108772379E+04  0.25500000920E-02 0.  1.
</event>
<event>
 5   0  0.1015876E-05  0.2200027E+04  0.7818609E-02  0.8518417E-01
        2   -1    0    0  501    0  0.00000000000E+00  0.00000000000E+00  0.12457484885E+04  0.12457484885E+04  0.25500000920E-02 0.  1.
       -2   -1    0    0    0  501  0.00000000000E+00  0.00000000000E+00 -0.97132781055E+03  0.97132781055E+03  0.25500000920E-02 0. -1.
    10030    2    1    2    0    0  0.00000000000E+00  0.00000000000E+00  0.27442067794E+03  0.22170762990E+04  0.22000274106E+04 0.  0.
        5    1    3    3  502    0  0.38969460333E+02  0.74639808675E+03 -0.67612480243E+03  0.10078668370E+04  0.46999998093E+01 0. -1.
       -5    1    3    3    0  502 -0.38969460333E+02 -0.74639808675E+03  0.95054548037E+03  0.12092094620E+04  0.46999998093E+01 0.  1.
</event>
<event>
 5   0  0.1035928E-05  0.2196945E+04  0.7818609E-02  0.8519701E-01
        2   -1    0    0  501    0  0.00000000000E+00  0.00000000000E+00  0.80031378835E+03  0.80031378836E+03  0.25500000920E-02 0.  1.
       -2   -1    0    0    0  501  0.00000000000E+00  0.00000000000E+00 -0.15077108488E+04  0.15077108488E+04  0.25500000920E-02 0. -1.
    10030    2    1    2    0    0  0.00000000000E+00  0.00000000000E+00 -0.70739706049E+03  0.23080246372E+04  0.21969449526E+04 0.  0.
        3    1    3    3  502    0  0.18280866498E+03  0.50501541453E+03  0.65296815999E+03  0.84547442603E+03  0.10100000352E+00 0.  1.
       -3    1    3    3    0  502 -0.18280866498E+03 -0.50501541453E+03 -0.13603652205E+04  0.14625502112E+04  0.10100000352E+00 0. -1.
</event>
<event>
 5   0  0.4408787E-06  0.2205593E+04  0.7818609E-02  0.8516104E-01
        1   -1    0    0  501    0  0.00000000000E+00  0.00000000000E+00  0.22438463289E+04  0.22438463289E+04  0.50400001928E-02 0. -1.
       -1   -1    0    0    0  501  0.00000000000E+00  0.00000000000E+00 -0.54199815327E+03  0.54199815329E+03  0.50400001928E-02 0.  1.
    10030    2    1    2    0    0  0.00000000000E+00  0.00000000000E+00  0.17018481756E+04  0.27858444821E+04  0.22055934045E+04 0.  0.
        1    1    3    3  502    0  0.45989774577E+03  0.50336356816E+03  0.19457177009E+04  0.20617221418E+04  0.50400001928E-02 0. -1.
       -1    1    3    3    0  502 -0.45989774577E+03 -0.50336356816E+03 -0.24386952536E+03  0.72412234031E+03  0.50400001928E-02 0.  1.
</event>
<event>
 5   0  0.9963173E-06  0.2201743E+04  0.7818609E-02  0.8517703E-01
        2   -1    0    0  501    0  0.00000000000E+00  0.00000000000E+00  0.22513429923E+04  0.22513429923E+04  0.25500000920E-02 0.  1.
       -2   -1    0    0    0  501  0.00000000000E+00  0.00000000000E+00 -0.53830904763E+03  0.53830904764E+03  0.25500000920E-02 0. -1.
    10030    2    1    2    0    0  0.00000000000E+00  0.00000000000E+00  0.17130339447E+04  0.27896520399E+04  0.22017432203E+04 0.  0.
        4    1    3    3  502    0 -0.47375282891E+03  0.73074898493E+02  0.21121680207E+04  0.21658802008E+04  0.12699999809E+01 0.  1.
       -4    1    3    3    0  502  0.47375282891E+03 -0.73074898493E+02 -0.39913407605E+03  0.62377183911E+03  0.12699999809E+01 0. -1.
</event>
<event>
 5   0  0.1014015E-05  0.2200132E+04  0.7818609E-02  0.8518373E-01
        2   -1    0    0  501    0  0.00000000000E+00  0.00000000000E+00  0.11432133022E+04  0.11432133022E+04  0.25500000920E-02 0.  1.
       -2   -1    0    0    0  501  0.00000000000E+00  0.00000000000E+00 -0.10585469764E+04  0.10585469764E+04  0.25500000920E-02 0. -1.
    10030    2    1    2    0    0  0.00000000000E+00  0.00000000000E+00  0.84666325834E+02  0.22017602786E+04  0.22001318001E+04 0.  0.
        1    1    3    3  502    0  0.53050536172E+03 -0.40633493626E+03 -0.83215627523E+03  0.10672525876E+04  0.50400001928E-02 0.  1.
       -1    1    3    3    0  502 -0.53050536172E+03  0.40633493626E+03  0.91682260107E+03  0.11345076911E+04  0.50400001928E-02 0. -1.
</event>
<event>
 5   0  0.1035928E-05  0.2199370E+04  0.7818609E-02  0.8518690E-01
       -2   -1    0    0    0  501  0.00000000000E+00  0.00000000000E+00  0.77033551283E+03  0.77033551283E+03  0.25500000920E-02 0. -1.
        2   -1    0    0  501    0  0.00000000000E+00  0.00000000000E+00 -0.15698453777E+04  0.15698453777E+04  0.25500000920E-02 0.  1.
    10030    2    1    2    0    0  0.00000000000E+00  0.00000000000E+00 -0.79950986483E+03  0.23401808905E+04  0.21993704954E+04 0.  0.
        3    1    3    3  502    0 -0.73994553784E+03  0.20832142222E+03 -0.12364792874E+04  0.14559526957E+04  0.10100000352E+00 0.  1.
       -3    1    3    3    0  502  0.73994553784E+03 -0.20832142222E+03  0.43696942255E+03  0.88422819474E+03  0.10100000352E+00 0. -1.
</event>
<event>
 5   0  0.4794967E-06  0.2206077E+04  0.7818609E-02  0.8515903E-01
       -1   -1    0    0    0  501  0.00000000000E+00  0.00000000000E+00  0.24839394442E+04  0.24839394442E+04  0.50400001928E-02 0. -1.
        1   -1    0    0  501    0  0.00000000000E+00  0.00000000000E+00 -0.48982420149E+03  0.48982420152E+03  0.50400001928E-02 0.  1.
    10030    2    1    2    0    0  0.00000000000E+00  0.00000000000E+00  0.19941152427E+04  0.29737636457E+04  0.22060767483E+04 0.  0.
        5    1    3    3  502    0  0.51489831847E+03  0.66441629300E+03  0.19598096920E+04  0.21324740110E+04  0.46999998093E+01 0. -1.
       -5    1    3    3    0  502 -0.51489831847E+03 -0.66441629300E+03  0.34305550770E+02  0.84128963478E+03  0.46999998093E+01 0.  1.
</event>
<event>
 5   0  0.4630615E-06  0.2195860E+04  0.7818609E-02  0.8520153E-01
        1   -1    0    0  501    0  0.00000000000E+00  0.00000000000E+00  0.12549655752E+04  0.12549655752E+04  0.50400001928E-02 0.  1.
       -1   -1    0    0    0  501  0.00000000000E+00  0.00000000000E+00 -0.96054476758E+03  0.96054476760E+03  0.50400001928E-02 0. -1.
    10030    2    1    2    0    0  0.00000000000E+00  0.00000000000E+00  0.29442080759E+03  0.22155103428E+04  0.21958603023E+04 0.  0.
        2    1    3    3  502    0 -0.52241535899E+03  0.90875331014E+03 -0.18236269367E+03  0.10639579588E+04  0.25500000920E-02 0. -1.
       -2    1    3    3    0  502  0.52241535899E+03 -0.90875331014E+03  0.47678350126E+03  0.11515523840E+04  0.25500000920E-02 0.  1.
</event>
<event>
 5   0  0.4408787E-06  0.2203380E+04  0.7818609E-02  0.8517023E-01
        1   -1    0    0  501    0  0.00000000000E+00  0.00000000000E+00  0.65976018421E+03  0.65976018423E+03  0.50400001928E-02 0. -1.
       -1   -1    0    0    0  501  0.00000000000E+00  0.00000000000E+00 -0.18396387025E+04  0.18396387025E+04  0.50400001928E-02 0.  1.
    10030    2    1    2    0    0  0.00000000000E+00  0.00000000000E+00 -0.11798785183E+04  0.24993988868E+04  0.22033795581E+04 0.  0.
        1    1    3    3  502    0 -0.81092914927E+03  0.12237327069E+03 -0.14243899917E+04  0.16436143560E+04  0.50400001928E-02 0.  1.
       -1    1    3    3    0  502  0.81092914927E+03 -0.12237327069E+03  0.24451147343E+03  0.85578453081E+03  0.50400001928E-02 0. -1.
</event>
<event>
 5   0  0.9963573E-06  0.2202312E+04  0.7818609E-02  0.8517467E-01
       -2   -1    0    0    0  501  0.00000000000E+00  0.00000000000E+00  0.10051127112E+04  0.10051127112E+04  0.25500000920E-02 0. -1.
        2   -1    0    0  501    0  0.00000000000E+00  0.00000000000E+00 -0.12063762190E+04  0.12063762190E+04  0.25500000920E-02 0.  1.
    10030    2    1    2    0    0  0.00000000000E+00  0.00000000000E+00 -0.20126350776E+03  0.22114889302E+04  0.22023115785E+04 0.  0.
        2    1    3    3  502    0  0.23069064967E+03  0.89444684824E+03  0.50127472080E+03  0.10509660727E+04  0.25500000920E-02 0.  1.
       -2    1    3    3    0  502 -0.23069064967E+03 -0.89444684824E+03 -0.70253822856E+03  0.11605228575E+04  0.25500000920E-02 0. -1.
</event>
<event>
 5   0  0.9963173E-06  0.2197740E+04  0.7818609E-02  0.8519369E-01
       -2   -1    0    0    0  501  0.00000000000E+00  0.00000000000E+00  0.49706584504E+03  0.49706584504E+03  0.25500000920E-02 0. -1.
        2   -1    0    0  501    0  0.00000000000E+00  0.00000000000E+00 -0.24292873612E+04  0.24292873612E+04  0.25500000920E-02 0.  1.
    10030    2    1    2    0    0  0.00000000000E+00  0.00000000000E+00 -0.19322215162E+04  0.29263532063E+04  0.21977404533E+04 0.  0.
        4    1    3    3  502    0  0.24333787460E+03 -0.90976193337E+03 -0.17200826789E+04  0.19610115073E+04  0.12699999809E+01 0.  1.
       -4    1    3    3    0  502 -0.24333787460E+03  0.90976193337E+03 -0.21213883732E+03  0.96534169900E+03  0.12699999809E+01 0. -1.
</event>
<event>
 5   0  0.4630615E-06  0.2200952E+04  0.7818609E-02  0.8518032E-01
        1   -1    0    0  501    0  0.00000000000E+00  0.00000000000E+00  0.14990856342E+04  0.14990856342E+04  0.50400001928E-02 0.  1.
       -1   -1    0    0    0  501  0.00000000000E+00  0.00000000000E+00 -0.80785764217E+03  0.80785764219E+03  0.50400001928E-02 0. -1.
    10030    2    1    2    0    0  0.00000000000E+00  0.00000000000E+00  0.69122799198E+03  0.23069432763E+04  0.22009523265E+04 0.  0.
        2    1    3    3  502    0 -0.28827287001E+03 -0.10595732522E+04  0.26966013866E+03  0.11307136307E+04  0.25500000920E-02 0.  1.
       -2    1    3    3    0  502  0.28827287001E+03  0.10595732522E+04  0.42156785332E+03  0.11762296456E+04  0.25500000920E-02 0. -1.
</event>
<event>
 5   0  0.4794967E-06  0.2192838E+04  0.7818609E-02  0.8521415E-01
       -1   -1    0    0    0  501  0.00000000000E+00  0.00000000000E+00  0.79954188037E+03  0.79954188039E+03  0.50400001928E-02 0. -1.
        1   -1    0    0  501    0  0.00000000000E+00  0.00000000000E+00 -0.15035297123E+04  0.15035297123E+04  0.50400001928E-02 0.  1.
    10030    2    1    2    0    0  0.00000000000E+00  0.00000000000E+00 -0.70398783195E+03  0.23030715927E+04  0.21928383191E+04 0.  0.
        5    1    3    3  502    0  0.54020769444E+02  0.10880670397E+04 -0.22206253741E+03  0.11118192240E+04  0.46999998093E+01 0. -1.
       -5    1    3    3    0  502 -0.54020769444E+02 -0.10880670397E+04 -0.48192529455E+03  0.11912523687E+04  0.46999998093E+01 0.  1.
</event>
<event>
 5   0  0.4630615E-06  0.2193648E+04  0.7818609E-02  0.8521077E-01
       -1   -1    0    0    0  501  0.00000000000E+00  0.00000000000E+00  0.10784814051E+04  0.10784814051E+04  0.50400001928E-02 0. -1.
        1   -1    0    0  501    0  0.00000000000E+00  0.00000000000E+00 -0.11154782949E+04  0.11154782949E+04  0.50400001928E-02 0.  1.
    10030    2    1    2    0    0  0.00000000000E+00  0.00000000000E+00 -0.36996889820E+02  0.21939597000E+04  0.21936477373E+04 0.  0.
        2    1    3    3  502    0 -0.29629877502E+03 -0.47222773592E+03 -0.96321236442E+03  0.11129106243E+04  0.25500000920E-02 0.  1.
       -2    1    3    3    0  502  0.29629877502E+03  0.47222773592E+03  0.92621547460E+03  0.10810490757E+04  0.25500000920E-02 0. -1.
</event>
<event>
 5   0  0.3546750E-06  0.2201684E+04  0.7818609E-02  0.8517727E-01
        3   -1    0    0  501    0  0.00000000000E+00  0.00000000000E+00  0.84139143503E+03  0.84139144109E+03  0.10100000352E+00 0.  1.
       -3   -1    0    0    0  501  0.00000000000E+00  0.00000000000E+00 -0.14402970568E+04  0.14402970603E+04  0.10100000352E+00 0. -1.
    10030    2    1    2    0    0  0.00000000000E+00  0.00000000000E+00 -0.59890562173E+03  0.22816885014E+04  0.22016844628E+04 0.  0.
        5    1    3    3  502    0 -0.41451729588E+03  0.66152395337E+02 -0.13540916359E+04  0.14176695583E+04  0.46999998093E+01 0. -1.
       -5    1    3    3    0  502  0.41451729588E+03 -0.66152395337E+02  0.75518601421E+03  0.86401894311E+03  0.46999998093E+01 0.  1.
</event>
<event>
 5   0  0.9963573E-06  0.2199787E+04  0.7818609E-02  0.8518517E-01
        2   -1    0    0  501    0  0.00000000000E+00  0.00000000000E+00  0.10243795238E+04  0.10243795238E+04  0.25500000920E-02 0.  1.
       -2   -1    0    0    0  501  0.00000000000E+00  0.00000000000E+00 -0.11809736037E+04  0.11809736037E+04  0.25500000920E-02 0. -1.
    10030    2    1    2    0    0  0.00000000000E+00  0.00000000000E+00 -0.15659407990E+03  0.22053531275E+04  0.21997865149E+04 0.  0.
        2    1    3    3  502    0  0.45686732974E+03  0.73004383588E+03  0.60759315381E+03  0.10539740034E+04  0.25500000920E-02 0.  1.
       -2    1    3    3    0  502 -0.45686732974E+03 -0.73004383588E+03 -0.76418723371E+03  0.11513791241E+04  0.25500000920E-02 0. -1.
</event>
<event>
 5   0  0.1035928E-05  0.2199537E+04  0.7818609E-02  0.8518621E-01
       -2   -1    0    0    0  501  0.00000000000E+00  0.00000000000E+00  0.80598213097E+03  0.80598213097E+03  0.25500000920E-02 0.  1.
        2   -1    0    0  501    0  0.00000000000E+00  0.00000000000E+00 -0.15006421301E+04  0.15006421301E+04  0.25500000920E-02 0. -1.
    10030    2    1    2    0    0  0.00000000000E+00  0.00000000000E+00 -0.69465999910E+03  0.23066242610E+04  0.21995369893E+04 0.  0.
        3    1    3    3  502    0  0.59465954652E+03 -0.25964721498E+02  0.62246193001E+03  0.86125083892E+03  0.10100000352E+00 0.  1.
       -3    1    3    3    0  502 -0.59465954652E+03  0.25964721498E+02 -0.13171219291E+04  0.14453734221E+04  0.10100000352E+00 0. -1.
</event>
<event>
 5   0  0.9963573E-06  0.2200148E+04  0.7818609E-02  0.8518367E-01
       -2   -1    0    0    0  501  0.00000000000E+00  0.00000000000E+00  0.59674054772E+03  0.59674054772E+03  0.25500000920E-02 0.  1.
        2   -1    0    0  501    0  0.00000000000E+00  0.00000000000E+00 -0.20279542756E+04  0.20279542756E+04  0.25500000920E-02 0. -1.
    10030    2    1    2    0    0  0.00000000000E+00  0.00000000000E+00 -0.14312137279E+04  0.26246948233E+04  0.22001477634E+04 0.  0.
        2    1    3    3  502    0 -0.34130679901E+03  0.10436840054E+04 -0.79470229749E+03  0.13554771764E+04  0.25500000920E-02 0. -1.
       -2    1    3    3    0  502  0.34130679901E+03 -0.10436840054E+04 -0.63651143041E+03  0.12692176469E+04  0.25500000920E-02 0.  1.
</event>
<event>
 5   0  0.4462201E-06  0.2195394E+04  0.7818609E-02  0.8520348E-01
       -1   -1    0    0    0  501  0.00000000000E+00  0.00000000000E+00  0.16601964313E+04  0.16601964313E+04  0.50400001928E-02 0.  1.
        1   -1    0    0  501    0  0.00000000000E+00  0.00000000000E+00 -0.72578070454E+03  0.72578070455E+03  0.50400001928E-02 0. -1.
    10030    2    1    2    0    0  0.00000000000E+00  0.00000000000E+00  0.93441572677E+03  0.23859771359E+04  0.21953938468E+04 0.  0.
        3    1    3    3  502    0 -0.73398857647E+03  0.81326516315E+03  0.39191872082E+03  0.11635032230E+04  0.10100000352E+00 0.  1.
       -3    1    3    3    0  502  0.73398857647E+03 -0.81326516315E+03  0.54249700595E+03  0.12224739129E+04  0.10100000352E+00 0. -1.
</event>
<event>
 5   0  0.4794967E-06  0.2197002E+04  0.7818609E-02  0.8519677E-01
       -1   -1    0    0    0  501  0.00000000000E+00  0.00000000000E+00  0.43221990199E+03  0.43221990202E+03  0.50400001928E-02 0.  1.
        1   -1    0    0  501    0  0.00000000000E+00  0.00000000000E+00 -0.27918756220E+04  0.27918756220E+04  0.50400001928E-02 0. -1.
    10030    2    1    2    0    0  0.00000000000E+00  0.00000000000E+00 -0.23596557200E+04  0.32240955241E+04  0.21970017822E+04 0.  0.
        5    1    3    3  502    0 -0.18945844685E+03  0.96487880614E+03 -0.18984472234E+04  0.21379919466E+04  0.46999998093E+01 0. -1.
       -5    1    3    3    0  502  0.18945844685E+03 -0.96487880614E+03 -0.46120849663E+03  0.10861035775E+04  0.46999998093E+01 0.  1.
</event>
<event>
 5   0  0.1015876E-05  0.2209439E+04  0.7818609E-02  0.8514510E-01
       -2   -1    0    0    0  501  0.00000000000E+00  0.00000000000E+00  0.80626698002E+03  0.80626698003E+03  0.25500000920E-02 0.  1.
        2   -1    0    0  501    0  0.00000000000E+00  0.00000000000E+00 -0.15136488768E+04  0.15136488768E+04  0.25500000920E-02 0. -1.
    10030    2    1    2    0    0  0.00000000000E+00  0.00000000000E+00 -0.70738189677E+03  0.23199158568E+04  0.22094389412E+04 0.  0.
        5    1    3    3  502    0 -0.39519254889E+03 -0.78871443381E+03  0.34448981431E+03  0.94707071065E+03  0.46999998093E+01 0.  1.
       -5    1    3    3    0  502  0.39519254889E+03  0.78871443381E+03 -0.10518717111E+04  0.13728451462E+04  0.46999998093E+01 0. -1.
</event>
<event>
 5   0  0.4794967E-06  0.2201084E+04  0.7818609E-02  0.8517977E-01
       -1   -1    0    0    0  501  0.00000000000E+00  0.00000000000E+00  0.13867059647E+04  0.13867059647E+04  0.50400001928E-02 0.  1.
        1   -1    0    0  501    0  0.00000000000E+00  0.00000000000E+00 -0.87343173573E+03  0.87343173574E+03  0.50400001928E-02 0. -1.
    10030    2    1    2    0    0  0.00000000000E+00  0.00000000000E+00  0.51327422898E+03  0.22601377005E+04  0.22010842762E+04 0.  0.
        5    1    3    3  502    0  0.28062050904E+03  0.10511736550E+04  0.86489976229E+02  0.10914286642E+04  0.46999998093E+01 0. -1.
       -5    1    3    3    0  502 -0.28062050904E+03 -0.10511736550E+04  0.42678425275E+03  0.11687090363E+04  0.46999998093E+01 0.  1.
</event>
<event>
 5   0  0.4630615E-06  0.2195074E+04  0.7818609E-02  0.8520481E-01
        1   -1    0    0  501    0  0.00000000000E+00  0.00000000000E+00  0.11993029658E+04  0.11993029658E+04  0.50400001928E-02 0. -1.
       -1   -1    0    0    0  501  0.00000000000E+00  0.00000000000E+00 -0.10044062195E+04  0.10044062195E+04  0.50400001928E-02 0.  1.
    10030    2    1    2    0    0  0.00000000000E+00  0.00000000000E+00  0.19489674629E+03  0.22037091853E+04  0.21950739011E+04 0.  0.
        2    1    3    3  502    0  0.42214478910E+03  0.83308728159E+03  0.67621146985E+03  0.11530405863E+04  0.25500000920E-02 0. -1.
       -2    1    3    3    0  502 -0.42214478910E+03 -0.83308728159E+03 -0.48131472355E+03  0.10506685990E+04  0.25500000920E-02 0.  1.
</event>
<event>
 5   0  0.1015876E-05  0.2199567E+04  0.7818609E-02  0.8518609E-01
        2   -1    0    0  501    0  0.00000000000E+00  0.00000000000E+00  0.14770098861E+04  0.14770098861E+04  0.25500000920E-02 0.  1.
       -2   -1    0    0    0  501  0.00000000000E+00  0.00000000000E+00 -0.81889992812E+03  0.81889992812E+03  0.25500000920E-02 0. -1.
    10030    2    1    2    0    0  0.00000000000E+00  0.00000000000E+00  0.65810995794E+03  0.22959098142E+04  0.21995665842E+04 0.  0.
        5    1    3    3  502    0  0.12242276731E+03  0.10070854344E+04  0.77226226886E+03  0.12749978463E+04  0.46999998093E+01 0. -1.
       -5    1    3    3    0  502 -0.12242276731E+03 -0.10070854344E+04 -0.11415231092E+03  0.10209119679E+04  0.46999998093E+01 0.  1.
</event>
<event>
 5   0  0.4408787E-06  0.2194322E+04  0.7818609E-02  0.8520795E-01
        1   -1    0    0  501    0  0.00000000000E+00  0.00000000000E+00  0.89493638044E+03  0.89493638046E+03  0.50400001928E-02 0.  1.
       -1   -1    0    0    0  501  0.00000000000E+00  0.00000000000E+00 -0.13450812647E+04  0.13450812647E+04  0.50400001928E-02 0. -1.
    10030    2    1    2    0    0  0.00000000000E+00  0.00000000000E+00 -0.45014488427E+03  0.22400176452E+04  0.21943219075E+04 0.  0.
        1    1    3    3  502    0  0.48246307657E+03 -0.90127596920E+02 -0.12267653576E+04  0.13213049787E+04  0.50400001928E-02 0. -1.
       -1    1    3    3    0  502 -0.48246307657E+03  0.90127596920E+02  0.77662047335E+03  0.91871266652E+03  0.50400001928E-02 0.  1.
</event>
<event>
 5   0  0.1035928E-05  0.2206564E+04  0.7818609E-02  0.8515701E-01
        2   -1    0    0  501    0  0.00000000000E+00  0.00000000000E+00  0.23900065490E+04  0.23900065490E+04  0.25500000920E-02 0.  1.
       -2   -1    0    0    0  501  0.00000000000E+00  0.00000000000E+00 -0.50930039963E+03  0.50930039964E+03  0.25500000920E-02 0. -1.
    10030    2    1    2    0    0  0.00000000000E+00  0.00000000000E+00  0.18807061493E+04  0.28993069486E+04  0.22065641079E+04 0.  0.
        3    1    3    3  502    0  0.78740545801E+03 -0.20283890677E+03  0.19201733066E+04  0.20852377598E+04  0.10100000352E+00 0.  1.
       -3    1    3    3    0  502 -0.78740545801E+03  0.20283890677E+03 -0.39467157289E+02  0.81406918877E+03  0.10100000352E+00 0. -1.
</event>
<event>
 5   0  0.1014015E-05  0.2200010E+04  0.7818609E-02  0.8518424E-01
        2   -1    0    0  501    0  0.00000000000E+00  0.00000000000E+00  0.13969336228E+04  0.13969336228E+04  0.25500000920E-02 0.  1.
       -2   -1    0    0    0  501  0.00000000000E+00  0.00000000000E+00 -0.86619044795E+03  0.86619044796E+03  0.25500000920E-02 0. -1.
    10030    2    1    2    0    0  0.00000000000E+00  0.00000000000E+00  0.53074317485E+03  0.22631240708E+04  0.22000096004E+04 0.  0.
        1    1    3    3  502    0 -0.46916294422E+03 -0.75829700998E+03 -0.39722052346E+03  0.97617230439E+03  0.50400001928E-02 0. -1.
       -1    1    3    3    0  502  0.46916294422E+03  0.75829700998E+03  0.92796369831E+03  0.12869517664E+04  0.50400001928E-02 0.  1.
</event>
<event>
 5   0  0.1035928E-05  0.2200285E+04  0.7818609E-02  0.8518310E-01
        2   -1    0    0  501    0  0.00000000000E+00  0.00000000000E+00  0.21626864547E+04  0.21626864547E+04  0.25500000920E-02 0. -1.
       -2   -1    0    0    0  501  0.00000000000E+00  0.00000000000E+00 -0.55963427550E+03  0.55963427550E+03  0.25500000920E-02 0.  1.
    10030    2    1    2    0    0  0.00000000000E+00  0.00000000000E+00  0.16030521792E+04  0.27223207302E+04  0.22002849518E+04 0.  0.
        3    1    3    3  502    0  0.10823614983E+03 -0.25835105128E+03 -0.51477548042E+03  0.58604960137E+03  0.10100000352E+00 0.  1.
       -3    1    3    3    0  502 -0.10823614983E+03  0.25835105128E+03  0.21178276596E+04  0.21362711289E+04  0.10100000352E+00 0. -1.
</event>
<event>
 5   0  0.4630615E-06  0.2199214E+04  0.7818609E-02  0.8518755E-01
        1   -1    0    0  501    0  0.00000000000E+00  0.00000000000E+00  0.18633740573E+04  0.18633740573E+04  0.50400001928E-02 0. -1.
       -1   -1    0    0    0  501  0.00000000000E+00  0.00000000000E+00 -0.64889581849E+03  0.64889581851E+03  0.50400001928E-02 0.  1.
    10030    2    1    2    0    0  0.00000000000E+00  0.00000000000E+00  0.12144782388E+04  0.25122698758E+04  0.21992140724E+04 0.  0.
        2    1    3    3  502    0 -0.62500435894E+03  0.23559591407E+03  0.16050792887E+04  0.17385095359E+04  0.25500000920E-02 0. -1.
       -2    1    3    3    0  502  0.62500435894E+03 -0.23559591407E+03 -0.39060104989E+03  0.77376033990E+03  0.25500000920E-02 0.  1.
</event>
<event>
 5   0  0.9963173E-06  0.2205277E+04  0.7818609E-02  0.8516235E-01
       -2   -1    0    0    0  501  0.00000000000E+00  0.00000000000E+00  0.82270133557E+03  0.82270133557E+03  0.25500000920E-02 0.  1.
        2   -1    0    0  501    0  0.00000000000E+00  0.00000000000E+00 -0.14778293398E+04  0.14778293398E+04  0.25500000920E-02 0. -1.
    10030    2    1    2    0    0  0.00000000000E+00  0.00000000000E+00 -0.65512800421E+03  0.23005306754E+04  0.22052774624E+04 0.  0.
        4    1    3    3  502    0  0.37855844009E+03  0.10147129017E+04 -0.11159075516E+03  0.10887620838E+04  0.12699999809E+01 0.  1.
       -4    1    3    3    0  502 -0.37855844009E+03 -0.10147129017E+04 -0.54353724905E+03  0.12117685916E+04  0.12699999809E+01 0. -1.
</event>
<event>
 5   0  0.4794967E-06  0.2199183E+04  0.7818609E-02  0.8518768E-01
       -1   -1    0    0    0  501  0.00000000000E+00  0.00000000000E+00  0.68728779613E+03  0.68728779615E+03  0.50400001928E-02 0.  1.
        1   -1    0    0  501    0  0.00000000000E+00  0.00000000000E+00 -0.17592359409E+04  0.17592359410E+04  0.50400001928E-02 0. -1.
    10030    2    1    2    0    0  0.00000000000E+00  0.00000000000E+00 -0.10719481448E+04  0.24465237371E+04  0.21991829326E+04 0.  0.
        5    1    3    3  502    0 -0.31818859471E+03  0.21683583655E+03 -0.16817730320E+04  0.17252954481E+04  0.46999998093E+01 0. -1.
       -5    1    3    3    0  502  0.31818859471E+03 -0.21683583655E+03  0.60982488723E+03  0.72122828903E+03  0.46999998093E+01 0.  1.
</event>
<event>
 5   0  0.4630615E-06  0.2200345E+04  0.7818609E-02  0.8518285E-01
       -1   -1    0    0    0  501  0.00000000000E+00  0.00000000000E+00  0.12278234922E+04  0.12278234923E+04  0.50400001928E-02 0. -1.
        1   -1    0    0  501    0  0.00000000000E+00  0.00000000000E+00 -0.98579250176E+03  0.98579250177E+03  0.50400001928E-02 0.  1.
    10030    2    1    2    0    0  0.00000000000E+00  0.00000000000E+00  0.24203099049E+03  0.22136159940E+04  0.22003446931E+04 0.  0.
        2    1    3    3  502    0 -0.23700389699E+03 -0.54551146765E+03  0.10521385591E+04  0.12086145606E+04  0.25500000920E-02 0. -1.
       -2    1    3    3    0  502  0.23700389699E+03  0.54551146765E+03 -0.81010756860E+03  0.10050014334E+04  0.25500000920E-02 0.  1.
</event>
<event>
 5   0  0.3546750E-06  0.2200190E+04  0.7818609E-02  0.8518349E-01
       -3   -1    0    0    0  501  0.00000000000E+00  0.00000000000E+00  0.18875759105E+04  0.18875759132E+04  0.10100000352E+00 0.  1.
        3   -1    0    0  501    0  0.00000000000E+00  0.00000000000E+00 -0.64114477192E+03  0.64114477987E+03  0.10100000352E+00 0. -1.
    10030    2    1    2    0    0  0.00000000000E+00  0.00000000000E+00  0.12464311386E+04  0.25287206931E+04  0.22001903918E+04 0.  0.
        1    1    3    3  502    0 -0.64742456027E+03 -0.83847239843E+02  0.16408793389E+04  0.17659767625E+04  0.50400001928E-02 0.  1.
       -1    1    3    3    0  502  0.64742456027E+03  0.83847239843E+02 -0.39444820031E+03  0.76274393057E+03  0.50400001928E-02 0. -1.
</event>
<event>
 5   0  0.4630615E-06  0.2204905E+04  0.7818609E-02  0.8516390E-01
        1   -1    0    0  501    0  0.00000000000E+00  0.00000000000E+00  0.74978818693E+03  0.74978818695E+03  0.50400001928E-02 0.  1.
       -1   -1    0    0    0  501  0.00000000000E+00  0.00000000000E+00 -0.16209924952E+04  0.16209924952E+04  0.50400001928E-02 0. -1.
    10030    2    1    2    0    0  0.00000000000E+00  0.00000000000E+00 -0.87120430825E+03  0.23707806821E+04  0.22049045549E+04 0.  0.
        2    1    3    3  502    0 -0.10482364307E+04 -0.34102176513E+03 -0.45439763220E+03  0.11922972227E+04  0.25500000920E-02 0. -1.
       -2    1    3    3    0  502  0.10482364307E+04  0.34102176513E+03 -0.41680667606E+03  0.11784834595E+04  0.25500000920E-02 0.  1.
</event>
<event>
 5   0  0.4462201E-06  0.2201208E+04  0.7818609E-02  0.8517925E-01
        1   -1    0    0  501    0  0.00000000000E+00  0.00000000000E+00  0.79636826449E+03  0.79636826451E+03  0.50400001928E-02 0.  1.
       -1   -1    0    0    0  501  0.00000000000E+00  0.00000000000E+00 -0.15210667626E+04  0.15210667626E+04  0.50400001928E-02 0. -1.
    10030    2    1    2    0    0  0.00000000000E+00  0.00000000000E+00 -0.72469849809E+03  0.23174350271E+04  0.22012081209E+04 0.  0.
        3    1    3    3  502    0  0.80102151521E+03 -0.52133433479E+02  0.43038709524E+03  0.91081635068E+03  0.10100000352E+00 0.  1.
       -3    1    3    3    0  502 -0.80102151521E+03  0.52133433479E+02 -0.11550855933E+04  0.14066186764E+04  0.10100000352E+00 0. -1.
</event>
<event>
 5   0  0.4794967E-06  0.2190069E+04  0.7818609E-02  0.8522573E-01
       -1   -1    0    0    0  501  0.00000000000E+00  0.00000000000E+00  0.85136185939E+03  0.85136185940E+03  0.50400001928E-02 0. -1.
        1   -1    0    0  501    0  0.00000000000E+00  0.00000000000E+00 -0.14084499953E+04  0.14084499953E+04  0.50400001928E-02 0.  1.
    10030    2    1    2    0    0  0.00000000000E+00  0.00000000000E+00 -0.55708813588E+03  0.22598118547E+04  0.21900690463E+04 0.  0.
        5    1    3    3  502    0  0.39088577305E+03 -0.27318342959E+03 -0.12956615316E+04  0.13806454173E+04  0.46999998093E+01 0.  1.
       -5    1    3    3    0  502 -0.39088577305E+03  0.27318342959E+03  0.73857339573E+03  0.87916643740E+03  0.46999998093E+01 0. -1.
</event>
<event>
 5   0  0.1015876E-05  0.2199666E+04  0.7818609E-02  0.8518567E-01
       -2   -1    0    0    0  501  0.00000000000E+00  0.00000000000E+00  0.11623470303E+04  0.11623470303E+04  0.25500000920E-02 0. -1.
        2   -1    0    0  501    0  0.00000000000E+00  0.00000000000E+00 -0.10406815042E+04  0.10406815042E+04  0.25500000920E-02 0.  1.
    10030    2    1    2    0    0  0.00000000000E+00  0.00000000000E+00  0.12166552608E+03  0.22030285346E+04  0.21996663892E+04 0.  0.
        5    1    3    3  502    0 -0.28337910921E+03 -0.96878512537E+03 -0.37659863338E+03  0.10773564681E+04  0.46999998093E+01 0.  1.
       -5    1    3    3    0  502  0.28337910921E+03  0.96878512537E+03  0.49826415945E+03  0.11256720665E+04  0.46999998093E+01 0. -1.
</event>
<event>
 5   0  0.4408787E-06  0.2208869E+04  0.7818609E-02  0.8514746E-01
       -1   -1    0    0    0  501  0.00000000000E+00  0.00000000000E+00  0.68108995105E+03  0.68108995107E+03  0.50400001928E-02 0. -1.
        1   -1    0    0  501    0  0.00000000000E+00  0.00000000000E+00 -0.17909176583E+04  0.17909176583E+04  0.50400001928E-02 0.  1.
    10030    2    1    2    0    0  0.00000000000E+00  0.00000000000E+00 -0.11098277073E+04  0.24720076094E+04  0.22088694124E+04 0.  0.
        1    1    3    3  502    0 -0.99650936101E+03 -0.47569336460E+03 -0.53088680992E+03  0.12252166701E+04  0.50400001928E-02 0. -1.
       -1    1    3    3    0  502  0.99650936101E+03  0.47569336460E+03 -0.57894089737E+03  0.12467909393E+04  0.50400001928E-02 0.  1.
</event>
<event>
 5   0  0.4794967E-06  0.2201832E+04  0.7818609E-02  0.8517666E-01
        1   -1    0    0  501    0  0.00000000000E+00  0.00000000000E+00  0.16362899330E+04  0.16362899330E+04  0.50400001928E-02 0.  1.
       -1   -1    0    0    0  501  0.00000000000E+00  0.00000000000E+00 -0.74070967742E+03  0.74070967744E+03  0.50400001928E-02 0. -1.
    10030    2    1    2    0    0  0.00000000000E+00  0.00000000000E+00  0.89558025554E+03  0.23769996104E+04  0.22018317724E+04 0.  0.
        5    1    3    3  502    0  0.56400960836E+03 -0.56931668434E+03  0.12626688957E+04  0.14955210315E+04  0.46999998093E+01 0.  1.
       -5    1    3    3    0  502 -0.56400960836E+03  0.56931668434E+03 -0.36708864017E+03  0.88147857894E+03  0.46999998093E+01 0. -1.
</event>
<event>
 5   0  0.4309945E-06  0.2197646E+04  0.7818609E-02  0.8519409E-01
        1   -1    0    0  501    0  0.00000000000E+00  0.00000000000E+00  0.10983634974E+04  0.10983634974E+04  0.50400001928E-02 0.  1.
       -1   -1    0    0    0  501  0.00000000000E+00  0.00000000000E+00 -0.10992824528E+04  0.10992824528E+04  0.50400001928E-02 0. -1.
    10030    2    1    2    0    0  0.00000000000E+00  0.00000000000E+00 -0.91895542126E+00  0.21976459502E+04  0.21976457581E+04 0.  0.
        4    1    3    3  502    0  0.80495815455E+03  0.37621145379E+03 -0.64692486051E+03  0.10990932975E+04  0.12699999809E+01 0. -1.
       -4    1    3    3    0  502 -0.80495815455E+03 -0.37621145379E+03  0.64600590509E+03  0.10985526527E+04  0.12699999809E+01 0.  1.
</event>
<event>
 5   0  0.4630615E-06  0.2212072E+04  0.7818609E-02  0.8513420E-01
        1   -1    0    0  501    0  0.00000000000E+00  0.00000000000E+00  0.17905148207E+04  0.17905148207E+04  0.50400001928E-02 0.  1.
       -1   -1    0    0    0  501  0.00000000000E+00  0.00000000000E+00 -0.68322002767E+03  0.68322002769E+03  0.50400001928E-02 0. -1.
    10030    2    1    2    0    0  0.00000000000E+00  0.00000000000E+00  0.11072947930E+04  0.24737348483E+04  0.22120719566E+04 0.  0.
        2    1    3    3  502    0 -0.58175772757E+03  0.83306602355E+02 -0.49416786085E+03  0.76784368089E+03  0.25500000920E-02 0. -1.
       -2    1    3    3    0  502  0.58175772757E+03 -0.83306602355E+02  0.16014626538E+04  0.17058911675E+04  0.25500000920E-02 0.  1.
</event>
<event>
 5   0  0.9963573E-06  0.2204901E+04  0.7818609E-02  0.8516391E-01
        2   -1    0    0  501    0  0.00000000000E+00  0.00000000000E+00  0.11042161960E+04  0.11042161960E+04  0.25500000920E-02 0.  1.
       -2   -1    0    0    0  501  0.00000000000E+00  0.00000000000E+00 -0.11006879457E+04  0.11006879457E+04  0.25500000920E-02 0. -1.
    10030    2    1    2    0    0  0.00000000000E+00  0.00000000000E+00  0.35282502414E+01  0.22049041417E+04  0.22049013188E+04 0.  0.
        2    1    3    3  502    0 -0.35851725159E+03  0.59410904113E+03  0.85844327345E+03  0.11038229143E+04  0.25500000920E-02 0.  1.
       -2    1    3    3    0  502  0.35851725159E+03 -0.59410904113E+03 -0.85491502321E+03  0.11010812274E+04  0.25500000920E-02 0. -1.
</event>
<event>
 5   0  0.1035928E-05  0.2198853E+04  0.7818609E-02  0.8518906E-01
       -2   -1    0    0    0  501  0.00000000000E+00  0.00000000000E+00  0.12858195455E+04  0.12858195455E+04  0.25500000920E-02 0. -1.
        2   -1    0    0  501    0  0.00000000000E+00  0.00000000000E+00 -0.94005294920E+03  0.94005294921E+03  0.25500000920E-02 0.  1.
    10030    2    1    2    0    0  0.00000000000E+00  0.00000000000E+00  0.34576659634E+03  0.22258724948E+04  0.21988528427E+04 0.  0.
        3    1    3    3  502    0  0.89372759368E+02 -0.48569280033E+03  0.11672230378E+04  0.12673967873E+04  0.10100000352E+00 0. -1.
       -3    1    3    3    0  502 -0.89372759368E+02  0.48569280033E+03 -0.82145644141E+03  0.95847570744E+03  0.10100000352E+00 0.  1.
</event>
<event>
 5   0  0.9963173E-06  0.2205503E+04  0.7818609E-02  0.8516141E-01
       -2   -1    0    0    0  501  0.00000000000E+00  0.00000000000E+00  0.88052565631E+03  0.88052565632E+03  0.25500000920E-02 0.  1.
        2   -1    0    0  501    0  0.00000000000E+00  0.00000000000E+00 -0.13810619576E+04  0.13810619576E+04  0.25500000920E-02 0. -1.
    10030    2    1    2    0    0  0.00000000000E+00  0.00000000000E+00 -0.50053630130E+03  0.22615876139E+04  0.22055026517E+04 0.  0.
        4    1    3    3  502    0  0.46232619208E+03 -0.15143028749E+02 -0.12767656802E+04  0.13579790257E+04  0.12699999809E+01 0. -1.
       -4    1    3    3    0  502 -0.46232619208E+03  0.15143028749E+02  0.77622937889E+03  0.90360858824E+03  0.12699999809E+01 0.  1.
</event>
<event>
 5   0  0.4794967E-06  0.2202845E+04  0.7818609E-02  0.8517245E-01
        1   -1    0    0  501    0  0.00000000000E+00  0.00000000000E+00  0.11818806310E+04  0.11818806310E+04  0.50400001928E-02 0. -1.
       -1   -1    0    0    0  501  0.00000000000E+00  0.00000000000E+00 -0.10264413259E+04  0.10264413259E+04  0.50400001928E-02 0.  1.
    10030    2    1    2    0    0  0.00000000000E+00  0.00000000000E+00  0.15543930507E+03  0.22083219569E+04  0.22028446355E+04 0.  0.
        5    1    3    3  502    0 -0.41405678735E+03  0.95240146046E+03  0.44550715370E+03  0.11300487950E+04  0.46999998093E+01 0.  1.
       -5    1    3    3    0  502  0.41405678735E+03 -0.95240146046E+03 -0.29006784863E+03  0.10782731620E+04  0.46999998093E+01 0. -1.
</event>
<event>
 5   0  0.1014015E-05  0.2199442E+04  0.7818609E-02  0.8518660E-01
        2   -1    0    0  501    0  0.00000000000E+00  0.00000000000E+00  0.21609642474E+04  0.21609642474E+04  0.25500000920E-02 0. -1.
       -2   -1    0    0    0  501  0.00000000000E+00  0.00000000000E+00 -0.55965117398E+03  0.55965117399E+03  0.25500000920E-02 0.  1.
    10030    2    1    2    0    0  0.00000000000E+00  0.00000000000E+00  0.16013130734E+04  0.27206154213E+04  0.21994419092E+04 0.  0.
        1    1    3    3  502    0  0.27209642399E+03  0.48512566478E+03  0.19741389640E+04  0.20510017123E+04  0.50400001928E-02 0. -1.
       -1    1    3    3    0  502 -0.27209642399E+03 -0.48512566478E+03 -0.37282589065E+03  0.66961370904E+03  0.50400001928E-02 0.  1.
</event>
<event>
 5   0  0.1015876E-05  0.2202640E+04  0.7818609E-02  0.8517330E-01
        2   -1    0    0  501    0  0.00000000000E+00  0.00000000000E+00  0.31249126723E+04  0.31249126723E+04  0.25500000920E-02 0. -1.
       -2   -1    0    0    0  501  0.00000000000E+00  0.00000000000E+00 -0.38814071026E+03  0.38814071027E+03  0.25500000920E-02 0.  1.
    10030    2    1    2    0    0  0.00000000000E+00  0.00000000000E+00  0.27367719621E+04  0.35130533826E+04  0.22026400743E+04 0.  0.
        5    1    3    3  502    0  0.81586640501E+02  0.18942433003E+02  0.31198095712E+04  0.31209372064E+04  0.46999998093E+01 0. -1.
       -5    1    3    3    0  502 -0.81586640501E+02 -0.18942433003E+02 -0.38303760911E+03  0.39211617624E+03  0.46999998093E+01 0.  1.
</event>
<event>
 5   0  0.4309945E-06  0.2195639E+04  0.7818609E-02  0.8520246E-01
       -1   -1    0    0    0  501  0.00000000000E+00  0.00000000000E+00  0.89637595882E+03  0.89637595883E+03  0.50400001928E-02 0. -1.
        1   -1    0    0  501    0  0.00000000000E+00  0.00000000000E+00 -0.13445334728E+04  0.13445334728E+04  0.50400001928E-02 0.  1.
    10030    2    1    2    0    0  0.00000000000E+00  0.00000000000E+00 -0.44815751395E+03  0.22409094316E+04  0.21956388417E+04 0.  0.
        4    1    3    3  502    0  0.82889647630E+03  0.59519016029E+03 -0.63725299126E+03  0.12030850689E+04  0.12699999809E+01 0.  1.
       -4    1    3    3    0  502 -0.82889647630E+03 -0.59519016029E+03  0.18909547731E+03  0.10378243627E+04  0.12699999809E+01 0. -1.
</event>
<event>
 5   0  0.4630615E-06  0.2197759E+04  0.7818609E-02  0.8519361E-01
        1   -1    0    0  501    0  0.00000000000E+00  0.00000000000E+00  0.12814539668E+04  0.12814539668E+04  0.50400001928E-02 0. -1.
       -1   -1    0    0    0  501  0.00000000000E+00  0.00000000000E+00 -0.94231764733E+03  0.94231764734E+03  0.50400001928E-02 0.  1.
    10030    2    1    2    0    0  0.00000000000E+00  0.00000000000E+00  0.33913631949E+03  0.22237716142E+04  0.21977594838E+04 0.  0.
        2    1    3    3  502    0  0.78476622904E+03  0.46828532892E+03  0.78702636874E+03  0.12060512794E+04  0.25500000920E-02 0. -1.
       -2    1    3    3    0  502 -0.78476622904E+03 -0.46828532892E+03 -0.44789004925E+03  0.10177203347E+04  0.25500000920E-02 0.  1.
</event>
<event>
 5   0  0.4630615E-06  0.2193642E+04  0.7818609E-02  0.8521079E-01
       -1   -1    0    0    0  501  0.00000000000E+00  0.00000000000E+00  0.87817366483E+03  0.87817366485E+03  0.50400001928E-02 0.  1.
        1   -1    0    0  501    0  0.00000000000E+00  0.00000000000E+00 -0.13699070381E+04  0.13699070382E+04  0.50400001928E-02 0. -1.
    10030    2    1    2    0    0  0.00000000000E+00  0.00000000000E+00 -0.49173337331E+03  0.22480807030E+04  0.21936419801E+04 0.  0.
        2    1    3    3  502    0  0.54249612830E+03 -0.62981513248E+03  0.48746612785E+03  0.96363498075E+03  0.25500000920E-02 0.  1.
       -2    1    3    3    0  502 -0.54249612830E+03  0.62981513248E+03 -0.97919950116E+03  0.12844457222E+04  0.25500000920E-02 0. -1.
</event>
<event>
 5   0  0.4462201E-06  0.2205039E+04  0.7818609E-02  0.8516334E-01
       -1   -1    0    0    0  501  0.00000000000E+00  0.00000000000E+00  0.67104628859E+03  0.67104628861E+03  0.50400001928E-02 0.  1.
        1   -1    0    0  501    0  0.00000000000E+00  0.00000000000E+00 -0.18114242620E+04  0.18114242621E+04  0.50400001928E-02 0. -1.
    10030    2    1    2    0    0  0.00000000000E+00  0.00000000000E+00 -0.11403779735E+04  0.24824705507E+04  0.22050392542E+04 0.  0.
        3    1    3    3  502    0 -0.50228326812E+02 -0.66926145377E+03  0.41457316383E+03  0.78886291374E+03  0.10100000352E+00 0.  1.
       -3    1    3    3    0  502  0.50228326812E+02  0.66926145377E+03 -0.15549511373E+04  0.16936076369E+04  0.10100000352E+00 0. -1.
</event>
<event>
 5   0  0.4630615E-06  0.2198494E+04  0.7818609E-02  0.8519055E-01
       -1   -1    0    0    0  501  0.00000000000E+00  0.00000000000E+00  0.14949483524E+04  0.14949483524E+04  0.50400001928E-02 0.  1.
        1   -1    0    0  501    0  0.00000000000E+00  0.00000000000E+00 -0.80828497278E+03  0.80828497280E+03  0.50400001928E-02 0. -1.
    10030    2    1    2    0    0  0.00000000000E+00  0.00000000000E+00  0.68666337963E+03  0.23032333252E+04  0.21984942923E+04 0.  0.
        2    1    3    3  502    0 -0.35760822432E+03 -0.48744806400E+03  0.13051411292E+04  0.14383610896E+04  0.25500000920E-02 0.  1.
       -2    1    3    3    0  502  0.35760822432E+03  0.48744806400E+03 -0.61847774953E+03  0.86487223557E+03  0.25500000920E-02 0. -1.
</event>
<event>
 5   0  0.9963573E-06  0.2199397E+04  0.7818609E-02  0.8518679E-01
        2   -1    0    0  501    0  0.00000000000E+00  0.00000000000E+00  0.63803995863E+03  0.63803995864E+03  0.25500000920E-02 0.  1.
       -2   -1    0    0    0  501  0.00000000000E+00  0.00000000000E+00 -0.18953933608E+04  0.18953933608E+04  0.25500000920E-02 0. -1.
    10030    2    1    2    0    0  0.00000000000E+00  0.00000000000E+00 -0.12573534022E+04  0.25334333195E+04  0.21993969187E+04 0.  0.
        2    1    3    3  502    0 -0.81729004734E+03  0.73159997544E+03 -0.71889999325E+03  0.13114948516E+04  0.25500000920E-02 0.  1.
       -2    1    3    3    0  502  0.81729004734E+03 -0.73159997544E+03 -0.53845340893E+03  0.12219384678E+04  0.25500000920E-02 0. -1.
</event>
<event>
 5   0  0.9963573E-06  0.2199318E+04  0.7818609E-02  0.8518712E-01
        2   -1    0    0  501    0  0.00000000000E+00  0.00000000000E+00  0.13839862128E+04  0.13839862128E+04  0.25500000920E-02 0. -1.
       -2   -1    0    0    0  501  0.00000000000E+00  0.00000000000E+00 -0.87374431715E+03  0.87374431716E+03  0.25500000920E-02 0.  1.
    10030    2    1    2    0    0  0.00000000000E+00  0.00000000000E+00  0.51024189566E+03  0.22577305300E+04  0.21993181566E+04 0.  0.
        2    1    3    3  502    0  0.91539607906E+03  0.15805883668E+03  0.85923824677E+03  0.12653943820E+04  0.25500000920E-02 0. -1.
       -2    1    3    3    0  502 -0.91539607906E+03 -0.15805883668E+03 -0.34899635110E+03  0.99233614793E+03  0.25500000920E-02 0.  1.
</event>
<event>
 5   0  0.1035928E-05  0.2202210E+04  0.7818609E-02  0.8517509E-01
        2   -1    0    0  501    0  0.00000000000E+00  0.00000000000E+00  0.11503084720E+04  0.11503084720E+04  0.25500000920E-02 0. -1.
       -2   -1    0    0    0  501  0.00000000000E+00  0.00000000000E+00 -0.10540057831E+04  0.10540057831E+04  0.25500000920E-02 0.  1.
    10030    2    1    2    0    0  0.00000000000E+00  0.00000000000E+00  0.96302688933E+02  0.22043142552E+04  0.22022096012E+04 0.  0.
        3    1    3    3  502    0 -0.16054875282E+03 -0.11769862929E+03  0.11321465803E+04  0.11495150103E+04  0.10100000352E+00 0. -1.
       -3    1    3    3    0  502  0.16054875282E+03  0.11769862929E+03 -0.10358438914E+04  0.10547992448E+04  0.10100000352E+00 0.  1.
</event>
<event>
 5   0  0.4408787E-06  0.2212909E+04  0.7818609E-02  0.8513074E-01
        1   -1    0    0  501    0  0.00000000000E+00  0.00000000000E+00  0.82320828415E+03  0.82320828416E+03  0.50400001928E-02 0.  1.
       -1   -1    0    0    0  501  0.00000000000E+00  0.00000000000E+00 -0.14871592985E+04  0.14871592985E+04  0.50400001928E-02 0. -1.
    10030    2    1    2    0    0  0.00000000000E+00  0.00000000000E+00 -0.66395101438E+03  0.23103675827E+04  0.22129092656E+04 0.  0.
        1    1    3    3  502    0 -0.94774827963E+03 -0.56953769680E+03 -0.37427996846E+03  0.11673412031E+04  0.50400001928E-02 0. -1.
       -1    1    3    3    0  502  0.94774827963E+03  0.56953769680E+03 -0.28967104592E+03  0.11430263796E+04  0.50400001928E-02 0.  1.
</event>
<event>
 5   0  0.4630615E-06  0.2201082E+04  0.7818609E-02  0.8517978E-01
        1   -1    0    0  501    0  0.00000000000E+00  0.00000000000E+00  0.18289337814E+04  0.18289337814E+04  0.50400001928E-02 0. -1.
       -1   -1    0    0    0  501  0.00000000000E+00  0.00000000000E+00 -0.66223874646E+03  0.66223874648E+03  0.50400001928E-02 0.  1.
    10030    2    1    2    0    0  0.00000000000E+00  0.00000000000E+00  0.11666950349E+04  0.24911725279E+04  0.22010822927E+04 0.  0.
        2    1    3    3  502    0  0.88470760767E+03  0.33460124966E+03 -0.53406535812E+02  0.94737416337E+03  0.25500000920E-02 0.  1.
       -2    1    3    3    0  502 -0.88470760767E+03 -0.33460124966E+03  0.12201015708E+04  0.15437983645E+04  0.25500000920E-02 0. -1.
</event>
<event>
 5   0  0.4630615E-06  0.2199092E+04  0.7818609E-02  0.8518806E-01
        1   -1    0    0  501    0  0.00000000000E+00  0.00000000000E+00  0.91055314437E+03  0.91055314438E+03  0.50400001928E-02 0. -1.
       -1   -1    0    0    0  501  0.00000000000E+00  0.00000000000E+00 -0.13277653024E+04  0.13277653024E+04  0.50400001928E-02 0.  1.
    10030    2    1    2    0    0  0.00000000000E+00  0.00000000000E+00 -0.41721215802E+03  0.22383184468E+04  0.21990915134E+04 0.  0.
        2    1    3    3  502    0  0.15987720454E+03  0.10869537901E+04 -0.25380092914E+03  0.11275833335E+04  0.25500000920E-02 0. -1.
       -2    1    3    3    0  502 -0.15987720454E+03 -0.10869537901E+04 -0.16341122888E+03  0.11107351133E+04  0.25500000920E-02 0.  1.
</event>
<event>
 5   0  0.1035928E-05  0.2197481E+04  0.7818609E-02  0.8519477E-01
        2   -1    0    0  501    0  0.00000000000E+00  0.00000000000E+00  0.14208695284E+04  0.14208695284E+04  0.25500000920E-02 0.  1.
       -2   -1    0    0    0  501  0.00000000000E+00  0.00000000000E+00 -0.84964210218E+03  0.84964210219E+03  0.25500000920E-02 0. -1.
    10030    2    1    2    0    0  0.00000000000E+00  0.00000000000E+00  0.57122742620E+03  0.22705116306E+04  0.21974808969E+04 0.  0.
        3    1    3    3  502    0  0.23350851663E+03 -0.77154335037E+03 -0.48580810771E+03  0.94117739909E+03  0.10100000352E+00 0. -1.
       -3    1    3    3    0  502 -0.23350851663E+03  0.77154335037E+03  0.10570355339E+04  0.13293342315E+04  0.10100000352E+00 0.  1.
</event>
<event>
 5   0  0.9963573E-06  0.2199557E+04  0.7818609E-02  0.8518613E-01
        2   -1    0    0  501    0  0.00000000000E+00  0.00000000000E+00  0.15485467964E+04  0.15485467964E+04  0.25500000920E-02 0. -1.
       -2   -1    0    0    0  501  0.00000000000E+00  0.00000000000E+00 -0.78106285911E+03  0.78106285912E+03  0.25500000920E-02 0.  1.
    10030    2    1    2    0    0  0.00000000000E+00  0.00000000000E+00  0.76748393729E+03  0.23296096555E+04  0.21995566719E+04 0.  0.
        2    1    3    3  502    0  0.66108026178E+03 -0.69989547433E+03 -0.17932280854E+03  0.97930457834E+03  0.25500000920E-02 0. -1.
       -2    1    3    3    0  502 -0.66108026178E+03  0.69989547433E+03  0.94680674583E+03  0.13503050772E+04  0.25500000920E-02 0.  1.
</event>
<event>
 5   0  0.9963573E-06  0.2200061E+04  0.7818609E-02  0.8518403E-01
        2   -1    0    0  501    0  0.00000000000E+00  0.00000000000E+00  0.21841334378E+04  0.21841334378E+04  0.25500000920E-02 0.  1.
       -2   -1    0    0    0  501  0.00000000000E+00  0.00000000000E+00 -0.55402627874E+03  0.55402627874E+03  0.25500000920E-02 0. -1.
    10030    2    1    2    0    0  0.00000000000E+00  0.00000000000E+00  0.16301071591E+04  0.27381597166E+04  0.22000611999E+04 0.  0.
        2    1    3    3  502    0 -0.78697763134E+03 -0.27969333293E+02 -0.14088959342E+03  0.79997872058E+03  0.25500000920E-02 0. -1.
       -2    1    3    3    0  502  0.78697763134E+03  0.27969333293E+02  0.17709967525E+04  0.19381809960E+04  0.25500000920E-02 0.  1.
</event>
<event>
 5   0  0.4309945E-06  0.2201961E+04  0.7818609E-02  0.8517612E-01
       -1   -1    0    0    0  501  0.00000000000E+00  0.00000000000E+00  0.72018923573E+03  0.72018923575E+03  0.50400001928E-02 0. -1.
        1   -1    0    0  501    0  0.00000000000E+00  0.00000000000E+00 -0.16831109379E+04  0.16831109379E+04  0.50400001928E-02 0.  1.
    10030    2    1    2    0    0  0.00000000000E+00  0.00000000000E+00 -0.96292170216E+03  0.24033001736E+04  0.22019612894E+04 0.  0.
        4    1    3    3  502    0  0.63506992462E+03 -0.24298059413E+03  0.46362668901E+03  0.82298523555E+03  0.12699999809E+01 0. -1.
       -4    1    3    3    0  502 -0.63506992462E+03  0.24298059413E+03 -0.14265483912E+04  0.15803149381E+04  0.12699999809E+01 0.  1.
</event>
<event>
 5   0  0.3546750E-06  0.2200986E+04  0.7818609E-02  0.8518018E-01
       -3   -1    0    0    0  501  0.00000000000E+00  0.00000000000E+00  0.11193082874E+04  0.11193082920E+04  0.10100000352E+00 0. -1.
        3   -1    0    0  501    0  0.00000000000E+00  0.00000000000E+00 -0.10819936757E+04  0.10819936804E+04  0.10100000352E+00 0.  1.
    10030    2    1    2    0    0  0.00000000000E+00  0.00000000000E+00  0.37314611757E+02  0.22013019724E+04  0.22009856867E+04 0.  0.
        2    1    3    3  502    0 -0.23893615731E+03 -0.10309107494E+04  0.32072229184E+03  0.11057713367E+04  0.25500000920E-02 0. -1.
       -2    1    3    3    0  502  0.23893615731E+03  0.10309107494E+04 -0.28340768008E+03  0.10955306357E+04  0.25500000920E-02 0.  1.
</event>
<event>
 5   0  0.1014015E-05  0.2199587E+04  0.7818609E-02  0.8518600E-01
        2   -1    0    0  501    0  0.00000000000E+00  0.00000000000E+00  0.98588250228E+03  0.98588250228E+03  0.25500000920E-02 0. -1.
       -2   -1    0    0    0  501  0.00000000000E+00  0.00000000000E+00 -0.12268663074E+04  0.12268663074E+04  0.25500000920E-02 0.  1.
    10030    2    1    2    0    0  0.00000000000E+00  0.00000000000E+00 -0.24098380515E+03  0.22127488097E+04  0.21995872569E+04 0.  0.
        1    1    3    3  502    0 -0.33297330550E+03  0.25898869946E+03  0.90126249428E+03  0.99509821236E+03  0.50400001928E-02 0. -1.
       -1    1    3    3    0  502  0.33297330550E+03 -0.25898869946E+03 -0.11422462994E+04  0.12176505973E+04  0.50400001928E-02 0.  1.
</event>
<event>
 5   0  0.1035928E-05  0.2205782E+04  0.7818609E-02  0.8516026E-01
       -2   -1    0    0    0  501  0.00000000000E+00  0.00000000000E+00  0.68823264813E+03  0.68823264813E+03  0.25500000920E-02 0. -1.
        2   -1    0    0  501    0  0.00000000000E+00  0.00000000000E+00 -0.17673792716E+04  0.17673792716E+04  0.25500000920E-02 0.  1.
    10030    2    1    2    0    0  0.00000000000E+00  0.00000000000E+00 -0.10791466234E+04  0.24556119197E+04  0.22057815996E+04 0.  0.
        3    1    3    3  502    0 -0.10763694817E+04  0.20420418659E+03 -0.68081938186E+03  0.12898781539E+04  0.10100000352E+00 0. -1.
       -3    1    3    3    0  502  0.10763694817E+04 -0.20420418659E+03 -0.39832724157E+03  0.11657337658E+04  0.10100000352E+00 0.  1.
</event>
<event>
 5   0  0.4630615E-06  0.2199225E+04  0.7818609E-02  0.8518751E-01
        1   -1    0    0  501    0  0.00000000000E+00  0.00000000000E+00  0.91235790381E+03  0.91235790383E+03  0.50400001928E-02 0.  1.
       -1   -1    0    0    0  501  0.00000000000E+00  0.00000000000E+00 -0.13252995873E+04  0.13252995874E+04  0.50400001928E-02 0. -1.
    10030    2    1    2    0    0  0.00000000000E+00  0.00000000000E+00 -0.41294168353E+03  0.22376574912E+04  0.21992249121E+04 0.  0.
        2    1    3    3  502    0 -0.34199621531E+03  0.28255495908E+03  0.81726771298E+03  0.92990603335E+03  0.25500000920E-02 0.  1.
       -2    1    3    3    0  502  0.34199621531E+03 -0.28255495908E+03 -0.12302093965E+04  0.13077514578E+04  0.25500000920E-02 0. -1.
</event>
<event>
 5   0  0.1035928E-05  0.2197768E+04  0.7818609E-02  0.8519358E-01
        2   -1    0    0  501    0  0.00000000000E+00  0.00000000000E+00  0.12523567341E+04  0.12523567341E+04  0.25500000920E-02 0.  1.
       -2   -1    0    0    0  501  0.00000000000E+00  0.00000000000E+00 -0.96421865172E+03  0.96421865173E+03  0.25500000920E-02 0. -1.
    10030    2    1    2    0    0  0.00000000000E+00  0.00000000000E+00  0.28813808239E+03  0.22165753858E+04  0.21977677053E+04 0.  0.
        3    1    3    3  502    0 -0.40965007303E+03 -0.71917443176E+03  0.87311088329E+03  0.12030576338E+04  0.10100000352E+00 0.  1.
       -3    1    3    3    0  502  0.40965007303E+03  0.71917443176E+03 -0.58497280089E+03  0.10135177520E+04  0.10100000352E+00 0. -1.
</event>
<event>
 5   0  0.9963573E-06  0.2198183E+04  0.7818609E-02  0.8519185E-01
        2   -1    0    0  501    0  0.00000000000E+00  0.00000000000E+00  0.16134918503E+04  0.16134918503E+04  0.25500000920E-02 0.  1.
       -2   -1    0    0    0  501  0.00000000000E+00  0.00000000000E+00 -0.74868817346E+03  0.74868817347E+03  0.25500000920E-02 0. -1.
    10030    2    1    2    0    0  0.00000000000E+00  0.00000000000E+00  0.86480367688E+03  0.23621800238E+04  0.21981831283E+04 0.  0.
        2    1    3    3  502    0 -0.13364518667E+03 -0.20378405888E+03 -0.71928934016E+03  0.75945120544E+03  0.25500000920E-02 0. -1.
       -2    1    3    3    0  502  0.13364518667E+03  0.20378405888E+03  0.15840930170E+04  0.16027288184E+04  0.25500000920E-02 0.  1.
</event>
<event>
 5   0  0.1015876E-05  0.2198294E+04  0.7818609E-02  0.8519138E-01
        2   -1    0    0  501    0  0.00000000000E+00  0.00000000000E+00  0.13191643308E+04  0.13191643308E+04  0.25500000920E-02 0.  1.
       -2   -1    0    0    0  501  0.00000000000E+00  0.00000000000E+00 -0.91582547529E+03  0.91582547529E+03  0.25500000920E-02 0. -1.
    10030    2    1    2    0    0  0.00000000000E+00  0.00000000000E+00  0.40333885550E+03  0.22349898061E+04  0.21982941571E+04 0.  0.
        5    1    3    3  502    0  0.75432395864E+03  0.67545986928E+02 -0.60820478647E+03  0.97134043837E+03  0.46999998093E+01 0. -1.
       -5    1    3    3    0  502 -0.75432395864E+03 -0.67545986928E+02  0.10115436420E+04  0.12636493677E+04  0.46999998093E+01 0.  1.
</event>
<event>
 5   0  0.4462201E-06  0.2198979E+04  0.7818609E-02  0.8518853E-01
       -1   -1    0    0    0  501  0.00000000000E+00  0.00000000000E+00  0.59211032738E+03  0.59211032740E+03  0.50400001928E-02 0. -1.
        1   -1    0    0  501    0  0.00000000000E+00  0.00000000000E+00 -0.20416416821E+04  0.20416416821E+04  0.50400001928E-02 0.  1.
    10030    2    1    2    0    0  0.00000000000E+00  0.00000000000E+00 -0.14495313547E+04  0.26337520095E+04  0.21989789675E+04 0.  0.
        3    1    3    3  502    0  0.32517877904E+03 -0.97510119570E+03 -0.25732871344E+03  0.10596139189E+04  0.10100000352E+00 0. -1.
       -3    1    3    3    0  502 -0.32517877904E+03  0.97510119570E+03 -0.11922026413E+04  0.15741380906E+04  0.10100000352E+00 0.  1.
</event>
<event>
 5   0  0.4794967E-06  0.2199912E+04  0.7818609E-02  0.8518465E-01
        1   -1    0    0  501    0  0.00000000000E+00  0.00000000000E+00  0.18151067692E+04  0.18151067692E+04  0.50400001928E-02 0. -1.
       -1   -1    0    0    0  501  0.00000000000E+00  0.00000000000E+00 -0.66657432298E+03  0.66657432300E+03  0.50400001928E-02 0.  1.
    10030    2    1    2    0    0  0.00000000000E+00  0.00000000000E+00  0.11485324463E+04  0.24816810922E+04  0.21999123309E+04 0.  0.
        5    1    3    3  502    0 -0.10529130712E+04  0.22625479854E+03  0.82667514422E+03  0.13576564563E+04  0.46999998093E+01 0.  1.
       -5    1    3    3    0  502  0.10529130712E+04 -0.22625479854E+03  0.32185730203E+03  0.11240246359E+04  0.46999998093E+01 0. -1.
</event>
<event>
 5   0  0.1014015E-05  0.2147167E+04  0.7818609E-02  0.8540746E-01
        2   -1    0    0  501    0  0.00000000000E+00  0.00000000000E+00  0.97975679738E+03  0.97975679738E+03  0.25500000920E-02 0. -1.
       -2   -1    0    0    0  501  0.00000000000E+00  0.00000000000E+00 -0.11763958867E+04  0.11763958867E+04  0.25500000920E-02 0.  1.
    10030    2    1    2    0    0  0.00000000000E+00  0.00000000000E+00 -0.19663908936E+03  0.21561526841E+04  0.21471673120E+04 0.  0.
        1    1    3    3  502    0  0.27287529008E+03 -0.91481548207E+03 -0.59153025855E+03  0.11230566936E+04  0.50400001928E-02 0.  1.
       -1    1    3    3    0  502 -0.27287529008E+03  0.91481548207E+03  0.39489116919E+03  0.10330959906E+04  0.50400001928E-02 0. -1.
</event>
<event>
 5   0  0.4309945E-06  0.2200487E+04  0.7818609E-02  0.8518225E-01
       -1   -1    0    0    0  501  0.00000000000E+00  0.00000000000E+00  0.74036484252E+03  0.74036484254E+03  0.50400001928E-02 0. -1.
        1   -1    0    0  501    0  0.00000000000E+00  0.00000000000E+00 -0.16350533580E+04  0.16350533580E+04  0.50400001928E-02 0.  1.
    10030    2    1    2    0    0  0.00000000000E+00  0.00000000000E+00 -0.89468851543E+03  0.23754182005E+04  0.22004872387E+04 0.  0.
        4    1    3    3  502    0 -0.16886062040E+03 -0.76849150002E+03 -0.12775334104E+04  0.15003953887E+04  0.12699999809E+01 0.  1.
       -4    1    3    3    0  502  0.16886062040E+03  0.76849150002E+03  0.38284489497E+03  0.87502281184E+03  0.12699999809E+01 0. -1.
</event>
<event>
 5   0  0.9963573E-06  0.2181287E+04  0.7818609E-02  0.8526258E-01
        2   -1    0    0  501    0  0.00000000000E+00  0.00000000000E+00  0.16475778368E+04  0.16475778368E+04  0.25500000920E-02 0.  1.
       -2   -1    0    0    0  501  0.00000000000E+00  0.00000000000E+00 -0.72197075765E+03  0.72197075765E+03  0.25500000920E-02 0. -1.
    10030    2    1    2    0    0  0.00000000000E+00  0.00000000000E+00  0.92560707915E+03  0.23695485945E+04  0.21812867937E+04 0.  0.
        2    1    3    3  502    0 -0.30956428113E+03  0.87823802371E+03 -0.15397719268E+03  0.94384376160E+03  0.25500000920E-02 0. -1.
       -2    1    3    3    0  502  0.30956428113E+03 -0.87823802371E+03  0.10795842718E+04  0.14257048329E+04  0.25500000920E-02 0.  1.
</event>
<event>
 5   0  0.4408787E-06  0.2201734E+04  0.7818609E-02  0.8517707E-01
       -1   -1    0    0    0  501  0.00000000000E+00  0.00000000000E+00  0.18252559560E+04  0.18252559560E+04  0.50400001928E-02 0. -1.
        1   -1    0    0  501    0  0.00000000000E+00  0.00000000000E+00 -0.66396606227E+03  0.66396606229E+03  0.50400001928E-02 0.  1.
    10030    2    1    2    0    0  0.00000000000E+00  0.00000000000E+00  0.11612898937E+04  0.24892220183E+04  0.22017338711E+04 0.  0.
        1    1    3    3  502    0 -0.10503712251E+04 -0.32938089591E+03  0.59385499219E+03  0.12507738552E+04  0.50400001928E-02 0.  1.
       -1    1    3    3    0  502  0.10503712251E+04  0.32938089591E+03  0.56743490154E+03  0.12384481631E+04  0.50400001928E-02 0. -1.
</event>
<event>
 5   0  0.9963173E-06  0.2199767E+04  0.7818609E-02  0.8518525E-01
       -2   -1    0    0    0  501  0.00000000000E+00  0.00000000000E+00  0.91445357310E+03  0.91445357310E+03  0.25500000920E-02 0.  1.
        2   -1    0    0  501    0  0.00000000000E+00  0.00000000000E+00 -0.13229143627E+04  0.13229143627E+04  0.25500000920E-02 0. -1.
    10030    2    1    2    0    0  0.00000000000E+00  0.00000000000E+00 -0.40846078960E+03  0.22373679358E+04  0.21997670475E+04 0.  0.
        4    1    3    3  502    0 -0.14651006521E+03  0.34409960464E+03 -0.12562569756E+04  0.13107451846E+04  0.12699999809E+01 0. -1.
       -4    1    3    3    0  502  0.14651006521E+03 -0.34409960464E+03  0.84779618604E+03  0.92662275123E+03  0.12699999809E+01 0.  1.
</event>
<event>
 5   0  0.4309945E-06  0.2190163E+04  0.7818609E-02  0.8522534E-01
        1   -1    0    0  501    0  0.00000000000E+00  0.00000000000E+00  0.11690648213E+04  0.11690648213E+04  0.50400001928E-02 0.  1.
       -1   -1    0    0    0  501  0.00000000000E+00  0.00000000000E+00 -0.10257804124E+04  0.10257804124E+04  0.50400001928E-02 0. -1.
    10030    2    1    2    0    0  0.00000000000E+00  0.00000000000E+00  0.14328440894E+03  0.21948452337E+04  0.21901632765E+04 0.  0.
        4    1    3    3  502    0 -0.59455101942E+02 -0.39042870240E+03 -0.95192887183E+03  0.10306016062E+04  0.12699999809E+01 0. -1.
       -4    1    3    3    0  502  0.59455101942E+02  0.39042870240E+03  0.10952132808E+04  0.11642436275E+04  0.12699999809E+01 0.  1.
</event>
<event>
 5   0  0.1015876E-05  0.2199811E+04  0.7818609E-02  0.8518507E-01
       -2   -1    0    0    0  501  0.00000000000E+00  0.00000000000E+00  0.13251533012E+04  0.13251533012E+04  0.25500000920E-02 0.  1.
        2   -1    0    0  501    0  0.00000000000E+00  0.00000000000E+00 -0.91294524943E+03  0.91294524944E+03  0.25500000920E-02 0. -1.
    10030    2    1    2    0    0  0.00000000000E+00  0.00000000000E+00  0.41220805177E+03  0.22380985506E+04  0.21998112747E+04 0.  0.
        5    1    3    3  502    0 -0.21882821044E+03 -0.10679261811E+04  0.57207234355E+02  0.10916257929E+04  0.46999998093E+01 0. -1.
       -5    1    3    3    0  502  0.21882821044E+03  0.10679261811E+04  0.35500081741E+03  0.11464727578E+04  0.46999998093E+01 0.  1.
</event>
<event>
 5   0  0.4309945E-06  0.2185829E+04  0.7818609E-02  0.8524350E-01
       -1   -1    0    0    0  501  0.00000000000E+00  0.00000000000E+00  0.14663810459E+04  0.14663810459E+04  0.50400001928E-02 0.  1.
        1   -1    0    0  501    0  0.00000000000E+00  0.00000000000E+00 -0.81456451669E+03  0.81456451670E+03  0.50400001928E-02 0. -1.
    10030    2    1    2    0    0  0.00000000000E+00  0.00000000000E+00  0.65181652918E+03  0.22809455626E+04  0.21858288752E+04 0.  0.
        4    1    3    3  502    0 -0.88786458771E+03  0.13001852914E+03  0.97695804110E+03  0.13265206259E+04  0.12699999809E+01 0.  1.
       -4    1    3    3    0  502  0.88786458771E+03 -0.13001852914E+03 -0.32514151192E+03  0.95442493666E+03  0.12699999809E+01 0. -1.
</event>
<event>
 5   0  0.4462201E-06  0.2197246E+04  0.7818609E-02  0.8519575E-01
       -1   -1    0    0    0  501  0.00000000000E+00  0.00000000000E+00  0.10476609945E+04  0.10476609946E+04  0.50400001928E-02 0. -1.
        1   -1    0    0  501    0  0.00000000000E+00  0.00000000000E+00 -0.11520635568E+04  0.11520635568E+04  0.50400001928E-02 0.  1.
    10030    2    1    2    0    0  0.00000000000E+00  0.00000000000E+00 -0.10440256227E+03  0.21997245514E+04  0.21972455955E+04 0.  0.
        3    1    3    3  502    0  0.36597586171E+03 -0.62955215067E+03  0.77134323888E+03  0.10607754919E+04  0.10100000352E+00 0. -1.
       -3    1    3    3    0  502 -0.36597586171E+03  0.62955215067E+03 -0.87574580114E+03  0.11389490595E+04  0.10100000352E+00 0.  1.
</event>
<event>
 5   0  0.1014015E-05  0.2197781E+04  0.7818609E-02  0.8519352E-01
       -2   -1    0    0    0  501  0.00000000000E+00  0.00000000000E+00  0.95276668749E+03  0.95276668750E+03  0.25500000920E-02 0. -1.
        2   -1    0    0  501    0  0.00000000000E+00  0.00000000000E+00 -0.12674253180E+04  0.12674253180E+04  0.25500000920E-02 0.  1.
    10030    2    1    2    0    0  0.00000000000E+00  0.00000000000E+00 -0.31465863051E+03  0.22201920055E+04  0.21977812647E+04 0.  0.
        1    1    3    3  502    0  0.65308718247E+03 -0.23347693852E+03 -0.10183859743E+04  0.12321300018E+04  0.50400001928E-02 0.  1.
       -1    1    3    3    0  502 -0.65308718247E+03  0.23347693852E+03  0.70372734377E+03  0.98806200369E+03  0.50400001928E-02 0. -1.
</event>
<event>
 5   0  0.4462201E-06  0.2199258E+04  0.7818609E-02  0.8518737E-01
       -1   -1    0    0    0  501  0.00000000000E+00  0.00000000000E+00  0.57283120037E+03  0.57283120039E+03  0.50400001928E-02 0.  1.
        1   -1    0    0  501    0  0.00000000000E+00  0.00000000000E+00 -0.21108907238E+04  0.21108907238E+04  0.50400001928E-02 0. -1.
    10030    2    1    2    0    0  0.00000000000E+00  0.00000000000E+00 -0.15380595234E+04  0.26837219242E+04  0.21992581178E+04 0.  0.
        3    1    3    3  502    0 -0.13327660714E+03  0.29291955458E+03 -0.20521405682E+04  0.20772206049E+04  0.10100000352E+00 0. -1.
       -3    1    3    3    0  502  0.13327660714E+03 -0.29291955458E+03  0.51408104481E+03  0.60650131929E+03  0.10100000352E+00 0.  1.
</event>
<event>
 5   0  0.1014015E-05  0.2200506E+04  0.7818609E-02  0.8518217E-01
        2   -1    0    0  501    0  0.00000000000E+00  0.00000000000E+00  0.16530129106E+04  0.16530129106E+04  0.25500000920E-02 0. -1.
       -2   -1    0    0    0  501  0.00000000000E+00  0.00000000000E+00 -0.73233369224E+03  0.73233369224E+03  0.25500000920E-02 0.  1.
    10030    2    1    2    0    0  0.00000000000E+00  0.00000000000E+00  0.92067921833E+03  0.23853466028E+04  0.22005063491E+04 0.  0.
        1    1    3    3  502    0 -0.34226295612E+03  0.11666291132E+03 -0.66608235006E+03  0.75790491692E+03  0.50400001928E-02 0.  1.
       -1    1    3    3    0  502  0.34226295612E+03 -0.11666291132E+03  0.15867615684E+04  0.16274416859E+04  0.50400001928E-02 0. -1.
</event>
<event>
 5   0  0.4462201E-06  0.2200372E+04  0.7818609E-02  0.8518273E-01
        1   -1    0    0  501    0  0.00000000000E+00  0.00000000000E+00  0.20824116256E+04  0.20824116256E+04  0.50400001928E-02 0. -1.
       -1   -1    0    0    0  501  0.00000000000E+00  0.00000000000E+00 -0.58125364635E+03  0.58125364637E+03  0.50400001928E-02 0.  1.
    10030    2    1    2    0    0  0.00000000000E+00  0.00000000000E+00  0.15011579792E+04  0.26636652719E+04  0.22003721054E+04 0.  0.
        3    1    3    3  502    0 -0.91970045822E+03  0.44308808835E+03  0.25405576304E+03  0.10520077603E+04  0.10100000352E+00 0. -1.
       -3    1    3    3    0  502  0.91970045822E+03 -0.44308808835E+03  0.12471022162E+04  0.16116575116E+04  0.10100000352E+00 0.  1.
</event>
<event>
 5   0  0.4794967E-06  0.2199306E+04  0.7818609E-02  0.8518717E-01
        1   -1    0    0  501    0  0.00000000000E+00  0.00000000000E+00  0.12356231233E+04  0.12356231234E+04  0.50400001928E-02 0. -1.
       -1   -1    0    0    0  501  0.00000000000E+00  0.00000000000E+00 -0.97864492315E+03  0.97864492316E+03  0.50400001928E-02 0.  1.
    10030    2    1    2    0    0  0.00000000000E+00  0.00000000000E+00  0.25697820019E+03  0.22142680465E+04  0.21993056146E+04 0.  0.
        5    1    3    3  502    0  0.33989632992E+03 -0.86091319539E+02 -0.92084575242E+03  0.98535284043E+03  0.46999998093E+01 0.  1.
       -5    1    3    3    0  502 -0.33989632992E+03  0.86091319539E+02  0.11778239526E+04  0.12289152061E+04  0.46999998093E+01 0. -1.
</event>
<event>
 5   0  0.9963173E-06  0.2198062E+04  0.7818609E-02  0.8519235E-01
        2   -1    0    0  501    0  0.00000000000E+00  0.00000000000E+00  0.95210267312E+03  0.95210267313E+03  0.25500000920E-02 0.  1.
       -2   -1    0    0    0  501  0.00000000000E+00  0.00000000000E+00 -0.12686331348E+04  0.12686331348E+04  0.25500000920E-02 0. -1.
    10030    2    1    2    0    0  0.00000000000E+00  0.00000000000E+00 -0.31653046170E+03  0.22207358080E+04  0.21980618725E+04 0.  0.
        4    1    3    3  502    0 -0.47861032992E+03  0.31175215675E+03 -0.11068917653E+04  0.12455794829E+04  0.12699999809E+01 0. -1.
       -4    1    3    3    0  502  0.47861032992E+03 -0.31175215675E+03  0.79036130362E+03  0.97515632507E+03  0.12699999809E+01 0.  1.
</event>
<event>
 5   0  0.9963573E-06  0.2198556E+04  0.7818609E-02  0.8519030E-01
        2   -1    0    0  501    0  0.00000000000E+00  0.00000000000E+00  0.19312168534E+04  0.19312168534E+04  0.25500000920E-02 0.  1.
       -2   -1    0    0    0  501  0.00000000000E+00  0.00000000000E+00 -0.62572555987E+03  0.62572555988E+03  0.25500000920E-02 0. -1.
    10030    2    1    2    0    0  0.00000000000E+00  0.00000000000E+00  0.13054912936E+04  0.25569424133E+04  0.21985556594E+04 0.  0.
        2    1    3    3  502    0 -0.81165058622E+03 -0.60396960953E+03  0.11527801859E+04  0.15337725126E+04  0.25500000920E-02 0.  1.
       -2    1    3    3    0  502  0.81165058622E+03  0.60396960953E+03  0.15271110768E+03  0.10231699007E+04  0.25500000920E-02 0. -1.
</event>
<event>
 5   0  0.4309945E-06  0.2196378E+04  0.7818609E-02  0.8519937E-01
        1   -1    0    0  501    0  0.00000000000E+00  0.00000000000E+00  0.12725684946E+04  0.12725684946E+04  0.50400001928E-02 0.  1.
       -1   -1    0    0    0  501  0.00000000000E+00  0.00000000000E+00 -0.94770445584E+03  0.94770445585E+03  0.50400001928E-02 0. -1.
    10030    2    1    2    0    0  0.00000000000E+00  0.00000000000E+00  0.32486403880E+03  0.22202729505E+04  0.21963777751E+04 0.  0.
        4    1    3    3  502    0  0.35707709946E+03 -0.46658578712E+03  0.11003248115E+04  0.12473662876E+04  0.12699999809E+01 0.  1.
       -4    1    3    3    0  502 -0.35707709946E+03  0.46658578712E+03 -0.77546077274E+03  0.97290666287E+03  0.12699999809E+01 0. -1.
</event>
<event>
 5   0  0.1015876E-05  0.2199517E+04  0.7818609E-02  0.8518629E-01
       -2   -1    0    0    0  501  0.00000000000E+00  0.00000000000E+00  0.60977684045E+03  0.60977684046E+03  0.25500000920E-02 0.  1.
        2   -1    0    0  501    0  0.00000000000E+00  0.00000000000E+00 -0.19834613177E+04  0.19834613177E+04  0.25500000920E-02 0. -1.
    10030    2    1    2    0    0  0.00000000000E+00  0.00000000000E+00 -0.13736844772E+04  0.25932381581E+04  0.21995170156E+04 0.  0.
        5    1    3    3  502    0  0.11362634262E+02 -0.91034266806E+02  0.60524568170E+03  0.61217707602E+03  0.46999998093E+01 0.  1.
       -5    1    3    3    0  502 -0.11362634262E+02  0.91034266806E+02 -0.19789301589E+04  0.19810610821E+04  0.46999998093E+01 0. -1.
</event>
<event>
 5   0  0.4408787E-06  0.2202627E+04  0.7818609E-02  0.8517336E-01
       -1   -1    0    0    0  501  0.00000000000E+00  0.00000000000E+00  0.10822709486E+04  0.10822709486E+04  0.50400001928E-02 0. -1.
        1   -1    0    0  501    0  0.00000000000E+00  0.00000000000E+00 -0.11206909989E+04  0.11206909989E+04  0.50400001928E-02 0.  1.
    10030    2    1    2    0    0  0.00000000000E+00  0.00000000000E+00 -0.38420050242E+02  0.22029619475E+04  0.22026268958E+04 0.  0.
        1    1    3    3  502    0 -0.21748310318E+03 -0.74851592878E+03 -0.79734914097E+03  0.11150518591E+04  0.50400001928E-02 0.  1.
       -1    1    3    3    0  502  0.21748310318E+03  0.74851592878E+03  0.75892909072E+03  0.10879100885E+04  0.50400001928E-02 0. -1.
</event>
<event>
 5   0  0.9963173E-06  0.2201702E+04  0.7818609E-02  0.8517720E-01
       -2   -1    0    0    0  501  0.00000000000E+00  0.00000000000E+00  0.95822993272E+03  0.95822993273E+03  0.25500000920E-02 0. -1.
        2   -1    0    0  501    0  0.00000000000E+00  0.00000000000E+00 -0.12646999728E+04  0.12646999728E+04  0.25500000920E-02 0.  1.
    10030    2    1    2    0    0  0.00000000000E+00  0.00000000000E+00 -0.30647004010E+03  0.22229299056E+04  0.22017024048E+04 0.  0.
        4    1    3    3  502    0  0.40852129939E+03 -0.10198584914E+04 -0.82771290136E+02  0.11017502865E+04  0.12699999809E+01 0.  1.
       -4    1    3    3    0  502 -0.40852129939E+03  0.10198584914E+04 -0.22369874996E+03  0.11211796190E+04  0.12699999809E+01 0. -1.
</event>
<event>
 5   0  0.4630615E-06  0.2188930E+04  0.7818609E-02  0.8523050E-01
        1   -1    0    0  501    0  0.00000000000E+00  0.00000000000E+00  0.12924849069E+04  0.12924849069E+04  0.50400001928E-02 0. -1.
       -1   -1    0    0    0  501  0.00000000000E+00  0.00000000000E+00 -0.92678349054E+03  0.92678349056E+03  0.50400001928E-02 0.  1.
    10030    2    1    2    0    0  0.00000000000E+00  0.00000000000E+00  0.36570141632E+03  0.22192683974E+04  0.21889300340E+04 0.  0.
        2    1    3    3  502    0  0.37377781059E+03  0.12400691433E+03  0.12181630758E+04  0.12802378083E+04  0.25500000920E-02 0. -1.
       -2    1    3    3    0  502 -0.37377781059E+03 -0.12400691433E+03 -0.85246165948E+03  0.93903058916E+03  0.25500000920E-02 0.  1.
</event>
<event>
 5   0  0.4630615E-06  0.2196044E+04  0.7818609E-02  0.8520077E-01
        1   -1    0    0  501    0  0.00000000000E+00  0.00000000000E+00  0.15482278485E+04  0.15482278485E+04  0.50400001928E-02 0.  1.
       -1   -1    0    0    0  501  0.00000000000E+00  0.00000000000E+00 -0.77873018808E+03  0.77873018809E+03  0.50400001928E-02 0. -1.
    10030    2    1    2    0    0  0.00000000000E+00  0.00000000000E+00  0.76949766045E+03  0.23269580366E+04  0.21960435002E+04 0.  0.
        2    1    3    3  502    0  0.42685660294E+03 -0.95911732423E+03  0.72570608603E+03  0.12762295736E+04  0.25500000920E-02 0. -1.
       -2    1    3    3    0  502 -0.42685660294E+03  0.95911732423E+03  0.43791574421E+02  0.10507284631E+04  0.25500000920E-02 0.  1.
</event>
<event>
 5   0  0.9963573E-06  0.2202376E+04  0.7818609E-02  0.8517440E-01
        2   -1    0    0  501    0  0.00000000000E+00  0.00000000000E+00  0.14028040495E+04  0.14028040495E+04  0.25500000920E-02 0. -1.
       -2   -1    0    0    0  501  0.00000000000E+00  0.00000000000E+00 -0.86442246784E+03  0.86442246784E+03  0.25500000920E-02 0.  1.
    10030    2    1    2    0    0  0.00000000000E+00  0.00000000000E+00  0.53838158167E+03  0.22672265173E+04  0.22023762970E+04 0.  0.
        2    1    3    3  502    0 -0.26139502755E+03  0.82855192886E+03  0.96571527406E+03  0.12990117974E+04  0.25500000920E-02 0. -1.
       -2    1    3    3    0  502  0.26139502755E+03 -0.82855192886E+03 -0.42733369239E+03  0.96821471994E+03  0.25500000920E-02 0.  1.
</event>
<event>
 5   0  0.4794967E-06  0.2198841E+04  0.7818609E-02  0.8518911E-01
       -1   -1    0    0    0  501  0.00000000000E+00  0.00000000000E+00  0.10256982952E+04  0.10256982953E+04  0.50400001928E-02 0.  1.
        1   -1    0    0  501    0  0.00000000000E+00  0.00000000000E+00 -0.11784418427E+04  0.11784418427E+04  0.50400001928E-02 0. -1.
    10030    2    1    2    0    0  0.00000000000E+00  0.00000000000E+00 -0.15274354746E+03  0.22041401380E+04  0.21988413213E+04 0.  0.
        5    1    3    3  502    0 -0.71328416585E+03 -0.15322519830E+03  0.74807690276E+03  0.10449370340E+04  0.46999998093E+01 0.  1.
       -5    1    3    3    0  502  0.71328416585E+03  0.15322519830E+03 -0.90082045022E+03  0.11592031039E+04  0.46999998093E+01 0. -1.
</event>
<event>
 5   0  0.4309945E-06  0.2195954E+04  0.7818609E-02  0.8520114E-01
        1   -1    0    0  501    0  0.00000000000E+00  0.00000000000E+00  0.14796696209E+04  0.14796696209E+04  0.50400001928E-02 0.  1.
       -1   -1    0    0    0  501  0.00000000000E+00  0.00000000000E+00 -0.81474531766E+03  0.81474531767E+03  0.50400001928E-02 0. -1.
    10030    2    1    2    0    0  0.00000000000E+00  0.00000000000E+00  0.66492430320E+03  0.22944149385E+04  0.21959543668E+04 0.  0.
        4    1    3    3  502    0  0.97888530122E+02 -0.98907840312E+03  0.81995911045E+03  0.12884846943E+04  0.12699999809E+01 0. -1.
       -4    1    3    3    0  502 -0.97888530122E+02  0.98907840312E+03 -0.15503480724E+03  0.10059302442E+04  0.12699999809E+01 0.  1.
</event>
<event>
 5   0  0.4794967E-06  0.2188323E+04  0.7818609E-02  0.8523304E-01
        1   -1    0    0  501    0  0.00000000000E+00  0.00000000000E+00  0.12485950424E+04  0.12485950424E+04  0.50400001928E-02 0.  1.
       -1   -1    0    0    0  501  0.00000000000E+00  0.00000000000E+00 -0.95882912783E+03  0.95882912785E+03  0.50400001928E-02 0. -1.
    10030    2    1    2    0    0  0.00000000000E+00  0.00000000000E+00  0.28976591458E+03  0.22074241703E+04  0.21883229154E+04 0.  0.
        5    1    3    3  502    0 -0.13960787731E+03  0.62596250359E+03 -0.74933544601E+03  0.98632911137E+03  0.46999998093E+01 0. -1.
       -5    1    3    3    0  502  0.13960787731E+03 -0.62596250359E+03  0.10391013606E+04  0.12210950589E+04  0.46999998093E+01 0.  1.
</event>
<event>
 5   0  0.9963573E-06  0.2197632E+04  0.7818609E-02  0.8519414E-01
       -2   -1    0    0    0  501  0.00000000000E+00  0.00000000000E+00  0.61203506319E+03  0.61203506320E+03  0.25500000920E-02 0. -1.
        2   -1    0    0  501    0  0.00000000000E+00  0.00000000000E+00 -0.19727567684E+04  0.19727567684E+04  0.25500000920E-02 0.  1.
    10030    2    1    2    0    0  0.00000000000E+00  0.00000000000E+00 -0.13607217052E+04  0.25847918316E+04  0.21976317375E+04 0.  0.
        2    1    3    3  502    0 -0.26110558339E+03 -0.45705366481E+03 -0.18148160034E+04  0.18896114162E+04  0.25500000920E-02 0.  1.
       -2    1    3    3    0  502  0.26110558339E+03  0.45705366481E+03  0.45409429821E+03  0.69518041534E+03  0.25500000920E-02 0. -1.
</event>
<event>
 5   0  0.9963573E-06  0.2200646E+04  0.7818609E-02  0.8518159E-01
        2   -1    0    0  501    0  0.00000000000E+00  0.00000000000E+00  0.23740208890E+04  0.23740208890E+04  0.25500000920E-02 0.  1.
       -2   -1    0    0    0  501  0.00000000000E+00  0.00000000000E+00 -0.50998308497E+03  0.50998308497E+03  0.25500000920E-02 0. -1.
    10030    2    1    2    0    0  0.00000000000E+00  0.00000000000E+00  0.18640378040E+04  0.28840039739E+04  0.22006458113E+04 0.  0.
        2    1    3    3  502    0 -0.70994858535E+03 -0.39631270092E+03  0.19035951038E+04  0.20699674080E+04  0.25500000920E-02 0.  1.
       -2    1    3    3    0  502  0.70994858535E+03  0.39631270092E+03 -0.39557299826E+02  0.81403656597E+03  0.25500000920E-02 0. -1.
</event>
<event>
 5   0  0.4408787E-06  0.2198575E+04  0.7818609E-02  0.8519022E-01
       -1   -1    0    0    0  501  0.00000000000E+00  0.00000000000E+00  0.10967472992E+04  0.10967472993E+04  0.50400001928E-02 0.  1.
        1   -1    0    0  501    0  0.00000000000E+00  0.00000000000E+00 -0.11018333849E+04  0.11018333849E+04  0.50400001928E-02 0. -1.
    10030    2    1    2    0    0  0.00000000000E+00  0.00000000000E+00 -0.50860856125E+01  0.21985806841E+04  0.21985748012E+04 0.  0.
        1    1    3    3  502    0 -0.43007723949E+03 -0.46941312604E+03  0.89362768435E+03  0.10972171859E+04  0.50400001928E-02 0.  1.
       -1    1    3    3    0  502  0.43007723949E+03  0.46941312604E+03 -0.89871376996E+03  0.11013634982E+04  0.50400001928E-02 0. -1.
</event>
<event>
 5   0  0.1035928E-05  0.2209528E+04  0.7818609E-02  0.8514473E-01
        2   -1    0    0  501    0  0.00000000000E+00  0.00000000000E+00  0.12967019445E+04  0.12967019445E+04  0.25500000920E-02 0.  1.
       -2   -1    0    0    0  501  0.00000000000E+00  0.00000000000E+00 -0.94123708591E+03  0.94123708591E+03  0.25500000920E-02 0. -1.
    10030    2    1    2    0    0  0.00000000000E+00  0.00000000000E+00  0.35546485857E+03  0.22379390304E+04  0.22095284198E+04 0.  0.
        3    1    3    3  502    0  0.81158876218E+03  0.10558742200E+03  0.92935166682E+03  0.12383535656E+04  0.10100000352E+00 0. -1.
       -3    1    3    3    0  502 -0.81158876218E+03 -0.10558742200E+03 -0.57388680825E+03  0.99958546481E+03  0.10100000352E+00 0.  1.
</event>
<event>
 5   0  0.1035928E-05  0.2205765E+04  0.7818609E-02  0.8516033E-01
        2   -1    0    0  501    0  0.00000000000E+00  0.00000000000E+00  0.14271119516E+04  0.14271119516E+04  0.25500000920E-02 0.  1.
       -2   -1    0    0    0  501  0.00000000000E+00  0.00000000000E+00 -0.85231525012E+03  0.85231525013E+03  0.25500000920E-02 0. -1.
    10030    2    1    2    0    0  0.00000000000E+00  0.00000000000E+00  0.57479670147E+03  0.22794272017E+04  0.22057645205E+04 0.  0.
        3    1    3    3  502    0  0.79178972741E+03 -0.61700889521E+03 -0.18471563458E+03  0.10206619543E+04  0.10100000352E+00 0. -1.
       -3    1    3    3    0  502 -0.79178972741E+03  0.61700889521E+03  0.75951233606E+03  0.12587652474E+04  0.10100000352E+00 0.  1.
</event>
<event>
 5   0  0.9963173E-06  0.2197458E+04  0.7818609E-02  0.8519487E-01
       -2   -1    0    0    0  501  0.00000000000E+00  0.00000000000E+00  0.18503086939E+04  0.18503086939E+04  0.25500000920E-02 0.  1.
        2   -1    0    0  501    0  0.00000000000E+00  0.00000000000E+00 -0.65243454423E+03  0.65243454423E+03  0.25500000920E-02 0. -1.
    10030    2    1    2    0    0  0.00000000000E+00  0.00000000000E+00  0.11978741497E+04  0.25027432381E+04  0.21974579035E+04 0.  0.
        4    1    3    3  502    0  0.51895299725E+03 -0.95611704039E+03  0.77438977225E+03  0.13353475729E+04  0.12699999809E+01 0. -1.
       -4    1    3    3    0  502 -0.51895299725E+03  0.95611704039E+03  0.42348437740E+03  0.11673956652E+04  0.12699999809E+01 0.  1.
</event>
<event>
 5   0  0.4309945E-06  0.2179146E+04  0.7818609E-02  0.8527159E-01
       -1   -1    0    0    0  501  0.00000000000E+00  0.00000000000E+00  0.12842402848E+04  0.12842402848E+04  0.50400001928E-02 0.  1.
        1   -1    0    0  501    0  0.00000000000E+00  0.00000000000E+00 -0.92441330372E+03  0.92441330373E+03  0.50400001928E-02 0. -1.
    10030    2    1    2    0    0  0.00000000000E+00  0.00000000000E+00  0.35982698111E+03  0.22086535886E+04  0.21791455247E+04 0.  0.
        4    1    3    3  502    0 -0.27726177064E+03 -0.59524951816E+03 -0.70132604308E+03  0.96075798718E+03  0.12699999809E+01 0. -1.
       -4    1    3    3    0  502  0.27726177064E+03  0.59524951816E+03  0.10611530242E+04  0.12478956014E+04  0.12699999809E+01 0.  1.
</event>
<event>
 5   0  0.4309945E-06  0.2203699E+04  0.7818609E-02  0.8516890E-01
        1   -1    0    0  501    0  0.00000000000E+00  0.00000000000E+00  0.19970948655E+04  0.19970948655E+04  0.50400001928E-02 0. -1.
       -1   -1    0    0    0  501  0.00000000000E+00  0.00000000000E+00 -0.60791912305E+03  0.60791912307E+03  0.50400001928E-02 0.  1.
    10030    2    1    2    0    0  0.00000000000E+00  0.00000000000E+00  0.13891757424E+04  0.26050139886E+04  0.22036988536E+04 0.  0.
        4    1    3    3  502    0  0.10520016590E+03 -0.77301185795E+03 -0.22522431176E+03  0.81199877521E+03  0.12699999809E+01 0.  1.
       -4    1    3    3    0  502 -0.10520016590E+03  0.77301185795E+03  0.16144000542E+04  0.17930152133E+04  0.12699999809E+01 0. -1.
</event>
<event>
 5   0  0.1015876E-05  0.2198678E+04  0.7818609E-02  0.8518979E-01
       -2   -1    0    0    0  501  0.00000000000E+00  0.00000000000E+00  0.45631212900E+03  0.45631212900E+03  0.25500000920E-02 0. -1.
        2   -1    0    0  501    0  0.00000000000E+00  0.00000000000E+00 -0.26485080511E+04  0.26485080511E+04  0.25500000920E-02 0.  1.
    10030    2    1    2    0    0  0.00000000000E+00  0.00000000000E+00 -0.21921959221E+04  0.31048201801E+04  0.21986781006E+04 0.  0.
        5    1    3    3  502    0 -0.51197880375E+03  0.62592447030E+03 -0.21477516955E+04  0.22949429565E+04  0.46999998093E+01 0.  1.
       -5    1    3    3    0  502  0.51197880375E+03 -0.62592447030E+03 -0.44444226564E+02  0.80987722358E+03  0.46999998093E+01 0. -1.
</event>
<event>
 5   0  0.4309945E-06  0.2200933E+04  0.7818609E-02  0.8518040E-01
       -1   -1    0    0    0  501  0.00000000000E+00  0.00000000000E+00  0.14311852540E+04  0.14311852540E+04  0.50400001928E-02 0. -1.
        1   -1    0    0  501    0  0.00000000000E+00  0.00000000000E+00 -0.84617057403E+03  0.84617057404E+03  0.50400001928E-02 0.  1.
    10030    2    1    2    0    0  0.00000000000E+00  0.00000000000E+00  0.58501468001E+03  0.22773558281E+04  0.22009333002E+04 0.  0.
        4    1    3    3  502    0 -0.42168685386E+03 -0.10153619829E+04  0.24347549587E+03  0.11260824521E+04  0.12699999809E+01 0. -1.
       -4    1    3    3    0  502  0.42168685386E+03  0.10153619829E+04  0.34153918414E+03  0.11512733760E+04  0.12699999809E+01 0.  1.
</event>
<event>
 5   0  0.1035928E-05  0.2199352E+04  0.7818609E-02  0.8518698E-01
       -2   -1    0    0    0  501  0.00000000000E+00  0.00000000000E+00  0.94459310794E+03  0.94459310794E+03  0.25500000920E-02 0.  1.
        2   -1    0    0  501    0  0.00000000000E+00  0.00000000000E+00 -0.12802202330E+04  0.12802202330E+04  0.25500000920E-02 0. -1.
    10030    2    1    2    0    0  0.00000000000E+00  0.00000000000E+00 -0.33562712507E+03  0.22248133409E+04  0.21993519125E+04 0.  0.
        3    1    3    3  502    0 -0.35025475931E+03 -0.80009983155E+03  0.50809011921E+03  0.10104423369E+04  0.10100000352E+00 0.  1.
       -3    1    3    3    0  502  0.35025475931E+03  0.80009983155E+03 -0.84371724428E+03  0.12143710040E+04  0.10100000352E+00 0. -1.
</event>
<event>
 5   0  0.1035928E-05  0.2202804E+04  0.7818609E-02  0.8517262E-01
       -2   -1    0    0    0  501  0.00000000000E+00  0.00000000000E+00  0.17044865622E+04  0.17044865622E+04  0.25500000920E-02 0.  1.
        2   -1    0    0  501    0  0.00000000000E+00  0.00000000000E+00 -0.71170180180E+03  0.71170180180E+03  0.25500000920E-02 0. -1.
    10030    2    1    2    0    0  0.00000000000E+00  0.00000000000E+00  0.99278476044E+03  0.24161883640E+04  0.22028038110E+04 0.  0.
        3    1    3    3  502    0 -0.87120071250E+03 -0.45434611736E+02  0.12338535481E+04  0.15111087233E+04  0.10100000352E+00 0.  1.
       -3    1    3    3    0  502  0.87120071250E+03  0.45434611736E+02 -0.24106878767E+03  0.90507964069E+03  0.10100000352E+00 0. -1.
</event>
<event>
 5   0  0.4309945E-06  0.2189650E+04  0.7818609E-02  0.8522748E-01
        1   -1    0    0  501    0  0.00000000000E+00  0.00000000000E+00  0.12038937575E+04  0.12038937575E+04  0.50400001928E-02 0.  1.
       -1   -1    0    0    0  501  0.00000000000E+00  0.00000000000E+00 -0.99563735429E+03  0.99563735430E+03  0.50400001928E-02 0. -1.
    10030    2    1    2    0    0  0.00000000000E+00  0.00000000000E+00  0.20825640320E+03  0.21995311118E+04  0.21896498310E+04 0.  0.
        4    1    3    3  502    0  0.19160003479E+02  0.46380821115E+03  0.11001443915E+04  0.11940705412E+04  0.12699999809E+01 0.  1.
       -4    1    3    3    0  502 -0.19160003479E+02 -0.46380821115E+03 -0.89188798826E+03  0.10054605706E+04  0.12699999809E+01 0. -1.
</event>
<event>
 5   0  0.4462201E-06  0.2200412E+04  0.7818609E-02  0.8518257E-01
        1   -1    0    0  501    0  0.00000000000E+00  0.00000000000E+00  0.10419490933E+04  0.10419490934E+04  0.50400001928E-02 0.  1.
       -1   -1    0    0    0  501  0.00000000000E+00  0.00000000000E+00 -0.11617203522E+04  0.11617203522E+04  0.50400001928E-02 0. -1.
    10030    2    1    2    0    0  0.00000000000E+00  0.00000000000E+00 -0.11977125888E+03  0.22036694456E+04  0.22004122048E+04 0.  0.
        3    1    3    3  502    0  0.76878477515E+03 -0.78433057484E+03  0.53950347908E+01  0.10982866646E+04  0.10100000352E+00 0. -1.
       -3    1    3    3    0  502 -0.76878477515E+03  0.78433057484E+03 -0.12516629367E+03  0.11053827809E+04  0.10100000352E+00 0.  1.
</event>
<event>
 5   0  0.4309945E-06  0.2199704E+04  0.7818609E-02  0.8518552E-01
       -1   -1    0    0    0  501  0.00000000000E+00  0.00000000000E+00  0.97740608874E+03  0.97740608875E+03  0.50400001928E-02 0.  1.
        1   -1    0    0  501    0  0.00000000000E+00  0.00000000000E+00 -0.12376369391E+04  0.12376369392E+04  0.50400001928E-02 0. -1.
    10030    2    1    2    0    0  0.00000000000E+00  0.00000000000E+00 -0.26023085041E+03  0.22150430279E+04  0.21997035073E+04 0.  0.
        4    1    3    3  502    0 -0.43924317770E+03  0.64035855420E+03 -0.91444278493E+03  0.11996669817E+04  0.12699999809E+01 0. -1.
       -4    1    3    3    0  502  0.43924317770E+03 -0.64035855420E+03  0.65421193453E+03  0.10153760462E+04  0.12699999809E+01 0.  1.
</event>
<event>
 5   0  0.1015876E-05  0.2198515E+04  0.7818609E-02  0.8519046E-01
        2   -1    0    0  501    0  0.00000000000E+00  0.00000000000E+00  0.11668781936E+04  0.11668781936E+04  0.25500000920E-02 0. -1.
       -2   -1    0    0    0  501  0.00000000000E+00  0.00000000000E+00 -0.10355555463E+04  0.10355555463E+04  0.25500000920E-02 0.  1.
    10030    2    1    2    0    0  0.00000000000E+00  0.00000000000E+00  0.13132264730E+03  0.22024337399E+04  0.21985151218E+04 0.  0.
        5    1    3    3  502    0 -0.17017523224E+03 -0.86293509421E+03 -0.59485332719E+03  0.10618329235E+04  0.46999998093E+01 0.  1.
       -5    1    3    3    0  502  0.17017523224E+03  0.86293509421E+03  0.72617597449E+03  0.11406008164E+04  0.46999998093E+01 0. -1.
</event>
<event>
 5   0  0.4309945E-06  0.2202654E+04  0.7818609E-02  0.8517324E-01
        1   -1    0    0  501    0  0.00000000000E+00  0.00000000000E+00  0.13536501976E+04  0.13536501976E+04  0.50400001928E-02 0. -1.
       -1   -1    0    0    0  501  0.00000000000E+00  0.00000000000E+00 -0.89603710409E+03  0.89603710410E+03  0.50400001928E-02 0.  1.
    10030    2    1    2    0    0  0.00000000000E+00  0.00000000000E+00  0.45761309348E+03  0.22496873017E+04  0.22026536750E+04 0.  0.
        4    1    3    3  502    0 -0.65717194869E+03 -0.43646871462E+03  0.10136812546E+04  0.12844964803E+04  0.12699999809E+01 0. -1.
       -4    1    3    3    0  502  0.65717194869E+03  0.43646871462E+03 -0.55606816114E+03  0.96519082140E+03  0.12699999809E+01 0.  1.
</event>
<event>
 5   0  0.3546750E-06  0.2196545E+04  0.7818609E-02  0.8519868E-01
       -3   -1    0    0    0  501  0.00000000000E+00  0.00000000000E+00  0.11599398514E+04  0.11599398558E+04  0.10100000352E+00 0. -1.
        3   -1    0    0  501    0  0.00000000000E+00  0.00000000000E+00 -0.10398835090E+04  0.10398835139E+04  0.10100000352E+00 0.  1.
    10030    2    1    2    0    0  0.00000000000E+00  0.00000000000E+00  0.12005634244E+03  0.21998233698E+04  0.21965448625E+04 0.  0.
        5    1    3    3  502    0  0.49382381165E+03  0.69571777179E+03 -0.63259287671E+03  0.10621115820E+04  0.46999998093E+01 0.  1.
       -5    1    3    3    0  502 -0.49382381165E+03 -0.69571777179E+03  0.75264921915E+03  0.11377117878E+04  0.46999998093E+01 0. -1.
</event>
<event>
 5   0  0.4630615E-06  0.2200194E+04  0.7818609E-02  0.8518347E-01
        1   -1    0    0  501    0  0.00000000000E+00  0.00000000000E+00  0.11637660934E+04  0.11637660934E+04  0.50400001928E-02 0.  1.
       -1   -1    0    0    0  501  0.00000000000E+00  0.00000000000E+00 -0.10399113181E+04  0.10399113181E+04  0.50400001928E-02 0. -1.
    10030    2    1    2    0    0  0.00000000000E+00  0.00000000000E+00  0.12385477523E+03  0.22036774115E+04  0.22001941116E+04 0.  0.
        2    1    3    3  502    0  0.20624332714E+03  0.46615449381E+03  0.10383437054E+04  0.11567168939E+04  0.25500000920E-02 0.  1.
       -2    1    3    3    0  502 -0.20624332714E+03 -0.46615449381E+03 -0.91448893016E+03  0.10469605176E+04  0.25500000920E-02 0. -1.
</event>
<event>
 5   0  0.4794967E-06  0.2200353E+04  0.7818609E-02  0.8518281E-01
       -1   -1    0    0    0  501  0.00000000000E+00  0.00000000000E+00  0.10512574900E+04  0.10512574901E+04  0.50400001928E-02 0.  1.
        1   -1    0    0  501    0  0.00000000000E+00  0.00000000000E+00 -0.11513722400E+04  0.11513722400E+04  0.50400001928E-02 0. -1.
    10030    2    1    2    0    0  0.00000000000E+00  0.00000000000E+00 -0.10011474992E+03  0.22026297300E+04  0.22003533272E+04 0.  0.
        5    1    3    3  502    0  0.40882210098E+03 -0.27920340749E+03  0.93344395139E+03  0.10566123951E+04  0.46999998093E+01 0.  1.
       -5    1    3    3    0  502 -0.40882210098E+03  0.27920340749E+03 -0.10335587013E+04  0.11460173350E+04  0.46999998093E+01 0. -1.
</event>
<event>
 5   0  0.9963573E-06  0.2201639E+04  0.7818609E-02  0.8517746E-01
       -2   -1    0    0    0  501  0.00000000000E+00  0.00000000000E+00  0.61916345759E+03  0.61916345760E+03  0.25500000920E-02 0. -1.
        2   -1    0    0  501    0  0.00000000000E+00  0.00000000000E+00 -0.19571625795E+04  0.19571625795E+04  0.25500000920E-02 0.  1.
    10030    2    1    2    0    0  0.00000000000E+00  0.00000000000E+00 -0.13379991219E+04  0.25763260371E+04  0.22016389802E+04 0.  0.
        2    1    3    3  502    0 -0.75992309421E+03 -0.75677197178E+03 -0.95947115254E+03  0.14390176576E+04  0.25500000920E-02 0.  1.
       -2    1    3    3    0  502  0.75992309421E+03  0.75677197178E+03 -0.37852796934E+03  0.11373083794E+04  0.25500000920E-02 0. -1.
</event>
<event>
 5   0  0.9963173E-06  0.2173621E+04  0.7818609E-02  0.8529489E-01
       -2   -1    0    0    0  501  0.00000000000E+00  0.00000000000E+00  0.78234454672E+03  0.78234454673E+03  0.25500000920E-02 0. -1.
        2   -1    0    0  501    0  0.00000000000E+00  0.00000000000E+00 -0.15097654581E+04  0.15097654581E+04  0.25500000920E-02 0.  1.
    10030    2    1    2    0    0  0.00000000000E+00  0.00000000000E+00 -0.72742091138E+03  0.22921100048E+04  0.21736207332E+04 0.  0.
        4    1    3    3  502    0  0.94114480157E+03 -0.29961204103E+03 -0.84189926880E+03  0.12978123533E+04  0.12699999809E+01 0.  1.
       -4    1    3    3    0  502 -0.94114480157E+03  0.29961204103E+03  0.11447835741E+03  0.99429765155E+03  0.12699999809E+01 0. -1.
</event>
<event>
 5   0  0.1035928E-05  0.2198986E+04  0.7818609E-02  0.8518850E-01
        2   -1    0    0  501    0  0.00000000000E+00  0.00000000000E+00  0.74248316453E+03  0.74248316453E+03  0.25500000920E-02 0.  1.
       -2   -1    0    0    0  501  0.00000000000E+00  0.00000000000E+00 -0.16281639805E+04  0.16281639805E+04  0.25500000920E-02 0. -1.
    10030    2    1    2    0    0  0.00000000000E+00  0.00000000000E+00 -0.88568081594E+03  0.23706471450E+04  0.21989855339E+04 0.  0.
        3    1    3    3  502    0  0.33596629157E+02 -0.10481080563E+04 -0.79913216632E+03  0.13184352319E+04  0.10100000352E+00 0. -1.
       -3    1    3    3    0  502 -0.33596629157E+02  0.10481080563E+04 -0.86548649621E+02  0.10522119131E+04  0.10100000352E+00 0.  1.
</event>
<event>
 5   0  0.4309945E-06  0.2195481E+04  0.7818609E-02  0.8520311E-01
       -1   -1    0    0    0  501  0.00000000000E+00  0.00000000000E+00  0.15144386414E+04  0.15144386415E+04  0.50400001928E-02 0.  1.
        1   -1    0    0  501    0  0.00000000000E+00  0.00000000000E+00 -0.79569730221E+03  0.79569730222E+03  0.50400001928E-02 0. -1.
    10030    2    1    2    0    0  0.00000000000E+00  0.00000000000E+00  0.71874133924E+03  0.23101359437E+04  0.21954814883E+04 0.  0.
        4    1    3    3  502    0 -0.26485458260E+03 -0.10135260401E+04  0.14135472145E+02  0.10476566271E+04  0.12699999809E+01 0. -1.
       -4    1    3    3    0  502  0.26485458260E+03  0.10135260401E+04  0.70460586709E+03  0.12624793166E+04  0.12699999809E+01 0.  1.
</event>
<event>
 5   0  0.4462201E-06  0.2191239E+04  0.7818609E-02  0.8522083E-01
       -1   -1    0    0    0  501  0.00000000000E+00  0.00000000000E+00  0.12770581013E+04  0.12770581014E+04  0.50400001928E-02 0.  1.
        1   -1    0    0  501    0  0.00000000000E+00  0.00000000000E+00 -0.93995906975E+03  0.93995906976E+03  0.50400001928E-02 0. -1.
    10030    2    1    2    0    0  0.00000000000E+00  0.00000000000E+00  0.33709903159E+03  0.22170171711E+04  0.21912392338E+04 0.  0.
        3    1    3    3  502    0  0.24360065336E+03 -0.97217684142E+03 -0.27927839877E+03  0.10404160339E+04  0.10100000352E+00 0. -1.
       -3    1    3    3    0  502 -0.24360065336E+03  0.97217684142E+03  0.61637743036E+03  0.11766011372E+04  0.10100000352E+00 0.  1.
</event>
<event>
 5   0  0.4794967E-06  0.2212077E+04  0.7818609E-02  0.8513418E-01
       -1   -1    0    0    0  501  0.00000000000E+00  0.00000000000E+00  0.10170503733E+04  0.10170503733E+04  0.50400001928E-02 0.  1.
        1   -1    0    0  501    0  0.00000000000E+00  0.00000000000E+00 -0.12028123109E+04  0.12028123109E+04  0.50400001928E-02 0. -1.
    10030    2    1    2    0    0  0.00000000000E+00  0.00000000000E+00 -0.18576193765E+03  0.22198626842E+04  0.22120765898E+04 0.  0.
        5    1    3    3  502    0 -0.86560552697E+03 -0.62947227922E+03  0.18700993806E+03  0.10865095883E+04  0.46999998093E+01 0.  1.
       -5    1    3    3    0  502  0.86560552697E+03  0.62947227922E+03 -0.37277187571E+03  0.11333530959E+04  0.46999998093E+01 0. -1.
</event>
<event>
 5   0  0.4794967E-06  0.2228588E+04  0.7818609E-02  0.8506623E-01
       -1   -1    0    0    0  501  0.00000000000E+00  0.00000000000E+00  0.87310061608E+03  0.87310061609E+03  0.50400001928E-02 0.  1.
        1   -1    0    0  501    0  0.00000000000E+00  0.00000000000E+00 -0.14221164197E+04  0.14221164198E+04  0.50400001928E-02 0. -1.
    10030    2    1    2    0    0  0.00000000000E+00  0.00000000000E+00 -0.54901580367E+03  0.22952170358E+04  0.22285876444E+04 0.  0.
        5    1    3    3  502    0  0.92386266889E+03 -0.59598662321E+03 -0.46133242040E+03  0.11922969337E+04  0.46999998093E+01 0.  1.
       -5    1    3    3    0  502 -0.92386266889E+03  0.59598662321E+03 -0.87683383269E+02  0.11029201021E+04  0.46999998093E+01 0. -1.
</event>
<event>
 5   0  0.9963573E-06  0.2202427E+04  0.7818609E-02  0.8517419E-01
        2   -1    0    0  501    0  0.00000000000E+00  0.00000000000E+00  0.70941159821E+03  0.70941159822E+03  0.25500000920E-02 0. -1.
       -2   -1    0    0    0  501  0.00000000000E+00  0.00000000000E+00 -0.17094045516E+04  0.17094045516E+04  0.25500000920E-02 0.  1.
    10030    2    1    2    0    0  0.00000000000E+00  0.00000000000E+00 -0.99999295340E+03  0.24188161498E+04  0.22024272201E+04 0.  0.
        2    1    3    3  502    0  0.20905438221E+03  0.75596549958E+03 -0.13489118077E+04  0.15603687501E+04  0.25500000920E-02 0.  1.
       -2    1    3    3    0  502 -0.20905438221E+03 -0.75596549958E+03  0.34891885428E+03  0.85844739976E+03  0.25500000920E-02 0. -1.
</event>
<event>
 5   0  0.9963573E-06  0.2199902E+04  0.7818609E-02  0.8518469E-01
       -2   -1    0    0    0  501  0.00000000000E+00  0.00000000000E+00  0.12806743445E+04  0.12806743445E+04  0.25500000920E-02 0. -1.
        2   -1    0    0  501    0  0.00000000000E+00  0.00000000000E+00 -0.94473085040E+03  0.94473085040E+03  0.25500000920E-02 0.  1.
    10030    2    1    2    0    0  0.00000000000E+00  0.00000000000E+00  0.33594349408E+03  0.22254051949E+04  0.21999023274E+04 0.  0.
        2    1    3    3  502    0 -0.62287763027E+03  0.91388538506E+02 -0.74446254967E+03  0.97496302244E+03  0.25500000920E-02 0.  1.
       -2    1    3    3    0  502  0.62287763027E+03 -0.91388538506E+02  0.10804060437E+04  0.12504421724E+04  0.25500000920E-02 0. -1.
</event>
<event>
 5   0  0.4462201E-06  0.2240383E+04  0.7818609E-02  0.8501805E-01
       -1   -1    0    0    0  501  0.00000000000E+00  0.00000000000E+00  0.12081555486E+04  0.12081555486E+04  0.50400001928E-02 0.  1.
        1   -1    0    0  501    0  0.00000000000E+00  0.00000000000E+00 -0.10386322827E+04  0.10386322827E+04  0.50400001928E-02 0. -1.
    10030    2    1    2    0    0  0.00000000000E+00  0.00000000000E+00  0.16952326595E+03  0.22467878313E+04  0.22403833201E+04 0.  0.
        3    1    3    3  502    0  0.42374555521E+03 -0.79113204393E+03 -0.58751216694E+03  0.10726699227E+04  0.10100000352E+00 0. -1.
       -3    1    3    3    0  502 -0.42374555521E+03  0.79113204393E+03  0.75703543289E+03  0.11741179086E+04  0.10100000352E+00 0.  1.
</event>
<event>
 5   0  0.4408787E-06  0.2206351E+04  0.7818609E-02  0.8515789E-01
       -1   -1    0    0    0  501  0.00000000000E+00  0.00000000000E+00  0.12651597502E+04  0.12651597502E+04  0.50400001928E-02 0. -1.
        1   -1    0    0  501    0  0.00000000000E+00  0.00000000000E+00 -0.96193066202E+03  0.96193066203E+03  0.50400001928E-02 0.  1.
    10030    2    1    2    0    0  0.00000000000E+00  0.00000000000E+00  0.30322908814E+03  0.22270904122E+04  0.22063507936E+04 0.  0.
        1    1    3    3  502    0 -0.59385524319E+03  0.29229308923E+03 -0.73923262600E+03  0.99225207243E+03  0.50400001928E-02 0.  1.
       -1    1    3    3    0  502  0.59385524319E+03 -0.29229308923E+03  0.10424617141E+04  0.12348383398E+04  0.50400001928E-02 0. -1.
</event>
<event>
 5   0  0.1014015E-05  0.2205687E+04  0.7818609E-02  0.8516065E-01
        2   -1    0    0  501    0  0.00000000000E+00  0.00000000000E+00  0.14586295070E+04  0.14586295070E+04  0.25500000920E-02 0.  1.
       -2   -1    0    0    0  501  0.00000000000E+00  0.00000000000E+00 -0.83384015158E+03  0.83384015159E+03  0.25500000920E-02 0. -1.
    10030    2    1    2    0    0  0.00000000000E+00  0.00000000000E+00  0.62478935543E+03  0.22924696586E+04  0.22056870578E+04 0.  0.
        1    1    3    3  502    0 -0.27195946662E+03 -0.10626141552E+04  0.43159378896E+03  0.11787213382E+04  0.50400001928E-02 0. -1.
       -1    1    3    3    0  502  0.27195946662E+03  0.10626141552E+04  0.19319556648E+03  0.11137483204E+04  0.50400001928E-02 0.  1.
</event>
<event>
 5   0  0.1015876E-05  0.2202566E+04  0.7818609E-02  0.8517361E-01
        2   -1    0    0  501    0  0.00000000000E+00  0.00000000000E+00  0.13574441426E+04  0.13574441426E+04  0.25500000920E-02 0.  1.
       -2   -1    0    0    0  501  0.00000000000E+00  0.00000000000E+00 -0.89346161511E+03  0.89346161512E+03  0.25500000920E-02 0. -1.
    10030    2    1    2    0    0  0.00000000000E+00  0.00000000000E+00  0.46398252753E+03  0.22509057578E+04  0.22025659909E+04 0.  0.
        5    1    3    3  502    0 -0.48270339612E+03 -0.92753950325E+03 -0.12123899619E+03  0.10526410038E+04  0.46999998093E+01 0. -1.
       -5    1    3    3    0  502  0.48270339612E+03  0.92753950325E+03  0.58522152372E+03  0.11982647539E+04  0.46999998093E+01 0.  1.
</event>
<event>
 5   0  0.4630615E-06  0.2200655E+04  0.7818609E-02  0.8518155E-01
       -1   -1    0    0    0  501  0.00000000000E+00  0.00000000000E+00  0.57024616175E+03  0.57024616177E+03  0.50400001928E-02 0. -1.
        1   -1    0    0  501    0  0.00000000000E+00  0.00000000000E+00 -0.21231551803E+04  0.21231551803E+04  0.50400001928E-02 0.  1.
    10030    2    1    2    0    0  0.00000000000E+00  0.00000000000E+00 -0.15529090186E+04  0.26934013421E+04  0.22006554409E+04 0.  0.
        2    1    3    3  502    0 -0.55162156168E+03  0.69653295026E+02 -0.19385770336E+04  0.20167346985E+04  0.25500000920E-02 0.  1.
       -2    1    3    3    0  502  0.55162156168E+03 -0.69653295026E+02  0.38566801500E+03  0.67666664364E+03  0.25500000920E-02 0. -1.
</event>
<event>
 5   0  0.4630615E-06  0.2199283E+04  0.7818609E-02  0.8518726E-01
       -1   -1    0    0    0  501  0.00000000000E+00  0.00000000000E+00  0.48059814810E+03  0.48059814813E+03  0.50400001928E-02 0.  1.
        1   -1    0    0  501    0  0.00000000000E+00  0.00000000000E+00 -0.25160561922E+04  0.25160561923E+04  0.50400001928E-02 0. -1.
    10030    2    1    2    0    0  0.00000000000E+00  0.00000000000E+00 -0.20354580441E+04  0.29966543404E+04  0.21992834711E+04 0.  0.
        2    1    3    3  502    0 -0.36513304693E+03 -0.27084804272E+03 -0.23820117361E+04  0.24250073640E+04  0.25500000920E-02 0. -1.
       -2    1    3    3    0  502  0.36513304693E+03  0.27084804272E+03  0.34655369199E+03  0.57164697642E+03  0.25500000920E-02 0.  1.
</event>
<event>
 5   0  0.4462201E-06  0.2203706E+04  0.7818609E-02  0.8516887E-01
        1   -1    0    0  501    0  0.00000000000E+00  0.00000000000E+00  0.12567567077E+04  0.12567567077E+04  0.50400001928E-02 0.  1.
       -1   -1    0    0    0  501  0.00000000000E+00  0.00000000000E+00 -0.96604226716E+03  0.96604226718E+03  0.50400001928E-02 0. -1.
    10030    2    1    2    0    0  0.00000000000E+00  0.00000000000E+00  0.29071444055E+03  0.22227989749E+04  0.22037060595E+04 0.  0.
        3    1    3    3  502    0 -0.10498060859E+04  0.31559061097E+03  0.33083187417E+02  0.10967154413E+04  0.10100000352E+00 0.  1.
       -3    1    3    3    0  502  0.10498060859E+04 -0.31559061097E+03  0.25763125314E+03  0.11260835336E+04  0.10100000352E+00 0. -1.
</event>
<event>
 5   0  0.1035928E-05  0.2201998E+04  0.7818609E-02  0.8517597E-01
        2   -1    0    0  501    0  0.00000000000E+00  0.00000000000E+00  0.14803074526E+04  0.14803074526E+04  0.25500000920E-02 0.  1.
       -2   -1    0    0    0  501  0.00000000000E+00  0.00000000000E+00 -0.81888320249E+03  0.81888320249E+03  0.25500000920E-02 0. -1.
    10030    2    1    2    0    0  0.00000000000E+00  0.00000000000E+00  0.66142425013E+03  0.22991906551E+04  0.22019980994E+04 0.  0.
        3    1    3    3  502    0  0.10195866832E+04  0.23234521705E+03 -0.28959198207E+02  0.10461261634E+04  0.10100000352E+00 0. -1.
       -3    1    3    3    0  502 -0.10195866832E+04 -0.23234521705E+03  0.69038344834E+03  0.12530644917E+04  0.10100000352E+00 0.  1.
</event>
<event>
 5   0  0.4794967E-06  0.2209786E+04  0.7818609E-02  0.8514366E-01
        1   -1    0    0  501    0  0.00000000000E+00  0.00000000000E+00  0.15821320586E+04  0.15821320586E+04  0.50400001928E-02 0.  1.
       -1   -1    0    0    0  501  0.00000000000E+00  0.00000000000E+00 -0.77160951732E+03  0.77160951734E+03  0.50400001928E-02 0. -1.
    10030    2    1    2    0    0  0.00000000000E+00  0.00000000000E+00  0.81052254131E+03  0.23537415760E+04  0.22097856495E+04 0.  0.
        5    1    3    3  502    0  0.67122112656E+03 -0.63142465986E+03 -0.24398020011E+03  0.95330127969E+03  0.46999998093E+01 0. -1.
       -5    1    3    3    0  502 -0.67122112656E+03  0.63142465986E+03  0.10545027414E+04  0.14004402963E+04  0.46999998093E+01 0.  1.
</event>
<event>
 5   0  0.4630615E-06  0.2199153E+04  0.7818609E-02  0.8518781E-01
       -1   -1    0    0    0  501  0.00000000000E+00  0.00000000000E+00  0.64913403084E+03  0.64913403086E+03  0.50400001928E-02 0. -1.
        1   -1    0    0  501    0  0.00000000000E+00  0.00000000000E+00 -0.18625870872E+04  0.18625870872E+04  0.50400001928E-02 0.  1.
    10030    2    1    2    0    0  0.00000000000E+00  0.00000000000E+00 -0.12134530564E+04  0.25117211181E+04  0.21991531677E+04 0.  0.
        2    1    3    3  502    0  0.53101109298E+03 -0.26503335001E+03  0.45050267721E+03  0.74509604727E+03  0.25500000920E-02 0. -1.
       -2    1    3    3    0  502 -0.53101109298E+03  0.26503335001E+03 -0.16639557336E+04  0.17666250708E+04  0.25500000920E-02 0.  1.
</event>
<event>
 5   0  0.1035928E-05  0.2199785E+04  0.7818609E-02  0.8518518E-01
        2   -1    0    0  501    0  0.00000000000E+00  0.00000000000E+00  0.18032342869E+04  0.18032342869E+04  0.25500000920E-02 0.  1.
       -2   -1    0    0    0  501  0.00000000000E+00  0.00000000000E+00 -0.67088539450E+03  0.67088539450E+03  0.25500000920E-02 0. -1.
    10030    2    1    2    0    0  0.00000000000E+00  0.00000000000E+00  0.11323488924E+04  0.24741196814E+04  0.21997850313E+04 0.  0.
        3    1    3    3  502    0 -0.94216548143E+03  0.24546411510E+03  0.11416864706E+04  0.15004587411E+04  0.10100000352E+00 0.  1.
       -3    1    3    3    0  502  0.94216548143E+03 -0.24546411510E+03 -0.93375782170E+01  0.97366094036E+03  0.10100000352E+00 0. -1.
</event>
<event>
 5   0  0.1015876E-05  0.2196959E+04  0.7818609E-02  0.8519695E-01
       -2   -1    0    0    0  501  0.00000000000E+00  0.00000000000E+00  0.15735852632E+04  0.15735852632E+04  0.25500000920E-02 0.  1.
        2   -1    0    0  501    0  0.00000000000E+00  0.00000000000E+00 -0.76682022051E+03  0.76682022051E+03  0.25500000920E-02 0. -1.
    10030    2    1    2    0    0  0.00000000000E+00  0.00000000000E+00  0.80676504265E+03  0.23404054837E+04  0.21969588057E+04 0.  0.
        5    1    3    3  502    0 -0.25997280523E+03 -0.73021685442E+03  0.12325560699E+04  0.14560285263E+04  0.46999998093E+01 0.  1.
       -5    1    3    3    0  502  0.25997280523E+03  0.73021685442E+03 -0.42579102721E+03  0.88437695741E+03  0.46999998093E+01 0. -1.
</event>
<event>
 5   0  0.1015876E-05  0.2203876E+04  0.7818609E-02  0.8516817E-01
        2   -1    0    0  501    0  0.00000000000E+00  0.00000000000E+00  0.20491196081E+04  0.20491196081E+04  0.25500000920E-02 0.  1.
       -2   -1    0    0    0  501  0.00000000000E+00  0.00000000000E+00 -0.59258005712E+03  0.59258005713E+03  0.25500000920E-02 0. -1.
    10030    2    1    2    0    0  0.00000000000E+00  0.00000000000E+00  0.14565395510E+04  0.26416996652E+04  0.22038760532E+04 0.  0.
        5    1    3    3  502    0 -0.29364796035E+03  0.73338002135E+03  0.16491111390E+04  0.18285691180E+04  0.46999998093E+01 0.  1.
       -5    1    3    3    0  502  0.29364796035E+03 -0.73338002135E+03 -0.19257158807E+03  0.81313054724E+03  0.46999998093E+01 0. -1.
</event>
<event>
 5   0  0.1015876E-05  0.2197025E+04  0.7818609E-02  0.8519668E-01
        2   -1    0    0  501    0  0.00000000000E+00  0.00000000000E+00  0.17229937955E+04  0.17229937955E+04  0.25500000920E-02 0.  1.
       -2   -1    0    0    0  501  0.00000000000E+00  0.00000000000E+00 -0.70036775483E+03  0.70036775484E+03  0.25500000920E-02 0. -1.
    10030    2    1    2    0    0  0.00000000000E+00  0.00000000000E+00  0.10226260406E+04  0.24233615503E+04  0.21970246208E+04 0.  0.
        5    1    3    3  502    0  0.57090814083E+03 -0.89047159165E+03  0.83820803984E+03  0.13496260848E+04  0.46999998093E+01 0. -1.
       -5    1    3    3    0  502 -0.57090814083E+03  0.89047159165E+03  0.18441800078E+03  0.10737354655E+04  0.46999998093E+01 0.  1.
</event>
<event>
 5   0  0.9963573E-06  0.2201525E+04  0.7818609E-02  0.8517794E-01
        2   -1    0    0  501    0  0.00000000000E+00  0.00000000000E+00  0.95390548462E+03  0.95390548463E+03  0.25500000920E-02 0.  1.
       -2   -1    0    0    0  501  0.00000000000E+00  0.00000000000E+00 -0.12702282909E+04  0.12702282909E+04  0.25500000920E-02 0. -1.
    10030    2    1    2    0    0  0.00000000000E+00  0.00000000000E+00 -0.31632280627E+03  0.22241337755E+04  0.22015246839E+04 0.  0.
        2    1    3    3  502    0 -0.74081237278E+03 -0.81323674226E+03 -0.19755885042E+03  0.11176701079E+04  0.25500000920E-02 0. -1.
       -2    1    3    3    0  502  0.74081237278E+03  0.81323674226E+03 -0.11876395585E+03  0.11064636677E+04  0.25500000920E-02 0.  1.
</event>
<event>
 5   0  0.9963173E-06  0.2198943E+04  0.7818609E-02  0.8518868E-01
       -2   -1    0    0    0  501  0.00000000000E+00  0.00000000000E+00  0.12209184681E+04  0.12209184681E+04  0.25500000920E-02 0.  1.
        2   -1    0    0  501    0  0.00000000000E+00  0.00000000000E+00 -0.99010479790E+03  0.99010479791E+03  0.25500000920E-02 0. -1.
    10030    2    1    2    0    0  0.00000000000E+00  0.00000000000E+00  0.23081367016E+03  0.22110232660E+04  0.21989426851E+04 0.  0.
        4    1    3    3  502    0 -0.17031614340E+03  0.90085967128E+02  0.12038103701E+04  0.12191325154E+04  0.12699999809E+01 0.  1.
       -4    1    3    3    0  502  0.17031614340E+03 -0.90085967128E+02 -0.97299669989E+03  0.99189075057E+03  0.12699999809E+01 0. -1.
</event>
<event>
 5   0  0.1035928E-05  0.2207852E+04  0.7818609E-02  0.8515167E-01
        2   -1    0    0  501    0  0.00000000000E+00  0.00000000000E+00  0.19318588134E+04  0.19318588134E+04  0.25500000920E-02 0.  1.
       -2   -1    0    0    0  501  0.00000000000E+00  0.00000000000E+00 -0.63081890840E+03  0.63081890840E+03  0.25500000920E-02 0. -1.
    10030    2    1    2    0    0  0.00000000000E+00  0.00000000000E+00  0.13010399050E+04  0.25626777218E+04  0.22078524116E+04 0.  0.
        3    1    3    3  502    0 -0.10198634617E+04  0.26709203916E+03  0.10305413212E+04  0.14742710276E+04  0.10100000352E+00 0. -1.
       -3    1    3    3    0  502  0.10198634617E+04 -0.26709203916E+03  0.27049858387E+03  0.10884066942E+04  0.10100000352E+00 0.  1.
</event>
<event>
 5   0  0.1015876E-05  0.2199925E+04  0.7818609E-02  0.8518459E-01
       -2   -1    0    0    0  501  0.00000000000E+00  0.00000000000E+00  0.94998803907E+03  0.94998803908E+03  0.25500000920E-02 0. -1.
        2   -1    0    0  501    0  0.00000000000E+00  0.00000000000E+00 -0.12736130501E+04  0.12736130501E+04  0.25500000920E-02 0.  1.
    10030    2    1    2    0    0  0.00000000000E+00  0.00000000000E+00 -0.32362501107E+03  0.22236010892E+04  0.21999246933E+04 0.  0.
        5    1    3    3  502    0 -0.39116502914E+03 -0.78895264195E+03  0.50440083923E+03  0.10148392227E+04  0.46999998093E+01 0. -1.
       -5    1    3    3    0  502  0.39116502914E+03  0.78895264195E+03 -0.82802585030E+03  0.12087618666E+04  0.46999998093E+01 0.  1.
</event>
<event>
 5   0  0.9963173E-06  0.2199211E+04  0.7818609E-02  0.8518757E-01
       -2   -1    0    0    0  501  0.00000000000E+00  0.00000000000E+00  0.55216123553E+03  0.55216123553E+03  0.25500000920E-02 0.  1.
        2   -1    0    0  501    0  0.00000000000E+00  0.00000000000E+00 -0.21898174296E+04  0.21898174296E+04  0.25500000920E-02 0. -1.
    10030    2    1    2    0    0  0.00000000000E+00  0.00000000000E+00 -0.16376561941E+04  0.27419786651E+04  0.21992110381E+04 0.  0.
        4    1    3    3  502    0  0.59614901366E+03  0.17094341910E+02  0.33299262756E+03  0.68306044090E+03  0.12699999809E+01 0.  1.
       -4    1    3    3    0  502 -0.59614901366E+03 -0.17094341910E+02 -0.19706488216E+04  0.20589182242E+04  0.12699999809E+01 0. -1.
</event>
<event>
 5   0  0.3546750E-06  0.2200339E+04  0.7818609E-02  0.8518287E-01
       -3   -1    0    0    0  501  0.00000000000E+00  0.00000000000E+00  0.26568360054E+04  0.26568360073E+04  0.10100000352E+00 0. -1.
        3   -1    0    0  501    0  0.00000000000E+00  0.00000000000E+00 -0.45556911054E+03  0.45556912174E+03  0.10100000352E+00 0.  1.
    10030    2    1    2    0    0  0.00000000000E+00  0.00000000000E+00  0.22012668948E+04  0.31124051290E+04  0.22003385523E+04 0.  0.
        1    1    3    3  502    0  0.95490731537E+03 -0.51218446451E+03  0.83153568701E+03  0.13658815854E+04  0.50400001928E-02 0. -1.
       -1    1    3    3    0  502 -0.95490731537E+03  0.51218446451E+03  0.13697312078E+04  0.17465235436E+04  0.50400001928E-02 0.  1.
</event>
<event>
 5   0  0.1014015E-05  0.2205100E+04  0.7818609E-02  0.8516308E-01
        2   -1    0    0  501    0  0.00000000000E+00  0.00000000000E+00  0.18168406137E+04  0.18168406137E+04  0.25500000920E-02 0.  1.
       -2   -1    0    0    0  501  0.00000000000E+00  0.00000000000E+00 -0.66908275833E+03  0.66908275833E+03  0.25500000920E-02 0. -1.
    10030    2    1    2    0    0  0.00000000000E+00  0.00000000000E+00  0.11477578554E+04  0.24859233721E+04  0.22051002057E+04 0.  0.
        1    1    3    3  502    0 -0.83929559097E+03 -0.48630780252E+03 -0.16991405365E+02  0.97015518125E+03  0.50400001928E-02 0. -1.
       -1    1    3    3    0  502  0.83929559097E+03  0.48630780252E+03  0.11647492608E+04  0.15157681908E+04  0.50400001928E-02 0.  1.
</event>
<event>
 5   0  0.4630615E-06  0.2138609E+04  0.7818609E-02  0.8544424E-01
       -1   -1    0    0    0  501  0.00000000000E+00  0.00000000000E+00  0.11693527951E+04  0.11693527951E+04  0.50400001928E-02 0.  1.
        1   -1    0    0  501    0  0.00000000000E+00  0.00000000000E+00 -0.97781652519E+03  0.97781652521E+03  0.50400001928E-02 0. -1.
    10030    2    1    2    0    0  0.00000000000E+00  0.00000000000E+00  0.19153626986E+03  0.21471693203E+04  0.21386093489E+04 0.  0.
        2    1    3    3  502    0 -0.30356470649E+03  0.43806689909E+03  0.10264944263E+04  0.11566092453E+04  0.25500000920E-02 0.  1.
       -2    1    3    3    0  502  0.30356470649E+03 -0.43806689909E+03 -0.83495815644E+03  0.99056007496E+03  0.25500000920E-02 0. -1.
</event>
<event>
 5   0  0.1035928E-05  0.2208229E+04  0.7818609E-02  0.8515011E-01
        2   -1    0    0  501    0  0.00000000000E+00  0.00000000000E+00  0.83809785696E+03  0.83809785696E+03  0.25500000920E-02 0. -1.
       -2   -1    0    0    0  501  0.00000000000E+00  0.00000000000E+00 -0.14545658353E+04  0.14545658353E+04  0.25500000920E-02 0.  1.
    10030    2    1    2    0    0  0.00000000000E+00  0.00000000000E+00 -0.61646797833E+03  0.22926636922E+04  0.22082287104E+04 0.  0.
        3    1    3    3  502    0 -0.67026867571E+03 -0.16407881562E+02 -0.12190101826E+04  0.13912279295E+04  0.10100000352E+00 0.  1.
       -3    1    3    3    0  502  0.67026867571E+03  0.16407881562E+02  0.60254220430E+03  0.90143576276E+03  0.10100000352E+00 0. -1.
</event>
<event>
 5   0  0.4309945E-06  0.2196823E+04  0.7818609E-02  0.8519751E-01
       -1   -1    0    0    0  501  0.00000000000E+00  0.00000000000E+00  0.13397438330E+04  0.13397438330E+04  0.50400001928E-02 0.  1.
        1   -1    0    0  501    0  0.00000000000E+00  0.00000000000E+00 -0.90055149475E+03  0.90055149476E+03  0.50400001928E-02 0. -1.
    10030    2    1    2    0    0  0.00000000000E+00  0.00000000000E+00  0.43919233822E+03  0.22402953277E+04  0.21968234443E+04 0.  0.
        4    1    3    3  502    0 -0.58933411061E+03 -0.56666321683E+03 -0.52846219266E+03  0.97349668577E+03  0.12699999809E+01 0. -1.
       -4    1    3    3    0  502  0.58933411061E+03  0.56666321683E+03  0.96765453088E+03  0.12667986420E+04  0.12699999809E+01 0.  1.
</event>
<event>
 5   0  0.4408787E-06  0.2211378E+04  0.7818609E-02  0.8513707E-01
        1   -1    0    0  501    0  0.00000000000E+00  0.00000000000E+00  0.10634168618E+04  0.10634168619E+04  0.50400001928E-02 0.  1.
       -1   -1    0    0    0  501  0.00000000000E+00  0.00000000000E+00 -0.11496414508E+04  0.11496414508E+04  0.50400001928E-02 0. -1.
    10030    2    1    2    0    0  0.00000000000E+00  0.00000000000E+00 -0.86224588985E+02  0.22130583127E+04  0.22113779450E+04 0.  0.
        1    1    3    3  502    0 -0.64187670410E+03 -0.85158253633E+03 -0.33548080084E+03  0.11179203403E+04  0.50400001928E-02 0. -1.
       -1    1    3    3    0  502  0.64187670410E+03  0.85158253633E+03  0.24925621185E+03  0.10951379724E+04  0.50400001928E-02 0.  1.
</event>
<event>
 5   0  0.4794967E-06  0.2197416E+04  0.7818609E-02  0.8519504E-01
       -1   -1    0    0    0  501  0.00000000000E+00  0.00000000000E+00  0.93801082105E+03  0.93801082106E+03  0.50400001928E-02 0. -1.
        1   -1    0    0  501    0  0.00000000000E+00  0.00000000000E+00 -0.12869354144E+04  0.12869354145E+04  0.50400001928E-02 0.  1.
    10030    2    1    2    0    0  0.00000000000E+00  0.00000000000E+00 -0.34892459339E+03  0.22249462355E+04  0.21974160687E+04 0.  0.
        5    1    3    3  502    0  0.86740347292E+03  0.10890614539E+03 -0.84829819345E+03  0.12181466448E+04  0.46999998093E+01 0.  1.
       -5    1    3    3    0  502 -0.86740347292E+03 -0.10890614539E+03  0.49937360005E+03  0.10067995907E+04  0.46999998093E+01 0. -1.
</event>
<event>
 5   0  0.9963173E-06  0.2198769E+04  0.7818609E-02  0.8518941E-01
       -2   -1    0    0    0  501  0.00000000000E+00  0.00000000000E+00  0.11581576965E+04  0.11581576965E+04  0.25500000920E-02 0.  1.
        2   -1    0    0  501    0  0.00000000000E+00  0.00000000000E+00 -0.10435934330E+04  0.10435934330E+04  0.25500000920E-02 0. -1.
    10030    2    1    2    0    0  0.00000000000E+00  0.00000000000E+00  0.11456426350E+03  0.22017511294E+04  0.21987685339E+04 0.  0.
        4    1    3    3  502    0  0.90292269940E+03  0.55921217010E+03 -0.22710399346E+03  0.10860780308E+04  0.12699999809E+01 0.  1.
       -4    1    3    3    0  502 -0.90292269940E+03 -0.55921217010E+03  0.34166825696E+03  0.11156730986E+04  0.12699999809E+01 0. -1.
</event>
<event>
 5   0  0.4630615E-06  0.2196170E+04  0.7818609E-02  0.8520024E-01
        1   -1    0    0  501    0  0.00000000000E+00  0.00000000000E+00  0.24139327454E+04  0.24139327454E+04  0.50400001928E-02 0. -1.
       -1   -1    0    0    0  501  0.00000000000E+00  0.00000000000E+00 -0.49951287407E+03  0.49951287410E+03  0.50400001928E-02 0.  1.
    10030    2    1    2    0    0  0.00000000000E+00  0.00000000000E+00  0.19144198713E+04  0.29134456195E+04  0.21961698327E+04 0.  0.
        2    1    3    3  502    0  0.17889818601E+03 -0.82713410607E+03  0.28933634458E+02  0.84675412346E+03  0.25500000920E-02 0.  1.
       -2    1    3    3    0  502 -0.17889818601E+03  0.82713410607E+03  0.18854862369E+04  0.20666914960E+04  0.25500000920E-02 0. -1.
</event>
<event>
 5   0  0.9963573E-06  0.2196364E+04  0.7818609E-02  0.8519943E-01
       -2   -1    0    0    0  501  0.00000000000E+00  0.00000000000E+00  0.10841013314E+04  0.10841013314E+04  0.25500000920E-02 0. -1.
        2   -1    0    0  501    0  0.00000000000E+00  0.00000000000E+00 -0.11124452019E+04  0.11124452019E+04  0.25500000920E-02 0.  1.
    10030    2    1    2    0    0  0.00000000000E+00  0.00000000000E+00 -0.28343870462E+02  0.21965465334E+04  0.21963636535E+04 0.  0.
        2    1    3    3  502    0  0.78586534789E+03  0.76629042173E+03 -0.49074255217E+02  0.10987236404E+04  0.25500000920E-02 0. -1.
       -2    1    3    3    0  502 -0.78586534789E+03 -0.76629042173E+03  0.20730384755E+02  0.10978228930E+04  0.25500000920E-02 0.  1.
</event>
<event>
 5   0  0.1014015E-05  0.2199748E+04  0.7818609E-02  0.8518533E-01
       -2   -1    0    0    0  501  0.00000000000E+00  0.00000000000E+00  0.74504535041E+03  0.74504535042E+03  0.25500000920E-02 0. -1.
        2   -1    0    0  501    0  0.00000000000E+00  0.00000000000E+00 -0.16236900692E+04  0.16236900692E+04  0.25500000920E-02 0.  1.
    10030    2    1    2    0    0  0.00000000000E+00  0.00000000000E+00 -0.87864471880E+03  0.23687354196E+04  0.21997479279E+04 0.  0.
        1    1    3    3  502    0  0.67797097289E+03 -0.67595235433E+02 -0.13690806862E+04  0.15292467693E+04  0.50400001928E-02 0.  1.
       -1    1    3    3    0  502 -0.67797097289E+03  0.67595235433E+02  0.49043596742E+03  0.83948865036E+03  0.50400001928E-02 0. -1.
</event>
<event>
 5   0  0.1015876E-05  0.2200890E+04  0.7818609E-02  0.8518058E-01
       -2   -1    0    0    0  501  0.00000000000E+00  0.00000000000E+00  0.40301535568E+03  0.40301535568E+03  0.25500000920E-02 0.  1.
        2   -1    0    0  501    0  0.00000000000E+00  0.00000000000E+00 -0.30047977175E+04  0.30047977175E+04  0.25500000920E-02 0. -1.
    10030    2    1    2    0    0  0.00000000000E+00  0.00000000000E+00 -0.26017823619E+04  0.34078130732E+04  0.22008903843E+04 0.  0.
        5    1    3    3  502    0  0.58155418652E+03 -0.37982470077E+03  0.20671585548E+02  0.69492552091E+03  0.46999998093E+01 0.  1.
       -5    1    3    3    0  502 -0.58155418652E+03  0.37982470077E+03 -0.26224539474E+04  0.27128875523E+04  0.46999998093E+01 0. -1.
</event>
<event>
 5   0  0.4630615E-06  0.2203067E+04  0.7818609E-02  0.8517153E-01
       -1   -1    0    0    0  501  0.00000000000E+00  0.00000000000E+00  0.89410910048E+03  0.89410910050E+03  0.50400001928E-02 0.  1.
        1   -1    0    0  501    0  0.00000000000E+00  0.00000000000E+00 -0.13570778904E+04  0.13570778904E+04  0.50400001928E-02 0. -1.
    10030    2    1    2    0    0  0.00000000000E+00  0.00000000000E+00 -0.46296878990E+03  0.22511869909E+04  0.22030666734E+04 0.  0.
        2    1    3    3  502    0 -0.96444518567E+03 -0.47216564555E+03 -0.48236862134E+03  0.11771891946E+04  0.25500000920E-02 0.  1.
       -2    1    3    3    0  502  0.96444518567E+03  0.47216564555E+03  0.19399831438E+02  0.10739977963E+04  0.25500000920E-02 0. -1.
</event>
<event>
 5   0  0.4309945E-06  0.2201071E+04  0.7818609E-02  0.8517983E-01
       -1   -1    0    0    0  501  0.00000000000E+00  0.00000000000E+00  0.10426399504E+04  0.10426399504E+04  0.50400001928E-02 0. -1.
        1   -1    0    0  501    0  0.00000000000E+00  0.00000000000E+00 -0.11616453766E+04  0.11616453766E+04  0.50400001928E-02 0.  1.
    10030    2    1    2    0    0  0.00000000000E+00  0.00000000000E+00 -0.11900542620E+03  0.22042853270E+04  0.22010705376E+04 0.  0.
        4    1    3    3  502    0  0.22537151133E+03 -0.10126584412E+04  0.30833039360E+03  0.10822840113E+04  0.12699999809E+01 0. -1.
       -4    1    3    3    0  502 -0.22537151133E+03  0.10126584412E+04 -0.42733581979E+03  0.11220013157E+04  0.12699999809E+01 0.  1.
</event>
<event>
 5   0  0.9963173E-06  0.2201392E+04  0.7818609E-02  0.8517849E-01
        2   -1    0    0  501    0  0.00000000000E+00  0.00000000000E+00  0.12182919868E+04  0.12182919868E+04  0.25500000920E-02 0.  1.
       -2   -1    0    0    0  501  0.00000000000E+00  0.00000000000E+00 -0.99445072466E+03  0.99445072466E+03  0.25500000920E-02 0. -1.
    10030    2    1    2    0    0  0.00000000000E+00  0.00000000000E+00  0.22384126215E+03  0.22127427115E+04  0.22013916954E+04 0.  0.
        4    1    3    3  502    0 -0.53729841073E+03  0.95577852298E+03  0.14843299094E+02  0.10965510036E+04  0.12699999809E+01 0.  1.
       -4    1    3    3    0  502  0.53729841073E+03 -0.95577852298E+03  0.20899796305E+03  0.11161917078E+04  0.12699999809E+01 0. -1.
</event>
<event>
 5   0  0.1035928E-05  0.2134602E+04  0.7818609E-02  0.8546152E-01
        2   -1    0    0  501    0  0.00000000000E+00  0.00000000000E+00  0.10431884272E+04  0.10431884272E+04  0.25500000920E-02 0.  1.
       -2   -1    0    0    0  501  0.00000000000E+00  0.00000000000E+00 -0.10919711563E+04  0.10919711563E+04  0.25500000920E-02 0. -1.
    10030    2    1    2    0    0  0.00000000000E+00  0.00000000000E+00 -0.48782729086E+02  0.21351595834E+04  0.21346022327E+04 0.  0.
        3    1    3    3  502    0  0.95433465252E+02 -0.40722422403E+03  0.95779808786E+03  0.10451393698E+04  0.10100000352E+00 0.  1.
       -3    1    3    3    0  502 -0.95433465252E+02  0.40722422403E+03 -0.10065808170E+04  0.10900202137E+04  0.10100000352E+00 0. -1.
</event>
<event>
 5   0  0.4408787E-06  0.2205737E+04  0.7818609E-02  0.8516044E-01
        1   -1    0    0  501    0  0.00000000000E+00  0.00000000000E+00  0.14152702486E+04  0.14152702486E+04  0.50400001928E-02 0.  1.
       -1   -1    0    0    0  501  0.00000000000E+00  0.00000000000E+00 -0.85942510626E+03  0.85942510627E+03  0.50400001928E-02 0. -1.
    10030    2    1    2    0    0  0.00000000000E+00  0.00000000000E+00  0.55584514233E+03  0.22746953549E+04  0.22057368690E+04 0.  0.
        1    1    3    3  502    0  0.56996663385E+03 -0.13839061626E+03 -0.68524906241E+03  0.90198680917E+03  0.50400001928E-02 0. -1.
       -1    1    3    3    0  502 -0.56996663385E+03  0.13839061626E+03  0.12410942047E+04  0.13727085457E+04  0.50400001928E-02 0.  1.
</event>
<event>
 5   0  0.4408787E-06  0.2197806E+04  0.7818609E-02  0.8519342E-01
       -1   -1    0    0    0  501  0.00000000000E+00  0.00000000000E+00  0.11113794869E+04  0.11113794869E+04  0.50400001928E-02 0.  1.
        1   -1    0    0  501    0  0.00000000000E+00  0.00000000000E+00 -0.10865662466E+04  0.10865662466E+04  0.50400001928E-02 0. -1.
    10030    2    1    2    0    0  0.00000000000E+00  0.00000000000E+00  0.24813240340E+02  0.21979457335E+04  0.21978056672E+04 0.  0.
        1    1    3    3  502    0  0.53474106698E+03 -0.76167578172E+03 -0.57200159345E+03  0.10923753147E+04  0.50400001928E-02 0.  1.
       -1    1    3    3    0  502 -0.53474106698E+03  0.76167578172E+03  0.59681483379E+03  0.11055704188E+04  0.50400001928E-02 0. -1.
</event>
<event>
 5   0  0.4630615E-06  0.2199464E+04  0.7818609E-02  0.8518651E-01
       -1   -1    0    0    0  501  0.00000000000E+00  0.00000000000E+00  0.73507436202E+03  0.73507436203E+03  0.50400001928E-02 0.  1.
        1   -1    0    0  501    0  0.00000000000E+00  0.00000000000E+00 -0.16452895792E+04  0.16452895792E+04  0.50400001928E-02 0. -1.
    10030    2    1    2    0    0  0.00000000000E+00  0.00000000000E+00 -0.91021521720E+03  0.23803639413E+04  0.21994637417E+04 0.  0.
        2    1    3    3  502    0  0.10427243220E+03 -0.92417216434E+03  0.18005569693E+03  0.94730511635E+03  0.25500000920E-02 0.  1.
       -2    1    3    3    0  502 -0.10427243220E+03  0.92417216434E+03 -0.10902709141E+04  0.14330588249E+04  0.25500000920E-02 0. -1.
</event>
<event>
 5   0  0.4630615E-06  0.2202062E+04  0.7818609E-02  0.8517570E-01
       -1   -1    0    0    0  501  0.00000000000E+00  0.00000000000E+00  0.54176902447E+03  0.54176902450E+03  0.50400001928E-02 0.  1.
        1   -1    0    0  501    0  0.00000000000E+00  0.00000000000E+00 -0.22376124299E+04  0.22376124300E+04  0.50400001928E-02 0. -1.
    10030    2    1    2    0    0  0.00000000000E+00  0.00000000000E+00 -0.16958434055E+04  0.27793814544E+04  0.22020618550E+04 0.  0.
        2    1    3    3  502    0 -0.65081283300E+03  0.31487257979E+03  0.20018833914E+03  0.75018494802E+03  0.25500000920E-02 0.  1.
       -2    1    3    3    0  502  0.65081283300E+03 -0.31487257979E+03 -0.18960317446E+04  0.20291965064E+04  0.25500000920E-02 0. -1.
</event>
<event>
 5   0  0.1015876E-05  0.2199685E+04  0.7818609E-02  0.8518559E-01
       -2   -1    0    0    0  501  0.00000000000E+00  0.00000000000E+00  0.98832700764E+03  0.98832700764E+03  0.25500000920E-02 0.  1.
        2   -1    0    0  501    0  0.00000000000E+00  0.00000000000E+00 -0.12239406837E+04  0.12239406837E+04  0.25500000920E-02 0. -1.
    10030    2    1    2    0    0  0.00000000000E+00  0.00000000000E+00 -0.23561367602E+03  0.22122676913E+04  0.21996850988E+04 0.  0.
        5    1    3    3  502    0  0.87738939469E+03 -0.14919479032E+03  0.53207854437E+03  0.10369189471E+04  0.46999998093E+01 0.  1.
       -5    1    3    3    0  502 -0.87738939469E+03  0.14919479032E+03 -0.76769222039E+03  0.11753487443E+04  0.46999998093E+01 0. -1.
</event>
<event>
 5   0  0.4794967E-06  0.2201036E+04  0.7818609E-02  0.8517997E-01
        1   -1    0    0  501    0  0.00000000000E+00  0.00000000000E+00  0.11004909427E+04  0.11004909427E+04  0.50400001928E-02 0. -1.
       -1   -1    0    0    0  501  0.00000000000E+00  0.00000000000E+00 -0.11005450125E+04  0.11005450125E+04  0.50400001928E-02 0.  1.
    10030    2    1    2    0    0  0.00000000000E+00  0.00000000000E+00 -0.54069784232E-01  0.22010359552E+04  0.22010359545E+04 0.  0.
        5    1    3    3  502    0  0.73774584950E+03 -0.76980194694E+03 -0.27252245206E+03  0.11005246716E+04  0.46999998093E+01 0. -1.
       -5    1    3    3    0  502 -0.73774584950E+03  0.76980194694E+03  0.27246838227E+03  0.11005112836E+04  0.46999998093E+01 0.  1.
</event>
<event>
 5   0  0.4462201E-06  0.2198423E+04  0.7818609E-02  0.8519085E-01
        1   -1    0    0  501    0  0.00000000000E+00  0.00000000000E+00  0.17423336041E+04  0.17423336041E+04  0.50400001928E-02 0.  1.
       -1   -1    0    0    0  501  0.00000000000E+00  0.00000000000E+00 -0.69347577578E+03  0.69347577580E+03  0.50400001928E-02 0. -1.
    10030    2    1    2    0    0  0.00000000000E+00  0.00000000000E+00  0.10488578283E+04  0.24358093799E+04  0.21984232057E+04 0.  0.
        3    1    3    3  502    0  0.10367461592E+04  0.36499263189E+03  0.50860698922E+03  0.12110917801E+04  0.10100000352E+00 0. -1.
       -3    1    3    3    0  502 -0.10367461592E+04 -0.36499263189E+03  0.54025083911E+03  0.12247175999E+04  0.10100000352E+00 0.  1.
</event>
<event>
 5   0  0.4794967E-06  0.2207402E+04  0.7818609E-02  0.8515354E-01
        1   -1    0    0  501    0  0.00000000000E+00  0.00000000000E+00  0.18208108393E+04  0.18208108393E+04  0.50400001928E-02 0.  1.
       -1   -1    0    0    0  501  0.00000000000E+00  0.00000000000E+00 -0.66901834393E+03  0.66901834395E+03  0.50400001928E-02 0. -1.
    10030    2    1    2    0    0  0.00000000000E+00  0.00000000000E+00  0.11517924954E+04  0.24898291833E+04  0.22074019592E+04 0.  0.
        5    1    3    3  502    0 -0.15878290655E+03 -0.16981028618E+03 -0.64107607983E+03  0.68194440744E+03  0.46999998093E+01 0. -1.
       -5    1    3    3    0  502  0.15878290655E+03  0.16981028618E+03  0.17928685752E+04  0.18078847758E+04  0.46999998093E+01 0.  1.
</event>
<event>
 5   0  0.4309945E-06  0.2199327E+04  0.7818609E-02  0.8518708E-01
        1   -1    0    0  501    0  0.00000000000E+00  0.00000000000E+00  0.22062910095E+04  0.22062910096E+04  0.50400001928E-02 0.  1.
       -1   -1    0    0    0  501  0.00000000000E+00  0.00000000000E+00 -0.54809610634E+03  0.54809610636E+03  0.50400001928E-02 0. -1.
    10030    2    1    2    0    0  0.00000000000E+00  0.00000000000E+00  0.16581949032E+04  0.27543871159E+04  0.21993267259E+04 0.  0.
        4    1    3    3  502    0  0.70133486779E+03 -0.83833643529E+03  0.67787930474E+03  0.12861572766E+04  0.12699999809E+01 0. -1.
       -4    1    3    3    0  502 -0.70133486779E+03  0.83833643529E+03  0.98031559847E+03  0.14682298393E+04  0.12699999809E+01 0.  1.
</event>
<event>
 5   0  0.9963573E-06  0.2204401E+04  0.7818609E-02  0.8516599E-01
       -2   -1    0    0    0  501  0.00000000000E+00  0.00000000000E+00  0.72811596140E+03  0.72811596141E+03  0.25500000920E-02 0.  1.
        2   -1    0    0  501    0  0.00000000000E+00  0.00000000000E+00 -0.16684786219E+04  0.16684786219E+04  0.25500000920E-02 0. -1.
    10030    2    1    2    0    0  0.00000000000E+00  0.00000000000E+00 -0.94036266051E+03  0.23965945833E+04  0.22044009761E+04 0.  0.
        2    1    3    3  502    0  0.61512533842E+03  0.71414555055E+03  0.15100354599E+03  0.95456017110E+03  0.25500000920E-02 0. -1.
       -2    1    3    3    0  502 -0.61512533842E+03 -0.71414555055E+03 -0.10913662065E+04  0.14420344122E+04  0.25500000920E-02 0.  1.
</event>
<event>
 5   0  0.1014015E-05  0.2206364E+04  0.7818609E-02  0.8515784E-01
       -2   -1    0    0    0  501  0.00000000000E+00  0.00000000000E+00  0.82667972733E+03  0.82667972734E+03  0.25500000920E-02 0. -1.
        2   -1    0    0  501    0  0.00000000000E+00  0.00000000000E+00 -0.14721669583E+04  0.14721669583E+04  0.25500000920E-02 0.  1.
    10030    2    1    2    0    0  0.00000000000E+00  0.00000000000E+00 -0.64548723094E+03  0.22988466856E+04  0.22063640494E+04 0.  0.
        1    1    3    3  502    0 -0.93548698563E+03 -0.54342885399E+03 -0.54756530248E+03  0.12125504444E+04  0.50400001928E-02 0.  1.
       -1    1    3    3    0  502  0.93548698563E+03  0.54342885399E+03 -0.97921928465E+02  0.10862962412E+04  0.50400001928E-02 0. -1.
</event>
<event>
 5   0  0.4794967E-06  0.2197414E+04  0.7818609E-02  0.8519505E-01
       -1   -1    0    0    0  501  0.00000000000E+00  0.00000000000E+00  0.93274700657E+03  0.93274700658E+03  0.50400001928E-02 0. -1.
        1   -1    0    0  501    0  0.00000000000E+00  0.00000000000E+00 -0.12941954596E+04  0.12941954596E+04  0.50400001928E-02 0.  1.
    10030    2    1    2    0    0  0.00000000000E+00  0.00000000000E+00 -0.36144845298E+03  0.22269424661E+04  0.21974138808E+04 0.  0.
        5    1    3    3  502    0 -0.32099282770E+03  0.14896073703E+03  0.87340178772E+03  0.94237915374E+03  0.46999998093E+01 0. -1.
       -5    1    3    3    0  502  0.32099282770E+03 -0.14896073703E+03 -0.12348502407E+04  0.12845633124E+04  0.46999998093E+01 0.  1.
</event>
<event>
 5   0  0.4630615E-06  0.2201646E+04  0.7818609E-02  0.8517743E-01
       -1   -1    0    0    0  501  0.00000000000E+00  0.00000000000E+00  0.12578749129E+04  0.12578749129E+04  0.50400001928E-02 0. -1.
        1   -1    0    0  501    0  0.00000000000E+00  0.00000000000E+00 -0.96337958598E+03  0.96337958600E+03  0.50400001928E-02 0.  1.
    10030    2    1    2    0    0  0.00000000000E+00  0.00000000000E+00  0.29449532689E+03  0.22212544989E+04  0.22016457597E+04 0.  0.
        2    1    3    3  502    0 -0.42482333313E+02  0.13277027663E+03  0.12489338710E+04  0.12566895039E+04  0.25500000920E-02 0. -1.
       -2    1    3    3    0  502  0.42482333313E+02 -0.13277027663E+03 -0.95443854414E+03  0.96456499498E+03  0.25500000920E-02 0.  1.
</event>
<event>
 5   0  0.4462201E-06  0.2200474E+04  0.7818609E-02  0.8518231E-01
       -1   -1    0    0    0  501  0.00000000000E+00  0.00000000000E+00  0.77878869185E+03  0.77878869187E+03  0.50400001928E-02 0. -1.
        1   -1    0    0  501    0  0.00000000000E+00  0.00000000000E+00 -0.15543645601E+04  0.15543645601E+04  0.50400001928E-02 0.  1.
    10030    2    1    2    0    0  0.00000000000E+00  0.00000000000E+00 -0.77557586820E+03  0.23331532519E+04  0.22004740784E+04 0.  0.
        3    1    3    3  502    0 -0.94311122074E+03 -0.49776624398E+03 -0.10074035726E+03  0.10711576159E+04  0.10100000352E+00 0. -1.
       -3    1    3    3    0  502  0.94311122074E+03  0.49776624398E+03 -0.67483551095E+03  0.12619956360E+04  0.10100000352E+00 0.  1.
</event>
<event>
 5   0  0.9963573E-06  0.2201178E+04  0.7818609E-02  0.8517938E-01
       -2   -1    0    0    0  501  0.00000000000E+00  0.00000000000E+00  0.53012398131E+03  0.53012398132E+03  0.25500000920E-02 0.  1.
        2   -1    0    0  501    0  0.00000000000E+00  0.00000000000E+00 -0.22849306138E+04  0.22849306138E+04  0.25500000920E-02 0. -1.
    10030    2    1    2    0    0  0.00000000000E+00  0.00000000000E+00 -0.17548066325E+04  0.28150545952E+04  0.22011783336E+04 0.  0.
        2    1    3    3  502    0 -0.10870598042E+04 -0.92419230922E+02 -0.69182748935E+03  0.12918458140E+04  0.25500000920E-02 0.  1.
       -2    1    3    3    0  502  0.10870598042E+04  0.92419230922E+02 -0.10629791432E+04  0.15232087812E+04  0.25500000920E-02 0. -1.
</event>
<event>
 5   0  0.1014015E-05  0.2200481E+04  0.7818609E-02  0.8518228E-01
       -2   -1    0    0    0  501  0.00000000000E+00  0.00000000000E+00  0.66740601452E+03  0.66740601453E+03  0.25500000920E-02 0. -1.
        2   -1    0    0  501    0  0.00000000000E+00  0.00000000000E+00 -0.18137825510E+04  0.18137825510E+04  0.25500000920E-02 0.  1.
    10030    2    1    2    0    0  0.00000000000E+00  0.00000000000E+00 -0.11463765365E+04  0.24811885655E+04  0.22004812052E+04 0.  0.
        1    1    3    3  502    0  0.10960432960E+04 -0.12167943440E+02 -0.46580026663E+03  0.11909781081E+04  0.50400001928E-02 0.  1.
       -1    1    3    3    0  502 -0.10960432960E+04  0.12167943440E+02 -0.68057626985E+03  0.12902104575E+04  0.50400001928E-02 0. -1.
</event>
<event>
 5   0  0.4408787E-06  0.2200125E+04  0.7818609E-02  0.8518376E-01
       -1   -1    0    0    0  501  0.00000000000E+00  0.00000000000E+00  0.86791180529E+03  0.86791180530E+03  0.50400001928E-02 0. -1.
        1   -1    0    0  501    0  0.00000000000E+00  0.00000000000E+00 -0.13943087744E+04  0.13943087744E+04  0.50400001928E-02 0.  1.
    10030    2    1    2    0    0  0.00000000000E+00  0.00000000000E+00 -0.52639696914E+03  0.22622205797E+04  0.22001245834E+04 0.  0.
        1    1    3    3  502    0 -0.72343152182E+03  0.36594094988E+03 -0.10277374414E+04  0.13090111512E+04  0.50400001928E-02 0.  1.
       -1    1    3    3    0  502  0.72343152182E+03 -0.36594094988E+03  0.50134047221E+03  0.95320942855E+03  0.50400001928E-02 0. -1.
</event>
<event>
 5   0  0.9963573E-06  0.2204583E+04  0.7818609E-02  0.8516523E-01
       -2   -1    0    0    0  501  0.00000000000E+00  0.00000000000E+00  0.95563371269E+03  0.95563371270E+03  0.25500000920E-02 0. -1.
        2   -1    0    0  501    0  0.00000000000E+00  0.00000000000E+00 -0.12714560392E+04  0.12714560392E+04  0.25500000920E-02 0.  1.
    10030    2    1    2    0    0  0.00000000000E+00  0.00000000000E+00 -0.31582232654E+03  0.22270897519E+04  0.22045827318E+04 0.  0.
        2    1    3    3  502    0 -0.11354270136E+03 -0.92033016036E+03 -0.75993711616E+03  0.11989178327E+04  0.25500000920E-02 0.  1.
       -2    1    3    3    0  502  0.11354270136E+03  0.92033016036E+03  0.44411478962E+03  0.10281719192E+04  0.25500000920E-02 0. -1.
</event>
<event>
 5   0  0.4309945E-06  0.2195407E+04  0.7818609E-02  0.8520342E-01
        1   -1    0    0  501    0  0.00000000000E+00  0.00000000000E+00  0.18260647444E+04  0.18260647444E+04  0.50400001928E-02 0.  1.
       -1   -1    0    0    0  501  0.00000000000E+00  0.00000000000E+00 -0.65986335426E+03  0.65986335428E+03  0.50400001928E-02 0. -1.
    10030    2    1    2    0    0  0.00000000000E+00  0.00000000000E+00  0.11662013901E+04  0.24859280987E+04  0.21954072127E+04 0.  0.
        4    1    3    3  502    0  0.18606106415E+03  0.10545640241E+04  0.85633668259E+03  0.13711448236E+04  0.12699999809E+01 0.  1.
       -4    1    3    3    0  502 -0.18606106415E+03 -0.10545640241E+04  0.30986470756E+03  0.11147832751E+04  0.12699999809E+01 0. -1.
</event>
<event>
 5   0  0.4462201E-06  0.2201277E+04  0.7818609E-02  0.8517897E-01
       -1   -1    0    0    0  501  0.00000000000E+00  0.00000000000E+00  0.72732919826E+03  0.72732919828E+03  0.50400001928E-02 0. -1.
        1   -1    0    0  501    0  0.00000000000E+00  0.00000000000E+00 -0.16655524819E+04  0.16655524819E+04  0.50400001928E-02 0.  1.
    10030    2    1    2    0    0  0.00000000000E+00  0.00000000000E+00 -0.93822328361E+03  0.23928816802E+04  0.22012768579E+04 0.  0.
        3    1    3    3  502    0  0.71544531217E+02 -0.96676376382E+03 -0.10356831434E+04  0.14185874590E+04  0.10100000352E+00 0.  1.
       -3    1    3    3    0  502 -0.71544531217E+02  0.96676376382E+03  0.97459859797E+02  0.97429422119E+03  0.10100000352E+00 0. -1.
</event>
<event>
 5   0  0.1015876E-05  0.2199098E+04  0.7818609E-02  0.8518804E-01
        2   -1    0    0  501    0  0.00000000000E+00  0.00000000000E+00  0.98043305305E+03  0.98043305305E+03  0.25500000920E-02 0.  1.
       -2   -1    0    0    0  501  0.00000000000E+00  0.00000000000E+00 -0.12331367612E+04  0.12331367612E+04  0.25500000920E-02 0. -1.
    10030    2    1    2    0    0  0.00000000000E+00  0.00000000000E+00 -0.25270370814E+03  0.22135698142E+04  0.21990980329E+04 0.  0.
        5    1    3    3  502    0 -0.32967139642E+03  0.62898041694E+03 -0.97133211720E+03  0.12032488381E+04  0.46999998093E+01 0. -1.
       -5    1    3    3    0  502  0.32967139642E+03 -0.62898041694E+03  0.71862840906E+03  0.10103209761E+04  0.46999998093E+01 0.  1.
</event>
<event>
 5   0  0.9963573E-06  0.2198872E+04  0.7818609E-02  0.8518898E-01
        2   -1    0    0  501    0  0.00000000000E+00  0.00000000000E+00  0.10087514645E+04  0.10087514645E+04  0.25500000920E-02 0. -1.
       -2   -1    0    0    0  501  0.00000000000E+00  0.00000000000E+00 -0.11982729360E+04  0.11982729360E+04  0.25500000920E-02 0.  1.
    10030    2    1    2    0    0  0.00000000000E+00  0.00000000000E+00 -0.18952147154E+03  0.22070244005E+04  0.21988720555E+04 0.  0.
        2    1    3    3  502    0 -0.53227891597E+03  0.10300604457E+03 -0.10547735169E+04  0.11859503622E+04  0.25500000920E-02 0.  1.
       -2    1    3    3    0  502  0.53227891597E+03 -0.10300604457E+03  0.86525204540E+03  0.10210740383E+04  0.25500000920E-02 0. -1.
</event>
<event>
 5   0  0.3546750E-06  0.2206839E+04  0.7818609E-02  0.8515587E-01
       -3   -1    0    0    0  501  0.00000000000E+00  0.00000000000E+00  0.19567143375E+04  0.19567143401E+04  0.10100000352E+00 0.  1.
        3   -1    0    0  501    0  0.00000000000E+00  0.00000000000E+00 -0.62223436438E+03  0.62223437258E+03  0.10100000352E+00 0. -1.
    10030    2    1    2    0    0  0.00000000000E+00  0.00000000000E+00  0.13344799731E+04  0.25789487126E+04  0.22068392927E+04 0.  0.
        4    1    3    3  502    0  0.70700095982E+03  0.82454782586E+03  0.89445649985E+03  0.14070478021E+04  0.12699999809E+01 0.  1.
       -4    1    3    3    0  502 -0.70700095982E+03 -0.82454782586E+03  0.44002347324E+03  0.11719009106E+04  0.12699999809E+01 0. -1.
</event>
<event>
 5   0  0.4794967E-06  0.2176699E+04  0.7818609E-02  0.8528189E-01
        1   -1    0    0  501    0  0.00000000000E+00  0.00000000000E+00  0.27149998721E+04  0.27149998721E+04  0.50400001928E-02 0.  1.
       -1   -1    0    0    0  501  0.00000000000E+00  0.00000000000E+00 -0.43628181267E+03  0.43628181270E+03  0.50400001928E-02 0. -1.
    10030    2    1    2    0    0  0.00000000000E+00  0.00000000000E+00  0.22787180594E+04  0.31512816848E+04  0.21766993965E+04 0.  0.
        5    1    3    3  502    0  0.13346515376E+03  0.78489430875E+02 -0.42024054044E+03  0.44788139039E+03  0.46999998093E+01 0. -1.
       -5    1    3    3    0  502 -0.13346515376E+03 -0.78489430875E+02  0.26989585998E+04  0.27034002944E+04  0.46999998093E+01 0.  1.
</event>
<event>
 5   0  0.4630615E-06  0.2189424E+04  0.7818609E-02  0.8522843E-01
       -1   -1    0    0    0  501  0.00000000000E+00  0.00000000000E+00  0.74880664607E+03  0.74880664608E+03  0.50400001928E-02 0.  1.
        1   -1    0    0  501    0  0.00000000000E+00  0.00000000000E+00 -0.16004062485E+04  0.16004062485E+04  0.50400001928E-02 0. -1.
    10030    2    1    2    0    0  0.00000000000E+00  0.00000000000E+00 -0.85159960242E+03  0.23492128946E+04  0.21894244315E+04 0.  0.
        2    1    3    3  502    0  0.48583532897E+03 -0.93008541296E+03 -0.91105112529E+02  0.10532782082E+04  0.25500000920E-02 0.  1.
       -2    1    3    3    0  502 -0.48583532897E+03  0.93008541296E+03 -0.76049448989E+03  0.12959346864E+04  0.25500000920E-02 0. -1.
</event>
<event>
 5   0  0.4408787E-06  0.2197887E+04  0.7818609E-02  0.8519308E-01
       -1   -1    0    0    0  501  0.00000000000E+00  0.00000000000E+00  0.22946614307E+04  0.22946614307E+04  0.50400001928E-02 0. -1.
        1   -1    0    0  501    0  0.00000000000E+00  0.00000000000E+00 -0.52629831861E+03  0.52629831863E+03  0.50400001928E-02 0.  1.
    10030    2    1    2    0    0  0.00000000000E+00  0.00000000000E+00  0.17683631121E+04  0.28209597494E+04  0.21978866693E+04 0.  0.
        1    1    3    3  502    0 -0.59062464386E+03 -0.55649687815E+02 -0.30312548307E+03  0.66619773055E+03  0.50400001928E-02 0.  1.
       -1    1    3    3    0  502  0.59062464386E+03  0.55649687815E+02  0.20714885952E+04  0.21547620188E+04  0.50400001928E-02 0. -1.
</event>
<event>
 5   0  0.9963573E-06  0.2200469E+04  0.7818609E-02  0.8518233E-01
       -2   -1    0    0    0  501  0.00000000000E+00  0.00000000000E+00  0.10661984503E+04  0.10661984503E+04  0.25500000920E-02 0. -1.
        2   -1    0    0  501    0  0.00000000000E+00  0.00000000000E+00 -0.11353570421E+04  0.11353570421E+04  0.25500000920E-02 0.  1.
    10030    2    1    2    0    0  0.00000000000E+00  0.00000000000E+00 -0.69158591796E+02  0.22015554923E+04  0.22004689671E+04 0.  0.
        2    1    3    3  502    0 -0.54076176077E+03  0.19025097638E+03 -0.97413681216E+03  0.11302925483E+04  0.25500000920E-02 0.  1.
       -2    1    3    3    0  502  0.54076176077E+03 -0.19025097638E+03  0.90497822036E+03  0.10712629440E+04  0.25500000920E-02 0. -1.
</event>
<event>
 5   0  0.4408787E-06  0.2199299E+04  0.7818609E-02  0.8518720E-01
       -1   -1    0    0    0  501  0.00000000000E+00  0.00000000000E+00  0.17753849014E+04  0.17753849014E+04  0.50400001928E-02 0. -1.
        1   -1    0    0  501    0  0.00000000000E+00  0.00000000000E+00 -0.68110781130E+03  0.68110781132E+03  0.50400001928E-02 0.  1.
    10030    2    1    2    0    0  0.00000000000E+00  0.00000000000E+00  0.10942770901E+04  0.24564927128E+04  0.21992985468E+04 0.  0.
        1    1    3    3  502    0 -0.55236080927E+03 -0.20587373482E+03  0.15839981132E+04  0.16901291314E+04  0.50400001928E-02 0. -1.
       -1    1    3    3    0  502  0.55236080927E+03  0.20587373482E+03 -0.48972102307E+03  0.76636358131E+03  0.50400001928E-02 0.  1.
</event>
<event>
 5   0  0.1015876E-05  0.2198003E+04  0.7818609E-02  0.8519260E-01
       -2   -1    0    0    0  501  0.00000000000E+00  0.00000000000E+00  0.58658311729E+03  0.58658311730E+03  0.25500000920E-02 0.  1.
        2   -1    0    0  501    0  0.00000000000E+00  0.00000000000E+00 -0.20590501219E+04  0.20590501219E+04  0.25500000920E-02 0. -1.
    10030    2    1    2    0    0  0.00000000000E+00  0.00000000000E+00 -0.14724670046E+04  0.26456332392E+04  0.21980027654E+04 0.  0.
        5    1    3    3  502    0  0.28024553329E+03 -0.15903998234E+03  0.52843364932E+03  0.61894707903E+03  0.46999998093E+01 0.  1.
       -5    1    3    3    0  502 -0.28024553329E+03  0.15903998234E+03 -0.20009006539E+04  0.20266861602E+04  0.46999998093E+01 0. -1.
</event>
<event>
 5   0  0.4462201E-06  0.2200789E+04  0.7818609E-02  0.8518100E-01
        1   -1    0    0  501    0  0.00000000000E+00  0.00000000000E+00  0.91491186423E+03  0.91491186424E+03  0.50400001928E-02 0.  1.
       -1   -1    0    0    0  501  0.00000000000E+00  0.00000000000E+00 -0.13234807252E+04  0.13234807252E+04  0.50400001928E-02 0. -1.
    10030    2    1    2    0    0  0.00000000000E+00  0.00000000000E+00 -0.40856886098E+03  0.22383925895E+04  0.22007891472E+04 0.  0.
        3    1    3    3  502    0 -0.10603973367E+04  0.14737604037E+03  0.54435624454E+02  0.10719726939E+04  0.10100000352E+00 0.  1.
       -3    1    3    3    0  502  0.10603973367E+04 -0.14737604037E+03 -0.46300448543E+03  0.11664198956E+04  0.10100000352E+00 0. -1.
</event>
<event>
 5   0  0.3546750E-06  0.2198073E+04  0.7818609E-02  0.8519231E-01
       -3   -1    0    0    0  501  0.00000000000E+00  0.00000000000E+00  0.11527459260E+04  0.11527459304E+04  0.10100000352E+00 0. -1.
        3   -1    0    0  501    0  0.00000000000E+00  0.00000000000E+00 -0.10478297351E+04  0.10478297400E+04  0.10100000352E+00 0.  1.
    10030    2    1    2    0    0  0.00000000000E+00  0.00000000000E+00  0.10491619083E+03  0.22005756704E+04  0.21980732185E+04 0.  0.
        2    1    3    3  502    0  0.24414183309E+03 -0.69136729738E+03 -0.76718485984E+03  0.10612099621E+04  0.25500000920E-02 0.  1.
       -2    1    3    3    0  502 -0.24414183309E+03  0.69136729738E+03  0.87210105068E+03  0.11393657083E+04  0.25500000920E-02 0. -1.
</event>
<event>
 5   0  0.4794967E-06  0.2206380E+04  0.7818609E-02  0.8515777E-01
       -1   -1    0    0    0  501  0.00000000000E+00  0.00000000000E+00  0.83323932945E+03  0.83323932946E+03  0.50400001928E-02 0. -1.
        1   -1    0    0  501    0  0.00000000000E+00  0.00000000000E+00 -0.14605986452E+04  0.14605986452E+04  0.50400001928E-02 0.  1.
    10030    2    1    2    0    0  0.00000000000E+00  0.00000000000E+00 -0.62735931578E+03  0.22938379747E+04  0.22063800541E+04 0.  0.
        5    1    3    3  502    0  0.34741710623E+03 -0.17422491883E+02 -0.14020795160E+04  0.14445938004E+04  0.46999998093E+01 0.  1.
       -5    1    3    3    0  502 -0.34741710623E+03  0.17422491883E+02  0.77472020024E+03  0.84924417430E+03  0.46999998093E+01 0. -1.
</event>
<event>
 5   0  0.9963573E-06  0.2200684E+04  0.7818609E-02  0.8518143E-01
        2   -1    0    0  501    0  0.00000000000E+00  0.00000000000E+00  0.27203210404E+04  0.27203210404E+04  0.25500000920E-02 0.  1.
       -2   -1    0    0    0  501  0.00000000000E+00  0.00000000000E+00 -0.44507712604E+03  0.44507712605E+03  0.25500000920E-02 0. -1.
    10030    2    1    2    0    0  0.00000000000E+00  0.00000000000E+00  0.22752439144E+04  0.31653981665E+04  0.22006841396E+04 0.  0.
        2    1    3    3  502    0 -0.84485311205E+03  0.62204440398E+03  0.16147547996E+04  0.19256554947E+04  0.25500000920E-02 0. -1.
       -2    1    3    3    0  502  0.84485311205E+03 -0.62204440398E+03  0.66048911480E+03  0.12397426718E+04  0.25500000920E-02 0.  1.
</event>
<event>
 5   0  0.3546750E-06  0.2198784E+04  0.7818609E-02  0.8518934E-01
        3   -1    0    0  501    0  0.00000000000E+00  0.00000000000E+00  0.13965371773E+04  0.13965371810E+04  0.10100000352E+00 0.  1.
       -3   -1    0    0    0  501  0.00000000000E+00  0.00000000000E+00 -0.86547142857E+03  0.86547143446E+03  0.10100000352E+00 0. -1.
    10030    2    1    2    0    0  0.00000000000E+00  0.00000000000E+00  0.53106574875E+03  0.22620086154E+04  0.21987842429E+04 0.  0.
        4    1    3    3  502    0  0.10228093293E+04  0.39648469611E+03  0.34058531191E+03  0.11486248325E+04  0.12699999809E+01 0.  1.
       -4    1    3    3    0  502 -0.10228093293E+04 -0.39648469611E+03  0.19048043684E+03  0.11133837829E+04  0.12699999809E+01 0. -1.
</event>
<event>
 5   0  0.4408787E-06  0.2203379E+04  0.7818609E-02  0.8517023E-01
        1   -1    0    0  501    0  0.00000000000E+00  0.00000000000E+00  0.13853567399E+04  0.13853567400E+04  0.50400001928E-02 0.  1.
       -1   -1    0    0    0  501  0.00000000000E+00  0.00000000000E+00 -0.87610633827E+03  0.87610633828E+03  0.50400001928E-02 0. -1.
    10030    2    1    2    0    0  0.00000000000E+00  0.00000000000E+00  0.50925040168E+03  0.22614630782E+04  0.22033790601E+04 0.  0.
        1    1    3    3  502    0  0.39038206355E+03 -0.56450636701E+03  0.11391165964E+04  0.13299068442E+04  0.50400001928E-02 0.  1.
       -1    1    3    3    0  502 -0.39038206355E+03  0.56450636701E+03 -0.62986619473E+03  0.93155623406E+03  0.50400001928E-02 0. -1.
</event>
<event>
 5   0  0.9963573E-06  0.2199915E+04  0.7818609E-02  0.8518464E-01
       -2   -1    0    0    0  501  0.00000000000E+00  0.00000000000E+00  0.77739906645E+03  0.77739906646E+03  0.25500000920E-02 0.  1.
        2   -1    0    0  501    0  0.00000000000E+00  0.00000000000E+00 -0.15563518300E+04  0.15563518300E+04  0.25500000920E-02 0. -1.
    10030    2    1    2    0    0  0.00000000000E+00  0.00000000000E+00 -0.77895276357E+03  0.23337508965E+04  0.21999149618E+04 0.  0.
        2    1    3    3  502    0  0.35492931029E+03  0.39875574824E+03 -0.14097155212E+04  0.15074079782E+04  0.25500000920E-02 0. -1.
       -2    1    3    3    0  502 -0.35492931029E+03 -0.39875574824E+03  0.63076275767E+03  0.82634291824E+03  0.25500000920E-02 0.  1.
</event>
<event>
 5   0  0.4630615E-06  0.2201761E+04  0.7818609E-02  0.8517695E-01
       -1   -1    0    0    0  501  0.00000000000E+00  0.00000000000E+00  0.68389363388E+03  0.68389363389E+03  0.50400001928E-02 0. -1.
        1   -1    0    0  501    0  0.00000000000E+00  0.00000000000E+00 -0.17721147772E+04  0.17721147772E+04  0.50400001928E-02 0.  1.
    10030    2    1    2    0    0  0.00000000000E+00  0.00000000000E+00 -0.10882211433E+04  0.24560084111E+04  0.22017611266E+04 0.  0.
        2    1    3    3  502    0 -0.86339196258E+03  0.35399403948E+02 -0.13049584039E+04  0.15651246707E+04  0.25500000920E-02 0.  1.
       -2    1    3    3    0  502  0.86339196258E+03 -0.35399403948E+02  0.21673726056E+03  0.89088374044E+03  0.25500000920E-02 0. -1.
</event>
<event>
 5   0  0.4630615E-06  0.2219281E+04  0.7818609E-02  0.8510445E-01
       -1   -1    0    0    0  501  0.00000000000E+00  0.00000000000E+00  0.83729733151E+03  0.83729733152E+03  0.50400001928E-02 0. -1.
        1   -1    0    0  501    0  0.00000000000E+00  0.00000000000E+00 -0.14705677130E+04  0.14705677130E+04  0.50400001928E-02 0.  1.
    10030    2    1    2    0    0  0.00000000000E+00  0.00000000000E+00 -0.63327038145E+03  0.23078650445E+04  0.22192813448E+04 0.  0.
        2    1    3    3  502    0 -0.78909247231E+03 -0.57747521800E+03 -0.86212797728E+03  0.13036139024E+04  0.25500000920E-02 0.  1.
       -2    1    3    3    0  502  0.78909247231E+03  0.57747521800E+03  0.22885759583E+03  0.10042511421E+04  0.25500000920E-02 0. -1.
</event>
<event>
 5   0  0.4309945E-06  0.2194145E+04  0.7818609E-02  0.8520869E-01
       -1   -1    0    0    0  501  0.00000000000E+00  0.00000000000E+00  0.10289258268E+04  0.10289258268E+04  0.50400001928E-02 0.  1.
        1   -1    0    0  501    0  0.00000000000E+00  0.00000000000E+00 -0.11697330480E+04  0.11697330480E+04  0.50400001928E-02 0. -1.
    10030    2    1    2    0    0  0.00000000000E+00  0.00000000000E+00 -0.14080722119E+03  0.21986588747E+04  0.21941454313E+04 0.  0.
        4    1    3    3  502    0 -0.75784963029E+03 -0.35560341718E+02  0.72366974280E+03  0.10484751354E+04  0.12699999809E+01 0.  1.
       -4    1    3    3    0  502  0.75784963029E+03  0.35560341718E+02 -0.86447696399E+03  0.11501837393E+04  0.12699999809E+01 0. -1.
</event>
<event>
 5   0  0.4309945E-06  0.2197426E+04  0.7818609E-02  0.8519500E-01
       -1   -1    0    0    0  501  0.00000000000E+00  0.00000000000E+00  0.81588283202E+03  0.81588283204E+03  0.50400001928E-02 0. -1.
        1   -1    0    0  501    0  0.00000000000E+00  0.00000000000E+00 -0.14795871984E+04  0.14795871984E+04  0.50400001928E-02 0.  1.
    10030    2    1    2    0    0  0.00000000000E+00  0.00000000000E+00 -0.66370436634E+03  0.22954700304E+04  0.21974255789E+04 0.  0.
        4    1    3    3  502    0 -0.49462607710E+03  0.54412946384E+03 -0.11846317590E+04  0.13943047898E+04  0.12699999809E+01 0.  1.
       -4    1    3    3    0  502  0.49462607710E+03 -0.54412946384E+03  0.52092739265E+03  0.90116524060E+03  0.12699999809E+01 0. -1.
</event>
<event>
 5   0  0.4794967E-06  0.2197072E+04  0.7818609E-02  0.8519648E-01
        1   -1    0    0  501    0  0.00000000000E+00  0.00000000000E+00  0.56638606006E+03  0.56638606009E+03  0.50400001928E-02 0.  1.
       -1   -1    0    0    0  501  0.00000000000E+00  0.00000000000E+00 -0.21306698073E+04  0.21306698073E+04  0.50400001928E-02 0. -1.
    10030    2    1    2    0    0  0.00000000000E+00  0.00000000000E+00 -0.15642837472E+04  0.26970558674E+04  0.21970723042E+04 0.  0.
        5    1    3    3  502    0 -0.14167558467E+03 -0.48372502187E+03 -0.19803248803E+04  0.20434702322E+04  0.46999998093E+01 0. -1.
       -5    1    3    3    0  502  0.14167558467E+03  0.48372502187E+03  0.41604113313E+03  0.65358563519E+03  0.46999998093E+01 0.  1.
</event>
<event>
 5   0  0.4462201E-06  0.2194977E+04  0.7818609E-02  0.8520522E-01
       -1   -1    0    0    0  501  0.00000000000E+00  0.00000000000E+00  0.47175899607E+03  0.47175899610E+03  0.50400001928E-02 0.  1.
        1   -1    0    0  501    0  0.00000000000E+00  0.00000000000E+00 -0.25531703574E+04  0.25531703574E+04  0.50400001928E-02 0. -1.
    10030    2    1    2    0    0  0.00000000000E+00  0.00000000000E+00 -0.20814113613E+04  0.30249293535E+04  0.21949770702E+04 0.  0.
        3    1    3    3  502    0  0.74089391639E+03  0.66084842337E+03 -0.16853872701E+04  0.19560610150E+04  0.10100000352E+00 0. -1.
       -3    1    3    3    0  502 -0.74089391639E+03 -0.66084842337E+03 -0.39602409121E+03  0.10688683385E+04  0.10100000352E+00 0.  1.
</event>
<event>
 5   0  0.1015876E-05  0.2218306E+04  0.7818609E-02  0.8510847E-01
        2   -1    0    0  501    0  0.00000000000E+00  0.00000000000E+00  0.14875104103E+04  0.14875104103E+04  0.25500000920E-02 0. -1.
       -2   -1    0    0    0  501  0.00000000000E+00  0.00000000000E+00 -0.82703281793E+03  0.82703281794E+03  0.25500000920E-02 0.  1.
    10030    2    1    2    0    0  0.00000000000E+00  0.00000000000E+00  0.66047759234E+03  0.23145432282E+04  0.22183055933E+04 0.  0.
        5    1    3    3  502    0  0.43007643314E+03 -0.16478212131E+03  0.13830115853E+04  0.14576906465E+04  0.46999998093E+01 0. -1.
       -5    1    3    3    0  502 -0.43007643314E+03  0.16478212131E+03 -0.72253399295E+03  0.85685258172E+03  0.46999998093E+01 0.  1.
</event>
<event>
 5   0  0.4794967E-06  0.2197650E+04  0.7818609E-02  0.8519407E-01
        1   -1    0    0  501    0  0.00000000000E+00  0.00000000000E+00  0.11631518410E+04  0.11631518410E+04  0.50400001928E-02 0. -1.
       -1   -1    0    0    0  501  0.00000000000E+00  0.00000000000E+00 -0.10380553444E+04  0.10380553445E+04  0.50400001928E-02 0.  1.
    10030    2    1    2    0    0  0.00000000000E+00  0.00000000000E+00  0.12509649655E+03  0.22012071855E+04  0.21976496399E+04 0.  0.
        5    1    3    3  502    0  0.10124555278E+04  0.24811654033E+03  0.41062466030E+03  0.11203850744E+04  0.46999998093E+01 0. -1.
       -5    1    3    3    0  502 -0.10124555278E+04 -0.24811654033E+03 -0.28552816375E+03  0.10808221110E+04  0.46999998093E+01 0.  1.
</event>
<event>
 5   0  0.1014015E-05  0.2199886E+04  0.7818609E-02  0.8518475E-01
        2   -1    0    0  501    0  0.00000000000E+00  0.00000000000E+00  0.72131213358E+03  0.72131213359E+03  0.25500000920E-02 0. -1.
       -2   -1    0    0    0  501  0.00000000000E+00  0.00000000000E+00 -0.16773250996E+04  0.16773250996E+04  0.25500000920E-02 0.  1.
    10030    2    1    2    0    0  0.00000000000E+00  0.00000000000E+00 -0.95601296601E+03  0.23986372332E+04  0.21998863119E+04 0.  0.
        1    1    3    3  502    0 -0.40559993673E+03  0.70710032140E+03  0.32720703945E+03  0.87838864968E+03  0.50400001928E-02 0. -1.
       -1    1    3    3    0  502  0.40559993673E+03 -0.70710032140E+03 -0.12832200055E+04  0.15202485835E+04  0.50400001928E-02 0.  1.
</event>
<event>
 5   0  0.4462201E-06  0.2199370E+04  0.7818609E-02  0.8518690E-01
       -1   -1    0    0    0  501  0.00000000000E+00  0.00000000000E+00  0.11602909001E+04  0.11602909001E+04  0.50400001928E-02 0. -1.
        1   -1    0    0  501    0  0.00000000000E+00  0.00000000000E+00 -0.10422449511E+04  0.10422449511E+04  0.50400001928E-02 0.  1.
    10030    2    1    2    0    0  0.00000000000E+00  0.00000000000E+00  0.11804594906E+03  0.22025358512E+04  0.21993702121E+04 0.  0.
        3    1    3    3  502    0 -0.95718351708E+03  0.39853400536E+03  0.42598959949E+03  0.11209356752E+04  0.10100000352E+00 0. -1.
       -3    1    3    3    0  502  0.95718351708E+03 -0.39853400536E+03 -0.30794365043E+03  0.10816001761E+04  0.10100000352E+00 0.  1.
</event>
<event>
 5   0  0.4309945E-06  0.2190984E+04  0.7818609E-02  0.8522190E-01
        1   -1    0    0  501    0  0.00000000000E+00  0.00000000000E+00  0.24624817542E+04  0.24624817542E+04  0.50400001928E-02 0. -1.
       -1   -1    0    0    0  501  0.00000000000E+00  0.00000000000E+00 -0.48735498244E+03  0.48735498246E+03  0.50400001928E-02 0.  1.
    10030    2    1    2    0    0  0.00000000000E+00  0.00000000000E+00  0.19751267718E+04  0.29498367367E+04  0.21909840274E+04 0.  0.
        4    1    3    3  502    0 -0.90575724004E+03 -0.33786687411E+03  0.16813608167E+04  0.19394653932E+04  0.12699999809E+01 0. -1.
       -4    1    3    3    0  502  0.90575724004E+03  0.33786687411E+03  0.29376595506E+03  0.10103713435E+04  0.12699999809E+01 0.  1.
</event>
<event>
 5   0  0.1014015E-05  0.2197812E+04  0.7818609E-02  0.8519339E-01
       -2   -1    0    0    0  501  0.00000000000E+00  0.00000000000E+00  0.65573151624E+03  0.65573151625E+03  0.25500000920E-02 0. -1.
        2   -1    0    0  501    0  0.00000000000E+00  0.00000000000E+00 -0.18415982677E+04  0.18415982677E+04  0.25500000920E-02 0.  1.
    10030    2    1    2    0    0  0.00000000000E+00  0.00000000000E+00 -0.11858667515E+04  0.24973297840E+04  0.21978116611E+04 0.  0.
        1    1    3    3  502    0  0.30997106986E+03  0.89610670602E+03  0.38193011196E+02  0.94897207486E+03  0.50400001928E-02 0. -1.
       -1    1    3    3    0  502 -0.30997106986E+03 -0.89610670602E+03 -0.12240597627E+04  0.15483577091E+04  0.50400001928E-02 0.  1.
</event>
<event>
 5   0  0.1035928E-05  0.2204422E+04  0.7818609E-02  0.8516590E-01
       -2   -1    0    0    0  501  0.00000000000E+00  0.00000000000E+00  0.64050538333E+03  0.64050538334E+03  0.25500000920E-02 0.  1.
        2   -1    0    0  501    0  0.00000000000E+00  0.00000000000E+00 -0.18967348730E+04  0.18967348730E+04  0.25500000920E-02 0. -1.
    10030    2    1    2    0    0  0.00000000000E+00  0.00000000000E+00 -0.12562294897E+04  0.25372402563E+04  0.22044218262E+04 0.  0.
        3    1    3    3  502    0  0.86479011671E+03 -0.61702178506E+03 -0.96621833837E+03  0.14360207926E+04  0.10100000352E+00 0. -1.
       -3    1    3    3    0  502 -0.86479011671E+03  0.61702178506E+03 -0.29001115128E+03  0.11012194637E+04  0.10100000352E+00 0.  1.
</event>
<event>
 5   0  0.1014015E-05  0.2198783E+04  0.7818609E-02  0.8518935E-01
       -2   -1    0    0    0  501  0.00000000000E+00  0.00000000000E+00  0.64212186100E+03  0.64212186101E+03  0.25500000920E-02 0.  1.
        2   -1    0    0  501    0  0.00000000000E+00  0.00000000000E+00 -0.18822940196E+04  0.18822940196E+04  0.25500000920E-02 0. -1.
    10030    2    1    2    0    0  0.00000000000E+00  0.00000000000E+00 -0.12401721586E+04  0.25244158806E+04  0.21987834262E+04 0.  0.
        1    1    3    3  502    0  0.89495237547E+03 -0.40633071595E+03 -0.11855953380E+04  0.15400262045E+04  0.50400001928E-02 0. -1.
       -1    1    3    3    0  502 -0.89495237547E+03  0.40633071595E+03 -0.54576820637E+02  0.98438967612E+03  0.50400001928E-02 0.  1.
</event>
<event>
 5   0  0.1035928E-05  0.2207190E+04  0.7818609E-02  0.8515441E-01
       -2   -1    0    0    0  501  0.00000000000E+00  0.00000000000E+00  0.83391084303E+03  0.83391084304E+03  0.25500000920E-02 0. -1.
        2   -1    0    0  501    0  0.00000000000E+00  0.00000000000E+00 -0.14604946687E+04  0.14604946687E+04  0.25500000920E-02 0.  1.
    10030    2    1    2    0    0  0.00000000000E+00  0.00000000000E+00 -0.62658382565E+03  0.22944055117E+04  0.22071903773E+04 0.  0.
        3    1    3    3  502    0  0.59280743304E+03  0.20951462557E+03 -0.12561061556E+04  0.14046777977E+04  0.10100000352E+00 0.  1.
       -3    1    3    3    0  502 -0.59280743304E+03 -0.20951462557E+03  0.62952232995E+03  0.88972771403E+03  0.10100000352E+00 0. -1.
</event>
<event>
 5   0  0.9963573E-06  0.2218728E+04  0.7818609E-02  0.8510673E-01
       -2   -1    0    0    0  501  0.00000000000E+00  0.00000000000E+00  0.11556742425E+04  0.11556742425E+04  0.25500000920E-02 0.  1.
        2   -1    0    0  501    0  0.00000000000E+00  0.00000000000E+00 -0.10649098802E+04  0.10649098802E+04  0.25500000920E-02 0. -1.
    10030    2    1    2    0    0  0.00000000000E+00  0.00000000000E+00  0.90764362302E+02  0.22205841227E+04  0.22187283918E+04 0.  0.
        2    1    3    3  502    0 -0.53518496225E+03 -0.89067482064E+03  0.43424845141E+03  0.11261866175E+04  0.25500000920E-02 0.  1.
       -2    1    3    3    0  502  0.53518496225E+03  0.89067482064E+03 -0.34348408911E+03  0.10943975052E+04  0.25500000920E-02 0. -1.
</event>
<event>
 5   0  0.1014015E-05  0.2202144E+04  0.7818609E-02  0.8517536E-01
        2   -1    0    0  501    0  0.00000000000E+00  0.00000000000E+00  0.18645427051E+04  0.18645427051E+04  0.25500000920E-02 0.  1.
       -2   -1    0    0    0  501  0.00000000000E+00  0.00000000000E+00 -0.65021787957E+03  0.65021787958E+03  0.25500000920E-02 0. -1.
    10030    2    1    2    0    0  0.00000000000E+00  0.00000000000E+00  0.12143248256E+04  0.25147605847E+04  0.22021435050E+04 0.  0.
        1    1    3    3  502    0  0.99184953178E+03  0.47724454313E+03  0.64008488336E+03  0.12732778587E+04  0.50400001928E-02 0. -1.
       -1    1    3    3    0  502 -0.99184953178E+03 -0.47724454313E+03  0.57423994221E+03  0.12414827260E+04  0.50400001928E-02 0.  1.
</event>
<event>
 5   0  0.4794967E-06  0.2200003E+04  0.7818609E-02  0.8518427E-01
       -1   -1    0    0    0  501  0.00000000000E+00  0.00000000000E+00  0.10811071424E+04  0.10811071424E+04  0.50400001928E-02 0. -1.
        1   -1    0    0  501    0  0.00000000000E+00  0.00000000000E+00 -0.11192259917E+04  0.11192259917E+04  0.50400001928E-02 0.  1.
    10030    2    1    2    0    0  0.00000000000E+00  0.00000000000E+00 -0.38118849333E+02  0.22003331341E+04  0.22000029214E+04 0.  0.
        5    1    3    3  502    0  0.48296521680E+03 -0.98789919184E+03 -0.47008380423E+02  0.11006507583E+04  0.46999998093E+01 0. -1.
       -5    1    3    3    0  502 -0.48296521680E+03  0.98789919184E+03  0.88895310899E+01  0.10996823758E+04  0.46999998093E+01 0.  1.
</event>
<event>
 5   0  0.4794967E-06  0.2197874E+04  0.7818609E-02  0.8519313E-01
        1   -1    0    0  501    0  0.00000000000E+00  0.00000000000E+00  0.11355697071E+04  0.11355697071E+04  0.50400001928E-02 0.  1.
       -1   -1    0    0    0  501  0.00000000000E+00  0.00000000000E+00 -0.10634863656E+04  0.10634863656E+04  0.50400001928E-02 0. -1.
    10030    2    1    2    0    0  0.00000000000E+00  0.00000000000E+00  0.72083341474E+02  0.21990560727E+04  0.21978743374E+04 0.  0.
        5    1    3    3  502    0 -0.91048587709E+03  0.29929847400E+03  0.57398929110E+03  0.11171615394E+04  0.46999998093E+01 0.  1.
       -5    1    3    3    0  502  0.91048587709E+03 -0.29929847400E+03 -0.50190594963E+03  0.10818945333E+04  0.46999998093E+01 0. -1.
</event>
<event>
 5   0  0.9963573E-06  0.2205822E+04  0.7818609E-02  0.8516009E-01
        2   -1    0    0  501    0  0.00000000000E+00  0.00000000000E+00  0.20642694606E+04  0.20642694606E+04  0.25500000920E-02 0. -1.
       -2   -1    0    0    0  501  0.00000000000E+00  0.00000000000E+00 -0.58927042932E+03  0.58927042933E+03  0.25500000920E-02 0.  1.
    10030    2    1    2    0    0  0.00000000000E+00  0.00000000000E+00  0.14749990313E+04  0.26535398899E+04  0.22058222515E+04 0.  0.
        2    1    3    3  502    0  0.98965688898E+02  0.10204898275E+04  0.12264731449E+04  0.15985712592E+04  0.25500000920E-02 0.  1.
       -2    1    3    3    0  502 -0.98965688898E+02 -0.10204898275E+04  0.24852588638E+03  0.10549686307E+04  0.25500000920E-02 0. -1.
</event>
<event>
 5   0  0.4462201E-06  0.2205917E+04  0.7818609E-02  0.8515969E-01
        1   -1    0    0  501    0  0.00000000000E+00  0.00000000000E+00  0.22263391853E+04  0.22263391853E+04  0.50400001928E-02 0. -1.
       -1   -1    0    0    0  501  0.00000000000E+00  0.00000000000E+00 -0.54642045948E+03  0.54642045951E+03  0.50400001928E-02 0.  1.
    10030    2    1    2    0    0  0.00000000000E+00  0.00000000000E+00  0.16799187258E+04  0.27727596448E+04  0.22059168440E+04 0.  0.
        3    1    3    3  502    0  0.37360010784E+03 -0.20185170031E+03 -0.43955176942E+03  0.61116848553E+03  0.10100000352E+00 0.  1.
       -3    1    3    3    0  502 -0.37360010784E+03  0.20185170031E+03  0.21194704952E+04  0.21615911593E+04  0.10100000352E+00 0. -1.
</event>
<event>
 5   0  0.4794967E-06  0.2204665E+04  0.7818609E-02  0.8516489E-01
       -1   -1    0    0    0  501  0.00000000000E+00  0.00000000000E+00  0.11436005723E+04  0.11436005724E+04  0.50400001928E-02 0. -1.
        1   -1    0    0  501    0  0.00000000000E+00  0.00000000000E+00 -0.10625536065E+04  0.10625536065E+04  0.50400001928E-02 0.  1.
    10030    2    1    2    0    0  0.00000000000E+00  0.00000000000E+00  0.81046965872E+02  0.22061541788E+04  0.22046649746E+04 0.  0.
        5    1    3    3  502    0  0.22829150220E+03  0.65404228806E+03  0.89855617063E+03  0.11345984339E+04  0.46999998093E+01 0. -1.
       -5    1    3    3    0  502 -0.22829150220E+03 -0.65404228806E+03 -0.81750920476E+03  0.10715557449E+04  0.46999998093E+01 0.  1.
</event>
<event>
 5   0  0.1015876E-05  0.2201762E+04  0.7818609E-02  0.8517695E-01
        2   -1    0    0  501    0  0.00000000000E+00  0.00000000000E+00  0.10733836507E+04  0.10733836507E+04  0.25500000920E-02 0.  1.
       -2   -1    0    0    0  501  0.00000000000E+00  0.00000000000E+00 -0.11290831574E+04  0.11290831574E+04  0.25500000920E-02 0. -1.
    10030    2    1    2    0    0  0.00000000000E+00  0.00000000000E+00 -0.55699506656E+02  0.22024668081E+04  0.22017623863E+04 0.  0.
        5    1    3    3  502    0  0.10224128305E+04 -0.95188909632E+02  0.36917568776E+03  0.10911927891E+04  0.46999998093E+01 0.  1.
       -5    1    3    3    0  502 -0.10224128305E+04  0.95188909632E+02 -0.42487519442E+03  0.11112740190E+04  0.46999998093E+01 0. -1.
</event>
<event>
 5   0  0.1035928E-05  0.2198733E+04  0.7818609E-02  0.8518956E-01
        2   -1    0    0  501    0  0.00000000000E+00  0.00000000000E+00  0.86227723140E+03  0.86227723140E+03  0.25500000920E-02 0. -1.
       -2   -1    0    0    0  501  0.00000000000E+00  0.00000000000E+00 -0.14016445498E+04  0.14016445498E+04  0.25500000920E-02 0.  1.
    10030    2    1    2    0    0  0.00000000000E+00  0.00000000000E+00 -0.53936731839E+03  0.22639217812E+04  0.21987325274E+04 0.  0.
        3    1    3    3  502    0 -0.51062740105E+03 -0.62503297727E+03 -0.10382731058E+04  0.13150732367E+04  0.10100000352E+00 0.  1.
       -3    1    3    3    0  502  0.51062740105E+03  0.62503297727E+03  0.49890578746E+03  0.94884854447E+03  0.10100000352E+00 0. -1.
</event>
<event>
 5   0  0.4794967E-06  0.2199534E+04  0.7818609E-02  0.8518622E-01
       -1   -1    0    0    0  501  0.00000000000E+00  0.00000000000E+00  0.93526648418E+03  0.93526648419E+03  0.50400001928E-02 0.  1.
        1   -1    0    0  501    0  0.00000000000E+00  0.00000000000E+00 -0.12932010506E+04  0.12932010506E+04  0.50400001928E-02 0. -1.
    10030    2    1    2    0    0  0.00000000000E+00  0.00000000000E+00 -0.35793456641E+03  0.22284675348E+04  0.21995341324E+04 0.  0.
        5    1    3    3  502    0  0.20257019126E+02  0.14490026956E+03  0.92535191869E+03  0.93685895329E+03  0.46999998093E+01 0.  1.
       -5    1    3    3    0  502 -0.20257019126E+02 -0.14490026956E+03 -0.12832864851E+04  0.12916085815E+04  0.46999998093E+01 0. -1.
</event>
<event>
 5   0  0.9963573E-06  0.2198252E+04  0.7818609E-02  0.8519156E-01
       -2   -1    0    0    0  501  0.00000000000E+00  0.00000000000E+00  0.63125956470E+03  0.63125956471E+03  0.25500000920E-02 0. -1.
        2   -1    0    0  501    0  0.00000000000E+00  0.00000000000E+00 -0.19137571167E+04  0.19137571167E+04  0.25500000920E-02 0.  1.
    10030    2    1    2    0    0  0.00000000000E+00  0.00000000000E+00 -0.12824975520E+04  0.25450166814E+04  0.21982515638E+04 0.  0.
        2    1    3    3  502    0 -0.10374164994E+04  0.18394945972E+03 -0.10036936686E+04  0.14551533861E+04  0.25500000920E-02 0.  1.
       -2    1    3    3    0  502  0.10374164994E+04 -0.18394945972E+03 -0.27880388340E+03  0.10898632952E+04  0.25500000920E-02 0. -1.
</event>
<event>
 5   0  0.4408787E-06  0.2154325E+04  0.7818609E-02  0.8537683E-01
       -1   -1    0    0    0  501  0.00000000000E+00  0.00000000000E+00  0.72071032725E+03  0.72071032727E+03  0.50400001928E-02 0. -1.
        1   -1    0    0  501    0  0.00000000000E+00  0.00000000000E+00 -0.16099099031E+04  0.16099099031E+04  0.50400001928E-02 0.  1.
    10030    2    1    2    0    0  0.00000000000E+00  0.00000000000E+00 -0.88919957587E+03  0.23306202304E+04  0.21543246674E+04 0.  0.
        1    1    3    3  502    0 -0.15264876874E+03 -0.10660008900E+04 -0.47151872701E+03  0.11755804754E+04  0.50400001928E-02 0. -1.
       -1    1    3    3    0  502  0.15264876874E+03  0.10660008900E+04 -0.41768084886E+03  0.11550397550E+04  0.50400001928E-02 0.  1.
</event>
<event>
 5   0  0.3546750E-06  0.2199328E+04  0.7818609E-02  0.8518708E-01
        3   -1    0    0  501    0  0.00000000000E+00  0.00000000000E+00  0.10037941716E+04  0.10037941767E+04  0.10100000352E+00 0.  1.
       -3   -1    0    0    0  501  0.00000000000E+00  0.00000000000E+00 -0.12046897058E+04  0.12046897101E+04  0.10100000352E+00 0. -1.
    10030    2    1    2    0    0  0.00000000000E+00  0.00000000000E+00 -0.20089553422E+03  0.22084838868E+04  0.21993276387E+04 0.  0.
        5    1    3    3  502    0  0.96141489315E+03  0.53180727144E+03 -0.54421862475E+02  0.11000551804E+04  0.46999998093E+01 0. -1.
       -5    1    3    3    0  502 -0.96141489315E+03 -0.53180727144E+03 -0.14647367175E+03  0.11084287064E+04  0.46999998093E+01 0.  1.
</event>
<event>
 5   0  0.1014015E-05  0.2199099E+04  0.7818609E-02  0.8518803E-01
       -2   -1    0    0    0  501  0.00000000000E+00  0.00000000000E+00  0.93162785768E+03  0.93162785768E+03  0.25500000920E-02 0. -1.
        2   -1    0    0  501    0  0.00000000000E+00  0.00000000000E+00 -0.12977379877E+04  0.12977379877E+04  0.25500000920E-02 0.  1.
    10030    2    1    2    0    0  0.00000000000E+00  0.00000000000E+00 -0.36611013006E+03  0.22293658454E+04  0.21990987803E+04 0.  0.
        1    1    3    3  502    0 -0.55733548843E+03  0.82497832741E+03  0.29005515203E+03  0.10369879838E+04  0.50400001928E-02 0. -1.
       -1    1    3    3    0  502  0.55733548843E+03 -0.82497832741E+03 -0.65616528209E+03  0.11923778616E+04  0.50400001928E-02 0.  1.
</event>
<event>
 5   0  0.4630615E-06  0.2212681E+04  0.7818609E-02  0.8513168E-01
        1   -1    0    0  501    0  0.00000000000E+00  0.00000000000E+00  0.16348834906E+04  0.16348834906E+04  0.50400001928E-02 0. -1.
       -1   -1    0    0    0  501  0.00000000000E+00  0.00000000000E+00 -0.74867063996E+03  0.74867063998E+03  0.50400001928E-02 0.  1.
    10030    2    1    2    0    0  0.00000000000E+00  0.00000000000E+00  0.88621285061E+03  0.23835541306E+04  0.22126809704E+04 0.  0.
        2    1    3    3  502    0 -0.86752352693E+03  0.14813532471E+03 -0.27907448583E+03  0.92326795290E+03  0.25500000920E-02 0.  1.
       -2    1    3    3    0  502  0.86752352693E+03 -0.14813532471E+03  0.11652873364E+04  0.14602861777E+04  0.25500000920E-02 0. -1.
</event>
<event>
 5   0  0.4462201E-06  0.2203465E+04  0.7818609E-02  0.8516987E-01
        1   -1    0    0  501    0  0.00000000000E+00  0.00000000000E+00  0.12622609464E+04  0.12622609464E+04  0.50400001928E-02 0.  1.
       -1   -1    0    0    0  501  0.00000000000E+00  0.00000000000E+00 -0.96161914909E+03  0.96161914911E+03  0.50400001928E-02 0. -1.
    10030    2    1    2    0    0  0.00000000000E+00  0.00000000000E+00  0.30064179731E+03  0.22238800955E+04  0.22034648146E+04 0.  0.
        3    1    3    3  502    0 -0.68323346534E+03 -0.82581580746E+03 -0.10706063705E+03  0.10771451649E+04  0.10100000352E+00 0. -1.
       -3    1    3    3    0  502  0.68323346534E+03  0.82581580746E+03  0.40770243436E+03  0.11467349307E+04  0.10100000352E+00 0.  1.
</event>
<event>
 5   0  0.4794967E-06  0.2198122E+04  0.7818609E-02  0.8519210E-01
       -1   -1    0    0    0  501  0.00000000000E+00  0.00000000000E+00  0.10870271274E+04  0.10870271274E+04  0.50400001928E-02 0.  1.
        1   -1    0    0  501    0  0.00000000000E+00  0.00000000000E+00 -0.11112281507E+04  0.11112281507E+04  0.50400001928E-02 0. -1.
    10030    2    1    2    0    0  0.00000000000E+00  0.00000000000E+00 -0.24201023302E+02  0.21982552781E+04  0.21981220571E+04 0.  0.
        5    1    3    3  502    0 -0.80799868823E+03 -0.73275697024E+03  0.12251224087E+03  0.10976456609E+04  0.46999998093E+01 0.  1.
       -5    1    3    3    0  502  0.80799868823E+03  0.73275697024E+03 -0.14671326417E+03  0.11006096172E+04  0.46999998093E+01 0. -1.
</event>
<event>
 5   0  0.4630615E-06  0.2203971E+04  0.7818609E-02  0.8516777E-01
        1   -1    0    0  501    0  0.00000000000E+00  0.00000000000E+00  0.22137313785E+04  0.22137313785E+04  0.50400001928E-02 0. -1.
       -1   -1    0    0    0  501  0.00000000000E+00  0.00000000000E+00 -0.54856324970E+03  0.54856324973E+03  0.50400001928E-02 0.  1.
    10030    2    1    2    0    0  0.00000000000E+00  0.00000000000E+00  0.16651681288E+04  0.27622946282E+04  0.22039706704E+04 0.  0.
        2    1    3    3  502    0 -0.30612361078E+03 -0.19389027184E+03  0.21369269235E+04  0.21674320702E+04  0.25500000920E-02 0. -1.
       -2    1    3    3    0  502  0.30612361078E+03  0.19389027184E+03 -0.47175879468E+03  0.59486255804E+03  0.25500000920E-02 0.  1.
</event>
<event>
 5   0  0.9963173E-06  0.2199533E+04  0.7818609E-02  0.8518622E-01
        2   -1    0    0  501    0  0.00000000000E+00  0.00000000000E+00  0.11667255930E+04  0.11667255930E+04  0.25500000920E-02 0. -1.
       -2   -1    0    0    0  501  0.00000000000E+00  0.00000000000E+00 -0.10366503556E+04  0.10366503556E+04  0.25500000920E-02 0.  1.
    10030    2    1    2    0    0  0.00000000000E+00  0.00000000000E+00  0.13007523739E+03  0.22033759486E+04  0.21995331331E+04 0.  0.
        4    1    3    3  502    0 -0.34404018182E+03 -0.44613787893E+03  0.10111888117E+04  0.11575435541E+04  0.12699999809E+01 0. -1.
       -4    1    3    3    0  502  0.34404018182E+03  0.44613787893E+03 -0.88111357434E+03  0.10458323946E+04  0.12699999809E+01 0.  1.
</event>
<event>
 5   0  0.4309945E-06  0.2202084E+04  0.7818609E-02  0.8517561E-01
       -1   -1    0    0    0  501  0.00000000000E+00  0.00000000000E+00  0.14904050573E+04  0.14904050573E+04  0.50400001928E-02 0. -1.
        1   -1    0    0  501    0  0.00000000000E+00  0.00000000000E+00 -0.81339874617E+03  0.81339874619E+03  0.50400001928E-02 0.  1.
    10030    2    1    2    0    0  0.00000000000E+00  0.00000000000E+00  0.67700631117E+03  0.23038038035E+04  0.22020841083E+04 0.  0.
        4    1    3    3  502    0 -0.75565675696E+03 -0.41634178008E+02 -0.49815093318E+03  0.90603890879E+03  0.12699999809E+01 0.  1.
       -4    1    3    3    0  502  0.75565675696E+03  0.41634178008E+02  0.11751572443E+04  0.13977648947E+04  0.12699999809E+01 0. -1.
</event>
<event>
 5   0  0.4462201E-06  0.2177676E+04  0.7818609E-02  0.8527778E-01
        1   -1    0    0  501    0  0.00000000000E+00  0.00000000000E+00  0.10221942115E+04  0.10221942115E+04  0.50400001928E-02 0.  1.
       -1   -1    0    0    0  501  0.00000000000E+00  0.00000000000E+00 -0.11598262775E+04  0.11598262775E+04  0.50400001928E-02 0. -1.
    10030    2    1    2    0    0  0.00000000000E+00  0.00000000000E+00 -0.13763206605E+03  0.21820204890E+04  0.21776755564E+04 0.  0.
        3    1    3    3  502    0 -0.73724206086E+03  0.79557503817E+03 -0.16441183453E+03  0.10970399989E+04  0.10100000352E+00 0. -1.
       -3    1    3    3    0  502  0.73724206086E+03 -0.79557503817E+03  0.26779768481E+02  0.10849804901E+04  0.10100000352E+00 0.  1.
</event>
<event>
 5   0  0.4630615E-06  0.2209922E+04  0.7818609E-02  0.8514309E-01
        1   -1    0    0  501    0  0.00000000000E+00  0.00000000000E+00  0.74844917794E+03  0.74844917796E+03  0.50400001928E-02 0. -1.
       -1   -1    0    0    0  501  0.00000000000E+00  0.00000000000E+00 -0.16312922144E+04  0.16312922144E+04  0.50400001928E-02 0.  1.
    10030    2    1    2    0    0  0.00000000000E+00  0.00000000000E+00 -0.88284303645E+03  0.23797413924E+04  0.22099224573E+04 0.  0.
        2    1    3    3  502    0 -0.23674891141E+01  0.94581028358E+03  0.17377270566E+03  0.96164424335E+03  0.25500000920E-02 0. -1.
       -2    1    3    3    0  502  0.23674891141E+01 -0.94581028358E+03 -0.10566157421E+04  0.14180971490E+04  0.25500000920E-02 0.  1.
</event>
<event>
 5   0  0.1014015E-05  0.2200251E+04  0.7818609E-02  0.8518324E-01
       -2   -1    0    0    0  501  0.00000000000E+00  0.00000000000E+00  0.12472522126E+04  0.12472522127E+04  0.25500000920E-02 0.  1.
        2   -1    0    0  501    0  0.00000000000E+00  0.00000000000E+00 -0.97035425864E+03  0.97035425864E+03  0.25500000920E-02 0. -1.
    10030    2    1    2    0    0  0.00000000000E+00  0.00000000000E+00  0.27689795401E+03  0.22176064713E+04  0.22002513458E+04 0.  0.
        1    1    3    3  502    0  0.22963575015E+03  0.10136662179E+04 -0.22498467948E+03  0.10634236621E+04  0.50400001928E-02 0. -1.
       -1    1    3    3    0  502 -0.22963575015E+03 -0.10136662179E+04  0.50188263349E+03  0.11541828092E+04  0.50400001928E-02 0.  1.
</event>
<event>
 5   0  0.1035928E-05  0.2199666E+04  0.7818609E-02  0.8518567E-01
        2   -1    0    0  501    0  0.00000000000E+00  0.00000000000E+00  0.20401173595E+04  0.20401173595E+04  0.25500000920E-02 0. -1.
       -2   -1    0    0    0  501  0.00000000000E+00  0.00000000000E+00 -0.59292321774E+03  0.59292321774E+03  0.25500000920E-02 0.  1.
    10030    2    1    2    0    0  0.00000000000E+00  0.00000000000E+00  0.14471941418E+04  0.26330405773E+04  0.21996662923E+04 0.  0.
        3    1    3    3  502    0 -0.77732174965E+03 -0.68570877347E+03  0.28344692921E+03  0.10746012267E+04  0.10100000352E+00 0.  1.
       -3    1    3    3    0  502  0.77732174965E+03  0.68570877347E+03  0.11637472126E+04  0.15584393506E+04  0.10100000352E+00 0. -1.
</event>
<event>
 5   0  0.1035928E-05  0.2202490E+04  0.7818609E-02  0.8517392E-01
       -2   -1    0    0    0  501  0.00000000000E+00  0.00000000000E+00  0.99067467526E+03  0.99067467526E+03  0.25500000920E-02 0.  1.
        2   -1    0    0  501    0  0.00000000000E+00  0.00000000000E+00 -0.12241562952E+04  0.12241562952E+04  0.25500000920E-02 0. -1.
    10030    2    1    2    0    0  0.00000000000E+00  0.00000000000E+00 -0.23348161989E+03  0.22148309704E+04  0.22024900819E+04 0.  0.
        3    1    3    3  502    0  0.34880729669E+02  0.88869420896E+03  0.53631816859E+03  0.10385717359E+04  0.10100000352E+00 0.  1.
       -3    1    3    3    0  502 -0.34880729669E+02 -0.88869420896E+03 -0.76979978849E+03  0.11762592346E+04  0.10100000352E+00 0. -1.
</event>
<event>
 5   0  0.4309945E-06  0.2201813E+04  0.7818609E-02  0.8517674E-01
       -1   -1    0    0    0  501  0.00000000000E+00  0.00000000000E+00  0.67560115145E+03  0.67560115147E+03  0.50400001928E-02 0.  1.
        1   -1    0    0  501    0  0.00000000000E+00  0.00000000000E+00 -0.17939507265E+04  0.17939507265E+04  0.50400001928E-02 0. -1.
    10030    2    1    2    0    0  0.00000000000E+00  0.00000000000E+00 -0.11183495751E+04  0.24695518780E+04  0.22018130497E+04 0.  0.
        4    1    3    3  502    0 -0.14837239284E+03 -0.69966549033E+03 -0.14978718866E+04  0.16598698644E+04  0.12699999809E+01 0. -1.
       -4    1    3    3    0  502  0.14837239284E+03  0.69966549033E+03  0.37952231149E+03  0.80968201359E+03  0.12699999809E+01 0.  1.
</event>
<event>
 5   0  0.1014015E-05  0.2201820E+04  0.7818609E-02  0.8517671E-01
       -2   -1    0    0    0  501  0.00000000000E+00  0.00000000000E+00  0.10916541178E+04  0.10916541178E+04  0.25500000920E-02 0. -1.
        2   -1    0    0  501    0  0.00000000000E+00  0.00000000000E+00 -0.11102447944E+04  0.11102447944E+04  0.25500000920E-02 0.  1.
    10030    2    1    2    0    0  0.00000000000E+00  0.00000000000E+00 -0.18590676559E+02  0.22018989122E+04  0.22018204301E+04 0.  0.
        1    1    3    3  502    0 -0.30562663200E+03  0.59128622203E+02  0.10467250046E+04  0.10920334552E+04  0.50400001928E-02 0. -1.
       -1    1    3    3    0  502  0.30562663200E+03 -0.59128622203E+02 -0.10653156811E+04  0.11098654570E+04  0.50400001928E-02 0.  1.
</event>
<event>
 5   0  0.4630615E-06  0.2220629E+04  0.7818609E-02  0.8509891E-01
        1   -1    0    0  501    0  0.00000000000E+00  0.00000000000E+00  0.22324009643E+04  0.22324009643E+04  0.50400001928E-02 0. -1.
       -1   -1    0    0    0  501  0.00000000000E+00  0.00000000000E+00 -0.55222983030E+03  0.55222983032E+03  0.50400001928E-02 0.  1.
    10030    2    1    2    0    0  0.00000000000E+00  0.00000000000E+00  0.16801711340E+04  0.27846307947E+04  0.22206291052E+04 0.  0.
        2    1    3    3  502    0  0.60228089232E+03  0.16816126188E+02 -0.32939939658E+03  0.68667970541E+03  0.25500000920E-02 0.  1.
       -2    1    3    3    0  502 -0.60228089232E+03 -0.16816126188E+02  0.20095705306E+04  0.20979510892E+04  0.25500000920E-02 0. -1.
</event>
<event>
 5   0  0.4408787E-06  0.2192287E+04  0.7818609E-02  0.8521645E-01
       -1   -1    0    0    0  501  0.00000000000E+00  0.00000000000E+00  0.63863075984E+03  0.63863075986E+03  0.50400001928E-02 0.  1.
        1   -1    0    0  501    0  0.00000000000E+00  0.00000000000E+00 -0.18814173564E+04  0.18814173564E+04  0.50400001928E-02 0. -1.
    10030    2    1    2    0    0  0.00000000000E+00  0.00000000000E+00 -0.12427865966E+04  0.25200481163E+04  0.21922873862E+04 0.  0.
        1    1    3    3  502    0  0.58388132930E+03 -0.59831326630E+03  0.19356922056E+03  0.85811724986E+03  0.50400001928E-02 0.  1.
       -1    1    3    3    0  502 -0.58388132930E+03  0.59831326630E+03 -0.14363558171E+04  0.16619308664E+04  0.50400001928E-02 0. -1.
</event>
<event>
 5   0  0.4794967E-06  0.2196995E+04  0.7818609E-02  0.8519680E-01
       -1   -1    0    0    0  501  0.00000000000E+00  0.00000000000E+00  0.12805858736E+04  0.12805858736E+04  0.50400001928E-02 0. -1.
        1   -1    0    0  501    0  0.00000000000E+00  0.00000000000E+00 -0.94230079224E+03  0.94230079226E+03  0.50400001928E-02 0.  1.
    10030    2    1    2    0    0  0.00000000000E+00  0.00000000000E+00  0.33828508137E+03  0.22228866659E+04  0.21969952966E+04 0.  0.
        5    1    3    3  502    0 -0.83549407384E+03 -0.23013850760E+03 -0.51383918196E+03  0.10075052730E+04  0.46999998093E+01 0.  1.
       -5    1    3    3    0  502  0.83549407384E+03  0.23013850760E+03  0.85212426333E+03  0.12153813929E+04  0.46999998093E+01 0. -1.
</event>
<event>
 5   0  0.9963573E-06  0.2199501E+04  0.7818609E-02  0.8518636E-01
       -2   -1    0    0    0  501  0.00000000000E+00  0.00000000000E+00  0.10462452167E+04  0.10462452167E+04  0.25500000920E-02 0.  1.
        2   -1    0    0  501    0  0.00000000000E+00  0.00000000000E+00 -0.11559923095E+04  0.11559923095E+04  0.25500000920E-02 0. -1.
    10030    2    1    2    0    0  0.00000000000E+00  0.00000000000E+00 -0.10974709284E+03  0.22022375262E+04  0.21995012383E+04 0.  0.
        2    1    3    3  502    0 -0.15573922708E+03  0.12874393190E+03 -0.11372464822E+04  0.11550581233E+04  0.25500000920E-02 0. -1.
       -2    1    3    3    0  502  0.15573922708E+03 -0.12874393190E+03  0.10274993893E+04  0.10471794029E+04  0.25500000920E-02 0.  1.
</event>
<event>
 5   0  0.1014015E-05  0.2209293E+04  0.7818609E-02  0.8514570E-01
        2   -1    0    0  501    0  0.00000000000E+00  0.00000000000E+00  0.12107862419E+04  0.12107862419E+04  0.25500000920E-02 0. -1.
       -2   -1    0    0    0  501  0.00000000000E+00  0.00000000000E+00 -0.10078114201E+04  0.10078114201E+04  0.25500000920E-02 0.  1.
    10030    2    1    2    0    0  0.00000000000E+00  0.00000000000E+00  0.20297482184E+03  0.22185976620E+04  0.22092932824E+04 0.  0.
        1    1    3    3  502    0  0.10136638527E+04 -0.40839726570E+03  0.26322928144E+03  0.11240962537E+04  0.50400001928E-02 0. -1.
       -1    1    3    3    0  502 -0.10136638527E+04  0.40839726570E+03 -0.60254459598E+02  0.10945014083E+04  0.50400001928E-02 0.  1.
</event>
<event>
 5   0  0.1015876E-05  0.2198623E+04  0.7818609E-02  0.8519001E-01
        2   -1    0    0  501    0  0.00000000000E+00  0.00000000000E+00  0.23766046514E+04  0.23766046514E+04  0.25500000920E-02 0.  1.
       -2   -1    0    0    0  501  0.00000000000E+00  0.00000000000E+00 -0.50849256729E+03  0.50849256729E+03  0.25500000920E-02 0. -1.
    10030    2    1    2    0    0  0.00000000000E+00  0.00000000000E+00  0.18681120841E+04  0.28850972187E+04  0.21986230242E+04 0.  0.
        5    1    3    3  502    0  0.24319403983E+03  0.10708073626E+04  0.10021398958E+04  0.14866331792E+04  0.46999998093E+01 0. -1.
       -5    1    3    3    0  502 -0.24319403983E+03 -0.10708073626E+04  0.86597218836E+03  0.13984640395E+04  0.46999998093E+01 0.  1.
</event>
<event>
 5   0  0.3546750E-06  0.2198935E+04  0.7818609E-02  0.8518871E-01
       -3   -1    0    0    0  501  0.00000000000E+00  0.00000000000E+00  0.73771170679E+03  0.73771171371E+03  0.10100000352E+00 0.  1.
        3   -1    0    0  501    0  0.00000000000E+00  0.00000000000E+00 -0.16386200216E+04  0.16386200247E+04  0.10100000352E+00 0. -1.
    10030    2    1    2    0    0  0.00000000000E+00  0.00000000000E+00 -0.90090831481E+03  0.23763317384E+04  0.21989353650E+04 0.  0.
        1    1    3    3  502    0  0.72890443862E+03  0.33548306500E+03  0.36183491395E+03  0.88021308359E+03  0.50400001928E-02 0.  1.
       -1    1    3    3    0  502 -0.72890443862E+03 -0.33548306500E+03 -0.12627432288E+04  0.14961186548E+04  0.50400001928E-02 0. -1.
</event>
<event>
 5   0  0.3546750E-06  0.2198020E+04  0.7818609E-02  0.8519253E-01
        4   -1    0    0  501    0  0.00000000000E+00  0.00000000000E+00  0.94020003976E+03  0.94020089751E+03  0.12699999809E+01 0. -1.
       -4   -1    0    0    0  501  0.00000000000E+00  0.00000000000E+00 -0.12846424670E+04  0.12846430947E+04  0.12699999809E+01 0.  1.
    10030    2    1    2    0    0  0.00000000000E+00  0.00000000000E+00 -0.34444242720E+03  0.22248439922E+04  0.21980196096E+04 0.  0.
        5    1    3    3  502    0  0.10797241490E+04  0.20433282903E+03 -0.18804264530E+03  0.11148714139E+04  0.46999998093E+01 0. -1.
       -5    1    3    3    0  502 -0.10797241490E+04 -0.20433282903E+03 -0.15639978190E+03  0.11099725784E+04  0.46999998093E+01 0.  1.
</event>
<event>
 5   0  0.9963173E-06  0.2206466E+04  0.7818609E-02  0.8515742E-01
        2   -1    0    0  501    0  0.00000000000E+00  0.00000000000E+00  0.82047215301E+03  0.82047215301E+03  0.25500000920E-02 0. -1.
       -2   -1    0    0    0  501  0.00000000000E+00  0.00000000000E+00 -0.14834421738E+04  0.14834421738E+04  0.25500000920E-02 0.  1.
    10030    2    1    2    0    0  0.00000000000E+00  0.00000000000E+00 -0.66297002081E+03  0.23039143268E+04  0.22064659474E+04 0.  0.
        4    1    3    3  502    0 -0.74524187997E+03 -0.57700962297E+03  0.26724666912E+03  0.97966726990E+03  0.12699999809E+01 0. -1.
       -4    1    3    3    0  502  0.74524187997E+03  0.57700962297E+03 -0.93021668994E+03  0.13242470569E+04  0.12699999809E+01 0.  1.
</event>
<event>
 5   0  0.1014015E-05  0.2190656E+04  0.7818609E-02  0.8522328E-01
        2   -1    0    0  501    0  0.00000000000E+00  0.00000000000E+00  0.13171202131E+04  0.13171202131E+04  0.25500000920E-02 0. -1.
       -2   -1    0    0    0  501  0.00000000000E+00  0.00000000000E+00 -0.91088338256E+03  0.91088338256E+03  0.25500000920E-02 0.  1.
    10030    2    1    2    0    0  0.00000000000E+00  0.00000000000E+00  0.40623683058E+03  0.22280035957E+04  0.21906555320E+04 0.  0.
        1    1    3    3  502    0  0.10502280619E+03  0.10667052794E+04 -0.26232229159E+02  0.10721837868E+04  0.50400001928E-02 0.  1.
       -1    1    3    3    0  502 -0.10502280619E+03 -0.10667052794E+04  0.43246905974E+03  0.11558198089E+04  0.50400001928E-02 0. -1.
</event>
<event>
 5   0  0.4408787E-06  0.2194439E+04  0.7818609E-02  0.8520746E-01
       -1   -1    0    0    0  501  0.00000000000E+00  0.00000000000E+00  0.11361306654E+04  0.11361306654E+04  0.50400001928E-02 0. -1.
        1   -1    0    0  501    0  0.00000000000E+00  0.00000000000E+00 -0.10596411888E+04  0.10596411888E+04  0.50400001928E-02 0.  1.
    10030    2    1    2    0    0  0.00000000000E+00  0.00000000000E+00  0.76489476579E+02  0.21957718542E+04  0.21944391984E+04 0.  0.
        1    1    3    3  502    0 -0.16937246579E+03  0.98869614218E+03  0.48313116182E+03  0.11133834978E+04  0.50400001928E-02 0. -1.
       -1    1    3    3    0  502  0.16937246579E+03 -0.98869614218E+03 -0.40664168524E+03  0.10823883563E+04  0.50400001928E-02 0.  1.
</event>
<event>
 5   0  0.4794967E-06  0.2199690E+04  0.7818609E-02  0.8518557E-01
        1   -1    0    0  501    0  0.00000000000E+00  0.00000000000E+00  0.19133318871E+04  0.19133318871E+04  0.50400001928E-02 0. -1.
       -1   -1    0    0    0  501  0.00000000000E+00  0.00000000000E+00 -0.63222625495E+03  0.63222625497E+03  0.50400001928E-02 0.  1.
    10030    2    1    2    0    0  0.00000000000E+00  0.00000000000E+00  0.12811056321E+04  0.25455581420E+04  0.21996896631E+04 0.  0.
        5    1    3    3  502    0  0.73211108572E+03  0.42046130367E+03 -0.17516433183E+03  0.86225227333E+03  0.46999998093E+01 0.  1.
       -5    1    3    3    0  502 -0.73211108572E+03 -0.42046130367E+03  0.14562699640E+04  0.16833058687E+04  0.46999998093E+01 0. -1.
</event>
<event>
 5   0  0.1015876E-05  0.2200259E+04  0.7818609E-02  0.8518321E-01
        2   -1    0    0  501    0  0.00000000000E+00  0.00000000000E+00  0.21688314132E+04  0.21688314132E+04  0.25500000920E-02 0. -1.
       -2   -1    0    0    0  501  0.00000000000E+00  0.00000000000E+00 -0.55803525811E+03  0.55803525811E+03  0.25500000920E-02 0.  1.
    10030    2    1    2    0    0  0.00000000000E+00  0.00000000000E+00  0.16107961551E+04  0.27268666713E+04  0.22002585280E+04 0.  0.
        5    1    3    3  502    0  0.34591429008E+03 -0.50920871685E+03  0.19353819375E+04  0.20309297248E+04  0.46999998093E+01 0. -1.
       -5    1    3    3    0  502 -0.34591429008E+03  0.50920871685E+03 -0.32458578235E+03  0.69593694649E+03  0.46999998093E+01 0.  1.
</event>
<event>
 5   0  0.1015876E-05  0.2203767E+04  0.7818609E-02  0.8516862E-01
       -2   -1    0    0    0  501  0.00000000000E+00  0.00000000000E+00  0.10970814767E+04  0.10970814767E+04  0.25500000920E-02 0. -1.
        2   -1    0    0  501    0  0.00000000000E+00  0.00000000000E+00 -0.11067060833E+04  0.11067060833E+04  0.25500000920E-02 0.  1.
    10030    2    1    2    0    0  0.00000000000E+00  0.00000000000E+00 -0.96246066074E+01  0.22037875599E+04  0.22037665430E+04 0.  0.
        5    1    3    3  502    0  0.53378540076E+03 -0.69925747802E+03 -0.66832204428E+03  0.11047915276E+04  0.46999998093E+01 0.  1.
       -5    1    3    3    0  502 -0.53378540076E+03  0.69925747802E+03  0.65869743767E+03  0.10989960323E+04  0.46999998093E+01 0. -1.
</event>
<event>
 5   0  0.1015876E-05  0.2201905E+04  0.7818609E-02  0.8517635E-01
        2   -1    0    0  501    0  0.00000000000E+00  0.00000000000E+00  0.61504117703E+03  0.61504117703E+03  0.25500000920E-02 0. -1.
       -2   -1    0    0    0  501  0.00000000000E+00  0.00000000000E+00 -0.19707572375E+04  0.19707572375E+04  0.25500000920E-02 0.  1.
    10030    2    1    2    0    0  0.00000000000E+00  0.00000000000E+00 -0.13557160604E+04  0.25857984145E+04  0.22019054030E+04 0.  0.
        5    1    3    3  502    0  0.10577041128E+04 -0.29211218670E+03 -0.57277382137E+03  0.12378042900E+04  0.46999998093E+01 0. -1.
       -5    1    3    3    0  502 -0.10577041128E+04  0.29211218670E+03 -0.78294223908E+03  0.13479941245E+04  0.46999998093E+01 0.  1.
</event>
<event>
 5   0  0.9963173E-06  0.2201518E+04  0.7818609E-02  0.8517796E-01
       -2   -1    0    0    0  501  0.00000000000E+00  0.00000000000E+00  0.62245218444E+03  0.62245218444E+03  0.25500000920E-02 0.  1.
        2   -1    0    0  501    0  0.00000000000E+00  0.00000000000E+00 -0.19466084660E+04  0.19466084660E+04  0.25500000920E-02 0. -1.
    10030    2    1    2    0    0  0.00000000000E+00  0.00000000000E+00 -0.13241562816E+04  0.25690606504E+04  0.22015182869E+04 0.  0.
        4    1    3    3  502    0 -0.36173568182E+03  0.93794468371E+03 -0.11853559718E+04  0.15542404338E+04  0.12699999809E+01 0. -1.
       -4    1    3    3    0  502  0.36173568182E+03 -0.93794468371E+03 -0.13880030971E+03  0.10148202166E+04  0.12699999809E+01 0.  1.
</event>
<event>
 5   0  0.9963173E-06  0.2202077E+04  0.7818609E-02  0.8517564E-01
       -2   -1    0    0    0  501  0.00000000000E+00  0.00000000000E+00  0.22129927194E+04  0.22129927194E+04  0.25500000920E-02 0. -1.
        2   -1    0    0  501    0  0.00000000000E+00  0.00000000000E+00 -0.54780391816E+03  0.54780391816E+03  0.25500000920E-02 0.  1.
    10030    2    1    2    0    0  0.00000000000E+00  0.00000000000E+00  0.16651888012E+04  0.27607966376E+04  0.22020772762E+04 0.  0.
        4    1    3    3  502    0  0.42332797949E+03 -0.74166849346E+02 -0.43829888549E+03  0.61385244618E+03  0.12699999809E+01 0.  1.
       -4    1    3    3    0  502 -0.42332797949E+03  0.74166849346E+02  0.21034876867E+04  0.21469441914E+04  0.12699999809E+01 0. -1.
</event>
<event>
 5   0  0.4794967E-06  0.2201771E+04  0.7818609E-02  0.8517691E-01
       -1   -1    0    0    0  501  0.00000000000E+00  0.00000000000E+00  0.12778761802E+04  0.12778761802E+04  0.50400001928E-02 0. -1.
        1   -1    0    0  501    0  0.00000000000E+00  0.00000000000E+00 -0.94840856611E+03  0.94840856612E+03  0.50400001928E-02 0.  1.
    10030    2    1    2    0    0  0.00000000000E+00  0.00000000000E+00  0.32946761406E+03  0.22262847463E+04  0.22017708471E+04 0.  0.
        5    1    3    3  502    0  0.35114048455E+02 -0.59210348292E+02 -0.94622001145E+03  0.94873245007E+03  0.46999998093E+01 0.  1.
       -5    1    3    3    0  502 -0.35114048455E+02  0.59210348292E+02  0.12756876255E+04  0.12775522962E+04  0.46999998093E+01 0. -1.
</event>
<event>
 5   0  0.1035928E-05  0.2199949E+04  0.7818609E-02  0.8518449E-01
       -2   -1    0    0    0  501  0.00000000000E+00  0.00000000000E+00  0.12119116505E+04  0.12119116505E+04  0.25500000920E-02 0.  1.
        2   -1    0    0  501    0  0.00000000000E+00  0.00000000000E+00 -0.99837617475E+03  0.99837617475E+03  0.25500000920E-02 0. -1.
    10030    2    1    2    0    0  0.00000000000E+00  0.00000000000E+00  0.21353547576E+03  0.22102878253E+04  0.21999488337E+04 0.  0.
        3    1    3    3  502    0 -0.52465616329E+03 -0.42144097692E+03  0.98095292669E+03  0.11895987732E+04  0.10100000352E+00 0.  1.
       -3    1    3    3    0  502  0.52465616329E+03  0.42144097692E+03 -0.76741745094E+03  0.10206890520E+04  0.10100000352E+00 0. -1.
</event>
<event>
 5   0  0.9963573E-06  0.2203038E+04  0.7818609E-02  0.8517165E-01
        2   -1    0    0  501    0  0.00000000000E+00  0.00000000000E+00  0.12729963793E+04  0.12729963793E+04  0.25500000920E-02 0. -1.
       -2   -1    0    0    0  501  0.00000000000E+00  0.00000000000E+00 -0.95314002723E+03  0.95314002724E+03  0.25500000920E-02 0.  1.
    10030    2    1    2    0    0  0.00000000000E+00  0.00000000000E+00  0.31985635208E+03  0.22261364065E+04  0.22030377243E+04 0.  0.
        2    1    3    3  502    0  0.42557092837E+03  0.93994532171E+03  0.54963486399E+03  0.11690621483E+04  0.25500000920E-02 0. -1.
       -2    1    3    3    0  502 -0.42557092837E+03 -0.93994532171E+03 -0.22977851192E+03  0.10570742582E+04  0.25500000920E-02 0.  1.
</event>
<event>
 5   0  0.4408787E-06  0.2188486E+04  0.7818609E-02  0.8523236E-01
        1   -1    0    0  501    0  0.00000000000E+00  0.00000000000E+00  0.25822837875E+04  0.25822837875E+04  0.50400001928E-02 0.  1.
       -1   -1    0    0    0  501  0.00000000000E+00  0.00000000000E+00 -0.46368575450E+03  0.46368575453E+03  0.50400001928E-02 0. -1.
    10030    2    1    2    0    0  0.00000000000E+00  0.00000000000E+00  0.21185980330E+04  0.30459695420E+04  0.21884864234E+04 0.  0.
        1    1    3    3  502    0 -0.15109274595E+03  0.52345373445E+03  0.23800838967E+04  0.24416453849E+04  0.50400001928E-02 0.  1.
       -1    1    3    3    0  502  0.15109274595E+03 -0.52345373445E+03 -0.26148586372E+03  0.60432415717E+03  0.50400001928E-02 0. -1.
</event>
<event>
 5   0  0.1015876E-05  0.2200517E+04  0.7818609E-02  0.8518213E-01
        2   -1    0    0  501    0  0.00000000000E+00  0.00000000000E+00  0.11424097982E+04  0.11424097982E+04  0.25500000920E-02 0. -1.
       -2   -1    0    0    0  501  0.00000000000E+00  0.00000000000E+00 -0.10596622135E+04  0.10596622135E+04  0.25500000920E-02 0.  1.
    10030    2    1    2    0    0  0.00000000000E+00  0.00000000000E+00  0.82747584684E+02  0.22020720117E+04  0.22005167534E+04 0.  0.
        5    1    3    3  502    0 -0.14261253199E+03 -0.10617379093E+04 -0.20964344913E+03  0.10916034940E+04  0.46999998093E+01 0.  1.
       -5    1    3    3    0  502  0.14261253199E+03  0.10617379093E+04  0.29239103382E+03  0.11104685178E+04  0.46999998093E+01 0. -1.
</event>
<event>
 5   0  0.9963573E-06  0.2196983E+04  0.7818609E-02  0.8519685E-01
       -2   -1    0    0    0  501  0.00000000000E+00  0.00000000000E+00  0.11893778218E+04  0.11893778218E+04  0.25500000920E-02 0.  1.
        2   -1    0    0  501    0  0.00000000000E+00  0.00000000000E+00 -0.10145498532E+04  0.10145498532E+04  0.25500000920E-02 0. -1.
    10030    2    1    2    0    0  0.00000000000E+00  0.00000000000E+00  0.17482796861E+03  0.22039276749E+04  0.21969825620E+04 0.  0.
        2    1    3    3  502    0  0.56586783476E+03  0.94070732340E+03  0.47965127968E+02  0.10988345318E+04  0.25500000920E-02 0. -1.
       -2    1    3    3    0  502 -0.56586783476E+03 -0.94070732340E+03  0.12686284064E+03  0.11050931432E+04  0.25500000920E-02 0.  1.
</event>
<event>
 5   0  0.4408787E-06  0.2202417E+04  0.7818609E-02  0.8517423E-01
        1   -1    0    0  501    0  0.00000000000E+00  0.00000000000E+00  0.97514501731E+03  0.97514501733E+03  0.50400001928E-02 0.  1.
       -1   -1    0    0    0  501  0.00000000000E+00  0.00000000000E+00 -0.12435691899E+04  0.12435691899E+04  0.50400001928E-02 0. -1.
    10030    2    1    2    0    0  0.00000000000E+00  0.00000000000E+00 -0.26842417262E+03  0.22187142073E+04  0.22024171260E+04 0.  0.
        1    1    3    3  502    0 -0.51805953786E+02 -0.10999639008E+04 -0.12668286960E+03  0.11084462050E+04  0.50400001928E-02 0. -1.
       -1    1    3    3    0  502  0.51805953786E+02  0.10999639008E+04 -0.14174130302E+03  0.11102680023E+04  0.50400001928E-02 0.  1.
</event>
<event>
 5   0  0.1015876E-05  0.2198496E+04  0.7818609E-02  0.8519055E-01
        2   -1    0    0  501    0  0.00000000000E+00  0.00000000000E+00  0.70890252203E+03  0.70890252203E+03  0.25500000920E-02 0.  1.
       -2   -1    0    0    0  501  0.00000000000E+00  0.00000000000E+00 -0.17045300101E+04  0.17045300101E+04  0.25500000920E-02 0. -1.
    10030    2    1    2    0    0  0.00000000000E+00  0.00000000000E+00 -0.99562748804E+03  0.24134325321E+04  0.21984955065E+04 0.  0.
        5    1    3    3  502    0  0.88729209415E+03  0.61482533402E+03 -0.72552026980E+03  0.13006533757E+04  0.46999998093E+01 0. -1.
       -5    1    3    3    0  502 -0.88729209415E+03 -0.61482533402E+03 -0.27010721824E+03  0.11127791565E+04  0.46999998093E+01 0.  1.
</event>
<event>
 5   0  0.1015876E-05  0.2210694E+04  0.7818609E-02  0.8513990E-01
       -2   -1    0    0    0  501  0.00000000000E+00  0.00000000000E+00  0.15995178156E+04  0.15995178156E+04  0.25500000920E-02 0.  1.
        2   -1    0    0  501    0  0.00000000000E+00  0.00000000000E+00 -0.76384998625E+03  0.76384998626E+03  0.25500000920E-02 0. -1.
    10030    2    1    2    0    0  0.00000000000E+00  0.00000000000E+00  0.83566782933E+03  0.23633678018E+04  0.22106937024E+04 0.  0.
        5    1    3    3  502    0 -0.45770730513E+03  0.57558097625E+03 -0.46437199304E+03  0.86974299382E+03  0.46999998093E+01 0. -1.
       -5    1    3    3    0  502  0.45770730513E+03 -0.57558097625E+03  0.13000398224E+04  0.14936248080E+04  0.46999998093E+01 0.  1.
</event>
<event>
 5   0  0.1035928E-05  0.2199848E+04  0.7818609E-02  0.8518491E-01
       -2   -1    0    0    0  501  0.00000000000E+00  0.00000000000E+00  0.13313732487E+04  0.13313732487E+04  0.25500000920E-02 0.  1.
        2   -1    0    0  501    0  0.00000000000E+00  0.00000000000E+00 -0.90871053458E+03  0.90871053458E+03  0.25500000920E-02 0. -1.
    10030    2    1    2    0    0  0.00000000000E+00  0.00000000000E+00  0.42266271410E+03  0.22400837833E+04  0.21998480825E+04 0.  0.
        3    1    3    3  502    0  0.63250609910E+03  0.22794145049E+03 -0.67511447182E+03  0.95278582615E+03  0.10100000352E+00 0. -1.
       -3    1    3    3    0  502 -0.63250609910E+03 -0.22794145049E+03  0.10977771859E+04  0.12872979571E+04  0.10100000352E+00 0.  1.
</event>
<event>
 5   0  0.4630615E-06  0.2201899E+04  0.7818609E-02  0.8517638E-01
        1   -1    0    0  501    0  0.00000000000E+00  0.00000000000E+00  0.73034315570E+03  0.73034315572E+03  0.50400001928E-02 0.  1.
       -1   -1    0    0    0  501  0.00000000000E+00  0.00000000000E+00 -0.16596167401E+04  0.16596167401E+04  0.50400001928E-02 0. -1.
    10030    2    1    2    0    0  0.00000000000E+00  0.00000000000E+00 -0.92927358437E+03  0.23899598958E+04  0.22018989325E+04 0.  0.
        2    1    3    3  502    0  0.69942610858E+03 -0.75645232987E+03 -0.43318277420E+02  0.10311612298E+04  0.25500000920E-02 0.  1.
       -2    1    3    3    0  502 -0.69942610858E+03  0.75645232987E+03 -0.88595530695E+03  0.13587986660E+04  0.25500000920E-02 0. -1.
</event>
<event>
 5   0  0.4794967E-06  0.2195912E+04  0.7818609E-02  0.8520131E-01
       -1   -1    0    0    0  501  0.00000000000E+00  0.00000000000E+00  0.84885192471E+03  0.84885192472E+03  0.50400001928E-02 0. -1.
        1   -1    0    0  501    0  0.00000000000E+00  0.00000000000E+00 -0.14201623276E+04  0.14201623276E+04  0.50400001928E-02 0.  1.
    10030    2    1    2    0    0  0.00000000000E+00  0.00000000000E+00 -0.57131040287E+03  0.22690142523E+04  0.21959121341E+04 0.  0.
        5    1    3    3  502    0  0.77372400585E+03 -0.14635024027E+03 -0.10762525931E+04  0.13335700073E+04  0.46999998093E+01 0.  1.
       -5    1    3    3    0  502 -0.77372400585E+03  0.14635024027E+03  0.50494219027E+03  0.93544424504E+03  0.46999998093E+01 0. -1.
</event>
<event>
 5   0  0.9963573E-06  0.2200853E+04  0.7818609E-02  0.8518073E-01
        2   -1    0    0  501    0  0.00000000000E+00  0.00000000000E+00  0.65261245525E+03  0.65261245525E+03  0.25500000920E-02 0. -1.
       -2   -1    0    0    0  501  0.00000000000E+00  0.00000000000E+00 -0.18555246111E+04  0.18555246111E+04  0.25500000920E-02 0.  1.
    10030    2    1    2    0    0  0.00000000000E+00  0.00000000000E+00 -0.12029121559E+04  0.25081370664E+04  0.22008529912E+04 0.  0.
        2    1    3    3  502    0 -0.86714491704E+03  0.18233414421E+03 -0.13450550783E+04  0.16107014655E+04  0.25500000920E-02 0.  1.
       -2    1    3    3    0  502  0.86714491704E+03 -0.18233414421E+03  0.14214292244E+03  0.89743560086E+03  0.25500000920E-02 0. -1.
</event>
<event>
 5   0  0.1014015E-05  0.2207577E+04  0.7818609E-02  0.8515281E-01
        2   -1    0    0  501    0  0.00000000000E+00  0.00000000000E+00  0.97022342239E+03  0.97022342239E+03  0.25500000920E-02 0.  1.
       -2   -1    0    0    0  501  0.00000000000E+00  0.00000000000E+00 -0.12557406951E+04  0.12557406951E+04  0.25500000920E-02 0. -1.
    10030    2    1    2    0    0  0.00000000000E+00  0.00000000000E+00 -0.28551727268E+03  0.22259641175E+04  0.22075769838E+04 0.  0.
        1    1    3    3  502    0  0.13326734038E+03  0.55856170492E+03  0.80774741796E+03  0.99106369798E+03  0.50400001928E-02 0.  1.
       -1    1    3    3    0  502 -0.13326734038E+03 -0.55856170492E+03 -0.10932646906E+04  0.12349004195E+04  0.50400001928E-02 0. -1.
</event>
<event>
 5   0  0.4309945E-06  0.2200665E+04  0.7818609E-02  0.8518151E-01
       -1   -1    0    0    0  501  0.00000000000E+00  0.00000000000E+00  0.11659456337E+04  0.11659456337E+04  0.50400001928E-02 0.  1.
        1   -1    0    0  501    0  0.00000000000E+00  0.00000000000E+00 -0.10384116220E+04  0.10384116220E+04  0.50400001928E-02 0. -1.
    10030    2    1    2    0    0  0.00000000000E+00  0.00000000000E+00  0.12753401173E+03  0.22043572557E+04  0.22006648965E+04 0.  0.
        4    1    3    3  502    0 -0.58323521886E+02 -0.29607822021E+03 -0.99615106936E+03  0.10408566239E+04  0.12699999809E+01 0. -1.
       -4    1    3    3    0  502  0.58323521886E+02  0.29607822021E+03  0.11236850811E+04  0.11635006317E+04  0.12699999809E+01 0.  1.
</event>
<event>
 5   0  0.4462201E-06  0.2202943E+04  0.7818609E-02  0.8517204E-01
        1   -1    0    0  501    0  0.00000000000E+00  0.00000000000E+00  0.10796982723E+04  0.10796982723E+04  0.50400001928E-02 0. -1.
       -1   -1    0    0    0  501  0.00000000000E+00  0.00000000000E+00 -0.11236841807E+04  0.11236841807E+04  0.50400001928E-02 0.  1.
    10030    2    1    2    0    0  0.00000000000E+00  0.00000000000E+00 -0.43985908363E+02  0.22033824530E+04  0.22029433661E+04 0.  0.
        3    1    3    3  502    0  0.93666411880E+02 -0.29186630101E+03 -0.10801643744E+04  0.11228153991E+04  0.10100000352E+00 0.  1.
       -3    1    3    3    0  502 -0.93666411880E+02  0.29186630101E+03  0.10361784661E+04  0.10805670540E+04  0.10100000352E+00 0. -1.
</event>
<event>
 5   0  0.9963573E-06  0.2198943E+04  0.7818609E-02  0.8518868E-01
        2   -1    0    0  501    0  0.00000000000E+00  0.00000000000E+00  0.14021838781E+04  0.14021838781E+04  0.25500000920E-02 0.  1.
       -2   -1    0    0    0  501  0.00000000000E+00  0.00000000000E+00 -0.86211046102E+03  0.86211046103E+03  0.25500000920E-02 0. -1.
    10030    2    1    2    0    0  0.00000000000E+00  0.00000000000E+00  0.54007341706E+03  0.22642943391E+04  0.21989428274E+04 0.  0.
        2    1    3    3  502    0 -0.90241512642E+03 -0.39078543876E+03 -0.23627865912E+03  0.10113821851E+04  0.25500000920E-02 0. -1.
       -2    1    3    3    0  502  0.90241512642E+03  0.39078543876E+03  0.77635207618E+03  0.12529121540E+04  0.25500000920E-02 0.  1.
</event>
<event>
 5   0  0.4408787E-06  0.2198107E+04  0.7818609E-02  0.8519217E-01
        1   -1    0    0  501    0  0.00000000000E+00  0.00000000000E+00  0.96147314898E+03  0.96147314900E+03  0.50400001928E-02 0.  1.
       -1   -1    0    0    0  501  0.00000000000E+00  0.00000000000E+00 -0.12563203696E+04  0.12563203696E+04  0.50400001928E-02 0. -1.
    10030    2    1    2    0    0  0.00000000000E+00  0.00000000000E+00 -0.29484722058E+03  0.22177935186E+04  0.21981067325E+04 0.  0.
        1    1    3    3  502    0 -0.48965353987E+03  0.95753674861E+02  0.84062687134E+03  0.97753920239E+03  0.50400001928E-02 0.  1.
       -1    1    3    3    0  502  0.48965353987E+03 -0.95753674861E+02 -0.11354740919E+04  0.12402543162E+04  0.50400001928E-02 0. -1.
</event>
<event>
 5   0  0.4408787E-06  0.2226982E+04  0.7818609E-02  0.8507281E-01
       -1   -1    0    0    0  501  0.00000000000E+00  0.00000000000E+00  0.12199182894E+04  0.12199182894E+04  0.50400001928E-02 0. -1.
        1   -1    0    0  501    0  0.00000000000E+00  0.00000000000E+00 -0.10163484103E+04  0.10163484104E+04  0.50400001928E-02 0.  1.
    10030    2    1    2    0    0  0.00000000000E+00  0.00000000000E+00  0.20356987905E+03  0.22362666998E+04  0.22269818268E+04 0.  0.
        1    1    3    3  502    0 -0.44756198955E+03 -0.58635528485E+03 -0.73580164160E+03  0.10418868990E+04  0.50400001928E-02 0.  1.
       -1    1    3    3    0  502  0.44756198955E+03  0.58635528485E+03  0.93937152065E+03  0.11943798007E+04  0.50400001928E-02 0. -1.
</event>
<event>
 5   0  0.4630615E-06  0.2217694E+04  0.7818609E-02  0.8511099E-01
        1   -1    0    0  501    0  0.00000000000E+00  0.00000000000E+00  0.84748977444E+03  0.84748977446E+03  0.50400001928E-02 0. -1.
       -1   -1    0    0    0  501  0.00000000000E+00  0.00000000000E+00 -0.14508040007E+04  0.14508040007E+04  0.50400001928E-02 0.  1.
    10030    2    1    2    0    0  0.00000000000E+00  0.00000000000E+00 -0.60331422623E+03  0.22982937751E+04  0.22176938971E+04 0.  0.
        2    1    3    3  502    0 -0.78772844533E+03 -0.60349703715E+03 -0.81442937981E+03  0.12837523095E+04  0.25500000920E-02 0.  1.
       -2    1    3    3    0  502  0.78772844533E+03  0.60349703715E+03  0.21111515358E+03  0.10145414656E+04  0.25500000920E-02 0. -1.
</event>
<event>
 5   0  0.9963173E-06  0.2201426E+04  0.7818609E-02  0.8517835E-01
        2   -1    0    0  501    0  0.00000000000E+00  0.00000000000E+00  0.43087296971E+03  0.43087296972E+03  0.25500000920E-02 0. -1.
       -2   -1    0    0    0  501  0.00000000000E+00  0.00000000000E+00 -0.28118948230E+04  0.28118948230E+04  0.25500000920E-02 0.  1.
    10030    2    1    2    0    0  0.00000000000E+00  0.00000000000E+00 -0.23810218533E+04  0.32427677927E+04  0.22014263312E+04 0.  0.
        4    1    3    3  502    0  0.10312495357E+04 -0.23673306590E+03 -0.74359800883E+03  0.12932353850E+04  0.12699999809E+01 0. -1.
       -4    1    3    3    0  502 -0.10312495357E+04  0.23673306590E+03 -0.16374238444E+04  0.19495324077E+04  0.12699999809E+01 0.  1.
</event>
<event>
 5   0  0.3546750E-06  0.2200312E+04  0.7818609E-02  0.8518298E-01
        4   -1    0    0  501    0  0.00000000000E+00  0.00000000000E+00  0.65644785783E+03  0.65644908633E+03  0.12699999809E+01 0.  1.
       -4   -1    0    0    0  501  0.00000000000E+00  0.00000000000E+00 -0.18437737342E+04  0.18437741715E+04  0.12699999809E+01 0. -1.
    10030    2    1    2    0    0  0.00000000000E+00  0.00000000000E+00 -0.11873258763E+04  0.25002232579E+04  0.22003121603E+04 0.  0.
        4    1    3    3  502    0  0.10519720977E+04  0.31574431531E+03 -0.52177861922E+03  0.12159746327E+04  0.12699999809E+01 0.  1.
       -4    1    3    3    0  502 -0.10519720977E+04 -0.31574431531E+03 -0.66554725711E+03  0.12842486252E+04  0.12699999809E+01 0. -1.
</event>
<event>
 5   0  0.9963173E-06  0.2206979E+04  0.7818609E-02  0.8515529E-01
       -2   -1    0    0    0  501  0.00000000000E+00  0.00000000000E+00  0.64689873606E+03  0.64689873607E+03  0.25500000920E-02 0. -1.
        2   -1    0    0  501    0  0.00000000000E+00  0.00000000000E+00 -0.18823491633E+04  0.18823491633E+04  0.25500000920E-02 0.  1.
    10030    2    1    2    0    0  0.00000000000E+00  0.00000000000E+00 -0.12354504272E+04  0.25292478994E+04  0.22069791975E+04 0.  0.
        4    1    3    3  502    0  0.23129528581E+03 -0.85215369779E+03  0.14075146989E+03  0.89413423102E+03  0.12699999809E+01 0. -1.
       -4    1    3    3    0  502 -0.23129528581E+03  0.85215369779E+03 -0.13762018971E+04  0.16351136684E+04  0.12699999809E+01 0.  1.
</event>
<event>
 5   0  0.1014015E-05  0.2192402E+04  0.7818609E-02  0.8521597E-01
       -2   -1    0    0    0  501  0.00000000000E+00  0.00000000000E+00  0.93466990020E+03  0.93466990020E+03  0.25500000920E-02 0. -1.
        2   -1    0    0  501    0  0.00000000000E+00  0.00000000000E+00 -0.12856480739E+04  0.12856480739E+04  0.25500000920E-02 0.  1.
    10030    2    1    2    0    0  0.00000000000E+00  0.00000000000E+00 -0.35097817368E+03  0.22203179741E+04  0.21924019311E+04 0.  0.
        1    1    3    3  502    0 -0.10711151453E+04 -0.15138466427E+03  0.41150240666E+01  0.10817679532E+04  0.50400001928E-02 0. -1.
       -1    1    3    3    0  502  0.10711151453E+04  0.15138466427E+03 -0.35509319775E+03  0.11385500209E+04  0.50400001928E-02 0.  1.
</event>
<event>
 5   0  0.1015876E-05  0.2148786E+04  0.7818609E-02  0.8540052E-01
       -2   -1    0    0    0  501  0.00000000000E+00  0.00000000000E+00  0.68787256130E+03  0.68787256130E+03  0.25500000920E-02 0. -1.
        2   -1    0    0  501    0  0.00000000000E+00  0.00000000000E+00 -0.16781020874E+04  0.16781020874E+04  0.25500000920E-02 0.  1.
    10030    2    1    2    0    0  0.00000000000E+00  0.00000000000E+00 -0.99022952608E+03  0.23659746487E+04  0.21487860582E+04 0.  0.
        5    1    3    3  502    0  0.29305845004E+03  0.24723223251E+03  0.60996707658E+03  0.72047828311E+03  0.46999998093E+01 0. -1.
       -5    1    3    3    0  502 -0.29305845004E+03 -0.24723223251E+03 -0.16001966027E+04  0.16454963656E+04  0.46999998093E+01 0.  1.
</event>
<event>
 5   0  0.1035928E-05  0.2140475E+04  0.7818609E-02  0.8543621E-01
       -2   -1    0    0    0  501  0.00000000000E+00  0.00000000000E+00  0.11026566892E+04  0.11026566892E+04  0.25500000920E-02 0.  1.
        2   -1    0    0  501    0  0.00000000000E+00  0.00000000000E+00 -0.10387710649E+04  0.10387710649E+04  0.25500000920E-02 0. -1.
    10030    2    1    2    0    0  0.00000000000E+00  0.00000000000E+00  0.63885624268E+02  0.21414277541E+04  0.21404745859E+04 0.  0.
        3    1    3    3  502    0 -0.17962951479E+03 -0.94590804536E+03  0.49948277054E+03  0.10846620862E+04  0.10100000352E+00 0.  1.
       -3    1    3    3    0  502  0.17962951479E+03  0.94590804536E+03 -0.43559714627E+03  0.10567656679E+04  0.10100000352E+00 0. -1.
</event>
<event>
 5   0  0.9963173E-06  0.2202918E+04  0.7818609E-02  0.8517215E-01
        2   -1    0    0  501    0  0.00000000000E+00  0.00000000000E+00  0.12460518603E+04  0.12460518603E+04  0.25500000920E-02 0.  1.
       -2   -1    0    0    0  501  0.00000000000E+00  0.00000000000E+00 -0.97364489304E+03  0.97364489304E+03  0.25500000920E-02 0. -1.
    10030    2    1    2    0    0  0.00000000000E+00  0.00000000000E+00  0.27240696727E+03  0.22196967534E+04  0.22029180922E+04 0.  0.
        4    1    3    3  502    0 -0.18863032708E+03 -0.10839198912E+04  0.83395467437E+02  0.11033676394E+04  0.12699999809E+01 0.  1.
       -4    1    3    3    0  502  0.18863032708E+03  0.10839198912E+04  0.18901149984E+03  0.11163291140E+04  0.12699999809E+01 0. -1.
</event>
<event>
 5   0  0.4462201E-06  0.2202940E+04  0.7818609E-02  0.8517206E-01
        1   -1    0    0  501    0  0.00000000000E+00  0.00000000000E+00  0.97175599096E+03  0.97175599097E+03  0.50400001928E-02 0. -1.
       -1   -1    0    0    0  501  0.00000000000E+00  0.00000000000E+00 -0.12484985243E+04  0.12484985243E+04  0.50400001928E-02 0.  1.
    10030    2    1    2    0    0  0.00000000000E+00  0.00000000000E+00 -0.27674253337E+03  0.22202545153E+04  0.22029397820E+04 0.  0.
        3    1    3    3  502    0  0.15654834838E+03 -0.45892747767E+03 -0.11351411209E+04  0.12343691465E+04  0.10100000352E+00 0.  1.
       -3    1    3    3    0  502 -0.15654834838E+03  0.45892747767E+03  0.85839858756E+03  0.98588536883E+03  0.10100000352E+00 0. -1.
</event>
<event>
 5   0  0.4630615E-06  0.2199348E+04  0.7818609E-02  0.8518699E-01
       -1   -1    0    0    0  501  0.00000000000E+00  0.00000000000E+00  0.91190598267E+03  0.91190598268E+03  0.50400001928E-02 0.  1.
        1   -1    0    0  501    0  0.00000000000E+00  0.00000000000E+00 -0.13261050461E+04  0.13261050461E+04  0.50400001928E-02 0. -1.
    10030    2    1    2    0    0  0.00000000000E+00  0.00000000000E+00 -0.41419906338E+03  0.22380110287E+04  0.21993481991E+04 0.  0.
        2    1    3    3  502    0  0.30193257585E+03 -0.15750429437E+03  0.85689730288E+03  0.92208669375E+03  0.25500000920E-02 0.  1.
       -2    1    3    3    0  502 -0.30193257585E+03  0.15750429437E+03 -0.12710963663E+04  0.13159243350E+04  0.25500000920E-02 0. -1.
</event>
<event>
 5   0  0.4462201E-06  0.2200256E+04  0.7818609E-02  0.8518322E-01
       -1   -1    0    0    0  501  0.00000000000E+00  0.00000000000E+00  0.13275481824E+04  0.13275481824E+04  0.50400001928E-02 0.  1.
        1   -1    0    0  501    0  0.00000000000E+00  0.00000000000E+00 -0.91166679070E+03  0.91166679071E+03  0.50400001928E-02 0. -1.
    10030    2    1    2    0    0  0.00000000000E+00  0.00000000000E+00  0.41588139166E+03  0.22392149731E+04  0.22002559769E+04 0.  0.
        3    1    3    3  502    0  0.38651496151E+01  0.48593069218E+03 -0.79651971272E+03  0.93305264585E+03  0.10100000352E+00 0. -1.
       -3    1    3    3    0  502 -0.38651496151E+01 -0.48593069218E+03  0.12124011044E+04  0.13061623272E+04  0.10100000352E+00 0.  1.
</event>
<event>
 5   0  0.9963173E-06  0.2203857E+04  0.7818609E-02  0.8516825E-01
       -2   -1    0    0    0  501  0.00000000000E+00  0.00000000000E+00  0.44941081843E+03  0.44941081844E+03  0.25500000920E-02 0.  1.
        2   -1    0    0  501    0  0.00000000000E+00  0.00000000000E+00 -0.27018621269E+04  0.27018621269E+04  0.25500000920E-02 0. -1.
    10030    2    1    2    0    0  0.00000000000E+00  0.00000000000E+00 -0.22524513085E+04  0.31512729453E+04  0.22038566830E+04 0.  0.
        4    1    3    3  502    0  0.53559129647E+03 -0.18614142716E+03  0.22480322145E+03  0.60995472704E+03  0.12699999809E+01 0.  1.
       -4    1    3    3    0  502 -0.53559129647E+03  0.18614142716E+03 -0.24772545299E+04  0.25413182183E+04  0.12699999809E+01 0. -1.
</event>
<event>
 5   0  0.4408787E-06  0.2202277E+04  0.7818609E-02  0.8517481E-01
        1   -1    0    0  501    0  0.00000000000E+00  0.00000000000E+00  0.10356006238E+04  0.10356006238E+04  0.50400001928E-02 0.  1.
       -1   -1    0    0    0  501  0.00000000000E+00  0.00000000000E+00 -0.11708243039E+04  0.11708243039E+04  0.50400001928E-02 0. -1.
    10030    2    1    2    0    0  0.00000000000E+00  0.00000000000E+00 -0.13522368015E+03  0.22064249277E+04  0.22022773481E+04 0.  0.
        1    1    3    3  502    0  0.16879844022E+03  0.30966566208E+03 -0.11127065959E+04  0.11672624831E+04  0.50400001928E-02 0. -1.
       -1    1    3    3    0  502 -0.16879844022E+03 -0.30966566208E+03  0.97748291579E+03  0.10391624447E+04  0.50400001928E-02 0.  1.
</event>
<event>
 5   0  0.4794967E-06  0.2202086E+04  0.7818609E-02  0.8517560E-01
        1   -1    0    0  501    0  0.00000000000E+00  0.00000000000E+00  0.13788401593E+04  0.13788401593E+04  0.50400001928E-02 0. -1.
       -1   -1    0    0    0  501  0.00000000000E+00  0.00000000000E+00 -0.87921402453E+03  0.87921402455E+03  0.50400001928E-02 0.  1.
    10030    2    1    2    0    0  0.00000000000E+00  0.00000000000E+00  0.49962613476E+03  0.22580541839E+04  0.22020859254E+04 0.  0.
        5    1    3    3  502    0 -0.15738786663E+03  0.97158412536E+03  0.75583988623E+03  0.12409926176E+04  0.46999998093E+01 0. -1.
       -5    1    3    3    0  502  0.15738786663E+03 -0.97158412536E+03 -0.25621375146E+03  0.10170615663E+04  0.46999998093E+01 0.  1.
</event>
<event>
 5   0  0.4408787E-06  0.2201617E+04  0.7818609E-02  0.8517756E-01
       -1   -1    0    0    0  501  0.00000000000E+00  0.00000000000E+00  0.29608482848E+04  0.29608482848E+04  0.50400001928E-02 0.  1.
        1   -1    0    0  501    0  0.00000000000E+00  0.00000000000E+00 -0.40926752242E+03  0.40926752245E+03  0.50400001928E-02 0. -1.
    10030    2    1    2    0    0  0.00000000000E+00  0.00000000000E+00  0.25515807624E+04  0.33701158073E+04  0.22016167167E+04 0.  0.
        1    1    3    3  502    0 -0.92527719218E+02 -0.37935231499E+03  0.28512763544E+04  0.28778892277E+04  0.50400001928E-02 0.  1.
       -1    1    3    3    0  502  0.92527719218E+02  0.37935231499E+03 -0.29969559203E+03  0.49222657955E+03  0.50400001928E-02 0. -1.
</event>
<event>
 5   0  0.4630615E-06  0.2197656E+04  0.7818609E-02  0.8519405E-01
        1   -1    0    0  501    0  0.00000000000E+00  0.00000000000E+00  0.41235889028E+03  0.41235889031E+03  0.50400001928E-02 0.  1.
       -1   -1    0    0    0  501  0.00000000000E+00  0.00000000000E+00 -0.29280866442E+04  0.29280866442E+04  0.50400001928E-02 0. -1.
    10030    2    1    2    0    0  0.00000000000E+00  0.00000000000E+00 -0.25157277539E+04  0.33404455345E+04  0.21976556230E+04 0.  0.
        2    1    3    3  502    0  0.79471420763E+02  0.85350130863E+02  0.40292559522E+03  0.41946321275E+03  0.25500000920E-02 0.  1.
       -2    1    3    3    0  502 -0.79471420763E+02 -0.85350130863E+02 -0.29186533492E+04  0.29209823218E+04  0.25500000920E-02 0. -1.
</event>
<event>
 5   0  0.1015876E-05  0.2198618E+04  0.7818609E-02  0.8519004E-01
        2   -1    0    0  501    0  0.00000000000E+00  0.00000000000E+00  0.93825991837E+03  0.93825991837E+03  0.25500000920E-02 0. -1.
       -2   -1    0    0    0  501  0.00000000000E+00  0.00000000000E+00 -0.12880013996E+04  0.12880013996E+04  0.25500000920E-02 0.  1.
    10030    2    1    2    0    0  0.00000000000E+00  0.00000000000E+00 -0.34974148125E+03  0.22262613180E+04  0.21986178277E+04 0.  0.
        5    1    3    3  502    0  0.44256015572E+03 -0.10042881128E+04 -0.11079883606E+03  0.11030650829E+04  0.46999998093E+01 0. -1.
       -5    1    3    3    0  502 -0.44256015572E+03  0.10042881128E+04 -0.23894264519E+03  0.11231962351E+04  0.46999998093E+01 0.  1.
</event>
<event>
 5   0  0.9963173E-06  0.2207562E+04  0.7818609E-02  0.8515287E-01
        2   -1    0    0  501    0  0.00000000000E+00  0.00000000000E+00  0.17234994408E+04  0.17234994408E+04  0.25500000920E-02 0.  1.
       -2   -1    0    0    0  501  0.00000000000E+00  0.00000000000E+00 -0.70689446350E+03  0.70689446351E+03  0.25500000920E-02 0. -1.
    10030    2    1    2    0    0  0.00000000000E+00  0.00000000000E+00  0.10166049773E+04  0.24303939043E+04  0.22075617432E+04 0.  0.
        4    1    3    3  502    0 -0.41209260112E+03  0.88318658586E+03  0.10787678440E+04  0.14538158520E+04  0.12699999809E+01 0. -1.
       -4    1    3    3    0  502  0.41209260112E+03 -0.88318658586E+03 -0.62162866717E+02  0.97657805231E+03  0.12699999809E+01 0.  1.
</event>
<event>
 5   0  0.4462201E-06  0.2195583E+04  0.7818609E-02  0.8520269E-01
       -1   -1    0    0    0  501  0.00000000000E+00  0.00000000000E+00  0.10606192677E+04  0.10606192677E+04  0.50400001928E-02 0.  1.
        1   -1    0    0  501    0  0.00000000000E+00  0.00000000000E+00 -0.11362665486E+04  0.11362665486E+04  0.50400001928E-02 0. -1.
    10030    2    1    2    0    0  0.00000000000E+00  0.00000000000E+00 -0.75647280902E+02  0.21968858163E+04  0.21955830157E+04 0.  0.
        3    1    3    3  502    0  0.67819351063E+03 -0.13892371324E+03 -0.89032681560E+03  0.11277978918E+04  0.10100000352E+00 0. -1.
       -3    1    3    3    0  502 -0.67819351063E+03  0.13892371324E+03  0.81467953470E+03  0.10690879246E+04  0.10100000352E+00 0.  1.
</event>
<event>
 5   0  0.4630615E-06  0.2197587E+04  0.7818609E-02  0.8519433E-01
        1   -1    0    0  501    0  0.00000000000E+00  0.00000000000E+00  0.12039185075E+04  0.12039185075E+04  0.50400001928E-02 0. -1.
       -1   -1    0    0    0  501  0.00000000000E+00  0.00000000000E+00 -0.10028477130E+04  0.10028477130E+04  0.50400001928E-02 0.  1.
    10030    2    1    2    0    0  0.00000000000E+00  0.00000000000E+00  0.20107079450E+03  0.22067662205E+04  0.21975867872E+04 0.  0.
        2    1    3    3  502    0  0.75272748407E+02 -0.60544298881E+03 -0.81713064751E+03  0.10197694320E+04  0.25500000920E-02 0.  1.
       -2    1    3    3    0  502 -0.75272748407E+02  0.60544298881E+03  0.10182014420E+04  0.11869967885E+04  0.25500000920E-02 0. -1.
</event>
<event>
 5   0  0.9963173E-06  0.2183824E+04  0.7818609E-02  0.8525191E-01
        2   -1    0    0  501    0  0.00000000000E+00  0.00000000000E+00  0.15305197170E+04  0.15305197170E+04  0.25500000920E-02 0.  1.
       -2   -1    0    0    0  501  0.00000000000E+00  0.00000000000E+00 -0.77899790008E+03  0.77899790009E+03  0.25500000920E-02 0. -1.
    10030    2    1    2    0    0  0.00000000000E+00  0.00000000000E+00  0.75152181693E+03  0.23095176171E+04  0.21838238442E+04 0.  0.
        4    1    3    3  502    0  0.10451308322E+04 -0.17155322340E+02  0.70964962752E+03  0.12634068894E+04  0.12699999809E+01 0.  1.
       -4    1    3    3    0  502 -0.10451308322E+04  0.17155322340E+02  0.41872189407E+02  0.10461107277E+04  0.12699999809E+01 0. -1.
</event>
<event>
 5   0  0.4408787E-06  0.2201841E+04  0.7818609E-02  0.8517662E-01
        1   -1    0    0  501    0  0.00000000000E+00  0.00000000000E+00  0.19991758912E+04  0.19991758912E+04  0.50400001928E-02 0. -1.
       -1   -1    0    0    0  501  0.00000000000E+00  0.00000000000E+00 -0.60626278551E+03  0.60626278553E+03  0.50400001928E-02 0.  1.
    10030    2    1    2    0    0  0.00000000000E+00  0.00000000000E+00  0.13929131057E+04  0.26054386767E+04  0.22018409975E+04 0.  0.
        1    1    3    3  502    0 -0.96649630301E+03 -0.49119988378E+03  0.46997428897E+03  0.11816379572E+04  0.50400001928E-02 0.  1.
       -1    1    3    3    0  502  0.96649630301E+03  0.49119988378E+03  0.92293881673E+03  0.14238007196E+04  0.50400001928E-02 0. -1.
</event>
<event>
 5   0  0.1014015E-05  0.2221759E+04  0.7818609E-02  0.8509426E-01
       -2   -1    0    0    0  501  0.00000000000E+00  0.00000000000E+00  0.86206992649E+03  0.86206992649E+03  0.25500000920E-02 0.  1.
        2   -1    0    0  501    0  0.00000000000E+00  0.00000000000E+00 -0.14315002866E+04  0.14315002866E+04  0.25500000920E-02 0. -1.
    10030    2    1    2    0    0  0.00000000000E+00  0.00000000000E+00 -0.56943036010E+03  0.22935702131E+04  0.22217590750E+04 0.  0.
        1    1    3    3  502    0  0.67447787232E+03  0.81641737447E+03  0.61683174137E+02  0.10607839288E+04  0.50400001928E-02 0.  1.
       -1    1    3    3    0  502 -0.67447787232E+03 -0.81641737447E+03 -0.63111353424E+03  0.12327862843E+04  0.50400001928E-02 0. -1.
</event>
<event>
 5   0  0.4408787E-06  0.2199067E+04  0.7818609E-02  0.8518816E-01
        1   -1    0    0  501    0  0.00000000000E+00  0.00000000000E+00  0.10599980046E+04  0.10599980046E+04  0.50400001928E-02 0. -1.
       -1   -1    0    0    0  501  0.00000000000E+00  0.00000000000E+00 -0.11405438884E+04  0.11405438884E+04  0.50400001928E-02 0.  1.
    10030    2    1    2    0    0  0.00000000000E+00  0.00000000000E+00 -0.80545883813E+02  0.22005418929E+04  0.21990672985E+04 0.  0.
        1    1    3    3  502    0  0.20884201702E+03  0.21081511245E+02  0.10397629969E+04  0.10607386615E+04  0.50400001928E-02 0. -1.
       -1    1    3    3    0  502 -0.20884201702E+03 -0.21081511245E+02 -0.11203088807E+04  0.11398032315E+04  0.50400001928E-02 0.  1.
</event>
<event>
 5   0  0.4408787E-06  0.2191615E+04  0.7818609E-02  0.8521926E-01
       -1   -1    0    0    0  501  0.00000000000E+00  0.00000000000E+00  0.13271705900E+04  0.13271705900E+04  0.50400001928E-02 0.  1.
        1   -1    0    0  501    0  0.00000000000E+00  0.00000000000E+00 -0.90477738617E+03  0.90477738618E+03  0.50400001928E-02 0. -1.
    10030    2    1    2    0    0  0.00000000000E+00  0.00000000000E+00  0.42239320382E+03  0.22319479762E+04  0.21916148726E+04 0.  0.
        1    1    3    3  502    0  0.50306800423E+03 -0.11803946624E+03  0.11953048184E+04  0.13022151670E+04  0.50400001928E-02 0.  1.
       -1    1    3    3    0  502 -0.50306800423E+03  0.11803946624E+03 -0.77291161454E+03  0.92973280913E+03  0.50400001928E-02 0. -1.
</event>
<event>
 5   0  0.1035928E-05  0.2200046E+04  0.7818609E-02  0.8518409E-01
       -2   -1    0    0    0  501  0.00000000000E+00  0.00000000000E+00  0.83235598626E+03  0.83235598627E+03  0.25500000920E-02 0.  1.
        2   -1    0    0  501    0  0.00000000000E+00  0.00000000000E+00 -0.14537657733E+04  0.14537657733E+04  0.25500000920E-02 0. -1.
    10030    2    1    2    0    0  0.00000000000E+00  0.00000000000E+00 -0.62140978701E+03  0.22861217595E+04  0.22000460395E+04 0.  0.
        3    1    3    3  502    0  0.52949800402E+03  0.84915313971E+03  0.16391622722E+03  0.10140501618E+04  0.10100000352E+00 0.  1.
       -3    1    3    3    0  502 -0.52949800402E+03 -0.84915313971E+03 -0.78532601423E+03  0.12720715977E+04  0.10100000352E+00 0. -1.
</event>
<event>
 5   0  0.4794967E-06  0.2202761E+04  0.7818609E-02  0.8517280E-01
        1   -1    0    0  501    0  0.00000000000E+00  0.00000000000E+00  0.12339062179E+04  0.12339062179E+04  0.50400001928E-02 0.  1.
       -1   -1    0    0    0  501  0.00000000000E+00  0.00000000000E+00 -0.98308866490E+03  0.98308866491E+03  0.50400001928E-02 0. -1.
    10030    2    1    2    0    0  0.00000000000E+00  0.00000000000E+00  0.25081755295E+03  0.22169948828E+04  0.22027611912E+04 0.  0.
        5    1    3    3  502    0  0.20199448710E+03 -0.19853501003E+03  0.11966166146E+04  0.12296874950E+04  0.46999998093E+01 0.  1.
       -5    1    3    3    0  502 -0.20199448710E+03  0.19853501003E+03 -0.94579906163E+03  0.98730738780E+03  0.46999998093E+01 0. -1.
</event>
<event>
 5   0  0.1035928E-05  0.2206241E+04  0.7818609E-02  0.8515835E-01
        2   -1    0    0  501    0  0.00000000000E+00  0.00000000000E+00  0.18986663092E+04  0.18986663092E+04  0.25500000920E-02 0. -1.
       -2   -1    0    0    0  501  0.00000000000E+00  0.00000000000E+00 -0.64091018259E+03  0.64091018260E+03  0.25500000920E-02 0.  1.
    10030    2    1    2    0    0  0.00000000000E+00  0.00000000000E+00  0.12577561266E+04  0.25395764918E+04  0.22062407583E+04 0.  0.
        3    1    3    3  502    0 -0.95509805677E+03 -0.15270692791E+03  0.18320885431E+02  0.96740238212E+03  0.10100000352E+00 0.  1.
       -3    1    3    3    0  502  0.95509805677E+03  0.15270692791E+03  0.12394352412E+04  0.15721741097E+04  0.10100000352E+00 0. -1.
</event>
<event>
 5   0  0.9963173E-06  0.2196029E+04  0.7818609E-02  0.8520083E-01
       -2   -1    0    0    0  501  0.00000000000E+00  0.00000000000E+00  0.50347503151E+03  0.50347503151E+03  0.25500000920E-02 0. -1.
        2   -1    0    0  501    0  0.00000000000E+00  0.00000000000E+00 -0.23946288603E+04  0.23946288603E+04  0.25500000920E-02 0.  1.
    10030    2    1    2    0    0  0.00000000000E+00  0.00000000000E+00 -0.18911538288E+04  0.28981038919E+04  0.21960289988E+04 0.  0.
        4    1    3    3  502    0  0.76422170596E+03 -0.21760757828E+03 -0.19456344867E+04  0.21016381807E+04  0.12699999809E+01 0. -1.
       -4    1    3    3    0  502 -0.76422170596E+03  0.21760757828E+03  0.54480657884E+02  0.79646571110E+03  0.12699999809E+01 0.  1.
</event>
<event>
 5   0  0.1035928E-05  0.2214253E+04  0.7818609E-02  0.8512519E-01
       -2   -1    0    0    0  501  0.00000000000E+00  0.00000000000E+00  0.42805461392E+03  0.42805461393E+03  0.25500000920E-02 0.  1.
        2   -1    0    0  501    0  0.00000000000E+00  0.00000000000E+00 -0.28634879249E+04  0.28634879249E+04  0.25500000920E-02 0. -1.
    10030    2    1    2    0    0  0.00000000000E+00  0.00000000000E+00 -0.24354333110E+04  0.32915425389E+04  0.22142531185E+04 0.  0.
        3    1    3    3  502    0 -0.78966130530E+02 -0.97608218669E+03 -0.44994827977E+03  0.10776945530E+04  0.10100000352E+00 0.  1.
       -3    1    3    3    0  502  0.78966130530E+02  0.97608218669E+03 -0.19854850313E+04  0.22138479859E+04  0.10100000352E+00 0. -1.
</event>
<event>
 5   0  0.1014015E-05  0.2199480E+04  0.7818609E-02  0.8518645E-01
        2   -1    0    0  501    0  0.00000000000E+00  0.00000000000E+00  0.14249301254E+04  0.14249301254E+04  0.25500000920E-02 0. -1.
       -2   -1    0    0    0  501  0.00000000000E+00  0.00000000000E+00 -0.84876290609E+03  0.84876290609E+03  0.25500000920E-02 0.  1.
    10030    2    1    2    0    0  0.00000000000E+00  0.00000000000E+00  0.57616721928E+03  0.22736930315E+04  0.21994797878E+04 0.  0.
        1    1    3    3  502    0 -0.10879923690E+04 -0.14853240319E+03  0.35043941340E+03  0.11526478440E+04  0.50400001928E-02 0.  1.
       -1    1    3    3    0  502  0.10879923690E+04  0.14853240319E+03  0.22572780589E+03  0.11210451874E+04  0.50400001928E-02 0. -1.
</event>
<event>
 5   0  0.4630615E-06  0.2199382E+04  0.7818609E-02  0.8518685E-01
        1   -1    0    0  501    0  0.00000000000E+00  0.00000000000E+00  0.75273674100E+03  0.75273674101E+03  0.50400001928E-02 0. -1.
       -1   -1    0    0    0  501  0.00000000000E+00  0.00000000000E+00 -0.16065647465E+04  0.16065647465E+04  0.50400001928E-02 0.  1.
    10030    2    1    2    0    0  0.00000000000E+00  0.00000000000E+00 -0.85382800547E+03  0.23593014875E+04  0.21993820146E+04 0.  0.
        2    1    3    3  502    0 -0.42627853631E+03 -0.97889267266E+03 -0.14436903497E+03  0.10773981035E+04  0.25500000920E-02 0. -1.
       -2    1    3    3    0  502  0.42627853631E+03  0.97889267266E+03 -0.70945897051E+03  0.12819033840E+04  0.25500000920E-02 0.  1.
</event>
<event>
 5   0  0.4309945E-06  0.2199535E+04  0.7818609E-02  0.8518622E-01
        1   -1    0    0  501    0  0.00000000000E+00  0.00000000000E+00  0.95304895744E+03  0.95304895745E+03  0.50400001928E-02 0. -1.
       -1   -1    0    0    0  501  0.00000000000E+00  0.00000000000E+00 -0.12690731151E+04  0.12690731151E+04  0.50400001928E-02 0.  1.
    10030    2    1    2    0    0  0.00000000000E+00  0.00000000000E+00 -0.31602415764E+03  0.22221220725E+04  0.21995352320E+04 0.  0.
        4    1    3    3  502    0 -0.64312530403E+03 -0.12340704362E+03  0.73460366815E+03  0.98411565238E+03  0.12699999809E+01 0. -1.
       -4    1    3    3    0  502  0.64312530403E+03  0.12340704362E+03 -0.10506278258E+04  0.12380064201E+04  0.12699999809E+01 0.  1.
</event>
<event>
 5   0  0.1015876E-05  0.2201092E+04  0.7818609E-02  0.8517974E-01
       -2   -1    0    0    0  501  0.00000000000E+00  0.00000000000E+00  0.11049825666E+04  0.11049825666E+04  0.25500000920E-02 0. -1.
        2   -1    0    0  501    0  0.00000000000E+00  0.00000000000E+00 -0.10961273534E+04  0.10961273534E+04  0.25500000920E-02 0.  1.
    10030    2    1    2    0    0  0.00000000000E+00  0.00000000000E+00  0.88552132115E+01  0.22011099201E+04  0.22010921074E+04 0.  0.
        5    1    3    3  502    0  0.10669947465E+04  0.17972800799E+03  0.20542570192E+03  0.11013635889E+04  0.46999998093E+01 0. -1.
       -5    1    3    3    0  502 -0.10669947465E+04 -0.17972800799E+03 -0.19657048871E+03  0.10997463312E+04  0.46999998093E+01 0.  1.
</event>
<event>
 5   0  0.4408787E-06  0.2196574E+04  0.7818609E-02  0.8519856E-01
        1   -1    0    0  501    0  0.00000000000E+00  0.00000000000E+00  0.12040220184E+04  0.12040220185E+04  0.50400001928E-02 0. -1.
       -1   -1    0    0    0  501  0.00000000000E+00  0.00000000000E+00 -0.10018371161E+04  0.10018371161E+04  0.50400001928E-02 0.  1.
    10030    2    1    2    0    0  0.00000000000E+00  0.00000000000E+00  0.20218490239E+03  0.22058591345E+04  0.21965736470E+04 0.  0.
        1    1    3    3  502    0  0.35544385753E+03  0.33318878865E+03 -0.88738494395E+03  0.10123275871E+04  0.50400001928E-02 0.  1.
       -1    1    3    3    0  502 -0.35544385753E+03 -0.33318878865E+03  0.10895698463E+04  0.11935315475E+04  0.50400001928E-02 0. -1.
</event>
<event>
 5   0  0.4309945E-06  0.2203184E+04  0.7818609E-02  0.8517104E-01
       -1   -1    0    0    0  501  0.00000000000E+00  0.00000000000E+00  0.15981408154E+04  0.15981408154E+04  0.50400001928E-02 0. -1.
        1   -1    0    0  501    0  0.00000000000E+00  0.00000000000E+00 -0.75932319516E+03  0.75932319518E+03  0.50400001928E-02 0.  1.
    10030    2    1    2    0    0  0.00000000000E+00  0.00000000000E+00  0.83881762022E+03  0.23574640106E+04  0.22031844138E+04 0.  0.
        4    1    3    3  502    0  0.40557011438E+00  0.95537409589E+03  0.10062317877E+04  0.13875315676E+04  0.12699999809E+01 0. -1.
       -4    1    3    3    0  502 -0.40557011438E+00 -0.95537409589E+03 -0.16741416747E+03  0.96993244299E+03  0.12699999809E+01 0.  1.
</event>
<event>
 5   0  0.4794967E-06  0.2256120E+04  0.7818609E-02  0.8495426E-01
       -1   -1    0    0    0  501  0.00000000000E+00  0.00000000000E+00  0.64495429028E+03  0.64495429030E+03  0.50400001928E-02 0.  1.
        1   -1    0    0  501    0  0.00000000000E+00  0.00000000000E+00 -0.19730382424E+04  0.19730382424E+04  0.50400001928E-02 0. -1.
    10030    2    1    2    0    0  0.00000000000E+00  0.00000000000E+00 -0.13280839521E+04  0.26179925327E+04  0.22561201026E+04 0.  0.
        5    1    3    3  502    0 -0.10856245370E+03  0.96517511375E+03 -0.13297781917E+04  0.16467182321E+04  0.46999998093E+01 0. -1.
       -5    1    3    3    0  502  0.10856245370E+03 -0.96517511375E+03  0.16942396734E+01  0.97127430060E+03  0.46999998093E+01 0.  1.
</event>
<event>
 5   0  0.9963173E-06  0.2215665E+04  0.7818609E-02  0.8511936E-01
        2   -1    0    0  501    0  0.00000000000E+00  0.00000000000E+00  0.14072181777E+04  0.14072181777E+04  0.25500000920E-02 0. -1.
       -2   -1    0    0    0  501  0.00000000000E+00  0.00000000000E+00 -0.87214081266E+03  0.87214081266E+03  0.25500000920E-02 0.  1.
    10030    2    1    2    0    0  0.00000000000E+00  0.00000000000E+00  0.53507736507E+03  0.22793589904E+04  0.22156646002E+04 0.  0.
        4    1    3    3  502    0 -0.21243343203E+02  0.14141046183E+03 -0.86260594832E+03  0.87437911304E+03  0.12699999809E+01 0.  1.
       -4    1    3    3    0  502  0.21243343203E+02 -0.14141046183E+03  0.13976833134E+04  0.14049798774E+04  0.12699999809E+01 0. -1.
</event>
<event>
 5   0  0.4408787E-06  0.2200845E+04  0.7818609E-02  0.8518076E-01
       -1   -1    0    0    0  501  0.00000000000E+00  0.00000000000E+00  0.12209285395E+04  0.12209285395E+04  0.50400001928E-02 0.  1.
        1   -1    0    0  501    0  0.00000000000E+00  0.00000000000E+00 -0.99181083882E+03  0.99181083883E+03  0.50400001928E-02 0. -1.
    10030    2    1    2    0    0  0.00000000000E+00  0.00000000000E+00  0.22911770066E+03  0.22127393783E+04  0.22008454366E+04 0.  0.
        1    1    3    3  502    0  0.10010197442E+03  0.12013633541E+03  0.12097007262E+04  0.12197659576E+04  0.50400001928E-02 0.  1.
       -1    1    3    3    0  502 -0.10010197442E+03 -0.12013633541E+03 -0.98058302550E+03  0.99297342074E+03  0.50400001928E-02 0. -1.
</event>
<event>
 5   0  0.9963573E-06  0.2204013E+04  0.7818609E-02  0.8516760E-01
        2   -1    0    0  501    0  0.00000000000E+00  0.00000000000E+00  0.89029844468E+03  0.89029844469E+03  0.25500000920E-02 0.  1.
       -2   -1    0    0    0  501  0.00000000000E+00  0.00000000000E+00 -0.13640570759E+04  0.13640570759E+04  0.25500000920E-02 0. -1.
    10030    2    1    2    0    0  0.00000000000E+00  0.00000000000E+00 -0.47375863117E+03  0.22543555205E+04  0.22040126071E+04 0.  0.
        2    1    3    3  502    0 -0.94242634766E+03  0.50039637618E+03 -0.51858616190E+03  0.11863791811E+04  0.25500000920E-02 0. -1.
       -2    1    3    3    0  502  0.94242634766E+03 -0.50039637618E+03  0.44827530733E+02  0.10679763394E+04  0.25500000920E-02 0.  1.
</event>
<event>
 5   0  0.1015876E-05  0.2196683E+04  0.7818609E-02  0.8519810E-01
       -2   -1    0    0    0  501  0.00000000000E+00  0.00000000000E+00  0.71427675737E+03  0.71427675738E+03  0.25500000920E-02 0. -1.
        2   -1    0    0  501    0  0.00000000000E+00  0.00000000000E+00 -0.16889162172E+04  0.16889162172E+04  0.25500000920E-02 0.  1.
    10030    2    1    2    0    0  0.00000000000E+00  0.00000000000E+00 -0.97463945987E+03  0.24031929746E+04  0.21966825889E+04 0.  0.
        5    1    3    3  502    0 -0.59122284773E+03  0.84534122563E+03 -0.74796285900E+02  0.10342933906E+04  0.46999998093E+01 0.  1.
       -5    1    3    3    0  502  0.59122284773E+03 -0.84534122563E+03 -0.89984317397E+03  0.13688995840E+04  0.46999998093E+01 0. -1.
</event>
<event>
 5   0  0.4462201E-06  0.2200662E+04  0.7818609E-02  0.8518153E-01
       -1   -1    0    0    0  501  0.00000000000E+00  0.00000000000E+00  0.73506152417E+03  0.73506152419E+03  0.50400001928E-02 0. -1.
        1   -1    0    0  501    0  0.00000000000E+00  0.00000000000E+00 -0.16471115083E+04  0.16471115083E+04  0.50400001928E-02 0.  1.
    10030    2    1    2    0    0  0.00000000000E+00  0.00000000000E+00 -0.91204998414E+03  0.23821730325E+04  0.22006619875E+04 0.  0.
        3    1    3    3  502    0  0.10434317719E+04  0.21070852209E+03 -0.75753088571E+03  0.13065224824E+04  0.10100000352E+00 0. -1.
       -3    1    3    3    0  502 -0.10434317719E+04 -0.21070852209E+03 -0.15451909843E+03  0.10756505501E+04  0.10100000352E+00 0.  1.
</event>
<event>
 5   0  0.4794967E-06  0.2165190E+04  0.7818609E-02  0.8533058E-01
        1   -1    0    0  501    0  0.00000000000E+00  0.00000000000E+00  0.14112736885E+04  0.14112736885E+04  0.50400001928E-02 0.  1.
       -1   -1    0    0    0  501  0.00000000000E+00  0.00000000000E+00 -0.83046366495E+03  0.83046366496E+03  0.50400001928E-02 0. -1.
    10030    2    1    2    0    0  0.00000000000E+00  0.00000000000E+00  0.58081002351E+03  0.22417373534E+04  0.21651896172E+04 0.  0.
        5    1    3    3  502    0  0.55655455078E+03  0.89124312914E+03  0.56023765843E+03  0.11907794116E+04  0.46999998093E+01 0.  1.
       -5    1    3    3    0  502 -0.55655455078E+03 -0.89124312914E+03  0.20572365073E+02  0.10509579418E+04  0.46999998093E+01 0. -1.
</event>
<event>
 5   0  0.9963573E-06  0.2174089E+04  0.7818609E-02  0.8529291E-01
        2   -1    0    0  501    0  0.00000000000E+00  0.00000000000E+00  0.11432550217E+04  0.11432550217E+04  0.25500000920E-02 0.  1.
       -2   -1    0    0    0  501  0.00000000000E+00  0.00000000000E+00 -0.10335972540E+04  0.10335972540E+04  0.25500000920E-02 0. -1.
    10030    2    1    2    0    0  0.00000000000E+00  0.00000000000E+00  0.10965776764E+03  0.21768522757E+04  0.21740885456E+04 0.  0.
        2    1    3    3  502    0  0.35567183959E+03  0.70224709067E+03  0.80545635410E+03  0.11262385947E+04  0.25500000920E-02 0.  1.
       -2    1    3    3    0  502 -0.35567183959E+03 -0.70224709067E+03 -0.69579858646E+03  0.10506136810E+04  0.25500000920E-02 0. -1.
</event>
<event>
 5   0  0.4309945E-06  0.2193449E+04  0.7818609E-02  0.8521160E-01
       -1   -1    0    0    0  501  0.00000000000E+00  0.00000000000E+00  0.93256106056E+03  0.93256106057E+03  0.50400001928E-02 0. -1.
        1   -1    0    0  501    0  0.00000000000E+00  0.00000000000E+00 -0.12897862383E+04  0.12897862383E+04  0.50400001928E-02 0.  1.
    10030    2    1    2    0    0  0.00000000000E+00  0.00000000000E+00 -0.35722517769E+03  0.22223472988E+04  0.21934488116E+04 0.  0.
        4    1    3    3  502    0  0.95264378783E+03 -0.51092802885E+03  0.88252407835E+01  0.10810444648E+04  0.12699999809E+01 0.  1.
       -4    1    3    3    0  502 -0.95264378783E+03  0.51092802885E+03 -0.36605041848E+03  0.11413028340E+04  0.12699999809E+01 0. -1.
</event>
<event>
 5   0  0.1035928E-05  0.2195376E+04  0.7818609E-02  0.8520355E-01
        2   -1    0    0  501    0  0.00000000000E+00  0.00000000000E+00  0.12845287826E+04  0.12845287826E+04  0.25500000920E-02 0. -1.
       -2   -1    0    0    0  501  0.00000000000E+00  0.00000000000E+00 -0.93802427289E+03  0.93802427289E+03  0.25500000920E-02 0.  1.
    10030    2    1    2    0    0  0.00000000000E+00  0.00000000000E+00  0.34650450969E+03  0.22225530555E+04  0.21953762113E+04 0.  0.
        3    1    3    3  502    0  0.41116889104E+03  0.16834209249E+03  0.11894309254E+04  0.12697026635E+04  0.10100000352E+00 0. -1.
       -3    1    3    3    0  502 -0.41116889104E+03 -0.16834209249E+03 -0.84292641572E+03  0.95285039202E+03  0.10100000352E+00 0.  1.
</event>
<event>
 5   0  0.1015876E-05  0.2199422E+04  0.7818609E-02  0.8518669E-01
       -2   -1    0    0    0  501  0.00000000000E+00  0.00000000000E+00  0.73624147772E+03  0.73624147773E+03  0.25500000920E-02 0. -1.
        2   -1    0    0  501    0  0.00000000000E+00  0.00000000000E+00 -0.16426194710E+04  0.16426194710E+04  0.25500000920E-02 0.  1.
    10030    2    1    2    0    0  0.00000000000E+00  0.00000000000E+00 -0.90637799327E+03  0.23788609487E+04  0.21994222757E+04 0.  0.
        5    1    3    3  502    0 -0.32383366004E+02  0.92435681274E+03 -0.10965802156E+04  0.14345711759E+04  0.46999998093E+01 0.  1.
       -5    1    3    3    0  502  0.32383366004E+02 -0.92435681274E+03  0.19020222229E+03  0.94428977280E+03  0.46999998093E+01 0. -1.
</event>
<event>
 5   0  0.1014015E-05  0.2197323E+04  0.7818609E-02  0.8519543E-01
       -2   -1    0    0    0  501  0.00000000000E+00  0.00000000000E+00  0.84212207390E+03  0.84212207390E+03  0.25500000920E-02 0. -1.
        2   -1    0    0  501    0  0.00000000000E+00  0.00000000000E+00 -0.14333516340E+04  0.14333516340E+04  0.25500000920E-02 0.  1.
    10030    2    1    2    0    0  0.00000000000E+00  0.00000000000E+00 -0.59122956006E+03  0.22754737079E+04  0.21973229627E+04 0.  0.
        1    1    3    3  502    0 -0.72621211469E+03  0.72139926594E+03  0.11764770695E+03  0.10303600921E+04  0.50400001928E-02 0. -1.
       -1    1    3    3    0  502  0.72621211469E+03 -0.72139926594E+03 -0.70887726700E+03  0.12451136158E+04  0.50400001928E-02 0.  1.
</event>
<event>
 5   0  0.4309945E-06  0.2200740E+04  0.7818609E-02  0.8518120E-01
       -1   -1    0    0    0  501  0.00000000000E+00  0.00000000000E+00  0.12821945522E+04  0.12821945523E+04  0.50400001928E-02 0.  1.
        1   -1    0    0  501    0  0.00000000000E+00  0.00000000000E+00 -0.94432961701E+03  0.94432961702E+03  0.50400001928E-02 0. -1.
    10030    2    1    2    0    0  0.00000000000E+00  0.00000000000E+00  0.33786493524E+03  0.22265241693E+04  0.22007401396E+04 0.  0.
        4    1    3    3  502    0 -0.51319186221E+03 -0.97198672284E+03  0.22139168507E+03  0.11212225327E+04  0.12699999809E+01 0.  1.
       -4    1    3    3    0  502  0.51319186221E+03  0.97198672284E+03  0.11647325017E+03  0.11053016365E+04  0.12699999809E+01 0. -1.
</event>
<event>
 5   0  0.1014015E-05  0.2197599E+04  0.7818609E-02  0.8519428E-01
       -2   -1    0    0    0  501  0.00000000000E+00  0.00000000000E+00  0.10471242775E+04  0.10471242775E+04  0.25500000920E-02 0. -1.
        2   -1    0    0  501    0  0.00000000000E+00  0.00000000000E+00 -0.11530245035E+04  0.11530245036E+04  0.25500000920E-02 0.  1.
    10030    2    1    2    0    0  0.00000000000E+00  0.00000000000E+00 -0.10590022607E+03  0.22001487810E+04  0.21975986442E+04 0.  0.
        1    1    3    3  502    0 -0.10206007777E+04  0.31292683128E+03  0.20775713715E+03  0.10875257134E+04  0.50400001928E-02 0.  1.
       -1    1    3    3    0  502  0.10206007777E+04 -0.31292683128E+03 -0.31365736322E+03  0.11126230677E+04  0.50400001928E-02 0. -1.
</event>
<event>
 5   0  0.4309945E-06  0.2196110E+04  0.7818609E-02  0.8520049E-01
        1   -1    0    0  501    0  0.00000000000E+00  0.00000000000E+00  0.73964423057E+03  0.73964423059E+03  0.50400001928E-02 0. -1.
       -1   -1    0    0    0  501  0.00000000000E+00  0.00000000000E+00 -0.16301410907E+04  0.16301410907E+04  0.50400001928E-02 0.  1.
    10030    2    1    2    0    0  0.00000000000E+00  0.00000000000E+00 -0.89049686016E+03  0.23697853213E+04  0.21961096993E+04 0.  0.
        4    1    3    3  502    0 -0.16935755856E+03 -0.80151813143E+03  0.34374489334E+03  0.88841176391E+03  0.12699999809E+01 0. -1.
       -4    1    3    3    0  502  0.16935755856E+03  0.80151813143E+03 -0.12342417535E+04  0.14813735574E+04  0.12699999809E+01 0.  1.
</event>
<event>
 5   0  0.9963173E-06  0.2200929E+04  0.7818609E-02  0.8518041E-01
        2   -1    0    0  501    0  0.00000000000E+00  0.00000000000E+00  0.61230049296E+03  0.61230049296E+03  0.25500000920E-02 0.  1.
       -2   -1    0    0    0  501  0.00000000000E+00  0.00000000000E+00 -0.19778240625E+04  0.19778240625E+04  0.25500000920E-02 0. -1.
    10030    2    1    2    0    0  0.00000000000E+00  0.00000000000E+00 -0.13655235696E+04  0.25901245555E+04  0.22009294841E+04 0.  0.
        4    1    3    3  502    0 -0.51454833828E+03 -0.95238520530E+03 -0.44969118551E+03  0.11721865666E+04  0.12699999809E+01 0. -1.
       -4    1    3    3    0  502  0.51454833828E+03  0.95238520530E+03 -0.91583238404E+03  0.14179379889E+04  0.12699999809E+01 0.  1.
</event>
<event>
 5   0  0.4408787E-06  0.2199116E+04  0.7818609E-02  0.8518796E-01
       -1   -1    0    0    0  501  0.00000000000E+00  0.00000000000E+00  0.95447543173E+03  0.95447543174E+03  0.50400001928E-02 0.  1.
        1   -1    0    0  501    0  0.00000000000E+00  0.00000000000E+00 -0.12666928939E+04  0.12666928939E+04  0.50400001928E-02 0. -1.
    10030    2    1    2    0    0  0.00000000000E+00  0.00000000000E+00 -0.31221746215E+03  0.22211683256E+04  0.21991155011E+04 0.  0.
        1    1    3    3  502    0 -0.76222169328E+03  0.31074829105E+03  0.58022930847E+03  0.10070811589E+04  0.50400001928E-02 0.  1.
       -1    1    3    3    0  502  0.76222169328E+03 -0.31074829105E+03 -0.89244677061E+03  0.12140871668E+04  0.50400001928E-02 0. -1.
</event>
<event>
 5   0  0.1015876E-05  0.2200583E+04  0.7818609E-02  0.8518185E-01
       -2   -1    0    0    0  501  0.00000000000E+00  0.00000000000E+00  0.75971594758E+03  0.75971594758E+03  0.25500000920E-02 0. -1.
        2   -1    0    0  501    0  0.00000000000E+00  0.00000000000E+00 -0.15935448166E+04  0.15935448166E+04  0.25500000920E-02 0.  1.
    10030    2    1    2    0    0  0.00000000000E+00  0.00000000000E+00 -0.83382886907E+03  0.23532607642E+04  0.22005830231E+04 0.  0.
        5    1    3    3  502    0  0.25617808984E+02  0.97121736348E+02  0.75479217465E+03  0.76146058382E+03  0.46999998093E+01 0. -1.
       -5    1    3    3    0  502 -0.25617808984E+02 -0.97121736348E+02 -0.15886210437E+04  0.15918001804E+04  0.46999998093E+01 0.  1.
</event>
<event>
 5   0  0.1015876E-05  0.2200540E+04  0.7818609E-02  0.8518203E-01
        2   -1    0    0  501    0  0.00000000000E+00  0.00000000000E+00  0.14320734597E+04  0.14320734597E+04  0.25500000920E-02 0. -1.
       -2   -1    0    0    0  501  0.00000000000E+00  0.00000000000E+00 -0.84534349375E+03  0.84534349375E+03  0.25500000920E-02 0.  1.
    10030    2    1    2    0    0  0.00000000000E+00  0.00000000000E+00  0.58672996594E+03  0.22774169534E+04  0.22005399171E+04 0.  0.
        5    1    3    3  502    0 -0.59192785818E+03 -0.68253112278E+03 -0.35654204036E+03  0.97127320533E+03  0.46999998093E+01 0.  1.
       -5    1    3    3    0  502  0.59192785818E+03  0.68253112278E+03  0.94327200631E+03  0.13061437481E+04  0.46999998093E+01 0. -1.
</event>
<event>
 5   0  0.9963573E-06  0.2200805E+04  0.7818609E-02  0.8518093E-01
       -2   -1    0    0    0  501  0.00000000000E+00  0.00000000000E+00  0.58944107763E+03  0.58944107763E+03  0.25500000920E-02 0.  1.
        2   -1    0    0  501    0  0.00000000000E+00  0.00000000000E+00 -0.20542944120E+04  0.20542944120E+04  0.25500000920E-02 0. -1.
    10030    2    1    2    0    0  0.00000000000E+00  0.00000000000E+00 -0.14648533344E+04  0.26437354897E+04  0.22008048637E+04 0.  0.
        2    1    3    3  502    0 -0.94612057458E+02  0.10963217524E+04 -0.72814814018E+03  0.13194970786E+04  0.25500000920E-02 0.  1.
       -2    1    3    3    0  502  0.94612057458E+02 -0.10963217524E+04 -0.73670519422E+03  0.13242384111E+04  0.25500000920E-02 0. -1.
</event>
<event>
 5   0  0.9963573E-06  0.2206992E+04  0.7818609E-02  0.8515524E-01
       -2   -1    0    0    0  501  0.00000000000E+00  0.00000000000E+00  0.81944720866E+03  0.81944720866E+03  0.25500000920E-02 0. -1.
        2   -1    0    0  501    0  0.00000000000E+00  0.00000000000E+00 -0.14860056030E+04  0.14860056030E+04  0.25500000920E-02 0.  1.
    10030    2    1    2    0    0  0.00000000000E+00  0.00000000000E+00 -0.66655839436E+03  0.23054528117E+04  0.22069917476E+04 0.  0.
        2    1    3    3  502    0  0.41227979757E+03 -0.28862055998E+03 -0.13591440184E+04  0.14493270582E+04  0.25500000920E-02 0.  1.
       -2    1    3    3    0  502 -0.41227979757E+03  0.28862055998E+03  0.69258562399E+03  0.85612575344E+03  0.25500000920E-02 0. -1.
</event>
<event>
 5   0  0.1014015E-05  0.2200640E+04  0.7818609E-02  0.8518162E-01
        2   -1    0    0  501    0  0.00000000000E+00  0.00000000000E+00  0.97950183072E+03  0.97950183073E+03  0.25500000920E-02 0.  1.
       -2   -1    0    0    0  501  0.00000000000E+00  0.00000000000E+00 -0.12360402630E+04  0.12360402630E+04  0.25500000920E-02 0. -1.
    10030    2    1    2    0    0  0.00000000000E+00  0.00000000000E+00 -0.25653843228E+03  0.22155420937E+04  0.22006396347E+04 0.  0.
        1    1    3    3  502    0  0.77004911203E+03 -0.75185418101E+03  0.10228672238E+03  0.10810748901E+04  0.50400001928E-02 0.  1.
       -1    1    3    3    0  502 -0.77004911203E+03  0.75185418101E+03 -0.35882515466E+03  0.11344672036E+04  0.50400001928E-02 0. -1.
</event>
<event>
 5   0  0.4462201E-06  0.2199623E+04  0.7818609E-02  0.8518585E-01
        1   -1    0    0  501    0  0.00000000000E+00  0.00000000000E+00  0.25756241192E+04  0.25756241192E+04  0.50400001928E-02 0.  1.
       -1   -1    0    0    0  501  0.00000000000E+00  0.00000000000E+00 -0.46962801484E+03  0.46962801486E+03  0.50400001928E-02 0. -1.
    10030    2    1    2    0    0  0.00000000000E+00  0.00000000000E+00  0.21059961044E+04  0.30452521341E+04  0.21996229151E+04 0.  0.
        3    1    3    3  502    0  0.77959051599E+03  0.22960303896E+03  0.20788938138E+04  0.22321017959E+04  0.10100000352E+00 0.  1.
       -3    1    3    3    0  502 -0.77959051599E+03 -0.22960303896E+03  0.27102290600E+02  0.81315033818E+03  0.10100000352E+00 0. -1.
</event>
<event>
 5   0  0.4462201E-06  0.2197213E+04  0.7818609E-02  0.8519589E-01
       -1   -1    0    0    0  501  0.00000000000E+00  0.00000000000E+00  0.16845297772E+04  0.16845297772E+04  0.50400001928E-02 0.  1.
        1   -1    0    0  501    0  0.00000000000E+00  0.00000000000E+00 -0.71648237543E+03  0.71648237545E+03  0.50400001928E-02 0. -1.
    10030    2    1    2    0    0  0.00000000000E+00  0.00000000000E+00  0.96804740174E+03  0.24010121526E+04  0.21972126854E+04 0.  0.
        3    1    3    3  502    0 -0.14353115192E+03  0.10926769504E+03 -0.70018815932E+03  0.72305192719E+03  0.10100000352E+00 0. -1.
       -3    1    3    3    0  502  0.14353115192E+03 -0.10926769504E+03  0.16682355611E+04  0.16779602254E+04  0.10100000352E+00 0.  1.
</event>
<event>
 5   0  0.3546750E-06  0.2197806E+04  0.7818609E-02  0.8519342E-01
       -3   -1    0    0    0  501  0.00000000000E+00  0.00000000000E+00  0.22762682426E+04  0.22762682448E+04  0.10100000352E+00 0. -1.
        3   -1    0    0  501    0  0.00000000000E+00  0.00000000000E+00 -0.53051221189E+03  0.53051222150E+03  0.10100000352E+00 0.  1.
    10030    2    1    2    0    0  0.00000000000E+00  0.00000000000E+00  0.17457560307E+04  0.28067804663E+04  0.21978062852E+04 0.  0.
        5    1    3    3  502    0 -0.48297864652E+03  0.54167067753E+03 -0.18092074090E+03  0.74795046652E+03  0.46999998093E+01 0.  1.
       -5    1    3    3    0  502  0.48297864652E+03 -0.54167067753E+03  0.19266767716E+04  0.20588299998E+04  0.46999998093E+01 0. -1.
</event>
<event>
 5   0  0.1035928E-05  0.2198551E+04  0.7818609E-02  0.8519032E-01
        2   -1    0    0  501    0  0.00000000000E+00  0.00000000000E+00  0.12863020069E+04  0.12863020069E+04  0.25500000920E-02 0. -1.
       -2   -1    0    0    0  501  0.00000000000E+00  0.00000000000E+00 -0.93944206367E+03  0.93944206367E+03  0.25500000920E-02 0.  1.
    10030    2    1    2    0    0  0.00000000000E+00  0.00000000000E+00  0.34685994318E+03  0.22257440705E+04  0.21985506242E+04 0.  0.
        3    1    3    3  502    0  0.10534633246E+04 -0.16401635895E+03  0.44454804496E+03  0.11551230743E+04  0.10100000352E+00 0. -1.
       -3    1    3    3    0  502 -0.10534633246E+04  0.16401635895E+03 -0.97688101778E+02  0.10706209963E+04  0.10100000352E+00 0.  1.
</event>
<event>
 5   0  0.4408787E-06  0.2201877E+04  0.7818609E-02  0.8517647E-01
        1   -1    0    0  501    0  0.00000000000E+00  0.00000000000E+00  0.14139660693E+04  0.14139660694E+04  0.50400001928E-02 0.  1.
       -1   -1    0    0    0  501  0.00000000000E+00  0.00000000000E+00 -0.85720997553E+03  0.85720997554E+03  0.50400001928E-02 0. -1.
    10030    2    1    2    0    0  0.00000000000E+00  0.00000000000E+00  0.55675609382E+03  0.22711760449E+04  0.22018772170E+04 0.  0.
        1    1    3    3  502    0  0.10192487508E+04  0.35096763255E+03  0.47688731342E+02  0.10790368438E+04  0.50400001928E-02 0.  1.
       -1    1    3    3    0  502 -0.10192487508E+04 -0.35096763255E+03  0.50906736247E+03  0.11921392011E+04  0.50400001928E-02 0. -1.
</event>
<event>
 5   0  0.9963573E-06  0.2200401E+04  0.7818609E-02  0.8518261E-01
       -2   -1    0    0    0  501  0.00000000000E+00  0.00000000000E+00  0.11197496134E+04  0.11197496134E+04  0.25500000920E-02 0. -1.
        2   -1    0    0  501    0  0.00000000000E+00  0.00000000000E+00 -0.10809926326E+04  0.10809926326E+04  0.25500000920E-02 0.  1.
    10030    2    1    2    0    0  0.00000000000E+00  0.00000000000E+00  0.38756980780E+02  0.22007422461E+04  0.22004009476E+04 0.  0.
        2    1    3    3  502    0  0.59244592929E+03  0.76633844223E+03  0.54116267412E+03  0.11095601953E+04  0.25500000920E-02 0. -1.
       -2    1    3    3    0  502 -0.59244592929E+03 -0.76633844223E+03 -0.50240569334E+03  0.10911820508E+04  0.25500000920E-02 0.  1.
</event>
<event>
 5   0  0.4309945E-06  0.2237670E+04  0.7818609E-02  0.8502911E-01
        1   -1    0    0  501    0  0.00000000000E+00  0.00000000000E+00  0.70284604924E+03  0.70284604926E+03  0.50400001928E-02 0.  1.
       -1   -1    0    0    0  501  0.00000000000E+00  0.00000000000E+00 -0.17810319049E+04  0.17810319049E+04  0.50400001928E-02 0. -1.
    10030    2    1    2    0    0  0.00000000000E+00  0.00000000000E+00 -0.10781858557E+04  0.24838779542E+04  0.22376695359E+04 0.  0.
        4    1    3    3  502    0  0.10350035834E+03  0.28684670942E+03  0.65582436736E+03  0.72325692019E+03  0.12699999809E+01 0.  1.
       -4    1    3    3    0  502 -0.10350035834E+03 -0.28684670942E+03 -0.17340102230E+04  0.17606210340E+04  0.12699999809E+01 0. -1.
</event>
<event>
 5   0  0.4408787E-06  0.2200054E+04  0.7818609E-02  0.8518406E-01
       -1   -1    0    0    0  501  0.00000000000E+00  0.00000000000E+00  0.82894491465E+03  0.82894491467E+03  0.50400001928E-02 0. -1.
        1   -1    0    0  501    0  0.00000000000E+00  0.00000000000E+00 -0.14597580861E+04  0.14597580861E+04  0.50400001928E-02 0.  1.
    10030    2    1    2    0    0  0.00000000000E+00  0.00000000000E+00 -0.63081317143E+03  0.22887030008E+04  0.22000536740E+04 0.  0.
        1    1    3    3  502    0 -0.51040443897E+03 -0.71301481419E+03  0.37555255878E+03  0.95390908425E+03  0.50400001928E-02 0. -1.
       -1    1    3    3    0  502  0.51040443897E+03  0.71301481419E+03 -0.10063657302E+04  0.13347939165E+04  0.50400001928E-02 0.  1.
</event>
<event>
 5   0  0.4630615E-06  0.2223687E+04  0.7818609E-02  0.8508633E-01
        1   -1    0    0  501    0  0.00000000000E+00  0.00000000000E+00  0.10585135131E+04  0.10585135132E+04  0.50400001928E-02 0. -1.
       -1   -1    0    0    0  501  0.00000000000E+00  0.00000000000E+00 -0.11678606326E+04  0.11678606326E+04  0.50400001928E-02 0.  1.
    10030    2    1    2    0    0  0.00000000000E+00  0.00000000000E+00 -0.10934711941E+03  0.22263741457E+04  0.22236872631E+04 0.  0.
        2    1    3    3  502    0 -0.71708478399E+03  0.46585142857E+03 -0.76614328071E+03  0.11481305098E+04  0.25500000920E-02 0.  1.
       -2    1    3    3    0  502  0.71708478399E+03 -0.46585142857E+03  0.65679616130E+03  0.10782436359E+04  0.25500000920E-02 0. -1.
</event>
<event>
 5   0  0.4462201E-06  0.2202409E+04  0.7818609E-02  0.8517426E-01
        1   -1    0    0  501    0  0.00000000000E+00  0.00000000000E+00  0.14745357407E+04  0.14745357407E+04  0.50400001928E-02 0.  1.
       -1   -1    0    0    0  501  0.00000000000E+00  0.00000000000E+00 -0.82239545219E+03  0.82239545220E+03  0.50400001928E-02 0. -1.
    10030    2    1    2    0    0  0.00000000000E+00  0.00000000000E+00  0.65214028851E+03  0.22969311929E+04  0.22024091239E+04 0.  0.
        3    1    3    3  502    0  0.21877543499E+03 -0.30132304493E+03  0.14068836319E+04  0.14553280840E+04  0.10100000352E+00 0.  1.
       -3    1    3    3    0  502 -0.21877543499E+03  0.30132304493E+03 -0.75474334335E+03  0.84160310888E+03  0.10100000352E+00 0. -1.
</event>
<event>
 5   0  0.9963173E-06  0.2200456E+04  0.7818609E-02  0.8518238E-01
        2   -1    0    0  501    0  0.00000000000E+00  0.00000000000E+00  0.12327560311E+04  0.12327560311E+04  0.25500000920E-02 0. -1.
       -2   -1    0    0    0  501  0.00000000000E+00  0.00000000000E+00 -0.98194749309E+03  0.98194749310E+03  0.25500000920E-02 0.  1.
    10030    2    1    2    0    0  0.00000000000E+00  0.00000000000E+00  0.25080853803E+03  0.22147035242E+04  0.22004560385E+04 0.  0.
        4    1    3    3  502    0  0.45821202902E+03  0.42989328043E+03  0.10344318741E+04  0.12102964146E+04  0.12699999809E+01 0. -1.
       -4    1    3    3    0  502 -0.45821202902E+03 -0.42989328043E+03 -0.78362333609E+03  0.10044071096E+04  0.12699999809E+01 0.  1.
</event>
<event>
 5   0  0.9963173E-06  0.2217033E+04  0.7818609E-02  0.8511372E-01
        2   -1    0    0  501    0  0.00000000000E+00  0.00000000000E+00  0.14453330307E+04  0.14453330307E+04  0.25500000920E-02 0. -1.
       -2   -1    0    0    0  501  0.00000000000E+00  0.00000000000E+00 -0.85019099157E+03  0.85019099157E+03  0.25500000920E-02 0.  1.
    10030    2    1    2    0    0  0.00000000000E+00  0.00000000000E+00  0.59514203910E+03  0.22955240222E+04  0.22170332632E+04 0.  0.
        4    1    3    3  502    0 -0.88209602177E+03  0.34000374157E+03  0.89695391654E+03  0.13031591910E+04  0.12699999809E+01 0. -1.
       -4    1    3    3    0  502  0.88209602177E+03 -0.34000374157E+03 -0.30181187745E+03  0.99236483119E+03  0.12699999809E+01 0.  1.
</event>
<event>
 5   0  0.4630615E-06  0.2201459E+04  0.7818609E-02  0.8517821E-01
        1   -1    0    0  501    0  0.00000000000E+00  0.00000000000E+00  0.23023695154E+04  0.23023695154E+04  0.50400001928E-02 0.  1.
       -1   -1    0    0    0  501  0.00000000000E+00  0.00000000000E+00 -0.52624266658E+03  0.52624266661E+03  0.50400001928E-02 0. -1.
    10030    2    1    2    0    0  0.00000000000E+00  0.00000000000E+00  0.17761268488E+04  0.28286121820E+04  0.22014586739E+04 0.  0.
        2    1    3    3  502    0 -0.63222666471E+03 -0.74211085137E+03  0.15446941346E+04  0.18266140919E+04  0.25500000920E-02 0.  1.
       -2    1    3    3    0  502  0.63222666471E+03  0.74211085137E+03  0.23143271417E+03  0.10019980901E+04  0.25500000920E-02 0. -1.
</event>
<event>
 5   0  0.9963173E-06  0.2189922E+04  0.7818609E-02  0.8522635E-01
        2   -1    0    0  501    0  0.00000000000E+00  0.00000000000E+00  0.10449453556E+04  0.10449453556E+04  0.25500000920E-02 0.  1.
       -2   -1    0    0    0  501  0.00000000000E+00  0.00000000000E+00 -0.11473704439E+04  0.11473704439E+04  0.25500000920E-02 0. -1.
    10030    2    1    2    0    0  0.00000000000E+00  0.00000000000E+00 -0.10242508832E+03  0.21923157995E+04  0.21899218402E+04 0.  0.
        4    1    3    3  502    0  0.21675089430E+03 -0.25144335835E+03 -0.10957769200E+04  0.11449599923E+04  0.12699999809E+01 0. -1.
       -4    1    3    3    0  502 -0.21675089430E+03  0.25144335835E+03  0.99335183167E+03  0.10473558073E+04  0.12699999809E+01 0.  1.
</event>
<event>
 5   0  0.1014015E-05  0.2199622E+04  0.7818609E-02  0.8518585E-01
       -2   -1    0    0    0  501  0.00000000000E+00  0.00000000000E+00  0.50797531220E+03  0.50797531221E+03  0.25500000920E-02 0. -1.
        2   -1    0    0  501    0  0.00000000000E+00  0.00000000000E+00 -0.23811880747E+04  0.23811880747E+04  0.25500000920E-02 0.  1.
    10030    2    1    2    0    0  0.00000000000E+00  0.00000000000E+00 -0.18732127625E+04  0.28891633869E+04  0.21996224727E+04 0.  0.
        1    1    3    3  502    0 -0.76060009376E+03 -0.30903402948E+03  0.24634350527E+02  0.82135338634E+03  0.50400001928E-02 0. -1.
       -1    1    3    3    0  502  0.76060009376E+03  0.30903402948E+03 -0.18978471130E+04  0.20678100005E+04  0.50400001928E-02 0.  1.
</event>
<event>
 5   0  0.9963173E-06  0.2200980E+04  0.7818609E-02  0.8518020E-01
       -2   -1    0    0    0  501  0.00000000000E+00  0.00000000000E+00  0.93999701506E+03  0.93999701507E+03  0.25500000920E-02 0.  1.
        2   -1    0    0  501    0  0.00000000000E+00  0.00000000000E+00 -0.12883855912E+04  0.12883855912E+04  0.25500000920E-02 0. -1.
    10030    2    1    2    0    0  0.00000000000E+00  0.00000000000E+00 -0.34838857612E+03  0.22283826063E+04  0.22009803361E+04 0.  0.
        4    1    3    3  502    0  0.81523981576E+02 -0.10571515988E+04 -0.47258606212E+03  0.11608423069E+04  0.12699999809E+01 0.  1.
       -4    1    3    3    0  502 -0.81523981576E+02  0.10571515988E+04  0.12419748600E+03  0.10675402994E+04  0.12699999809E+01 0. -1.
</event>
<event>
 5   0  0.4462201E-06  0.2199076E+04  0.7818609E-02  0.8518813E-01
        1   -1    0    0  501    0  0.00000000000E+00  0.00000000000E+00  0.16503074664E+04  0.16503074665E+04  0.50400001928E-02 0.  1.
       -1   -1    0    0    0  501  0.00000000000E+00  0.00000000000E+00 -0.73258087839E+03  0.73258087841E+03  0.50400001928E-02 0. -1.
    10030    2    1    2    0    0  0.00000000000E+00  0.00000000000E+00  0.91772658805E+03  0.23828883449E+04  0.21990758908E+04 0.  0.
        3    1    3    3  502    0 -0.94027670520E+03  0.10012372523E+03 -0.14914218092E+03  0.95728179918E+03  0.10100000352E+00 0. -1.
       -3    1    3    3    0  502  0.94027670520E+03 -0.10012372523E+03  0.10668687690E+04  0.14256065457E+04  0.10100000352E+00 0.  1.
</event>
<event>
 5   0  0.1015876E-05  0.2191448E+04  0.7818609E-02  0.8521996E-01
        2   -1    0    0  501    0  0.00000000000E+00  0.00000000000E+00  0.17096485452E+04  0.17096485452E+04  0.25500000920E-02 0. -1.
       -2   -1    0    0    0  501  0.00000000000E+00  0.00000000000E+00 -0.70225577119E+03  0.70225577119E+03  0.25500000920E-02 0.  1.
    10030    2    1    2    0    0  0.00000000000E+00  0.00000000000E+00  0.10073927740E+04  0.24119043164E+04  0.21914475194E+04 0.  0.
        5    1    3    3  502    0  0.25381923931E+03  0.72826612589E+02  0.16740942665E+04  0.16947984024E+04  0.46999998093E+01 0. -1.
       -5    1    3    3    0  502 -0.25381923931E+03 -0.72826612589E+02 -0.66670149250E+03  0.71710591396E+03  0.46999998093E+01 0.  1.
</event>
<event>
 5   0  0.4462201E-06  0.2186399E+04  0.7818609E-02  0.8524111E-01
       -1   -1    0    0    0  501  0.00000000000E+00  0.00000000000E+00  0.85382456854E+03  0.85382456856E+03  0.50400001928E-02 0. -1.
        1   -1    0    0  501    0  0.00000000000E+00  0.00000000000E+00 -0.13996844676E+04  0.13996844676E+04  0.50400001928E-02 0.  1.
    10030    2    1    2    0    0  0.00000000000E+00  0.00000000000E+00 -0.54585989909E+03  0.22535090362E+04  0.21863988535E+04 0.  0.
        3    1    3    3  502    0 -0.52050912271E+03 -0.94061126345E+03 -0.68328206067E+02  0.10771945273E+04  0.10100000352E+00 0. -1.
       -3    1    3    3    0  502  0.52050912271E+03  0.94061126345E+03 -0.47753169302E+03  0.11763145089E+04  0.10100000352E+00 0.  1.
</event>
<event>
 5   0  0.4462201E-06  0.2200069E+04  0.7818609E-02  0.8518399E-01
       -1   -1    0    0    0  501  0.00000000000E+00  0.00000000000E+00  0.29204345590E+04  0.29204345590E+04  0.50400001928E-02 0.  1.
        1   -1    0    0  501    0  0.00000000000E+00  0.00000000000E+00 -0.41434786296E+03  0.41434786299E+03  0.50400001928E-02 0. -1.
    10030    2    1    2    0    0  0.00000000000E+00  0.00000000000E+00  0.25060866960E+04  0.33347824220E+04  0.22000689248E+04 0.  0.
        3    1    3    3  502    0  0.61876297650E+03  0.16099978956E+03  0.26098730258E+04  0.26870477805E+04  0.10100000352E+00 0.  1.
       -3    1    3    3    0  502 -0.61876297650E+03 -0.16099978956E+03 -0.10378632984E+03  0.64773464149E+03  0.10100000352E+00 0. -1.
</event>
<event>
 5   0  0.1035928E-05  0.2202331E+04  0.7818609E-02  0.8517459E-01
        2   -1    0    0  501    0  0.00000000000E+00  0.00000000000E+00  0.17016930229E+04  0.17016930229E+04  0.25500000920E-02 0. -1.
       -2   -1    0    0    0  501  0.00000000000E+00  0.00000000000E+00 -0.71256402718E+03  0.71256402718E+03  0.25500000920E-02 0.  1.
    10030    2    1    2    0    0  0.00000000000E+00  0.00000000000E+00  0.98912899571E+03  0.24142570501E+04  0.22023307957E+04 0.  0.
        3    1    3    3  502    0  0.73042936876E+03 -0.20038549520E+03  0.13707819505E+04  0.15661176762E+04  0.10100000352E+00 0. -1.
       -3    1    3    3    0  502 -0.73042936876E+03  0.20038549520E+03 -0.38165295484E+03  0.84813937391E+03  0.10100000352E+00 0.  1.
</event>
<event>
 5   0  0.4408787E-06  0.2200970E+04  0.7818609E-02  0.8518025E-01
       -1   -1    0    0    0  501  0.00000000000E+00  0.00000000000E+00  0.47188375894E+03  0.47188375897E+03  0.50400001928E-02 0.  1.
        1   -1    0    0  501    0  0.00000000000E+00  0.00000000000E+00 -0.25664516263E+04  0.25664516263E+04  0.50400001928E-02 0. -1.
    10030    2    1    2    0    0  0.00000000000E+00  0.00000000000E+00 -0.20945678674E+04  0.30383353853E+04  0.22009696414E+04 0.  0.
        1    1    3    3  502    0 -0.24551261630E+03  0.74294670528E+03  0.20958981945E+02  0.78274231430E+03  0.50400001928E-02 0.  1.
       -1    1    3    3    0  502  0.24551261630E+03 -0.74294670528E+03 -0.21155268493E+04  0.22555930710E+04  0.50400001928E-02 0. -1.
</event>
<event>
 5   0  0.4309945E-06  0.2198851E+04  0.7818609E-02  0.8518907E-01
        1   -1    0    0  501    0  0.00000000000E+00  0.00000000000E+00  0.11954235526E+04  0.11954235526E+04  0.50400001928E-02 0. -1.
       -1   -1    0    0    0  501  0.00000000000E+00  0.00000000000E+00 -0.10111361536E+04  0.10111361536E+04  0.50400001928E-02 0.  1.
    10030    2    1    2    0    0  0.00000000000E+00  0.00000000000E+00  0.18428739907E+03  0.22065597062E+04  0.21988505842E+04 0.  0.
        4    1    3    3  502    0  0.26103787530E+03 -0.80946828424E+03 -0.60697284027E+03  0.10448910552E+04  0.12699999809E+01 0. -1.
       -4    1    3    3    0  502 -0.26103787530E+03  0.80946828424E+03  0.79126023934E+03  0.11616686510E+04  0.12699999809E+01 0.  1.
</event>
<event>
 5   0  0.4794967E-06  0.2196221E+04  0.7818609E-02  0.8520003E-01
        1   -1    0    0  501    0  0.00000000000E+00  0.00000000000E+00  0.84225546625E+03  0.84225546626E+03  0.50400001928E-02 0.  1.
       -1   -1    0    0    0  501  0.00000000000E+00  0.00000000000E+00 -0.14316878172E+04  0.14316878172E+04  0.50400001928E-02 0. -1.
    10030    2    1    2    0    0  0.00000000000E+00  0.00000000000E+00 -0.58943235094E+03  0.22739432835E+04  0.21962212002E+04 0.  0.
        5    1    3    3  502    0  0.58223693995E+03  0.92328097746E+03 -0.17056797160E+03  0.11047909940E+04  0.46999998093E+01 0.  1.
       -5    1    3    3    0  502 -0.58223693995E+03 -0.92328097746E+03 -0.41886437934E+03  0.11691522894E+04  0.46999998093E+01 0. -1.
</event>
<event>
 5   0  0.4309945E-06  0.2198210E+04  0.7818609E-02  0.8519173E-01
       -1   -1    0    0    0  501  0.00000000000E+00  0.00000000000E+00  0.22443487437E+04  0.22443487437E+04  0.50400001928E-02 0. -1.
        1   -1    0    0  501    0  0.00000000000E+00  0.00000000000E+00 -0.53825513242E+03  0.53825513244E+03  0.50400001928E-02 0.  1.
    10030    2    1    2    0    0  0.00000000000E+00  0.00000000000E+00  0.17060936113E+04  0.27826038762E+04  0.21982103906E+04 0.  0.
        4    1    3    3  502    0  0.25721879112E+03  0.95789583413E+02 -0.49417259153E+03  0.56528339257E+03  0.12699999809E+01 0.  1.
       -4    1    3    3    0  502 -0.25721879112E+03 -0.95789583413E+02  0.22002662028E+04  0.22173204836E+04  0.12699999809E+01 0. -1.
</event>
<event>
 5   0  0.4408787E-06  0.2215464E+04  0.7818609E-02  0.8512019E-01
        1   -1    0    0  501    0  0.00000000000E+00  0.00000000000E+00  0.97237478767E+03  0.97237478768E+03  0.50400001928E-02 0.  1.
       -1   -1    0    0    0  501  0.00000000000E+00  0.00000000000E+00 -0.12619312232E+04  0.12619312232E+04  0.50400001928E-02 0. -1.
    10030    2    1    2    0    0  0.00000000000E+00  0.00000000000E+00 -0.28955643553E+03  0.22343060109E+04  0.22154639291E+04 0.  0.
        1    1    3    3  502    0 -0.17186120359E+03  0.10883039330E+04 -0.29224595642E+02  0.11021777537E+04  0.50400001928E-02 0.  1.
       -1    1    3    3    0  502  0.17186120359E+03 -0.10883039330E+04 -0.26033183988E+03  0.11321282572E+04  0.50400001928E-02 0. -1.
</event>
<event>
 5   0  0.9963173E-06  0.2199083E+04  0.7818609E-02  0.8518810E-01
        2   -1    0    0  501    0  0.00000000000E+00  0.00000000000E+00  0.96732783736E+03  0.96732783736E+03  0.25500000920E-02 0.  1.
       -2   -1    0    0    0  501  0.00000000000E+00  0.00000000000E+00 -0.12498260767E+04  0.12498260767E+04  0.25500000920E-02 0. -1.
    10030    2    1    2    0    0  0.00000000000E+00  0.00000000000E+00 -0.28249823936E+03  0.22171539141E+04  0.21990830415E+04 0.  0.
        4    1    3    3  502    0  0.69136457969E+03 -0.61827478593E+03 -0.73664506566E+03  0.11844392169E+04  0.12699999809E+01 0. -1.
       -4    1    3    3    0  502 -0.69136457969E+03  0.61827478593E+03  0.45414682630E+03  0.10327146971E+04  0.12699999809E+01 0.  1.
</event>
<event>
 5   0  0.4309945E-06  0.2218540E+04  0.7818609E-02  0.8510751E-01
       -1   -1    0    0    0  501  0.00000000000E+00  0.00000000000E+00  0.11406143489E+04  0.11406143489E+04  0.50400001928E-02 0. -1.
        1   -1    0    0  501    0  0.00000000000E+00  0.00000000000E+00 -0.10787868525E+04  0.10787868525E+04  0.50400001928E-02 0.  1.
    10030    2    1    2    0    0  0.00000000000E+00  0.00000000000E+00  0.61827496375E+02  0.22194012015E+04  0.22185398472E+04 0.  0.
        4    1    3    3  502    0  0.60829942025E+03 -0.18353690731E+03  0.94053250410E+03  0.11350405214E+04  0.12699999809E+01 0. -1.
       -4    1    3    3    0  502 -0.60829942025E+03  0.18353690731E+03 -0.87870500773E+03  0.10843606801E+04  0.12699999809E+01 0.  1.
</event>
<event>
 5   0  0.4408787E-06  0.2206894E+04  0.7818609E-02  0.8515564E-01
       -1   -1    0    0    0  501  0.00000000000E+00  0.00000000000E+00  0.97158307191E+03  0.97158307192E+03  0.50400001928E-02 0.  1.
        1   -1    0    0  501    0  0.00000000000E+00  0.00000000000E+00 -0.12532076698E+04  0.12532076698E+04  0.50400001928E-02 0. -1.
    10030    2    1    2    0    0  0.00000000000E+00  0.00000000000E+00 -0.28162459784E+03  0.22247907417E+04  0.22068940686E+04 0.  0.
        1    1    3    3  502    0 -0.34931603147E+03 -0.69097247500E+03 -0.93340093323E+03  0.12127250114E+04  0.50400001928E-02 0. -1.
       -1    1    3    3    0  502  0.34931603147E+03  0.69097247500E+03  0.65177633539E+03  0.10120657303E+04  0.50400001928E-02 0.  1.
</event>
<event>
 5   0  0.4462201E-06  0.2199551E+04  0.7818609E-02  0.8518615E-01
       -1   -1    0    0    0  501  0.00000000000E+00  0.00000000000E+00  0.14954459731E+04  0.14954459731E+04  0.50400001928E-02 0.  1.
        1   -1    0    0  501    0  0.00000000000E+00  0.00000000000E+00 -0.80879273100E+03  0.80879273101E+03  0.50400001928E-02 0. -1.
    10030    2    1    2    0    0  0.00000000000E+00  0.00000000000E+00  0.68665324213E+03  0.23042387042E+04  0.21995507111E+04 0.  0.
        3    1    3    3  502    0  0.46548889967E+03  0.33189169651E+03 -0.64089660169E+03  0.85882505680E+03  0.10100000352E+00 0. -1.
       -3    1    3    3    0  502 -0.46548889967E+03 -0.33189169651E+03  0.13275498438E+04  0.14454136474E+04  0.10100000352E+00 0.  1.
</event>
<event>
 5   0  0.4462201E-06  0.2198856E+04  0.7818609E-02  0.8518904E-01
       -1   -1    0    0    0  501  0.00000000000E+00  0.00000000000E+00  0.11949708592E+04  0.11949708592E+04  0.50400001928E-02 0. -1.
        1   -1    0    0  501    0  0.00000000000E+00  0.00000000000E+00 -0.10115241543E+04  0.10115241543E+04  0.50400001928E-02 0.  1.
    10030    2    1    2    0    0  0.00000000000E+00  0.00000000000E+00  0.18344670495E+03  0.22064950135E+04  0.21988559641E+04 0.  0.
        3    1    3    3  502    0 -0.46204966015E+03  0.85822538360E+03 -0.41867042770E+03  0.10608136664E+04  0.10100000352E+00 0. -1.
       -3    1    3    3    0  502  0.46204966015E+03 -0.85822538360E+03  0.60211713265E+03  0.11456813471E+04  0.10100000352E+00 0.  1.
</event>
<event>
 5   0  0.9963173E-06  0.2185528E+04  0.7818609E-02  0.8524476E-01
       -2   -1    0    0    0  501  0.00000000000E+00  0.00000000000E+00  0.79948342297E+03  0.79948342298E+03  0.25500000920E-02 0. -1.
        2   -1    0    0  501    0  0.00000000000E+00  0.00000000000E+00 -0.14936309378E+04  0.14936309378E+04  0.25500000920E-02 0.  1.
    10030    2    1    2    0    0  0.00000000000E+00  0.00000000000E+00 -0.69414751479E+03  0.22931143607E+04  0.21855280138E+04 0.  0.
        4    1    3    3  502    0  0.68315759839E+03 -0.80657313712E+03 -0.63797085833E+03  0.12346144980E+04  0.12699999809E+01 0.  1.
       -4    1    3    3    0  502 -0.68315759839E+03  0.80657313712E+03 -0.56176656466E+02  0.10584998627E+04  0.12699999809E+01 0. -1.
</event>
<event>
 5   0  0.4630615E-06  0.2207078E+04  0.7818609E-02  0.8515488E-01
        1   -1    0    0  501    0  0.00000000000E+00  0.00000000000E+00  0.16950835756E+04  0.16950835756E+04  0.50400001928E-02 0.  1.
       -1   -1    0    0    0  501  0.00000000000E+00  0.00000000000E+00 -0.71842964320E+03  0.71842964321E+03  0.50400001928E-02 0. -1.
    10030    2    1    2    0    0  0.00000000000E+00  0.00000000000E+00  0.97665393241E+03  0.24135132188E+04  0.22070779673E+04 0.  0.
        2    1    3    3  502    0 -0.32194962558E+03  0.83088664055E+01 -0.66589608938E+03  0.73968790752E+03  0.25500000920E-02 0. -1.
       -2    1    3    3    0  502  0.32194962558E+03 -0.83088664055E+01  0.16425500218E+04  0.16738253113E+04  0.25500000920E-02 0.  1.
</event>
<event>
 5   0  0.4309945E-06  0.2201395E+04  0.7818609E-02  0.8517848E-01
       -1   -1    0    0    0  501  0.00000000000E+00  0.00000000000E+00  0.95729247003E+03  0.95729247004E+03  0.50400001928E-02 0.  1.
        1   -1    0    0  501    0  0.00000000000E+00  0.00000000000E+00 -0.12655844452E+04  0.12655844452E+04  0.50400001928E-02 0. -1.
    10030    2    1    2    0    0  0.00000000000E+00  0.00000000000E+00 -0.30829197517E+03  0.22228769152E+04  0.22013945213E+04 0.  0.
        4    1    3    3  502    0 -0.80462855277E+03 -0.74522464037E+03 -0.59713456827E+02  0.10983415600E+04  0.12699999809E+01 0.  1.
       -4    1    3    3    0  502  0.80462855277E+03  0.74522464037E+03 -0.24857851834E+03  0.11245353553E+04  0.12699999809E+01 0. -1.
</event>
<event>
 5   0  0.9963173E-06  0.2194881E+04  0.7818609E-02  0.8520562E-01
       -2   -1    0    0    0  501  0.00000000000E+00  0.00000000000E+00  0.53962082290E+03  0.53962082291E+03  0.25500000920E-02 0.  1.
        2   -1    0    0  501    0  0.00000000000E+00  0.00000000000E+00 -0.22318916568E+04  0.22318916568E+04  0.25500000920E-02 0. -1.
    10030    2    1    2    0    0  0.00000000000E+00  0.00000000000E+00 -0.16922708339E+04  0.27715124797E+04  0.21948806004E+04 0.  0.
        4    1    3    3  502    0  0.25619664602E+03  0.69597545947E+03  0.17530411912E+03  0.76207067172E+03  0.12699999809E+01 0.  1.
       -4    1    3    3    0  502 -0.25619664602E+03 -0.69597545947E+03 -0.18675749530E+04  0.20094418080E+04  0.12699999809E+01 0. -1.
</event>
<event>
 5   0  0.1015876E-05  0.2197029E+04  0.7818609E-02  0.8519666E-01
       -2   -1    0    0    0  501  0.00000000000E+00  0.00000000000E+00  0.49988413682E+03  0.49988413683E+03  0.25500000920E-02 0.  1.
        2   -1    0    0  501    0  0.00000000000E+00  0.00000000000E+00 -0.24140287045E+04  0.24140287045E+04  0.25500000920E-02 0. -1.
    10030    2    1    2    0    0  0.00000000000E+00  0.00000000000E+00 -0.19141445677E+04  0.29139128414E+04  0.21970294993E+04 0.  0.
        5    1    3    3  502    0  0.51904848147E+02  0.69926538434E+03 -0.20785942228E+04  0.21936823435E+04  0.46999998093E+01 0. -1.
       -5    1    3    3    0  502 -0.51904848147E+02 -0.69926538434E+03  0.16444965511E+03  0.72023049787E+03  0.46999998093E+01 0.  1.
</event>
<event>
 5   0  0.4309945E-06  0.2199448E+04  0.7818609E-02  0.8518658E-01
        1   -1    0    0  501    0  0.00000000000E+00  0.00000000000E+00  0.28640633277E+04  0.28640633277E+04  0.50400001928E-02 0.  1.
       -1   -1    0    0    0  501  0.00000000000E+00  0.00000000000E+00 -0.42226485951E+03  0.42226485954E+03  0.50400001928E-02 0. -1.
    10030    2    1    2    0    0  0.00000000000E+00  0.00000000000E+00  0.24417984682E+04  0.32863281872E+04  0.21994483843E+04 0.  0.
        4    1    3    3  502    0 -0.79997321361E+03  0.64936461492E+03  0.17952481486E+04  0.20699152334E+04  0.12699999809E+01 0.  1.
       -4    1    3    3    0  502  0.79997321361E+03 -0.64936461492E+03  0.64655031964E+03  0.12164129539E+04  0.12699999809E+01 0. -1.
</event>
<event>
 5   0  0.9963173E-06  0.2198567E+04  0.7818609E-02  0.8519025E-01
       -2   -1    0    0    0  501  0.00000000000E+00  0.00000000000E+00  0.84588132904E+03  0.84588132904E+03  0.25500000920E-02 0.  1.
        2   -1    0    0  501    0  0.00000000000E+00  0.00000000000E+00 -0.14285982823E+04  0.14285982823E+04  0.25500000920E-02 0. -1.
    10030    2    1    2    0    0  0.00000000000E+00  0.00000000000E+00 -0.58271695322E+03  0.22744796113E+04  0.21985673641E+04 0.  0.
        4    1    3    3  502    0  0.21260955091E+03 -0.90619044600E+03  0.31367599656E+03  0.98223123004E+03  0.12699999809E+01 0.  1.
       -4    1    3    3    0  502 -0.21260955091E+03  0.90619044600E+03 -0.89639294977E+03  0.12922483813E+04  0.12699999809E+01 0. -1.
</event>
<event>
 5   0  0.1035928E-05  0.2199052E+04  0.7818609E-02  0.8518823E-01
        2   -1    0    0  501    0  0.00000000000E+00  0.00000000000E+00  0.15294396592E+04  0.15294396592E+04  0.25500000920E-02 0. -1.
       -2   -1    0    0    0  501  0.00000000000E+00  0.00000000000E+00 -0.79045788292E+03  0.79045788292E+03  0.25500000920E-02 0.  1.
    10030    2    1    2    0    0  0.00000000000E+00  0.00000000000E+00  0.73898177624E+03  0.23198975421E+04  0.21990521913E+04 0.  0.
        3    1    3    3  502    0 -0.41847613220E+03  0.35384909652E+03  0.13750923317E+04  0.14802737541E+04  0.10100000352E+00 0. -1.
       -3    1    3    3    0  502  0.41847613220E+03 -0.35384909652E+03 -0.63611055544E+03  0.83962378794E+03  0.10100000352E+00 0.  1.
</event>
<event>
 5   0  0.4794967E-06  0.2197007E+04  0.7818609E-02  0.8519675E-01
        1   -1    0    0  501    0  0.00000000000E+00  0.00000000000E+00  0.17323742996E+04  0.17323742996E+04  0.50400001928E-02 0. -1.
       -1   -1    0    0    0  501  0.00000000000E+00  0.00000000000E+00 -0.69656425341E+03  0.69656425343E+03  0.50400001928E-02 0.  1.
    10030    2    1    2    0    0  0.00000000000E+00  0.00000000000E+00  0.10358100461E+04  0.24289385530E+04  0.21970070647E+04 0.  0.
        5    1    3    3  502    0 -0.84991347436E+03  0.68719555443E+03  0.39630633708E+03  0.11626140575E+04  0.46999998093E+01 0.  1.
       -5    1    3    3    0  502  0.84991347436E+03 -0.68719555443E+03  0.63950370906E+03  0.12663244955E+04  0.46999998093E+01 0. -1.
</event>
<event>
 5   0  0.9963573E-06  0.2192407E+04  0.7818609E-02  0.8521595E-01
        2   -1    0    0  501    0  0.00000000000E+00  0.00000000000E+00  0.24208534735E+04  0.24208534735E+04  0.25500000920E-02 0. -1.
       -2   -1    0    0    0  501  0.00000000000E+00  0.00000000000E+00 -0.49637942733E+03  0.49637942734E+03  0.25500000920E-02 0.  1.
    10030    2    1    2    0    0  0.00000000000E+00  0.00000000000E+00  0.19244740461E+04  0.29172329008E+04  0.21924067696E+04 0.  0.
        2    1    3    3  502    0 -0.86529346246E+03 -0.65829730917E+03  0.77607681867E+03  0.13358081269E+04  0.25500000920E-02 0.  1.
       -2    1    3    3    0  502  0.86529346246E+03  0.65829730917E+03  0.11483972275E+04  0.15814247739E+04  0.25500000920E-02 0. -1.
</event>
<event>
 5   0  0.4794967E-06  0.2211590E+04  0.7818609E-02  0.8513620E-01
       -1   -1    0    0    0  501  0.00000000000E+00  0.00000000000E+00  0.73697188713E+03  0.73697188714E+03  0.50400001928E-02 0.  1.
        1   -1    0    0  501    0  0.00000000000E+00  0.00000000000E+00 -0.16591979853E+04  0.16591979853E+04  0.50400001928E-02 0. -1.
    10030    2    1    2    0    0  0.00000000000E+00  0.00000000000E+00 -0.92222609814E+03  0.23961698724E+04  0.22115897181E+04 0.  0.
        5    1    3    3  502    0 -0.84993185861E+03 -0.31189447847E+03 -0.11490019185E+04  0.14628362275E+04  0.46999998093E+01 0. -1.
       -5    1    3    3    0  502  0.84993185861E+03  0.31189447847E+03  0.22677582032E+03  0.93333364488E+03  0.46999998093E+01 0.  1.
</event>
<event>
 5   0  0.9963573E-06  0.2209942E+04  0.7818609E-02  0.8514301E-01
        2   -1    0    0  501    0  0.00000000000E+00  0.00000000000E+00  0.11402248060E+04  0.11402248060E+04  0.25500000920E-02 0.  1.
       -2   -1    0    0    0  501  0.00000000000E+00  0.00000000000E+00 -0.10708071368E+04  0.10708071368E+04  0.25500000920E-02 0. -1.
    10030    2    1    2    0    0  0.00000000000E+00  0.00000000000E+00  0.69417669231E+02  0.22110319428E+04  0.22099419538E+04 0.  0.
        2    1    3    3  502    0  0.80204858150E+03 -0.42398330553E+02  0.79395156750E+03  0.11293531941E+04  0.25500000920E-02 0.  1.
       -2    1    3    3    0  502 -0.80204858150E+03  0.42398330553E+02 -0.72453389827E+03  0.10816787486E+04  0.25500000920E-02 0. -1.
</event>
<event>
 5   0  0.4462201E-06  0.2199415E+04  0.7818609E-02  0.8518672E-01
       -1   -1    0    0    0  501  0.00000000000E+00  0.00000000000E+00  0.11333558172E+04  0.11333558172E+04  0.50400001928E-02 0.  1.
        1   -1    0    0  501    0  0.00000000000E+00  0.00000000000E+00 -0.10670577915E+04  0.10670577915E+04  0.50400001928E-02 0. -1.
    10030    2    1    2    0    0  0.00000000000E+00  0.00000000000E+00  0.66298025698E+02  0.22004136086E+04  0.21994146087E+04 0.  0.
        3    1    3    3  502    0 -0.67382649304E+03 -0.16547848334E+03  0.88672519194E+03  0.11259248853E+04  0.10100000352E+00 0.  1.
       -3    1    3    3    0  502  0.67382649304E+03  0.16547848334E+03 -0.82042716625E+03  0.10744887233E+04  0.10100000352E+00 0. -1.
</event>
<event>
 5   0  0.1035928E-05  0.2200229E+04  0.7818609E-02  0.8518333E-01
        2   -1    0    0  501    0  0.00000000000E+00  0.00000000000E+00  0.14900910041E+04  0.14900910041E+04  0.25500000920E-02 0.  1.
       -2   -1    0    0    0  501  0.00000000000E+00  0.00000000000E+00 -0.81219971248E+03  0.81219971248E+03  0.25500000920E-02 0. -1.
    10030    2    1    2    0    0  0.00000000000E+00  0.00000000000E+00  0.67789129160E+03  0.23022907166E+04  0.22002286109E+04 0.  0.
        3    1    3    3  502    0 -0.81458103543E+03 -0.28213421027E+03  0.10541031565E+04  0.13617178308E+04  0.10100000352E+00 0.  1.
       -3    1    3    3    0  502  0.81458103543E+03  0.28213421027E+03 -0.37621186494E+03  0.94057288575E+03  0.10100000352E+00 0. -1.
</event>
<event>
 5   0  0.4309945E-06  0.2205567E+04  0.7818609E-02  0.8516115E-01
        1   -1    0    0  501    0  0.00000000000E+00  0.00000000000E+00  0.15427084757E+04  0.15427084757E+04  0.50400001928E-02 0.  1.
       -1   -1    0    0    0  501  0.00000000000E+00  0.00000000000E+00 -0.78830900689E+03  0.78830900691E+03  0.50400001928E-02 0. -1.
    10030    2    1    2    0    0  0.00000000000E+00  0.00000000000E+00  0.75439946877E+03  0.23310174826E+04  0.22055665815E+04 0.  0.
        4    1    3    3  502    0 -0.25765233149E+03 -0.10340867838E+04  0.77505660081E+02  0.10685171691E+04  0.12699999809E+01 0.  1.
       -4    1    3    3    0  502  0.25765233149E+03  0.10340867838E+04  0.67689380869E+03  0.12625003135E+04  0.12699999809E+01 0. -1.
</event>
<event>
 5   0  0.4408787E-06  0.2201343E+04  0.7818609E-02  0.8517869E-01
        1   -1    0    0  501    0  0.00000000000E+00  0.00000000000E+00  0.19233304504E+04  0.19233304504E+04  0.50400001928E-02 0.  1.
       -1   -1    0    0    0  501  0.00000000000E+00  0.00000000000E+00 -0.62988552424E+03  0.62988552426E+03  0.50400001928E-02 0. -1.
    10030    2    1    2    0    0  0.00000000000E+00  0.00000000000E+00  0.12934449261E+04  0.25532159746E+04  0.22013432345E+04 0.  0.
        1    1    3    3  502    0  0.41401916299E+03  0.10719085447E+03  0.18230223045E+04  0.18725149049E+04  0.50400001928E-02 0.  1.
       -1    1    3    3    0  502 -0.41401916299E+03 -0.10719085447E+03 -0.52957737834E+03  0.68070106969E+03  0.50400001928E-02 0. -1.
</event>
<event>
 5   0  0.9963573E-06  0.2205562E+04  0.7818609E-02  0.8516117E-01
        2   -1    0    0  501    0  0.00000000000E+00  0.00000000000E+00  0.22554695793E+04  0.22554695793E+04  0.25500000920E-02 0. -1.
       -2   -1    0    0    0  501  0.00000000000E+00  0.00000000000E+00 -0.53918973015E+03  0.53918973016E+03  0.25500000920E-02 0.  1.
    10030    2    1    2    0    0  0.00000000000E+00  0.00000000000E+00  0.17162798492E+04  0.27946593095E+04  0.22055620906E+04 0.  0.
        2    1    3    3  502    0 -0.50270948095E+03 -0.70426397005E+03  0.17244311442E+04  0.19293437570E+04  0.25500000920E-02 0. -1.
       -2    1    3    3    0  502  0.50270948095E+03  0.70426397005E+03 -0.81512949814E+01  0.86531555248E+03  0.25500000920E-02 0.  1.
</event>
<event>
 5   0  0.4462201E-06  0.2202025E+04  0.7818609E-02  0.8517586E-01
       -1   -1    0    0    0  501  0.00000000000E+00  0.00000000000E+00  0.88228680326E+03  0.88228680328E+03  0.50400001928E-02 0.  1.
        1   -1    0    0  501    0  0.00000000000E+00  0.00000000000E+00 -0.13739624306E+04  0.13739624307E+04  0.50400001928E-02 0. -1.
    10030    2    1    2    0    0  0.00000000000E+00  0.00000000000E+00 -0.49167562738E+03  0.22562492339E+04  0.22020253593E+04 0.  0.
        3    1    3    3  502    0  0.61124567101E+03  0.53321868312E+03  0.51699875705E+03  0.96188936960E+03  0.10100000352E+00 0.  1.
       -3    1    3    3    0  502 -0.61124567101E+03 -0.53321868312E+03 -0.10086743844E+04  0.12943598643E+04  0.10100000352E+00 0. -1.
</event>
<event>
 5   0  0.9963173E-06  0.2137770E+04  0.7818609E-02  0.8544785E-01
       -2   -1    0    0    0  501  0.00000000000E+00  0.00000000000E+00  0.73082050571E+03  0.73082050572E+03  0.25500000920E-02 0. -1.
        2   -1    0    0  501    0  0.00000000000E+00  0.00000000000E+00 -0.15633325937E+04  0.15633325937E+04  0.25500000920E-02 0.  1.
    10030    2    1    2    0    0  0.00000000000E+00  0.00000000000E+00 -0.83251208799E+03  0.22941530994E+04  0.21377703494E+04 0.  0.
        4    1    3    3  502    0  0.68620735254E+03 -0.59404582762E+03 -0.10221290824E+04  0.13669383490E+04  0.12699999809E+01 0.  1.
       -4    1    3    3    0  502 -0.68620735254E+03  0.59404582762E+03  0.18961699437E+03  0.92721475045E+03  0.12699999809E+01 0. -1.
</event>
<event>
 5   0  0.1035928E-05  0.2165767E+04  0.7818609E-02  0.8532813E-01
       -2   -1    0    0    0  501  0.00000000000E+00  0.00000000000E+00  0.13377979297E+04  0.13377979297E+04  0.25500000920E-02 0.  1.
        2   -1    0    0  501    0  0.00000000000E+00  0.00000000000E+00 -0.87654250096E+03  0.87654250096E+03  0.25500000920E-02 0. -1.
    10030    2    1    2    0    0  0.00000000000E+00  0.00000000000E+00  0.46125542879E+03  0.22143404307E+04  0.21657670633E+04 0.  0.
        3    1    3    3  502    0 -0.84706434812E+03  0.58233382895E+03  0.57886312936E+03  0.11797089603E+04  0.10100000352E+00 0. -1.
       -3    1    3    3    0  502  0.84706434812E+03 -0.58233382895E+03 -0.11760770057E+03  0.10346314704E+04  0.10100000352E+00 0.  1.
</event>
<event>
 5   0  0.1015876E-05  0.2187364E+04  0.7818609E-02  0.8523706E-01
        2   -1    0    0  501    0  0.00000000000E+00  0.00000000000E+00  0.20323860779E+04  0.20323860779E+04  0.25500000920E-02 0.  1.
       -2   -1    0    0    0  501  0.00000000000E+00  0.00000000000E+00 -0.58853991503E+03  0.58853991504E+03  0.25500000920E-02 0. -1.
    10030    2    1    2    0    0  0.00000000000E+00  0.00000000000E+00  0.14438461629E+04  0.26209259929E+04  0.21873640114E+04 0.  0.
        5    1    3    3  502    0  0.64133525218E+03  0.84101122235E+03  0.38833890494E+03  0.11266942695E+04  0.46999998093E+01 0. -1.
       -5    1    3    3    0  502 -0.64133525218E+03 -0.84101122235E+03  0.10555072579E+04  0.14942317234E+04  0.46999998093E+01 0.  1.
</event>
<event>
 5   0  0.4309945E-06  0.2199426E+04  0.7818609E-02  0.8518667E-01
       -1   -1    0    0    0  501  0.00000000000E+00  0.00000000000E+00  0.73188948962E+03  0.73188948963E+03  0.50400001928E-02 0.  1.
        1   -1    0    0  501    0  0.00000000000E+00  0.00000000000E+00 -0.16523924255E+04  0.16523924255E+04  0.50400001928E-02 0. -1.
    10030    2    1    2    0    0  0.00000000000E+00  0.00000000000E+00 -0.92050293589E+03  0.23842819151E+04  0.21994259696E+04 0.  0.
        4    1    3    3  502    0 -0.24991358014E+03  0.72857923513E+03 -0.13111302721E+04  0.15206408855E+04  0.12699999809E+01 0. -1.
       -4    1    3    3    0  502  0.24991358014E+03 -0.72857923513E+03  0.39062733619E+03  0.86364102964E+03  0.12699999809E+01 0.  1.
</event>
<event>
 5   0  0.4462201E-06  0.2202969E+04  0.7818609E-02  0.8517194E-01
       -1   -1    0    0    0  501  0.00000000000E+00  0.00000000000E+00  0.61116818947E+03  0.61116818949E+03  0.50400001928E-02 0. -1.
        1   -1    0    0  501    0  0.00000000000E+00  0.00000000000E+00 -0.19851616337E+04  0.19851616337E+04  0.50400001928E-02 0.  1.
    10030    2    1    2    0    0  0.00000000000E+00  0.00000000000E+00 -0.13739934443E+04  0.25963298232E+04  0.22029685804E+04 0.  0.
        3    1    3    3  502    0  0.64347808373E+03  0.30980467047E+03  0.30132559602E+03  0.77513876378E+03  0.10100000352E+00 0. -1.
       -3    1    3    3    0  502 -0.64347808373E+03 -0.30980467047E+03 -0.16753190403E+04  0.18211910594E+04  0.10100000352E+00 0.  1.
</event>
<event>
 5   0  0.4794967E-06  0.2229478E+04  0.7818609E-02  0.8506258E-01
        1   -1    0    0  501    0  0.00000000000E+00  0.00000000000E+00  0.14227061275E+04  0.14227061275E+04  0.50400001928E-02 0.  1.
       -1   -1    0    0    0  501  0.00000000000E+00  0.00000000000E+00 -0.87343633300E+03  0.87343633301E+03  0.50400001928E-02 0. -1.
    10030    2    1    2    0    0  0.00000000000E+00  0.00000000000E+00  0.54926979454E+03  0.22961424606E+04  0.22294781658E+04 0.  0.
        5    1    3    3  502    0 -0.13652481774E+03 -0.11004998007E+04  0.15774089152E+03  0.11201085287E+04  0.46999998093E+01 0. -1.
       -5    1    3    3    0  502  0.13652481774E+03  0.11004998007E+04  0.39152890302E+03  0.11760339319E+04  0.46999998093E+01 0.  1.
</event>
<event>
 5   0  0.9963173E-06  0.2188013E+04  0.7818609E-02  0.8523434E-01
       -2   -1    0    0    0  501  0.00000000000E+00  0.00000000000E+00  0.87114584553E+03  0.87114584553E+03  0.25500000920E-02 0. -1.
        2   -1    0    0  501    0  0.00000000000E+00  0.00000000000E+00 -0.13738798212E+04  0.13738798212E+04  0.25500000920E-02 0.  1.
    10030    2    1    2    0    0  0.00000000000E+00  0.00000000000E+00 -0.50273397571E+03  0.22450256668E+04  0.21880125215E+04 0.  0.
        4    1    3    3  502    0 -0.28566441651E+03  0.90035566072E+02  0.82825642131E+03  0.88075017704E+03  0.12699999809E+01 0. -1.
       -4    1    3    3    0  502  0.28566441651E+03 -0.90035566072E+02 -0.13309903970E+04  0.13642754897E+04  0.12699999809E+01 0.  1.
</event>
<event>
 5   0  0.1014015E-05  0.2204842E+04  0.7818609E-02  0.8516415E-01
        2   -1    0    0  501    0  0.00000000000E+00  0.00000000000E+00  0.20217344343E+04  0.20217344343E+04  0.25500000920E-02 0.  1.
       -2   -1    0    0    0  501  0.00000000000E+00  0.00000000000E+00 -0.60113336323E+03  0.60113336324E+03  0.25500000920E-02 0. -1.
    10030    2    1    2    0    0  0.00000000000E+00  0.00000000000E+00  0.14206010711E+04  0.26228677976E+04  0.22048419627E+04 0.  0.
        1    1    3    3  502    0  0.76577781726E+02  0.83013686228E+03 -0.14780917028E+03  0.84666340278E+03  0.50400001928E-02 0. -1.
       -1    1    3    3    0  502 -0.76577781726E+02 -0.83013686228E+03  0.15684102414E+04  0.17762043948E+04  0.50400001928E-02 0.  1.
</event>
<event>
 5   0  0.1015876E-05  0.2196068E+04  0.7818609E-02  0.8520066E-01
       -2   -1    0    0    0  501  0.00000000000E+00  0.00000000000E+00  0.58260789586E+03  0.58260789587E+03  0.25500000920E-02 0. -1.
        2   -1    0    0  501    0  0.00000000000E+00  0.00000000000E+00 -0.20694520366E+04  0.20694520366E+04  0.25500000920E-02 0.  1.
    10030    2    1    2    0    0  0.00000000000E+00  0.00000000000E+00 -0.14868441407E+04  0.26520599325E+04  0.21960683930E+04 0.  0.
        5    1    3    3  502    0  0.59801741371E+03  0.11606230672E+03  0.35980955581E+03  0.70751699103E+03  0.46999998093E+01 0.  1.
       -5    1    3    3    0  502 -0.59801741371E+03 -0.11606230672E+03 -0.18466536966E+04  0.19445429414E+04  0.46999998093E+01 0. -1.
</event>
<event>
 5   0  0.9963173E-06  0.2203806E+04  0.7818609E-02  0.8516846E-01
        2   -1    0    0  501    0  0.00000000000E+00  0.00000000000E+00  0.14242703925E+04  0.14242703925E+04  0.25500000920E-02 0. -1.
       -2   -1    0    0    0  501  0.00000000000E+00  0.00000000000E+00 -0.85249994800E+03  0.85249994801E+03  0.25500000920E-02 0.  1.
    10030    2    1    2    0    0  0.00000000000E+00  0.00000000000E+00  0.57177044454E+03  0.22767703406E+04  0.22038061944E+04 0.  0.
        4    1    3    3  502    0  0.98968820128E+03 -0.40644052741E+03  0.55826589904E+03  0.12067887408E+04  0.12699999809E+01 0.  1.
       -4    1    3    3    0  502 -0.98968820128E+03  0.40644052741E+03  0.13504545504E+02  0.10699815997E+04  0.12699999809E+01 0. -1.
</event>
<event>
 5   0  0.9963573E-06  0.2200403E+04  0.7818609E-02  0.8518261E-01
        2   -1    0    0  501    0  0.00000000000E+00  0.00000000000E+00  0.78779962153E+03  0.78779962154E+03  0.25500000920E-02 0. -1.
       -2   -1    0    0    0  501  0.00000000000E+00  0.00000000000E+00 -0.15364856851E+04  0.15364856851E+04  0.25500000920E-02 0.  1.
    10030    2    1    2    0    0  0.00000000000E+00  0.00000000000E+00 -0.74868606359E+03  0.23242853067E+04  0.22004025461E+04 0.  0.
        2    1    3    3  502    0 -0.94181834509E+03  0.56568567381E+03 -0.43612317185E+03  0.11820429340E+04  0.25500000920E-02 0. -1.
       -2    1    3    3    0  502  0.94181834509E+03 -0.56568567381E+03 -0.31256289174E+03  0.11422423727E+04  0.25500000920E-02 0.  1.
</event>
<event>
 5   0  0.1015876E-05  0.2200153E+04  0.7818609E-02  0.8518365E-01
       -2   -1    0    0    0  501  0.00000000000E+00  0.00000000000E+00  0.12446230906E+04  0.12446230907E+04  0.25500000920E-02 0. -1.
        2   -1    0    0  501    0  0.00000000000E+00  0.00000000000E+00 -0.97231691503E+03  0.97231691504E+03  0.25500000920E-02 0.  1.
    10030    2    1    2    0    0  0.00000000000E+00  0.00000000000E+00  0.27230617562E+03  0.22169400057E+04  0.22001527982E+04 0.  0.
        5    1    3    3  502    0  0.72844532808E+03 -0.53812170856E+03 -0.49306197947E+03  0.10311836766E+04  0.46999998093E+01 0.  1.
       -5    1    3    3    0  502 -0.72844532808E+03  0.53812170856E+03  0.76536815508E+03  0.11857563291E+04  0.46999998093E+01 0. -1.
</event>
<event>
 5   0  0.1015876E-05  0.2202659E+04  0.7818609E-02  0.8517322E-01
        2   -1    0    0  501    0  0.00000000000E+00  0.00000000000E+00  0.17457770409E+04  0.17457770409E+04  0.25500000920E-02 0.  1.
       -2   -1    0    0    0  501  0.00000000000E+00  0.00000000000E+00 -0.69477772564E+03  0.69477772565E+03  0.25500000920E-02 0. -1.
    10030    2    1    2    0    0  0.00000000000E+00  0.00000000000E+00  0.10509993152E+04  0.24405547665E+04  0.22026593036E+04 0.  0.
        5    1    3    3  502    0  0.35667658129E+03  0.10294701060E+04  0.34725897816E+03  0.11435199039E+04  0.46999998093E+01 0.  1.
       -5    1    3    3    0  502 -0.35667658129E+03 -0.10294701060E+04  0.70374033705E+03  0.12970348626E+04  0.46999998093E+01 0. -1.
</event>
<event>
 5   0  0.4630615E-06  0.2186785E+04  0.7818609E-02  0.8523949E-01
       -1   -1    0    0    0  501  0.00000000000E+00  0.00000000000E+00  0.87510308504E+03  0.87510308506E+03  0.50400001928E-02 0. -1.
        1   -1    0    0  501    0  0.00000000000E+00  0.00000000000E+00 -0.13661325652E+04  0.13661325652E+04  0.50400001928E-02 0.  1.
    10030    2    1    2    0    0  0.00000000000E+00  0.00000000000E+00 -0.49102948011E+03  0.22412356502E+04  0.21867846921E+04 0.  0.
        2    1    3    3  502    0  0.39130223036E+03  0.55432823754E+03 -0.11242489651E+04  0.13131385936E+04  0.25500000920E-02 0.  1.
       -2    1    3    3    0  502 -0.39130223036E+03 -0.55432823754E+03  0.63321948497E+03  0.92809705666E+03  0.25500000920E-02 0. -1.
</event>
<event>
 5   0  0.4630615E-06  0.2202032E+04  0.7818609E-02  0.8517583E-01
       -1   -1    0    0    0  501  0.00000000000E+00  0.00000000000E+00  0.73392458554E+03  0.73392458556E+03  0.50400001928E-02 0. -1.
        1   -1    0    0  501    0  0.00000000000E+00  0.00000000000E+00 -0.16517184333E+04  0.16517184333E+04  0.50400001928E-02 0.  1.
    10030    2    1    2    0    0  0.00000000000E+00  0.00000000000E+00 -0.91779384772E+03  0.23856430188E+04  0.22020324853E+04 0.  0.
        2    1    3    3  502    0  0.44336762788E+03 -0.31955158228E+03  0.57659707853E+03  0.79445091614E+03  0.25500000920E-02 0. -1.
       -2    1    3    3    0  502 -0.44336762788E+03  0.31955158228E+03 -0.14943909262E+04  0.15911921027E+04  0.25500000920E-02 0.  1.
</event>
<event>
 5   0  0.4630615E-06  0.2190094E+04  0.7818609E-02  0.8522563E-01
        1   -1    0    0  501    0  0.00000000000E+00  0.00000000000E+00  0.20954374908E+04  0.20954374908E+04  0.50400001928E-02 0. -1.
       -1   -1    0    0    0  501  0.00000000000E+00  0.00000000000E+00 -0.57225640563E+03  0.57225640565E+03  0.50400001928E-02 0.  1.
    10030    2    1    2    0    0  0.00000000000E+00  0.00000000000E+00  0.15231810851E+04  0.26676938964E+04  0.21900936297E+04 0.  0.
        2    1    3    3  502    0 -0.29285446593E+03 -0.40226383904E+03 -0.42660678302E+03  0.65541840205E+03  0.25500000920E-02 0.  1.
       -2    1    3    3    0  502  0.29285446593E+03  0.40226383904E+03  0.19497878682E+04  0.20122754944E+04  0.25500000920E-02 0. -1.
</event>
<event>
 5   0  0.4794967E-06  0.2198469E+04  0.7818609E-02  0.8519066E-01
        1   -1    0    0  501    0  0.00000000000E+00  0.00000000000E+00  0.89746888245E+03  0.89746888246E+03  0.50400001928E-02 0. -1.
       -1   -1    0    0    0  501  0.00000000000E+00  0.00000000000E+00 -0.13463600306E+04  0.13463600306E+04  0.50400001928E-02 0.  1.
    10030    2    1    2    0    0  0.00000000000E+00  0.00000000000E+00 -0.44889114811E+03  0.22438289130E+04  0.21984687690E+04 0.  0.
        5    1    3    3  502    0  0.59708321918E+03  0.91560434614E+03 -0.10605899865E+03  0.10982305270E+04  0.46999998093E+01 0. -1.
       -5    1    3    3    0  502 -0.59708321918E+03 -0.91560434614E+03 -0.34283214946E+03  0.11455983860E+04  0.46999998093E+01 0.  1.
</event>
<event>
 5   0  0.1035928E-05  0.2195811E+04  0.7818609E-02  0.8520174E-01
        2   -1    0    0  501    0  0.00000000000E+00  0.00000000000E+00  0.11309165140E+04  0.11309165140E+04  0.25500000920E-02 0. -1.
       -2   -1    0    0    0  501  0.00000000000E+00  0.00000000000E+00 -0.10658584215E+04  0.10658584215E+04  0.25500000920E-02 0.  1.
    10030    2    1    2    0    0  0.00000000000E+00  0.00000000000E+00  0.65058092436E+02  0.21967749355E+04  0.21958113676E+04 0.  0.
        3    1    3    3  502    0 -0.72230603029E+03  0.23176795138E+03 -0.76151597223E+03  0.10748716067E+04  0.10100000352E+00 0.  1.
       -3    1    3    3    0  502  0.72230603029E+03 -0.23176795138E+03  0.82657406466E+03  0.11219033288E+04  0.10100000352E+00 0. -1.
</event>
<event>
 5   0  0.4408787E-06  0.2198787E+04  0.7818609E-02  0.8518933E-01
       -1   -1    0    0    0  501  0.00000000000E+00  0.00000000000E+00  0.48441413391E+03  0.48441413393E+03  0.50400001928E-02 0. -1.
        1   -1    0    0  501    0  0.00000000000E+00  0.00000000000E+00 -0.24951096187E+04  0.24951096187E+04  0.50400001928E-02 0.  1.
    10030    2    1    2    0    0  0.00000000000E+00  0.00000000000E+00 -0.20106954848E+04  0.29795237526E+04  0.21987872703E+04 0.  0.
        1    1    3    3  502    0  0.32456100208E+03  0.93629709429E+03 -0.16505037606E+04  0.19251375942E+04  0.50400001928E-02 0.  1.
       -1    1    3    3    0  502 -0.32456100208E+03 -0.93629709429E+03 -0.36019172415E+03  0.10543861584E+04  0.50400001928E-02 0. -1.
</event>
<event>
 5   0  0.4630615E-06  0.2208509E+04  0.7818609E-02  0.8514895E-01
       -1   -1    0    0    0  501  0.00000000000E+00  0.00000000000E+00  0.52404509994E+03  0.52404509996E+03  0.50400001928E-02 0.  1.
        1   -1    0    0  501    0  0.00000000000E+00  0.00000000000E+00 -0.23268562605E+04  0.23268562605E+04  0.50400001928E-02 0. -1.
    10030    2    1    2    0    0  0.00000000000E+00  0.00000000000E+00 -0.18028111605E+04  0.28509013604E+04  0.22085086566E+04 0.  0.
        2    1    3    3  502    0  0.52138064170E+03 -0.93697494475E+03 -0.56080668433E+03  0.12100677493E+04  0.25500000920E-02 0.  1.
       -2    1    3    3    0  502 -0.52138064170E+03  0.93697494475E+03 -0.12420044762E+04  0.16408336112E+04  0.25500000920E-02 0. -1.
</event>
<event>
 5   0  0.4794967E-06  0.2199280E+04  0.7818609E-02  0.8518728E-01
        1   -1    0    0  501    0  0.00000000000E+00  0.00000000000E+00  0.26108884970E+04  0.26108884970E+04  0.50400001928E-02 0.  1.
       -1   -1    0    0    0  501  0.00000000000E+00  0.00000000000E+00 -0.46314049852E+03  0.46314049855E+03  0.50400001928E-02 0. -1.
    10030    2    1    2    0    0  0.00000000000E+00  0.00000000000E+00  0.21477479985E+04  0.30740289956E+04  0.21992800641E+04 0.  0.
        5    1    3    3  502    0  0.88146715636E+03  0.62945439947E+03  0.13390363360E+04  0.17222768615E+04  0.46999998093E+01 0. -1.
       -5    1    3    3    0  502 -0.88146715636E+03 -0.62945439947E+03  0.80871166254E+03  0.13517521340E+04  0.46999998093E+01 0.  1.
</event>
<event>
 5   0  0.9963573E-06  0.2199086E+04  0.7818609E-02  0.8518809E-01
       -2   -1    0    0    0  501  0.00000000000E+00  0.00000000000E+00  0.97203937796E+03  0.97203937796E+03  0.25500000920E-02 0.  1.
        2   -1    0    0  501    0  0.00000000000E+00  0.00000000000E+00 -0.12437713213E+04  0.12437713214E+04  0.25500000920E-02 0. -1.
    10030    2    1    2    0    0  0.00000000000E+00  0.00000000000E+00 -0.27173194339E+03  0.22158106993E+04  0.21990859024E+04 0.  0.
        2    1    3    3  502    0  0.49662210145E+03  0.82433754206E+03  0.39999518989E+03  0.10421909839E+04  0.25500000920E-02 0. -1.
       -2    1    3    3    0  502 -0.49662210145E+03 -0.82433754206E+03 -0.67172713328E+03  0.11736197155E+04  0.25500000920E-02 0.  1.
</event>
<event>
 5   0  0.9963173E-06  0.2200484E+04  0.7818609E-02  0.8518227E-01
       -2   -1    0    0    0  501  0.00000000000E+00  0.00000000000E+00  0.12310765908E+04  0.12310765908E+04  0.25500000920E-02 0. -1.
        2   -1    0    0  501    0  0.00000000000E+00  0.00000000000E+00 -0.98331237152E+03  0.98331237153E+03  0.25500000920E-02 0.  1.
    10030    2    1    2    0    0  0.00000000000E+00  0.00000000000E+00  0.24776421932E+03  0.22143889624E+04  0.22004843486E+04 0.  0.
        4    1    3    3  502    0  0.17036886427E+03  0.28317810777E+03 -0.93218512058E+03  0.98903291278E+03  0.12699999809E+01 0.  1.
       -4    1    3    3    0  502 -0.17036886427E+03 -0.28317810777E+03  0.11799493399E+04  0.12253560496E+04  0.12699999809E+01 0. -1.
</event>
<event>
 5   0  0.4462201E-06  0.2198592E+04  0.7818609E-02  0.8519014E-01
       -1   -1    0    0    0  501  0.00000000000E+00  0.00000000000E+00  0.66637489753E+03  0.66637489755E+03  0.50400001928E-02 0.  1.
        1   -1    0    0  501    0  0.00000000000E+00  0.00000000000E+00 -0.18134719763E+04  0.18134719763E+04  0.50400001928E-02 0. -1.
    10030    2    1    2    0    0  0.00000000000E+00  0.00000000000E+00 -0.11470970787E+04  0.24798468738E+04  0.21985924610E+04 0.  0.
        3    1    3    3  502    0 -0.85751752682E+03  0.41817519093E+03 -0.11895290937E+04  0.15248561486E+04  0.10100000352E+00 0. -1.
       -3    1    3    3    0  502  0.85751752682E+03 -0.41817519093E+03  0.42432014923E+02  0.95499072520E+03  0.10100000352E+00 0.  1.
</event>
<event>
 5   0  0.9963573E-06  0.2167900E+04  0.7818609E-02  0.8531909E-01
        2   -1    0    0  501    0  0.00000000000E+00  0.00000000000E+00  0.13720618024E+04  0.13720618024E+04  0.25500000920E-02 0. -1.
       -2   -1    0    0    0  501  0.00000000000E+00  0.00000000000E+00 -0.85633702635E+03  0.85633702636E+03  0.25500000920E-02 0.  1.
    10030    2    1    2    0    0  0.00000000000E+00  0.00000000000E+00  0.51572477601E+03  0.22283988287E+04  0.21678997429E+04 0.  0.
        2    1    3    3  502    0  0.18645963793E+03 -0.65640118719E+03 -0.60785092919E+03  0.91384488139E+03  0.25500000920E-02 0.  1.
       -2    1    3    3    0  502 -0.18645963793E+03  0.65640118719E+03  0.11235757052E+04  0.13145539473E+04  0.25500000920E-02 0. -1.
</event>
<event>
 5   0  0.4794967E-06  0.2195663E+04  0.7818609E-02  0.8520236E-01
        1   -1    0    0  501    0  0.00000000000E+00  0.00000000000E+00  0.10346911862E+04  0.10346911862E+04  0.50400001928E-02 0. -1.
       -1   -1    0    0    0  501  0.00000000000E+00  0.00000000000E+00 -0.11648243324E+04  0.11648243324E+04  0.50400001928E-02 0.  1.
    10030    2    1    2    0    0  0.00000000000E+00  0.00000000000E+00 -0.13013314622E+03  0.21995155186E+04  0.21956625152E+04 0.  0.
        5    1    3    3  502    0 -0.87392263450E+03  0.20399598853E+03  0.56838495027E+03  0.10622799424E+04  0.46999998093E+01 0. -1.
       -5    1    3    3    0  502  0.87392263450E+03 -0.20399598853E+03 -0.69851809649E+03  0.11372355761E+04  0.46999998093E+01 0.  1.
</event>
<event>
 5   0  0.4309945E-06  0.2202835E+04  0.7818609E-02  0.8517249E-01
       -1   -1    0    0    0  501  0.00000000000E+00  0.00000000000E+00  0.94004905064E+03  0.94004905065E+03  0.50400001928E-02 0. -1.
        1   -1    0    0  501    0  0.00000000000E+00  0.00000000000E+00 -0.12904859412E+04  0.12904859412E+04  0.50400001928E-02 0.  1.
    10030    2    1    2    0    0  0.00000000000E+00  0.00000000000E+00 -0.35043689059E+03  0.22305349919E+04  0.22028346138E+04 0.  0.
        4    1    3    3  502    0 -0.76624218731E+03 -0.39583586606E+03 -0.86889162077E+03  0.12242497229E+04  0.12699999809E+01 0.  1.
       -4    1    3    3    0  502  0.76624218731E+03  0.39583586606E+03  0.51845473017E+03  0.10062852690E+04  0.12699999809E+01 0. -1.
</event>
<event>
 5   0  0.4630615E-06  0.2172672E+04  0.7818609E-02  0.8529890E-01
        1   -1    0    0  501    0  0.00000000000E+00  0.00000000000E+00  0.57422430346E+03  0.57422430348E+03  0.50400001928E-02 0. -1.
       -1   -1    0    0    0  501  0.00000000000E+00  0.00000000000E+00 -0.20551647596E+04  0.20551647596E+04  0.50400001928E-02 0.  1.
    10030    2    1    2    0    0  0.00000000000E+00  0.00000000000E+00 -0.14809404561E+04  0.26293890631E+04  0.21726716757E+04 0.  0.
        2    1    3    3  502    0  0.99920571373E+03 -0.17647198116E+02 -0.12559146802E+04  0.16050062822E+04  0.25500000920E-02 0.  1.
       -2    1    3    3    0  502 -0.99920571373E+03  0.17647198116E+02 -0.22502577596E+03  0.10243827809E+04  0.25500000920E-02 0. -1.
</event>
<event>
 5   0  0.4794967E-06  0.2203131E+04  0.7818609E-02  0.8517126E-01
        1   -1    0    0  501    0  0.00000000000E+00  0.00000000000E+00  0.12690273073E+04  0.12690273073E+04  0.50400001928E-02 0. -1.
       -1   -1    0    0    0  501  0.00000000000E+00  0.00000000000E+00 -0.95620227676E+03  0.95620227677E+03  0.50400001928E-02 0.  1.
    10030    2    1    2    0    0  0.00000000000E+00  0.00000000000E+00  0.31282503050E+03  0.22252295840E+04  0.22031312267E+04 0.  0.
        5    1    3    3  502    0  0.14791015622E+03 -0.10884708689E+04  0.23956976128E+03  0.11243051220E+04  0.46999998093E+01 0. -1.
       -5    1    3    3    0  502 -0.14791015622E+03  0.10884708689E+04  0.73255269222E+02  0.11009244621E+04  0.46999998093E+01 0.  1.
</event>
<event>
 5   0  0.4408787E-06  0.2198048E+04  0.7818609E-02  0.8519241E-01
       -1   -1    0    0    0  501  0.00000000000E+00  0.00000000000E+00  0.14714877958E+04  0.14714877958E+04  0.50400001928E-02 0. -1.
        1   -1    0    0  501    0  0.00000000000E+00  0.00000000000E+00 -0.82083856004E+03  0.82083856006E+03  0.50400001928E-02 0.  1.
    10030    2    1    2    0    0  0.00000000000E+00  0.00000000000E+00  0.65064923576E+03  0.22923263559E+04  0.21980481555E+04 0.  0.
        1    1    3    3  502    0  0.10294750356E+03  0.66296145255E+03 -0.58249326760E+03  0.88849000156E+03  0.50400001928E-02 0.  1.
       -1    1    3    3    0  502 -0.10294750356E+03 -0.66296145255E+03  0.12331425034E+04  0.14038363543E+04  0.50400001928E-02 0. -1.
</event>
<event>
 5   0  0.1035928E-05  0.2202905E+04  0.7818609E-02  0.8517220E-01
        2   -1    0    0  501    0  0.00000000000E+00  0.00000000000E+00  0.17530999358E+04  0.17530999358E+04  0.25500000920E-02 0. -1.
       -2   -1    0    0    0  501  0.00000000000E+00  0.00000000000E+00 -0.69202962926E+03  0.69202962926E+03  0.25500000920E-02 0.  1.
    10030    2    1    2    0    0  0.00000000000E+00  0.00000000000E+00  0.10610703066E+04  0.24451295651E+04  0.22029045360E+04 0.  0.
        3    1    3    3  502    0  0.74830806963E+03 -0.41363452792E+03 -0.24017689885E+03  0.88811229172E+03  0.10100000352E+00 0.  1.
       -3    1    3    3    0  502 -0.74830806963E+03  0.41363452792E+03  0.13012472054E+04  0.15570172734E+04  0.10100000352E+00 0. -1.
</event>
<event>
 5   0  0.1035928E-05  0.2207768E+04  0.7818609E-02  0.8515202E-01
       -2   -1    0    0    0  501  0.00000000000E+00  0.00000000000E+00  0.11864956324E+04  0.11864956324E+04  0.25500000920E-02 0.  1.
        2   -1    0    0  501    0  0.00000000000E+00  0.00000000000E+00 -0.10270245759E+04  0.10270245759E+04  0.25500000920E-02 0. -1.
    10030    2    1    2    0    0  0.00000000000E+00  0.00000000000E+00  0.15947105654E+03  0.22135202083E+04  0.22077682611E+04 0.  0.
        3    1    3    3  502    0 -0.78367747974E+01 -0.93573533844E+03 -0.50736512098E+03  0.10644629702E+04  0.10100000352E+00 0. -1.
       -3    1    3    3    0  502  0.78367747974E+01  0.93573533844E+03  0.66683617752E+03  0.11490572381E+04  0.10100000352E+00 0.  1.
</event>
<event>
 5   0  0.4794967E-06  0.2194781E+04  0.7818609E-02  0.8520604E-01
        1   -1    0    0  501    0  0.00000000000E+00  0.00000000000E+00  0.53884451978E+03  0.53884451981E+03  0.50400001928E-02 0. -1.
       -1   -1    0    0    0  501  0.00000000000E+00  0.00000000000E+00 -0.22349039506E+04  0.22349039506E+04  0.50400001928E-02 0.  1.
    10030    2    1    2    0    0  0.00000000000E+00  0.00000000000E+00 -0.16960594308E+04  0.27737484704E+04  0.21947808511E+04 0.  0.
        5    1    3    3  502    0  0.73248355726E+03 -0.39757867945E+03  0.54182727016E+02  0.83519987183E+03  0.46999998093E+01 0. -1.
       -5    1    3    3    0  502 -0.73248355726E+03  0.39757867945E+03 -0.17502421578E+04  0.19385485986E+04  0.46999998093E+01 0.  1.
</event>
<event>
 5   0  0.4462201E-06  0.2229415E+04  0.7818609E-02  0.8506284E-01
       -1   -1    0    0    0  501  0.00000000000E+00  0.00000000000E+00  0.81119405802E+03  0.81119405803E+03  0.50400001928E-02 0.  1.
        1   -1    0    0  501    0  0.00000000000E+00  0.00000000000E+00 -0.15317824608E+04  0.15317824609E+04  0.50400001928E-02 0. -1.
    10030    2    1    2    0    0  0.00000000000E+00  0.00000000000E+00 -0.72058840283E+03  0.23429765189E+04  0.22294150178E+04 0.  0.
        3    1    3    3  502    0 -0.41048716414E+03 -0.94026936038E+03  0.97758746503E+02  0.10306129073E+04  0.10100000352E+00 0.  1.
       -3    1    3    3    0  502  0.41048716414E+03  0.94026936038E+03 -0.81834714933E+03  0.13123636116E+04  0.10100000352E+00 0. -1.
</event>
<event>
 5   0  0.4462201E-06  0.2211702E+04  0.7818609E-02  0.8513573E-01
        1   -1    0    0  501    0  0.00000000000E+00  0.00000000000E+00  0.24006862739E+04  0.24006862739E+04  0.50400001928E-02 0. -1.
       -1   -1    0    0    0  501  0.00000000000E+00  0.00000000000E+00 -0.50939875652E+03  0.50939875655E+03  0.50400001928E-02 0.  1.
    10030    2    1    2    0    0  0.00000000000E+00  0.00000000000E+00  0.18912875174E+04  0.29100850304E+04  0.22117021524E+04 0.  0.
        3    1    3    3  502    0 -0.23629254247E+03 -0.10802262593E+04  0.92781253760E+03  0.14434538621E+04  0.10100000352E+00 0. -1.
       -3    1    3    3    0  502  0.23629254247E+03  0.10802262593E+04  0.96347497976E+03  0.14666311683E+04  0.10100000352E+00 0.  1.
</event>
<event>
 5   0  0.9963573E-06  0.2200197E+04  0.7818609E-02  0.8518346E-01
        2   -1    0    0  501    0  0.00000000000E+00  0.00000000000E+00  0.12860079797E+04  0.12860079797E+04  0.25500000920E-02 0. -1.
       -2   -1    0    0    0  501  0.00000000000E+00  0.00000000000E+00 -0.94106479056E+03  0.94106479056E+03  0.25500000920E-02 0.  1.
    10030    2    1    2    0    0  0.00000000000E+00  0.00000000000E+00  0.34494318914E+03  0.22270727703E+04  0.22001971094E+04 0.  0.
        2    1    3    3  502    0 -0.91233747601E+03 -0.54625553483E+03  0.45780505429E+03  0.11577306454E+04  0.25500000920E-02 0. -1.
       -2    1    3    3    0  502  0.91233747601E+03  0.54625553483E+03 -0.11286186515E+03  0.10693421249E+04  0.25500000920E-02 0.  1.
</event>
<event>
 5   0  0.9963573E-06  0.2200649E+04  0.7818609E-02  0.8518158E-01
       -2   -1    0    0    0  501  0.00000000000E+00  0.00000000000E+00  0.53030172143E+03  0.53030172143E+03  0.25500000920E-02 0. -1.
        2   -1    0    0  501    0  0.00000000000E+00  0.00000000000E+00 -0.22830668383E+04  0.22830668383E+04  0.25500000920E-02 0.  1.
    10030    2    1    2    0    0  0.00000000000E+00  0.00000000000E+00 -0.17527651169E+04  0.28133685598E+04  0.22006492447E+04 0.  0.
        2    1    3    3  502    0  0.55570356727E+03 -0.62983152925E+03  0.32308171730E+02  0.84055816449E+03  0.25500000920E-02 0. -1.
       -2    1    3    3    0  502 -0.55570356727E+03  0.62983152925E+03 -0.17850732886E+04  0.19728103953E+04  0.25500000920E-02 0.  1.
</event>
<event>
 5   0  0.4309945E-06  0.2197830E+04  0.7818609E-02  0.8519332E-01
        1   -1    0    0  501    0  0.00000000000E+00  0.00000000000E+00  0.16910318288E+04  0.16910318288E+04  0.50400001928E-02 0.  1.
       -1   -1    0    0    0  501  0.00000000000E+00  0.00000000000E+00 -0.71412889738E+03  0.71412889740E+03  0.50400001928E-02 0. -1.
    10030    2    1    2    0    0  0.00000000000E+00  0.00000000000E+00  0.97690293138E+03  0.24051607262E+04  0.21978304715E+04 0.  0.
        4    1    3    3  502    0  0.11335114890E+03 -0.61941735029E+03 -0.49710966148E+03  0.80227549210E+03  0.12699999809E+01 0. -1.
       -4    1    3    3    0  502 -0.11335114890E+03  0.61941735029E+03  0.14740125929E+04  0.16028852341E+04  0.12699999809E+01 0.  1.
</event>
<event>
 5   0  0.1014015E-05  0.2206111E+04  0.7818609E-02  0.8515889E-01
        2   -1    0    0  501    0  0.00000000000E+00  0.00000000000E+00  0.79776678247E+03  0.79776678248E+03  0.25500000920E-02 0. -1.
       -2   -1    0    0    0  501  0.00000000000E+00  0.00000000000E+00 -0.15251720586E+04  0.15251720586E+04  0.25500000920E-02 0.  1.
    10030    2    1    2    0    0  0.00000000000E+00  0.00000000000E+00 -0.72740527616E+03  0.23229388411E+04  0.22061111540E+04 0.  0.
        1    1    3    3  502    0  0.30071111506E+03  0.56754242789E+03 -0.13079644499E+04  0.14571556486E+04  0.50400001928E-02 0.  1.
       -1    1    3    3    0  502 -0.30071111506E+03 -0.56754242789E+03  0.58055917371E+03  0.86578319248E+03  0.50400001928E-02 0. -1.
</event>
<event>
 5   0  0.3546750E-06  0.2198924E+04  0.7818609E-02  0.8518876E-01
       -3   -1    0    0    0  501  0.00000000000E+00  0.00000000000E+00  0.40376450486E+03  0.40376451750E+03  0.10100000352E+00 0.  1.
        3   -1    0    0  501    0  0.00000000000E+00  0.00000000000E+00 -0.29938651914E+04  0.29938651932E+04  0.10100000352E+00 0. -1.
    10030    2    1    2    0    0  0.00000000000E+00  0.00000000000E+00 -0.25901006866E+04  0.33976297106E+04  0.21989238468E+04 0.  0.
        3    1    3    3  502    0  0.36942072544E+03 -0.10136454996E+04 -0.96776054516E+03  0.14493134078E+04  0.10100000352E+00 0.  1.
       -3    1    3    3    0  502 -0.36942072544E+03  0.10136454996E+04 -0.16223401414E+04  0.19483163028E+04  0.10100000352E+00 0. -1.
</event>
<event>
 5   0  0.1015876E-05  0.2208224E+04  0.7818609E-02  0.8515013E-01
        2   -1    0    0  501    0  0.00000000000E+00  0.00000000000E+00  0.23452872138E+04  0.23452872138E+04  0.25500000920E-02 0. -1.
       -2   -1    0    0    0  501  0.00000000000E+00  0.00000000000E+00 -0.51979267640E+03  0.51979267641E+03  0.25500000920E-02 0.  1.
    10030    2    1    2    0    0  0.00000000000E+00  0.00000000000E+00  0.18254945374E+04  0.28650798902E+04  0.22082238273E+04 0.  0.
        5    1    3    3  502    0 -0.43644845121E+03 -0.80939315444E+03  0.17056173423E+04  0.19377195714E+04  0.46999998093E+01 0. -1.
       -5    1    3    3    0  502  0.43644845121E+03  0.80939315444E+03  0.11987719511E+03  0.92736031882E+03  0.46999998093E+01 0.  1.
</event>
<event>
 5   0  0.1015876E-05  0.2198877E+04  0.7818609E-02  0.8518896E-01
       -2   -1    0    0    0  501  0.00000000000E+00  0.00000000000E+00  0.59025721337E+03  0.59025721338E+03  0.25500000920E-02 0. -1.
        2   -1    0    0  501    0  0.00000000000E+00  0.00000000000E+00 -0.20478615037E+04  0.20478615038E+04  0.25500000920E-02 0.  1.
    10030    2    1    2    0    0  0.00000000000E+00  0.00000000000E+00 -0.14576042904E+04  0.26381187171E+04  0.21988770085E+04 0.  0.
        5    1    3    3  502    0  0.94365851605E+02  0.95293542262E+03 -0.80764264615E+02  0.96100769511E+03  0.46999998093E+01 0. -1.
       -5    1    3    3    0  502 -0.94365851605E+02 -0.95293542262E+03 -0.13768400258E+04  0.16771110220E+04  0.46999998093E+01 0.  1.
</event>
<event>
 5   0  0.9963573E-06  0.2199223E+04  0.7818609E-02  0.8518752E-01
       -2   -1    0    0    0  501  0.00000000000E+00  0.00000000000E+00  0.11978866651E+04  0.11978866651E+04  0.25500000920E-02 0. -1.
        2   -1    0    0  501    0  0.00000000000E+00  0.00000000000E+00 -0.10093986315E+04  0.10093986315E+04  0.25500000920E-02 0.  1.
    10030    2    1    2    0    0  0.00000000000E+00  0.00000000000E+00  0.18848803361E+03  0.22072852966E+04  0.21992227358E+04 0.  0.
        2    1    3    3  502    0 -0.47088375876E+03 -0.93095748087E+03  0.44298269608E+03  0.11334226989E+04  0.25500000920E-02 0. -1.
       -2    1    3    3    0  502  0.47088375876E+03  0.93095748087E+03 -0.25449466247E+03  0.10738625977E+04  0.25500000920E-02 0.  1.
</event>
<event>
 5   0  0.4794967E-06  0.2197363E+04  0.7818609E-02  0.8519527E-01
        1   -1    0    0  501    0  0.00000000000E+00  0.00000000000E+00  0.56055992987E+03  0.56055992990E+03  0.50400001928E-02 0. -1.
       -1   -1    0    0    0  501  0.00000000000E+00  0.00000000000E+00 -0.21533838413E+04  0.21533838413E+04  0.50400001928E-02 0.  1.
    10030    2    1    2    0    0  0.00000000000E+00  0.00000000000E+00 -0.15928239114E+04  0.27139437712E+04  0.21973626875E+04 0.  0.
        5    1    3    3  502    0 -0.65163975239E+03  0.82902493927E+03 -0.11774169121E+04  0.15805851422E+04  0.46999998093E+01 0. -1.
       -5    1    3    3    0  502  0.65163975239E+03 -0.82902493927E+03 -0.41540699928E+03  0.11333586290E+04  0.46999998093E+01 0.  1.
</event>
<event>
 5   0  0.1035928E-05  0.2201462E+04  0.7818609E-02  0.8517820E-01
       -2   -1    0    0    0  501  0.00000000000E+00  0.00000000000E+00  0.74908219782E+03  0.74908219782E+03  0.25500000920E-02 0.  1.
        2   -1    0    0  501    0  0.00000000000E+00  0.00000000000E+00 -0.16174575429E+04  0.16174575429E+04  0.25500000920E-02 0. -1.
    10030    2    1    2    0    0  0.00000000000E+00  0.00000000000E+00 -0.86837534506E+03  0.23665397407E+04  0.22014619244E+04 0.  0.
        3    1    3    3  502    0  0.46486671881E+03 -0.67319470705E+02  0.63593636135E+03  0.79059979970E+03  0.10100000352E+00 0.  1.
       -3    1    3    3    0  502 -0.46486671881E+03  0.67319470705E+02 -0.15043117064E+04  0.15759399410E+04  0.10100000352E+00 0. -1.
</event>
<event>
 5   0  0.4462201E-06  0.2202353E+04  0.7818609E-02  0.8517449E-01
       -1   -1    0    0    0  501  0.00000000000E+00  0.00000000000E+00  0.51508237872E+03  0.51508237875E+03  0.50400001928E-02 0.  1.
        1   -1    0    0  501    0  0.00000000000E+00  0.00000000000E+00 -0.23541662781E+04  0.23541662781E+04  0.50400001928E-02 0. -1.
    10030    2    1    2    0    0  0.00000000000E+00  0.00000000000E+00 -0.18390838994E+04  0.28692486568E+04  0.22023528931E+04 0.  0.
        3    1    3    3  502    0 -0.28142087853E+03 -0.81646584560E+02 -0.23024406685E+04  0.23210120461E+04  0.10100000352E+00 0. -1.
       -3    1    3    3    0  502  0.28142087853E+03  0.81646584560E+02  0.46335676918E+03  0.54823661077E+03  0.10100000352E+00 0.  1.
</event>
<event>
 5   0  0.9963173E-06  0.2199875E+04  0.7818609E-02  0.8518480E-01
        2   -1    0    0  501    0  0.00000000000E+00  0.00000000000E+00  0.52201844506E+03  0.52201844506E+03  0.25500000920E-02 0.  1.
       -2   -1    0    0    0  501  0.00000000000E+00  0.00000000000E+00 -0.23176627704E+04  0.23176627704E+04  0.25500000920E-02 0. -1.
    10030    2    1    2    0    0  0.00000000000E+00  0.00000000000E+00 -0.17956443254E+04  0.28396812155E+04  0.21998751925E+04 0.  0.
        4    1    3    3  502    0  0.69394909683E+02  0.71335769743E+02 -0.23118381704E+04  0.23139796423E+04  0.12699999809E+01 0. -1.
       -4    1    3    3    0  502 -0.69394909683E+02 -0.71335769743E+02  0.51619384506E+03  0.52570157325E+03  0.12699999809E+01 0.  1.
</event>
<event>
 5   0  0.4630615E-06  0.2200585E+04  0.7818609E-02  0.8518185E-01
        1   -1    0    0  501    0  0.00000000000E+00  0.00000000000E+00  0.12865822496E+04  0.12865822496E+04  0.50400001928E-02 0.  1.
       -1   -1    0    0    0  501  0.00000000000E+00  0.00000000000E+00 -0.94097633267E+03  0.94097633269E+03  0.50400001928E-02 0. -1.
    10030    2    1    2    0    0  0.00000000000E+00  0.00000000000E+00  0.34560591694E+03  0.22275585823E+04  0.22005848740E+04 0.  0.
        2    1    3    3  502    0  0.87766202272E+02  0.53976492803E+03  0.11392806331E+04  0.12637283904E+04  0.25500000920E-02 0.  1.
       -2    1    3    3    0  502 -0.87766202272E+02 -0.53976492803E+03 -0.79367471613E+03  0.96383019191E+03  0.25500000920E-02 0. -1.
</event>
<event>
 5   0  0.4408787E-06  0.2201971E+04  0.7818609E-02  0.8517608E-01
       -1   -1    0    0    0  501  0.00000000000E+00  0.00000000000E+00  0.12051928241E+04  0.12051928241E+04  0.50400001928E-02 0.  1.
        1   -1    0    0  501    0  0.00000000000E+00  0.00000000000E+00 -0.10057886687E+04  0.10057886687E+04  0.50400001928E-02 0. -1.
    10030    2    1    2    0    0  0.00000000000E+00  0.00000000000E+00  0.19940415540E+03  0.22109814927E+04  0.22019711951E+04 0.  0.
        1    1    3    3  502    0 -0.44941878221E+03 -0.86712529179E+03  0.60999990099E+03  0.11515135226E+04  0.50400001928E-02 0.  1.
       -1    1    3    3    0  502  0.44941878221E+03  0.86712529179E+03 -0.41059574559E+03  0.10594679702E+04  0.50400001928E-02 0. -1.
</event>
<event>
 5   0  0.1015876E-05  0.2200200E+04  0.7818609E-02  0.8518345E-01
       -2   -1    0    0    0  501  0.00000000000E+00  0.00000000000E+00  0.81774294986E+03  0.81774294987E+03  0.25500000920E-02 0. -1.
        2   -1    0    0  501    0  0.00000000000E+00  0.00000000000E+00 -0.14799511429E+04  0.14799511429E+04  0.25500000920E-02 0.  1.
    10030    2    1    2    0    0  0.00000000000E+00  0.00000000000E+00 -0.66220819304E+03  0.22976940928E+04  0.22001996394E+04 0.  0.
        5    1    3    3  502    0 -0.10619829439E+04  0.19155525763E+03 -0.10786472287E+03  0.10845082196E+04  0.46999998093E+01 0. -1.
       -5    1    3    3    0  502  0.10619829439E+04 -0.19155525763E+03 -0.55434347018E+03  0.12131858732E+04  0.46999998093E+01 0.  1.
</event>
<event>
 5   0  0.4794967E-06  0.2199148E+04  0.7818609E-02  0.8518783E-01
       -1   -1    0    0    0  501  0.00000000000E+00  0.00000000000E+00  0.46372867537E+03  0.46372867540E+03  0.50400001928E-02 0.  1.
        1   -1    0    0  501    0  0.00000000000E+00  0.00000000000E+00 -0.26072633837E+04  0.26072633837E+04  0.50400001928E-02 0. -1.
    10030    2    1    2    0    0  0.00000000000E+00  0.00000000000E+00 -0.21435347084E+04  0.30709920591E+04  0.21991478307E+04 0.  0.
        5    1    3    3  502    0  0.62880678107E+03  0.48742385144E+03 -0.11883191081E+02  0.79570300936E+03  0.46999998093E+01 0.  1.
       -5    1    3    3    0  502 -0.62880678107E+03 -0.48742385144E+03 -0.21316515173E+04  0.22752890498E+04  0.46999998093E+01 0. -1.
</event>
<event>
 5   0  0.1035928E-05  0.2200613E+04  0.7818609E-02  0.8518173E-01
        2   -1    0    0  501    0  0.00000000000E+00  0.00000000000E+00  0.14081659546E+04  0.14081659546E+04  0.25500000920E-02 0.  1.
       -2   -1    0    0    0  501  0.00000000000E+00  0.00000000000E+00 -0.85975277486E+03  0.85975277486E+03  0.25500000920E-02 0. -1.
    10030    2    1    2    0    0  0.00000000000E+00  0.00000000000E+00  0.54841317974E+03  0.22679187295E+04  0.22006131754E+04 0.  0.
        3    1    3    3  502    0  0.55103899369E+03  0.17850009888E+03  0.12383232169E+04  0.13670957017E+04  0.10100000352E+00 0.  1.
       -3    1    3    3    0  502 -0.55103899369E+03 -0.17850009888E+03 -0.68991003714E+03  0.90082302780E+03  0.10100000352E+00 0. -1.
</event>
<event>
 5   0  0.1014015E-05  0.2200503E+04  0.7818609E-02  0.8518219E-01
        2   -1    0    0  501    0  0.00000000000E+00  0.00000000000E+00  0.19621084197E+04  0.19621084197E+04  0.25500000920E-02 0.  1.
       -2   -1    0    0    0  501  0.00000000000E+00  0.00000000000E+00 -0.61696583646E+03  0.61696583646E+03  0.25500000920E-02 0. -1.
    10030    2    1    2    0    0  0.00000000000E+00  0.00000000000E+00  0.13451425832E+04  0.25790742561E+04  0.22005034536E+04 0.  0.
        1    1    3    3  502    0  0.23874886394E+03 -0.12947387206E+03  0.19222022955E+04  0.19412949721E+04  0.50400001928E-02 0.  1.
       -1    1    3    3    0  502 -0.23874886394E+03  0.12947387206E+03 -0.57705971232E+03  0.63777928407E+03  0.50400001928E-02 0. -1.
</event>
<event>
 5   0  0.4630615E-06  0.2201532E+04  0.7818609E-02  0.8517791E-01
       -1   -1    0    0    0  501  0.00000000000E+00  0.00000000000E+00  0.60328470706E+03  0.60328470708E+03  0.50400001928E-02 0. -1.
        1   -1    0    0  501    0  0.00000000000E+00  0.00000000000E+00 -0.20084809494E+04  0.20084809494E+04  0.50400001928E-02 0.  1.
    10030    2    1    2    0    0  0.00000000000E+00  0.00000000000E+00 -0.14051962423E+04  0.26117656565E+04  0.22015320495E+04 0.  0.
        2    1    3    3  502    0 -0.96545723033E+03  0.27416114088E+03 -0.12389679614E+04  0.15944634220E+04  0.25500000920E-02 0. -1.
       -2    1    3    3    0  502  0.96545723033E+03 -0.27416114088E+03 -0.16622828088E+03  0.10173022344E+04  0.25500000920E-02 0.  1.
</event>
<event>
 5   0  0.4630615E-06  0.2198550E+04  0.7818609E-02  0.8519032E-01
       -1   -1    0    0    0  501  0.00000000000E+00  0.00000000000E+00  0.86673837982E+03  0.86673837984E+03  0.50400001928E-02 0.  1.
        1   -1    0    0  501    0  0.00000000000E+00  0.00000000000E+00 -0.13941985844E+04  0.13941985844E+04  0.50400001928E-02 0. -1.
    10030    2    1    2    0    0  0.00000000000E+00  0.00000000000E+00 -0.52746020459E+03  0.22609369643E+04  0.21985499059E+04 0.  0.
        2    1    3    3  502    0 -0.90113313304E+03 -0.36659504672E+02  0.38261131583E+03  0.97968171451E+03  0.25500000920E-02 0.  1.
       -2    1    3    3    0  502  0.90113313304E+03  0.36659504672E+02 -0.91007152042E+03  0.12812552498E+04  0.25500000920E-02 0. -1.
</event>
<event>
 5   0  0.1035928E-05  0.2195590E+04  0.7818609E-02  0.8520266E-01
        2   -1    0    0  501    0  0.00000000000E+00  0.00000000000E+00  0.65896893622E+03  0.65896893622E+03  0.25500000920E-02 0.  1.
       -2   -1    0    0    0  501  0.00000000000E+00  0.00000000000E+00 -0.18288477230E+04  0.18288477230E+04  0.25500000920E-02 0. -1.
    10030    2    1    2    0    0  0.00000000000E+00  0.00000000000E+00 -0.11698787867E+04  0.24878166592E+04  0.21955899786E+04 0.  0.
        3    1    3    3  502    0  0.92950997834E+03  0.48884936904E+03 -0.22271796202E+03  0.10735761763E+04  0.10100000352E+00 0.  1.
       -3    1    3    3    0  502 -0.92950997834E+03 -0.48884936904E+03 -0.94716082471E+03  0.14142404829E+04  0.10100000352E+00 0. -1.
</event>
<event>
 5   0  0.1035928E-05  0.2201829E+04  0.7818609E-02  0.8517667E-01
        2   -1    0    0  501    0  0.00000000000E+00  0.00000000000E+00  0.10680187767E+04  0.10680187767E+04  0.25500000920E-02 0.  1.
       -2   -1    0    0    0  501  0.00000000000E+00  0.00000000000E+00 -0.11348238906E+04  0.11348238906E+04  0.25500000920E-02 0. -1.
    10030    2    1    2    0    0  0.00000000000E+00  0.00000000000E+00 -0.66805113877E+02  0.22028426673E+04  0.22018294425E+04 0.  0.
        3    1    3    3  502    0  0.34025903151E+03 -0.10327316122E+04  0.13902065732E+03  0.10961922936E+04  0.10100000352E+00 0.  1.
       -3    1    3    3    0  502 -0.34025903151E+03  0.10327316122E+04 -0.20582577120E+03  0.11066503737E+04  0.10100000352E+00 0. -1.
</event>
<event>
 5   0  0.4309945E-06  0.2200486E+04  0.7818609E-02  0.8518226E-01
        1   -1    0    0  501    0  0.00000000000E+00  0.00000000000E+00  0.12798408777E+04  0.12798408777E+04  0.50400001928E-02 0. -1.
       -1   -1    0    0    0  501  0.00000000000E+00  0.00000000000E+00 -0.94584781094E+03  0.94584781096E+03  0.50400001928E-02 0.  1.
    10030    2    1    2    0    0  0.00000000000E+00  0.00000000000E+00  0.33399306677E+03  0.22256886887E+04  0.22004860305E+04 0.  0.
        4    1    3    3  502    0  0.57048067918E+03 -0.64731203990E+03  0.85751024680E+03  0.12164647626E+04  0.12699999809E+01 0. -1.
       -4    1    3    3    0  502 -0.57048067918E+03  0.64731203990E+03 -0.52351718004E+03  0.10092239261E+04  0.12699999809E+01 0.  1.
</event>
<event>
 5   0  0.4309945E-06  0.2210416E+04  0.7818609E-02  0.8514105E-01
        1   -1    0    0  501    0  0.00000000000E+00  0.00000000000E+00  0.19075207985E+04  0.19075207985E+04  0.50400001928E-02 0.  1.
       -1   -1    0    0    0  501  0.00000000000E+00  0.00000000000E+00 -0.64035178015E+03  0.64035178017E+03  0.50400001928E-02 0. -1.
    10030    2    1    2    0    0  0.00000000000E+00  0.00000000000E+00  0.12671690184E+04  0.25478725787E+04  0.22104156523E+04 0.  0.
        4    1    3    3  502    0 -0.33369611746E+03  0.62564130108E+03 -0.34360402468E+03  0.78793748172E+03  0.12699999809E+01 0. -1.
       -4    1    3    3    0  502  0.33369611746E+03 -0.62564130108E+03  0.16107730430E+04  0.17599350970E+04  0.12699999809E+01 0.  1.
</event>
<event>
 5   0  0.4408787E-06  0.2200421E+04  0.7818609E-02  0.8518253E-01
        1   -1    0    0  501    0  0.00000000000E+00  0.00000000000E+00  0.16463805477E+04  0.16463805478E+04  0.50400001928E-02 0. -1.
       -1   -1    0    0    0  501  0.00000000000E+00  0.00000000000E+00 -0.73522671470E+03  0.73522671472E+03  0.50400001928E-02 0.  1.
    10030    2    1    2    0    0  0.00000000000E+00  0.00000000000E+00  0.91115383304E+03  0.23816072625E+04  0.22004208337E+04 0.  0.
        1    1    3    3  502    0  0.65031209350E+03  0.51717737000E+02 -0.50330846578E+03  0.82395385491E+03  0.50400001928E-02 0.  1.
       -1    1    3    3    0  502 -0.65031209350E+03 -0.51717737000E+02  0.14144622988E+04  0.15576534076E+04  0.50400001928E-02 0. -1.
</event>
<event>
 5   0  0.4408787E-06  0.2203637E+04  0.7818609E-02  0.8516916E-01
       -1   -1    0    0    0  501  0.00000000000E+00  0.00000000000E+00  0.62349431808E+03  0.62349431810E+03  0.50400001928E-02 0.  1.
        1   -1    0    0  501    0  0.00000000000E+00  0.00000000000E+00 -0.19470967404E+04  0.19470967404E+04  0.50400001928E-02 0. -1.
    10030    2    1    2    0    0  0.00000000000E+00  0.00000000000E+00 -0.13236024223E+04  0.25705910585E+04  0.22036367708E+04 0.  0.
        1    1    3    3  502    0 -0.25384137384E+03 -0.70719049758E+03  0.27828095278E+03  0.80124536295E+03  0.50400001928E-02 0.  1.
       -1    1    3    3    0  502  0.25384137384E+03  0.70719049758E+03 -0.16018833751E+04  0.17693456955E+04  0.50400001928E-02 0. -1.
</event>
<event>
 5   0  0.4630615E-06  0.2196945E+04  0.7818609E-02  0.8519701E-01
       -1   -1    0    0    0  501  0.00000000000E+00  0.00000000000E+00  0.10995445970E+04  0.10995445970E+04  0.50400001928E-02 0.  1.
        1   -1    0    0  501    0  0.00000000000E+00  0.00000000000E+00 -0.10974018102E+04  0.10974018102E+04  0.50400001928E-02 0. -1.
    10030    2    1    2    0    0  0.00000000000E+00  0.00000000000E+00  0.21427868049E+01  0.21969464072E+04  0.21969453623E+04 0.  0.
        2    1    3    3  502    0  0.50389522301E+03 -0.64575387086E+03  0.73301010896E+03  0.10991870984E+04  0.25500000920E-02 0.  1.
       -2    1    3    3    0  502 -0.50389522301E+03  0.64575387086E+03 -0.73086732216E+03  0.10977593088E+04  0.25500000920E-02 0. -1.
</event>
<event>
 5   0  0.4794967E-06  0.2195923E+04  0.7818609E-02  0.8520127E-01
        1   -1    0    0  501    0  0.00000000000E+00  0.00000000000E+00  0.12151053601E+04  0.12151053602E+04  0.50400001928E-02 0.  1.
       -1   -1    0    0    0  501  0.00000000000E+00  0.00000000000E+00 -0.99211142205E+03  0.99211142206E+03  0.50400001928E-02 0. -1.
    10030    2    1    2    0    0  0.00000000000E+00  0.00000000000E+00  0.22299393809E+03  0.22072167822E+04  0.21959234111E+04 0.  0.
        5    1    3    3  502    0 -0.24094920871E+03  0.23791999307E+03 -0.93830505785E+03  0.99754745043E+03  0.46999998093E+01 0. -1.
       -5    1    3    3    0  502  0.24094920871E+03 -0.23791999307E+03  0.11612989959E+04  0.12096693318E+04  0.46999998093E+01 0.  1.
</event>
<event>
 5   0  0.4630615E-06  0.2201029E+04  0.7818609E-02  0.8518000E-01
       -1   -1    0    0    0  501  0.00000000000E+00  0.00000000000E+00  0.55365320632E+03  0.55365320634E+03  0.50400001928E-02 0. -1.
        1   -1    0    0  501    0  0.00000000000E+00  0.00000000000E+00 -0.21875278386E+04  0.21875278386E+04  0.50400001928E-02 0.  1.
    10030    2    1    2    0    0  0.00000000000E+00  0.00000000000E+00 -0.16338746323E+04  0.27411810450E+04  0.22010286702E+04 0.  0.
        2    1    3    3  502    0 -0.88248659154E+02 -0.12869175423E+03  0.53980562428E+03  0.56190702564E+03  0.25500000920E-02 0. -1.
       -2    1    3    3    0  502  0.88248659154E+02  0.12869175423E+03 -0.21736802566E+04  0.21792740193E+04  0.25500000920E-02 0.  1.
</event>
<event>
 5   0  0.1014015E-05  0.2198652E+04  0.7818609E-02  0.8518989E-01
        2   -1    0    0  501    0  0.00000000000E+00  0.00000000000E+00  0.21846566554E+04  0.21846566554E+04  0.25500000920E-02 0. -1.
       -2   -1    0    0    0  501  0.00000000000E+00  0.00000000000E+00 -0.55318436191E+03  0.55318436192E+03  0.25500000920E-02 0.  1.
    10030    2    1    2    0    0  0.00000000000E+00  0.00000000000E+00  0.16314722935E+04  0.27378410173E+04  0.21986522216E+04 0.  0.
        1    1    3    3  502    0 -0.71466023980E+02 -0.28525764642E+03 -0.50329661243E+03  0.58291234121E+03  0.50400001928E-02 0.  1.
       -1    1    3    3    0  502  0.71466023980E+02  0.28525764642E+03  0.21347689059E+04  0.21549286761E+04  0.50400001928E-02 0. -1.
</event>
<event>
 5   0  0.1014015E-05  0.2205246E+04  0.7818609E-02  0.8516248E-01
       -2   -1    0    0    0  501  0.00000000000E+00  0.00000000000E+00  0.47845818854E+03  0.47845818855E+03  0.25500000920E-02 0.  1.
        2   -1    0    0  501    0  0.00000000000E+00  0.00000000000E+00 -0.25410322987E+04  0.25410322987E+04  0.25500000920E-02 0. -1.
    10030    2    1    2    0    0  0.00000000000E+00  0.00000000000E+00 -0.20625741102E+04  0.30194904873E+04  0.22052462091E+04 0.  0.
        1    1    3    3  502    0  0.43749049744E+03 -0.10056993463E+04 -0.87547968643E+03  0.14033152860E+04  0.50400001928E-02 0. -1.
       -1    1    3    3    0  502 -0.43749049744E+03  0.10056993463E+04 -0.11870944238E+04  0.16161752013E+04  0.50400001928E-02 0.  1.
</event>
<event>
 5   0  0.9963573E-06  0.2198795E+04  0.7818609E-02  0.8518930E-01
       -2   -1    0    0    0  501  0.00000000000E+00  0.00000000000E+00  0.18568636586E+04  0.18568636586E+04  0.25500000920E-02 0.  1.
        2   -1    0    0  501    0  0.00000000000E+00  0.00000000000E+00 -0.65092267268E+03  0.65092267268E+03  0.25500000920E-02 0. -1.
    10030    2    1    2    0    0  0.00000000000E+00  0.00000000000E+00  0.12059409859E+04  0.25077863313E+04  0.21987948112E+04 0.  0.
        2    1    3    3  502    0  0.10464662185E+04  0.30918266944E+03  0.75594236499E+03  0.13274540779E+04  0.25500000920E-02 0.  1.
       -2    1    3    3    0  502 -0.10464662185E+04 -0.30918266944E+03  0.44999862095E+03  0.11803322534E+04  0.25500000920E-02 0. -1.
</event>
<event>
 5   0  0.4309945E-06  0.2208224E+04  0.7818609E-02  0.8515013E-01
        1   -1    0    0  501    0  0.00000000000E+00  0.00000000000E+00  0.11570827437E+04  0.11570827437E+04  0.50400001928E-02 0. -1.
       -1   -1    0    0    0  501  0.00000000000E+00  0.00000000000E+00 -0.10535667024E+04  0.10535667024E+04  0.50400001928E-02 0.  1.
    10030    2    1    2    0    0  0.00000000000E+00  0.00000000000E+00  0.10351604130E+03  0.22106494462E+04  0.22082244911E+04 0.  0.
        4    1    3    3  502    0  0.10997936264E+04 -0.72496823895E+02  0.11710165125E+03  0.11083845090E+04  0.12699999809E+01 0. -1.
       -4    1    3    3    0  502 -0.10997936264E+04  0.72496823895E+02 -0.13585609951E+02  0.11022649372E+04  0.12699999809E+01 0.  1.
</event>
<event>
 5   0  0.4309945E-06  0.2203994E+04  0.7818609E-02  0.8516768E-01
        1   -1    0    0  501    0  0.00000000000E+00  0.00000000000E+00  0.16052883815E+04  0.16052883815E+04  0.50400001928E-02 0. -1.
       -1   -1    0    0    0  501  0.00000000000E+00  0.00000000000E+00 -0.75649799030E+03  0.75649799032E+03  0.50400001928E-02 0.  1.
    10030    2    1    2    0    0  0.00000000000E+00  0.00000000000E+00  0.84879039117E+03  0.23617863718E+04  0.22039940422E+04 0.  0.
        4    1    3    3  502    0  0.83433184287E+03  0.18236821057E+03 -0.32190510452E+03  0.91268411703E+03  0.12699999809E+01 0.  1.
       -4    1    3    3    0  502 -0.83433184287E+03 -0.18236821057E+03  0.11706954957E+04  0.14491022548E+04  0.12699999809E+01 0. -1.
</event>
<event>
 5   0  0.4408787E-06  0.2202954E+04  0.7818609E-02  0.8517200E-01
       -1   -1    0    0    0  501  0.00000000000E+00  0.00000000000E+00  0.11399011162E+04  0.11399011162E+04  0.50400001928E-02 0. -1.
        1   -1    0    0  501    0  0.00000000000E+00  0.00000000000E+00 -0.10643481767E+04  0.10643481767E+04  0.50400001928E-02 0.  1.
    10030    2    1    2    0    0  0.00000000000E+00  0.00000000000E+00  0.75552939473E+02  0.22042492929E+04  0.22029540845E+04 0.  0.
        1    1    3    3  502    0  0.63061126936E+03  0.60179339532E+03 -0.63598843247E+03  0.10790306529E+04  0.50400001928E-02 0.  1.
       -1    1    3    3    0  502 -0.63061126936E+03 -0.60179339532E+03  0.71154137194E+03  0.11252186400E+04  0.50400001928E-02 0. -1.
</event>
<event>
 5   0  0.4630615E-06  0.2200899E+04  0.7818609E-02  0.8518054E-01
        1   -1    0    0  501    0  0.00000000000E+00  0.00000000000E+00  0.10884035291E+04  0.10884035291E+04  0.50400001928E-02 0.  1.
       -1   -1    0    0    0  501  0.00000000000E+00  0.00000000000E+00 -0.11126288286E+04  0.11126288286E+04  0.50400001928E-02 0. -1.
    10030    2    1    2    0    0  0.00000000000E+00  0.00000000000E+00 -0.24225299467E+02  0.22010323577E+04  0.22008990378E+04 0.  0.
        2    1    3    3  502    0 -0.68902905690E+03 -0.20155439405E+03 -0.84619190490E+03  0.11096963346E+04  0.25500000920E-02 0. -1.
       -2    1    3    3    0  502  0.68902905690E+03  0.20155439405E+03  0.82196660543E+03  0.10913360232E+04  0.25500000920E-02 0.  1.
</event>
<event>
 5   0  0.4630615E-06  0.2199597E+04  0.7818609E-02  0.8518596E-01
        1   -1    0    0  501    0  0.00000000000E+00  0.00000000000E+00  0.80913944178E+03  0.80913944180E+03  0.50400001928E-02 0. -1.
       -1   -1    0    0    0  501  0.00000000000E+00  0.00000000000E+00 -0.14948679557E+04  0.14948679557E+04  0.50400001928E-02 0.  1.
    10030    2    1    2    0    0  0.00000000000E+00  0.00000000000E+00 -0.68572851393E+03  0.23040073975E+04  0.21995968933E+04 0.  0.
        2    1    3    3  502    0  0.63872119105E+02 -0.47139748641E+03  0.69580018363E+03  0.84287195548E+03  0.25500000920E-02 0. -1.
       -2    1    3    3    0  502 -0.63872119105E+02  0.47139748641E+03 -0.13815286976E+04  0.14611354420E+04  0.25500000920E-02 0.  1.
</event>
<event>
 5   0  0.1035928E-05  0.2198698E+04  0.7818609E-02  0.8518970E-01
       -2   -1    0    0    0  501  0.00000000000E+00  0.00000000000E+00  0.77372946791E+03  0.77372946791E+03  0.25500000920E-02 0.  1.
        2   -1    0    0  501    0  0.00000000000E+00  0.00000000000E+00 -0.15620039781E+04  0.15620039781E+04  0.25500000920E-02 0. -1.
    10030    2    1    2    0    0  0.00000000000E+00  0.00000000000E+00 -0.78827451018E+03  0.23357334460E+04  0.21986982575E+04 0.  0.
        3    1    3    3  502    0 -0.64192623142E+03 -0.82422891729E+02 -0.13381769967E+04  0.14864657764E+04  0.10100000352E+00 0. -1.
       -3    1    3    3    0  502  0.64192623142E+03  0.82422891729E+02  0.54990248656E+03  0.84926766958E+03  0.10100000352E+00 0.  1.
</event>
<event>
 5   0  0.1014015E-05  0.2194934E+04  0.7818609E-02  0.8520540E-01
        2   -1    0    0  501    0  0.00000000000E+00  0.00000000000E+00  0.12661489133E+04  0.12661489133E+04  0.25500000920E-02 0.  1.
       -2   -1    0    0    0  501  0.00000000000E+00  0.00000000000E+00 -0.95125732995E+03  0.95125732996E+03  0.25500000920E-02 0. -1.
    10030    2    1    2    0    0  0.00000000000E+00  0.00000000000E+00  0.31489158336E+03  0.22174062433E+04  0.21949336524E+04 0.  0.
        1    1    3    3  502    0  0.41936706087E+03  0.21934276331E+03 -0.84287054034E+03  0.96664922664E+03  0.50400001928E-02 0. -1.
       -1    1    3    3    0  502 -0.41936706087E+03 -0.21934276331E+03  0.11577621237E+04  0.12507570166E+04  0.50400001928E-02 0.  1.
</event>
<event>
 5   0  0.1035928E-05  0.2200729E+04  0.7818609E-02  0.8518125E-01
        2   -1    0    0  501    0  0.00000000000E+00  0.00000000000E+00  0.13771116145E+04  0.13771116145E+04  0.25500000920E-02 0.  1.
       -2   -1    0    0    0  501  0.00000000000E+00  0.00000000000E+00 -0.87923284327E+03  0.87923284327E+03  0.25500000920E-02 0. -1.
    10030    2    1    2    0    0  0.00000000000E+00  0.00000000000E+00  0.49787877121E+03  0.22563444578E+04  0.22007287523E+04 0.  0.
        3    1    3    3  502    0 -0.50845563021E+03 -0.46189276972E+03 -0.63239444653E+03  0.93369952598E+03  0.10100000352E+00 0. -1.
       -3    1    3    3    0  502  0.50845563021E+03  0.46189276972E+03  0.11302732177E+04  0.13226449318E+04  0.10100000352E+00 0.  1.
</event>
<event>
 5   0  0.4408787E-06  0.2198594E+04  0.7818609E-02  0.8519014E-01
       -1   -1    0    0    0  501  0.00000000000E+00  0.00000000000E+00  0.73782448325E+03  0.73782448327E+03  0.50400001928E-02 0. -1.
        1   -1    0    0  501    0  0.00000000000E+00  0.00000000000E+00 -0.16378609515E+04  0.16378609516E+04  0.50400001928E-02 0.  1.
    10030    2    1    2    0    0  0.00000000000E+00  0.00000000000E+00 -0.90003646830E+03  0.23756854348E+04  0.21985940146E+04 0.  0.
        1    1    3    3  502    0 -0.36018697595E+03 -0.13154859971E+03  0.66321546424E+03  0.76609036266E+03  0.50400001928E-02 0. -1.
       -1    1    3    3    0  502  0.36018697595E+03  0.13154859971E+03 -0.15632519325E+04  0.16095950722E+04  0.50400001928E-02 0.  1.
</event>
<event>
 5   0  0.9963573E-06  0.2203939E+04  0.7818609E-02  0.8516791E-01
       -2   -1    0    0    0  501  0.00000000000E+00  0.00000000000E+00  0.60656426636E+03  0.60656426637E+03  0.25500000920E-02 0. -1.
        2   -1    0    0  501    0  0.00000000000E+00  0.00000000000E+00 -0.20019911029E+04  0.20019911029E+04  0.25500000920E-02 0.  1.
    10030    2    1    2    0    0  0.00000000000E+00  0.00000000000E+00 -0.13954268366E+04  0.26085553693E+04  0.22039385333E+04 0.  0.
        2    1    3    3  502    0 -0.48068582066E+03  0.22013640717E+03 -0.18420768406E+04  0.19164461857E+04  0.25500000920E-02 0. -1.
       -2    1    3    3    0  502  0.48068582066E+03 -0.22013640717E+03  0.44665000403E+03  0.69210918362E+03  0.25500000920E-02 0.  1.
</event>
<event>
 5   0  0.9963573E-06  0.2200820E+04  0.7818609E-02  0.8518087E-01
        2   -1    0    0  501    0  0.00000000000E+00  0.00000000000E+00  0.10333554232E+04  0.10333554232E+04  0.25500000920E-02 0. -1.
       -2   -1    0    0    0  501  0.00000000000E+00  0.00000000000E+00 -0.11718155946E+04  0.11718155946E+04  0.25500000920E-02 0.  1.
    10030    2    1    2    0    0  0.00000000000E+00  0.00000000000E+00 -0.13846017140E+03  0.22051710177E+04  0.22008198469E+04 0.  0.
        2    1    3    3  502    0 -0.35353965755E+03 -0.10208782556E+04 -0.27873507465E+03  0.11157400880E+04  0.25500000920E-02 0. -1.
       -2    1    3    3    0  502  0.35353965755E+03  0.10208782556E+04  0.14027490324E+03  0.10894309297E+04  0.25500000920E-02 0.  1.
</event>
<event>
 5   0  0.4408787E-06  0.2192426E+04  0.7818609E-02  0.8521587E-01
       -1   -1    0    0    0  501  0.00000000000E+00  0.00000000000E+00  0.92377376180E+03  0.92377376181E+03  0.50400001928E-02 0.  1.
        1   -1    0    0  501    0  0.00000000000E+00  0.00000000000E+00 -0.13008406403E+04  0.13008406404E+04  0.50400001928E-02 0. -1.
    10030    2    1    2    0    0  0.00000000000E+00  0.00000000000E+00 -0.37706687854E+03  0.22246144022E+04  0.21924255534E+04 0.  0.
        1    1    3    3  502    0  0.75993028473E+03  0.25643978929E+03  0.56971777124E+03  0.98378541465E+03  0.50400001928E-02 0.  1.
       -1    1    3    3    0  502 -0.75993028473E+03 -0.25643978929E+03 -0.94678464978E+03  0.12408289875E+04  0.50400001928E-02 0. -1.
</event>
<event>
 5   0  0.4309945E-06  0.2199737E+04  0.7818609E-02  0.8518537E-01
        1   -1    0    0  501    0  0.00000000000E+00  0.00000000000E+00  0.12914426278E+04  0.12914426278E+04  0.50400001928E-02 0.  1.
       -1   -1    0    0    0  501  0.00000000000E+00  0.00000000000E+00 -0.93671288360E+03  0.93671288361E+03  0.50400001928E-02 0. -1.
    10030    2    1    2    0    0  0.00000000000E+00  0.00000000000E+00  0.35472974423E+03  0.22281555115E+04  0.21997372097E+04 0.  0.
        4    1    3    3  502    0  0.10673852232E+04  0.18449697491E+03 -0.15778843772E+02  0.10833286358E+04  0.12699999809E+01 0.  1.
       -4    1    3    3    0  502 -0.10673852232E+04 -0.18449697491E+03  0.37050858800E+03  0.11448268756E+04  0.12699999809E+01 0. -1.
</event>
<event>
 5   0  0.4794967E-06  0.2199210E+04  0.7818609E-02  0.8518757E-01
       -1   -1    0    0    0  501  0.00000000000E+00  0.00000000000E+00  0.10715709348E+04  0.10715709348E+04  0.50400001928E-02 0. -1.
        1   -1    0    0  501    0  0.00000000000E+00  0.00000000000E+00 -0.11283720408E+04  0.11283720408E+04  0.50400001928E-02 0.  1.
    10030    2    1    2    0    0  0.00000000000E+00  0.00000000000E+00 -0.56801105954E+02  0.21999429756E+04  0.21992095695E+04 0.  0.
        5    1    3    3  502    0  0.79325709957E+03  0.56273080966E+03  0.48478690734E+03  0.10867213192E+04  0.46999998093E+01 0. -1.
       -5    1    3    3    0  502 -0.79325709957E+03 -0.56273080966E+03 -0.54158801329E+03  0.11132216564E+04  0.46999998093E+01 0.  1.
</event>
<event>
 5   0  0.9963173E-06  0.2198931E+04  0.7818609E-02  0.8518873E-01
       -2   -1    0    0    0  501  0.00000000000E+00  0.00000000000E+00  0.11048636091E+04  0.11048636091E+04  0.25500000920E-02 0. -1.
        2   -1    0    0  501    0  0.00000000000E+00  0.00000000000E+00 -0.10940936261E+04  0.10940936261E+04  0.25500000920E-02 0.  1.
    10030    2    1    2    0    0  0.00000000000E+00  0.00000000000E+00  0.10769982938E+02  0.21989572352E+04  0.21989308606E+04 0.  0.
        4    1    3    3  502    0  0.39938478955E+03  0.82109001191E+03 -0.60709733525E+03  0.10964788211E+04  0.12699999809E+01 0.  1.
       -4    1    3    3    0  502 -0.39938478955E+03 -0.82109001191E+03  0.61786731819E+03  0.11024784141E+04  0.12699999809E+01 0. -1.
</event>
<event>
 5   0  0.4794967E-06  0.2198499E+04  0.7818609E-02  0.8519053E-01
       -1   -1    0    0    0  501  0.00000000000E+00  0.00000000000E+00  0.11197747223E+04  0.11197747224E+04  0.50400001928E-02 0.  1.
        1   -1    0    0  501    0  0.00000000000E+00  0.00000000000E+00 -0.10791002081E+04  0.10791002082E+04  0.50400001928E-02 0. -1.
    10030    2    1    2    0    0  0.00000000000E+00  0.00000000000E+00  0.40674514202E+02  0.21988749305E+04  0.21984987023E+04 0.  0.
        5    1    3    3  502    0 -0.32978036239E+03  0.13635771161E+03  0.10602163556E+04  0.11186730191E+04  0.46999998093E+01 0.  1.
       -5    1    3    3    0  502  0.32978036239E+03 -0.13635771161E+03 -0.10195418414E+04  0.10802019114E+04  0.46999998093E+01 0. -1.
</event>
<event>
 5   0  0.1014015E-05  0.2198758E+04  0.7818609E-02  0.8518945E-01
        2   -1    0    0  501    0  0.00000000000E+00  0.00000000000E+00  0.88527080163E+03  0.88527080164E+03  0.25500000920E-02 0. -1.
       -2   -1    0    0    0  501  0.00000000000E+00  0.00000000000E+00 -0.13652708735E+04  0.13652708735E+04  0.25500000920E-02 0.  1.
    10030    2    1    2    0    0  0.00000000000E+00  0.00000000000E+00 -0.48000007191E+03  0.22505416752E+04  0.21987582320E+04 0.  0.
        1    1    3    3  502    0  0.10170817008E+04 -0.67107294858E+02  0.18161842426E+03  0.10353472012E+04  0.50400001928E-02 0.  1.
       -1    1    3    3    0  502 -0.10170817008E+04  0.67107294858E+02 -0.66161849617E+03  0.12151944740E+04  0.50400001928E-02 0. -1.
</event>
<event>
 5   0  0.4794967E-06  0.2201431E+04  0.7818609E-02  0.8517833E-01
        1   -1    0    0  501    0  0.00000000000E+00  0.00000000000E+00  0.83061961305E+03  0.83061961306E+03  0.50400001928E-02 0. -1.
       -1   -1    0    0    0  501  0.00000000000E+00  0.00000000000E+00 -0.14586396428E+04  0.14586396428E+04  0.50400001928E-02 0.  1.
    10030    2    1    2    0    0  0.00000000000E+00  0.00000000000E+00 -0.62802002972E+03  0.22892592558E+04  0.22014310761E+04 0.  0.
        5    1    3    3  502    0  0.55570328758E+03  0.43031233786E+03 -0.11949054696E+04  0.13862885786E+04  0.46999998093E+01 0.  1.
       -5    1    3    3    0  502 -0.55570328758E+03 -0.43031233786E+03  0.56688543989E+03  0.90297067721E+03  0.46999998093E+01 0. -1.
</event>
<event>
 5   0  0.4462201E-06  0.2198150E+04  0.7818609E-02  0.8519198E-01
       -1   -1    0    0    0  501  0.00000000000E+00  0.00000000000E+00  0.91828469664E+03  0.91828469665E+03  0.50400001928E-02 0. -1.
        1   -1    0    0  501    0  0.00000000000E+00  0.00000000000E+00 -0.13154590459E+04  0.13154590459E+04  0.50400001928E-02 0.  1.
    10030    2    1    2    0    0  0.00000000000E+00  0.00000000000E+00 -0.39717434930E+03  0.22337437426E+04  0.21981500503E+04 0.  0.
        3    1    3    3  502    0  0.52567994668E+03 -0.12281975665E+03  0.77427686911E+03  0.94389023685E+03  0.10100000352E+00 0. -1.
       -3    1    3    3    0  502 -0.52567994668E+03  0.12281975665E+03 -0.11714512184E+04  0.12898535057E+04  0.10100000352E+00 0.  1.
</event>
<event>
 5   0  0.4462201E-06  0.2202184E+04  0.7818609E-02  0.8517520E-01
        1   -1    0    0  501    0  0.00000000000E+00  0.00000000000E+00  0.47668630763E+03  0.47668630766E+03  0.50400001928E-02 0.  1.
       -1   -1    0    0    0  501  0.00000000000E+00  0.00000000000E+00 -0.25433999819E+04  0.25433999819E+04  0.50400001928E-02 0. -1.
    10030    2    1    2    0    0  0.00000000000E+00  0.00000000000E+00 -0.20667136742E+04  0.30200862895E+04  0.22021843213E+04 0.  0.
        3    1    3    3  502    0  0.78423260956E+03 -0.44600708760E+03 -0.18990390655E+04  0.21024491648E+04  0.10100000352E+00 0. -1.
       -3    1    3    3    0  502 -0.78423260956E+03  0.44600708760E+03 -0.16767460876E+03  0.91763712475E+03  0.10100000352E+00 0.  1.
</event>
<event>
 5   0  0.4794967E-06  0.2198827E+04  0.7818609E-02  0.8518916E-01
       -1   -1    0    0    0  501  0.00000000000E+00  0.00000000000E+00  0.95453672762E+03  0.95453672763E+03  0.50400001928E-02 0. -1.
        1   -1    0    0  501    0  0.00000000000E+00  0.00000000000E+00 -0.12662793315E+04  0.12662793315E+04  0.50400001928E-02 0.  1.
    10030    2    1    2    0    0  0.00000000000E+00  0.00000000000E+00 -0.31174260384E+03  0.22208160591E+04  0.21988270776E+04 0.  0.
        5    1    3    3  502    0  0.17751310399E+03  0.60963152210E+03 -0.10623580111E+04  0.12376542848E+04  0.46999998093E+01 0.  1.
       -5    1    3    3    0  502 -0.17751310399E+03 -0.60963152210E+03  0.75061540729E+03  0.98316177432E+03  0.46999998093E+01 0. -1.
</event>
<event>
 5   0  0.9963173E-06  0.2191299E+04  0.7818609E-02  0.8522058E-01
       -2   -1    0    0    0  501  0.00000000000E+00  0.00000000000E+00  0.89596150407E+03  0.89596150407E+03  0.25500000920E-02 0.  1.
        2   -1    0    0  501    0  0.00000000000E+00  0.00000000000E+00 -0.13398434704E+04  0.13398434704E+04  0.25500000920E-02 0. -1.
    10030    2    1    2    0    0  0.00000000000E+00  0.00000000000E+00 -0.44388196631E+03  0.22358049745E+04  0.21912993141E+04 0.  0.
        4    1    3    3  502    0 -0.78084756418E+03  0.63650734414E+03  0.21760082254E+03  0.10306387575E+04  0.12699999809E+01 0.  1.
       -4    1    3    3    0  502  0.78084756418E+03 -0.63650734414E+03 -0.66148278885E+03  0.12051662169E+04  0.12699999809E+01 0. -1.
</event>
<event>
 5   0  0.1035928E-05  0.2199092E+04  0.7818609E-02  0.8518806E-01
       -2   -1    0    0    0  501  0.00000000000E+00  0.00000000000E+00  0.13979541400E+04  0.13979541400E+04  0.25500000920E-02 0. -1.
        2   -1    0    0  501    0  0.00000000000E+00  0.00000000000E+00 -0.86483611223E+03  0.86483611224E+03  0.25500000920E-02 0.  1.
    10030    2    1    2    0    0  0.00000000000E+00  0.00000000000E+00  0.53311802781E+03  0.22627902523E+04  0.21990918340E+04 0.  0.
        3    1    3    3  502    0  0.10272271458E+04  0.16282455688E+03  0.63367602132E+03  0.12178886466E+04  0.10100000352E+00 0.  1.
       -3    1    3    3    0  502 -0.10272271458E+04 -0.16282455688E+03 -0.10055799351E+03  0.10449016057E+04  0.10100000352E+00 0. -1.
</event>
<event>
 5   0  0.9963573E-06  0.2207348E+04  0.7818609E-02  0.8515376E-01
        2   -1    0    0  501    0  0.00000000000E+00  0.00000000000E+00  0.12922096765E+04  0.12922096765E+04  0.25500000920E-02 0. -1.
       -2   -1    0    0    0  501  0.00000000000E+00  0.00000000000E+00 -0.94264589261E+03  0.94264589261E+03  0.25500000920E-02 0.  1.
    10030    2    1    2    0    0  0.00000000000E+00  0.00000000000E+00  0.34956378390E+03  0.22348555691E+04  0.22073478602E+04 0.  0.
        2    1    3    3  502    0  0.49275568141E+03  0.68913630048E+01  0.11746311851E+04  0.12738186973E+04  0.25500000920E-02 0. -1.
       -2    1    3    3    0  502 -0.49275568141E+03 -0.68913630048E+01 -0.82506740124E+03  0.96103687184E+03  0.25500000920E-02 0.  1.
</event>
<event>
 5   0  0.1014015E-05  0.2200842E+04  0.7818609E-02  0.8518078E-01
        2   -1    0    0  501    0  0.00000000000E+00  0.00000000000E+00  0.12940919764E+04  0.12940919764E+04  0.25500000920E-02 0.  1.
       -2   -1    0    0    0  501  0.00000000000E+00  0.00000000000E+00 -0.93573454110E+03  0.93573454110E+03  0.25500000920E-02 0. -1.
    10030    2    1    2    0    0  0.00000000000E+00  0.00000000000E+00  0.35835743533E+03  0.22298265175E+04  0.22008421676E+04 0.  0.
        1    1    3    3  502    0  0.17983239416E+03  0.83610606462E+02  0.12758365461E+04  0.12911581297E+04  0.50400001928E-02 0.  1.
       -1    1    3    3    0  502 -0.17983239416E+03 -0.83610606462E+02 -0.91747911079E+03  0.93866838781E+03  0.50400001928E-02 0. -1.
</event>
<event>
 5   0  0.1015876E-05  0.2198449E+04  0.7818609E-02  0.8519074E-01
       -2   -1    0    0    0  501  0.00000000000E+00  0.00000000000E+00  0.10932465602E+04  0.10932465602E+04  0.25500000920E-02 0.  1.
        2   -1    0    0  501    0  0.00000000000E+00  0.00000000000E+00 -0.11052355983E+04  0.11052355983E+04  0.25500000920E-02 0. -1.
    10030    2    1    2    0    0  0.00000000000E+00  0.00000000000E+00 -0.11989038081E+02  0.21984821585E+04  0.21984494682E+04 0.  0.
        5    1    3    3  502    0 -0.10406126460E+04 -0.17362038503E+03 -0.31463191453E+03  0.11009241794E+04  0.46999998093E+01 0. -1.
       -5    1    3    3    0  502  0.10406126460E+04  0.17362038503E+03  0.30264287645E+03  0.10975579792E+04  0.46999998093E+01 0.  1.
</event>
<event>
 5   0  0.1035928E-05  0.2199936E+04  0.7818609E-02  0.8518455E-01
        2   -1    0    0  501    0  0.00000000000E+00  0.00000000000E+00  0.19610139941E+04  0.19610139941E+04  0.25500000920E-02 0.  1.
       -2   -1    0    0    0  501  0.00000000000E+00  0.00000000000E+00 -0.61699181836E+03  0.61699181837E+03  0.25500000920E-02 0. -1.
    10030    2    1    2    0    0  0.00000000000E+00  0.00000000000E+00  0.13440221757E+04  0.25780058125E+04  0.21999359900E+04 0.  0.
        3    1    3    3  502    0  0.93795440371E+03  0.53141097696E+03  0.41587702882E+03  0.11554695163E+04  0.10100000352E+00 0.  1.
       -3    1    3    3    0  502 -0.93795440371E+03 -0.53141097696E+03  0.92814514691E+03  0.14225362961E+04  0.10100000352E+00 0. -1.
</event>
<event>
 5   0  0.4408787E-06  0.2199955E+04  0.7818609E-02  0.8518447E-01
       -1   -1    0    0    0  501  0.00000000000E+00  0.00000000000E+00  0.10651256503E+04  0.10651256503E+04  0.50400001928E-02 0.  1.
        1   -1    0    0  501    0  0.00000000000E+00  0.00000000000E+00 -0.11359701338E+04  0.11359701338E+04  0.50400001928E-02 0. -1.
    10030    2    1    2    0    0  0.00000000000E+00  0.00000000000E+00 -0.70844483461E+02  0.22010957841E+04  0.21999553882E+04 0.  0.
        1    1    3    3  502    0 -0.50870268632E+02 -0.26562404897E+03  0.10313419739E+04  0.10662130120E+04  0.50400001928E-02 0.  1.
       -1    1    3    3    0  502  0.50870268632E+02  0.26562404897E+03 -0.11021864574E+04  0.11348827722E+04  0.50400001928E-02 0. -1.
</event>
<event>
 5   0  0.4462201E-06  0.2203457E+04  0.7818609E-02  0.8516991E-01
       -1   -1    0    0    0  501  0.00000000000E+00  0.00000000000E+00  0.11807493144E+04  0.11807493144E+04  0.50400001928E-02 0. -1.
        1   -1    0    0  501    0  0.00000000000E+00  0.00000000000E+00 -0.10279956718E+04  0.10279956718E+04  0.50400001928E-02 0.  1.
    10030    2    1    2    0    0  0.00000000000E+00  0.00000000000E+00  0.15275364253E+03  0.22087449862E+04  0.22034565435E+04 0.  0.
        3    1    3    3  502    0 -0.22366833481E+03  0.10637116531E+04 -0.10376305965E+03  0.10919142767E+04  0.10100000352E+00 0. -1.
       -3    1    3    3    0  502  0.22366833481E+03 -0.10637116531E+04  0.25651670218E+03  0.11168307095E+04  0.10100000352E+00 0.  1.
</event>
<event>
 5   0  0.4794967E-06  0.2154519E+04  0.7818609E-02  0.8537600E-01
       -1   -1    0    0    0  501  0.00000000000E+00  0.00000000000E+00  0.76127242279E+03  0.76127242280E+03  0.50400001928E-02 0.  1.
        1   -1    0    0  501    0  0.00000000000E+00  0.00000000000E+00 -0.15244054032E+04  0.15244054032E+04  0.50400001928E-02 0. -1.
    10030    2    1    2    0    0  0.00000000000E+00  0.00000000000E+00 -0.76313298037E+03  0.22856778260E+04  0.21545187812E+04 0.  0.
        5    1    3    3  502    0  0.37304319672E+03 -0.90661721485E+03  0.92099854656E+02  0.98469308625E+03  0.46999998093E+01 0.  1.
       -5    1    3    3    0  502 -0.37304319672E+03  0.90661721485E+03 -0.85523283502E+03  0.13009847397E+04  0.46999998093E+01 0. -1.
</event>
<event>
 5   0  0.4462201E-06  0.2201619E+04  0.7818609E-02  0.8517755E-01
        1   -1    0    0  501    0  0.00000000000E+00  0.00000000000E+00  0.16860410111E+04  0.16860410111E+04  0.50400001928E-02 0.  1.
       -1   -1    0    0    0  501  0.00000000000E+00  0.00000000000E+00 -0.71871420094E+03  0.71871420096E+03  0.50400001928E-02 0. -1.
    10030    2    1    2    0    0  0.00000000000E+00  0.00000000000E+00  0.96732681020E+03  0.24047552121E+04  0.22016190571E+04 0.  0.
        3    1    3    3  502    0  0.58933430477E+02  0.11759247767E+01 -0.71698917447E+03  0.71940810291E+03  0.10100000352E+00 0. -1.
       -3    1    3    3    0  502 -0.58933430477E+02 -0.11759247767E+01  0.16843159847E+04  0.16853471092E+04  0.10100000352E+00 0.  1.
</event>
<event>
 5   0  0.9963573E-06  0.2196830E+04  0.7818609E-02  0.8519749E-01
        2   -1    0    0  501    0  0.00000000000E+00  0.00000000000E+00  0.18988577490E+04  0.18988577490E+04  0.25500000920E-02 0.  1.
       -2   -1    0    0    0  501  0.00000000000E+00  0.00000000000E+00 -0.63539000159E+03  0.63539000159E+03  0.25500000920E-02 0. -1.
    10030    2    1    2    0    0  0.00000000000E+00  0.00000000000E+00  0.12634677475E+04  0.25342477506E+04  0.21968297414E+04 0.  0.
        2    1    3    3  502    0 -0.97850909899E+03 -0.67733855126E+02  0.61378826420E+02  0.98276919583E+03  0.25500000920E-02 0. -1.
       -2    1    3    3    0  502  0.97850909899E+03  0.67733855126E+02  0.12020889210E+04  0.15514785548E+04  0.25500000920E-02 0.  1.
</event>
<event>
 5   0  0.1035928E-05  0.2197920E+04  0.7818609E-02  0.8519294E-01
        2   -1    0    0  501    0  0.00000000000E+00  0.00000000000E+00  0.13886767389E+04  0.13886767389E+04  0.25500000920E-02 0. -1.
       -2   -1    0    0    0  501  0.00000000000E+00  0.00000000000E+00 -0.86968618854E+03  0.86968618855E+03  0.25500000920E-02 0.  1.
    10030    2    1    2    0    0  0.00000000000E+00  0.00000000000E+00  0.51899055038E+03  0.22583629275E+04  0.21979199077E+04 0.  0.
        3    1    3    3  502    0 -0.42349939134E+03 -0.71979783062E+02  0.12988359542E+04  0.13680305807E+04  0.10100000352E+00 0. -1.
       -3    1    3    3    0  502  0.42349939134E+03  0.71979783062E+02 -0.77984540382E+03  0.89033234676E+03  0.10100000352E+00 0.  1.
</event>
<event>
 5   0  0.4462201E-06  0.2199128E+04  0.7818609E-02  0.8518791E-01
       -1   -1    0    0    0  501  0.00000000000E+00  0.00000000000E+00  0.11422472187E+04  0.11422472187E+04  0.50400001928E-02 0. -1.
        1   -1    0    0  501    0  0.00000000000E+00  0.00000000000E+00 -0.10584755802E+04  0.10584755802E+04  0.50400001928E-02 0.  1.
    10030    2    1    2    0    0  0.00000000000E+00  0.00000000000E+00  0.83771638586E+02  0.22007227989E+04  0.21991278158E+04 0.  0.
        3    1    3    3  502    0 -0.25894184479E+03 -0.91115902333E+03  0.60066265385E+03  0.11216315254E+04  0.10100000352E+00 0. -1.
       -3    1    3    3    0  502  0.25894184479E+03  0.91115902333E+03 -0.51689101527E+03  0.10790912735E+04  0.10100000352E+00 0.  1.
</event>
<event>
 5   0  0.4630615E-06  0.2198011E+04  0.7818609E-02  0.8519256E-01
       -1   -1    0    0    0  501  0.00000000000E+00  0.00000000000E+00  0.18551187275E+04  0.18551187275E+04  0.50400001928E-02 0. -1.
        1   -1    0    0  501    0  0.00000000000E+00  0.00000000000E+00 -0.65107063688E+03  0.65107063690E+03  0.50400001928E-02 0.  1.
    10030    2    1    2    0    0  0.00000000000E+00  0.00000000000E+00  0.12040480906E+04  0.25061893644E+04  0.21980112206E+04 0.  0.
        2    1    3    3  502    0  0.10070570026E+04 -0.14485633606E+03  0.12823217846E+03  0.10254709437E+04  0.25500000920E-02 0. -1.
       -2    1    3    3    0  502 -0.10070570026E+04  0.14485633606E+03  0.10758159121E+04  0.14807184207E+04  0.25500000920E-02 0.  1.
</event>
<event>
 5   0  0.9963573E-06  0.2199082E+04  0.7818609E-02  0.8518810E-01
       -2   -1    0    0    0  501  0.00000000000E+00  0.00000000000E+00  0.79315590544E+03  0.79315590544E+03  0.25500000920E-02 0. -1.
        2   -1    0    0  501    0  0.00000000000E+00  0.00000000000E+00 -0.15242781505E+04  0.15242781505E+04  0.25500000920E-02 0.  1.
    10030    2    1    2    0    0  0.00000000000E+00  0.00000000000E+00 -0.73112224502E+03  0.23174340559E+04  0.21990818235E+04 0.  0.
        2    1    3    3  502    0 -0.80908394968E+03  0.67753123228E+03 -0.69092472354E+03  0.12613652849E+04  0.25500000920E-02 0.  1.
       -2    1    3    3    0  502  0.80908394968E+03 -0.67753123228E+03 -0.40197521482E+02  0.10560687710E+04  0.25500000920E-02 0. -1.
</event>
<event>
 5   0  0.4309945E-06  0.2199505E+04  0.7818609E-02  0.8518634E-01
       -1   -1    0    0    0  501  0.00000000000E+00  0.00000000000E+00  0.26796744041E+04  0.26796744041E+04  0.50400001928E-02 0.  1.
        1   -1    0    0  501    0  0.00000000000E+00  0.00000000000E+00 -0.45134432952E+03  0.45134432955E+03  0.50400001928E-02 0. -1.
    10030    2    1    2    0    0  0.00000000000E+00  0.00000000000E+00  0.22283300746E+04  0.31310187336E+04  0.21995052601E+04 0.  0.
        4    1    3    3  502    0  0.41821989567E+02 -0.24182339900E+03  0.26401965286E+04  0.26515782013E+04  0.12699999809E+01 0.  1.
       -4    1    3    3    0  502 -0.41821989567E+02  0.24182339900E+03 -0.41186645407E+03  0.47944053229E+03  0.12699999809E+01 0. -1.
</event>
<event>
 5   0  0.1014015E-05  0.2198571E+04  0.7818609E-02  0.8519023E-01
        2   -1    0    0  501    0  0.00000000000E+00  0.00000000000E+00  0.15085242389E+04  0.15085242389E+04  0.25500000920E-02 0.  1.
       -2   -1    0    0    0  501  0.00000000000E+00  0.00000000000E+00 -0.80106685597E+03  0.80106685597E+03  0.25500000920E-02 0. -1.
    10030    2    1    2    0    0  0.00000000000E+00  0.00000000000E+00  0.70745738292E+03  0.23095910949E+04  0.21985711444E+04 0.  0.
        1    1    3    3  502    0 -0.86461481023E+03 -0.24366043757E+02  0.10664239623E+04  0.13731032523E+04  0.50400001928E-02 0.  1.
       -1    1    3    3    0  502  0.86461481023E+03  0.24366043757E+02 -0.35896657934E+03  0.93648784256E+03  0.50400001928E-02 0. -1.
</event>
<event>
 5   0  0.4309945E-06  0.2200698E+04  0.7818609E-02  0.8518138E-01
       -1   -1    0    0    0  501  0.00000000000E+00  0.00000000000E+00  0.11858316495E+04  0.11858316495E+04  0.50400001928E-02 0. -1.
        1   -1    0    0  501    0  0.00000000000E+00  0.00000000000E+00 -0.10210283789E+04  0.10210283789E+04  0.50400001928E-02 0.  1.
    10030    2    1    2    0    0  0.00000000000E+00  0.00000000000E+00  0.16480327066E+03  0.22068600284E+04  0.22006978591E+04 0.  0.
        4    1    3    3  502    0  0.95939454352E+03 -0.25481211881E+03  0.55849311166E+03  0.11389834392E+04  0.12699999809E+01 0. -1.
       -4    1    3    3    0  502 -0.95939454352E+03  0.25481211881E+03 -0.39368984100E+03  0.10678765892E+04  0.12699999809E+01 0.  1.
</event>
<event>
 5   0  0.4408787E-06  0.2195581E+04  0.7818609E-02  0.8520270E-01
        1   -1    0    0  501    0  0.00000000000E+00  0.00000000000E+00  0.63170266559E+03  0.63170266561E+03  0.50400001928E-02 0.  1.
       -1   -1    0    0    0  501  0.00000000000E+00  0.00000000000E+00 -0.19077707546E+04  0.19077707546E+04  0.50400001928E-02 0. -1.
    10030    2    1    2    0    0  0.00000000000E+00  0.00000000000E+00 -0.12760680890E+04  0.25394734202E+04  0.21955808990E+04 0.  0.
        1    1    3    3  502    0 -0.38074400177E+03  0.22332637441E+03 -0.18006066721E+04  0.18539215334E+04  0.50400001928E-02 0. -1.
       -1    1    3    3    0  502  0.38074400177E+03 -0.22332637441E+03  0.52453858307E+03  0.68555188683E+03  0.50400001928E-02 0.  1.
</event>
<event>
 5   0  0.4630615E-06  0.2212750E+04  0.7818609E-02  0.8513140E-01
        1   -1    0    0  501    0  0.00000000000E+00  0.00000000000E+00  0.10840519336E+04  0.10840519336E+04  0.50400001928E-02 0. -1.
       -1   -1    0    0    0  501  0.00000000000E+00  0.00000000000E+00 -0.11291575598E+04  0.11291575598E+04  0.50400001928E-02 0.  1.
    10030    2    1    2    0    0  0.00000000000E+00  0.00000000000E+00 -0.45105626186E+02  0.22132094934E+04  0.22127498151E+04 0.  0.
        2    1    3    3  502    0  0.80105664382E+03 -0.16920968093E+03  0.72174005044E+03  0.10914359180E+04  0.25500000920E-02 0. -1.
       -2    1    3    3    0  502 -0.80105664382E+03  0.16920968093E+03 -0.76684567663E+03  0.11217735754E+04  0.25500000920E-02 0.  1.
</event>
<event>
 5   0  0.1014015E-05  0.2197014E+04  0.7818609E-02  0.8519672E-01
        2   -1    0    0  501    0  0.00000000000E+00  0.00000000000E+00  0.14968467728E+04  0.14968467728E+04  0.25500000920E-02 0.  1.
       -2   -1    0    0    0  501  0.00000000000E+00  0.00000000000E+00 -0.80617339010E+03  0.80617339010E+03  0.25500000920E-02 0. -1.
    10030    2    1    2    0    0  0.00000000000E+00  0.00000000000E+00  0.69067338268E+03  0.23030201629E+04  0.21970143716E+04 0.  0.
        1    1    3    3  502    0 -0.48976883152E+03  0.98325628306E+03  0.35286738346E+03  0.11537685283E+04  0.50400001928E-02 0. -1.
       -1    1    3    3    0  502  0.48976883152E+03 -0.98325628306E+03  0.33780599922E+03  0.11492516346E+04  0.50400001928E-02 0.  1.
</event>
<event>
 5   0  0.1015876E-05  0.2200974E+04  0.7818609E-02  0.8518023E-01
       -2   -1    0    0    0  501  0.00000000000E+00  0.00000000000E+00  0.96345849658E+03  0.96345849658E+03  0.25500000920E-02 0. -1.
        2   -1    0    0  501    0  0.00000000000E+00  0.00000000000E+00 -0.12570046582E+04  0.12570046582E+04  0.25500000920E-02 0.  1.
    10030    2    1    2    0    0  0.00000000000E+00  0.00000000000E+00 -0.29354616166E+03  0.22204631548E+04  0.22009741645E+04 0.  0.
        5    1    3    3  502    0 -0.10521378208E+03 -0.32636075937E+03  0.90817662019E+03  0.97076678386E+03  0.46999998093E+01 0. -1.
       -5    1    3    3    0  502  0.10521378208E+03  0.32636075937E+03 -0.12017227819E+04  0.12496963710E+04  0.46999998093E+01 0.  1.
</event>
<event>
 5   0  0.4794967E-06  0.2200792E+04  0.7818609E-02  0.8518099E-01
        1   -1    0    0  501    0  0.00000000000E+00  0.00000000000E+00  0.18305285743E+04  0.18305285743E+04  0.50400001928E-02 0.  1.
       -1   -1    0    0    0  501  0.00000000000E+00  0.00000000000E+00 -0.66148724887E+03  0.66148724889E+03  0.50400001928E-02 0. -1.
    10030    2    1    2    0    0  0.00000000000E+00  0.00000000000E+00  0.11690413254E+04  0.24920158232E+04  0.22007919580E+04 0.  0.
        5    1    3    3  502    0 -0.55728751090E+03  0.87518394631E+03  0.16950640404E+03  0.10513186105E+04  0.46999998093E+01 0.  1.
       -5    1    3    3    0  502  0.55728751090E+03 -0.87518394631E+03  0.99953492138E+03  0.14406972127E+04  0.46999998093E+01 0. -1.
</event>
<event>
 5   0  0.9963173E-06  0.2202785E+04  0.7818609E-02  0.8517270E-01
       -2   -1    0    0    0  501  0.00000000000E+00  0.00000000000E+00  0.50327161672E+03  0.50327161673E+03  0.25500000920E-02 0.  1.
        2   -1    0    0  501    0  0.00000000000E+00  0.00000000000E+00 -0.24103593906E+04  0.24103593906E+04  0.25500000920E-02 0. -1.
    10030    2    1    2    0    0  0.00000000000E+00  0.00000000000E+00 -0.19070877738E+04  0.29136310073E+04  0.22027850257E+04 0.  0.
        4    1    3    3  502    0 -0.80939276900E+03  0.52456136937E+03 -0.16569218426E+04  0.19172044466E+04  0.12699999809E+01 0. -1.
       -4    1    3    3    0  502  0.80939276900E+03 -0.52456136937E+03 -0.25016593121E+03  0.99642656066E+03  0.12699999809E+01 0.  1.
</event>
<event>
 5   0  0.4408787E-06  0.2194614E+04  0.7818609E-02  0.8520673E-01
       -1   -1    0    0    0  501  0.00000000000E+00  0.00000000000E+00  0.87835789823E+03  0.87835789825E+03  0.50400001928E-02 0.  1.
        1   -1    0    0  501    0  0.00000000000E+00  0.00000000000E+00 -0.13708338270E+04  0.13708338271E+04  0.50400001928E-02 0. -1.
    10030    2    1    2    0    0  0.00000000000E+00  0.00000000000E+00 -0.49247592882E+03  0.22491917253E+04  0.21946140610E+04 0.  0.
        1    1    3    3  502    0  0.10357535554E+04 -0.28501394690E+03 -0.16922905962E+02  0.10743857604E+04  0.50400001928E-02 0.  1.
       -1    1    3    3    0  502 -0.10357535554E+04  0.28501394690E+03 -0.47555302285E+03  0.11748059649E+04  0.50400001928E-02 0. -1.
</event>
<event>
 5   0  0.4794967E-06  0.2199229E+04  0.7818609E-02  0.8518749E-01
       -1   -1    0    0    0  501  0.00000000000E+00  0.00000000000E+00  0.90561276184E+03  0.90561276185E+03  0.50400001928E-02 0.  1.
        1   -1    0    0  501    0  0.00000000000E+00  0.00000000000E+00 -0.13351750172E+04  0.13351750172E+04  0.50400001928E-02 0. -1.
    10030    2    1    2    0    0  0.00000000000E+00  0.00000000000E+00 -0.42956225537E+03  0.22407877791E+04  0.21992285328E+04 0.  0.
        5    1    3    3  502    0  0.51352878738E+03  0.96671182139E+03 -0.10847404185E+03  0.11000146676E+04  0.46999998093E+01 0. -1.
       -5    1    3    3    0  502 -0.51352878738E+03 -0.96671182139E+03 -0.32108821352E+03  0.11407731115E+04  0.46999998093E+01 0.  1.
</event>
<event>
 5   0  0.4630615E-06  0.2201092E+04  0.7818609E-02  0.8517974E-01
       -1   -1    0    0    0  501  0.00000000000E+00  0.00000000000E+00  0.86921671382E+03  0.86921671383E+03  0.50400001928E-02 0.  1.
        1   -1    0    0  501    0  0.00000000000E+00  0.00000000000E+00 -0.13934407334E+04  0.13934407334E+04  0.50400001928E-02 0. -1.
    10030    2    1    2    0    0  0.00000000000E+00  0.00000000000E+00 -0.52422401955E+03  0.22626574472E+04  0.22010924335E+04 0.  0.
        2    1    3    3  502    0  0.67934113384E+03  0.84584911081E+03 -0.71904515753E+02  0.10872604811E+04  0.25500000920E-02 0.  1.
       -2    1    3    3    0  502 -0.67934113384E+03 -0.84584911081E+03 -0.45231950380E+03  0.11753969661E+04  0.25500000920E-02 0. -1.
</event>
<event>
 5   0  0.4630615E-06  0.2197360E+04  0.7818609E-02  0.8519528E-01
       -1   -1    0    0    0  501  0.00000000000E+00  0.00000000000E+00  0.62290973126E+03  0.62290973128E+03  0.50400001928E-02 0.  1.
        1   -1    0    0  501    0  0.00000000000E+00  0.00000000000E+00 -0.19378378815E+04  0.19378378815E+04  0.50400001928E-02 0. -1.
    10030    2    1    2    0    0  0.00000000000E+00  0.00000000000E+00 -0.13149281503E+04  0.25607476128E+04  0.21973603019E+04 0.  0.
        2    1    3    3  502    0  0.10201653077E+03 -0.10816633409E+04 -0.46705772529E+03  0.11826013168E+04  0.25500000920E-02 0.  1.
       -2    1    3    3    0  502 -0.10201653077E+03  0.10816633409E+04 -0.84787042499E+03  0.13781462960E+04  0.25500000920E-02 0. -1.
</event>
<event>
 5   0  0.4794967E-06  0.2200651E+04  0.7818609E-02  0.8518157E-01
       -1   -1    0    0    0  501  0.00000000000E+00  0.00000000000E+00  0.92634370202E+03  0.92634370204E+03  0.50400001928E-02 0. -1.
        1   -1    0    0  501    0  0.00000000000E+00  0.00000000000E+00 -0.13069836778E+04  0.13069836778E+04  0.50400001928E-02 0.  1.
    10030    2    1    2    0    0  0.00000000000E+00  0.00000000000E+00 -0.38063997582E+03  0.22333273799E+04  0.22006509025E+04 0.  0.
        5    1    3    3  502    0  0.49913262422E+03 -0.55181073044E+03  0.63231198455E+03  0.97645736958E+03  0.46999998093E+01 0. -1.
       -5    1    3    3    0  502 -0.49913262422E+03  0.55181073044E+03 -0.10129519604E+04  0.12568700103E+04  0.46999998093E+01 0.  1.
</event>
<event>
 5   0  0.4794967E-06  0.2180762E+04  0.7818609E-02  0.8526478E-01
       -1   -1    0    0    0  501  0.00000000000E+00  0.00000000000E+00  0.66550514194E+03  0.66550514196E+03  0.50400001928E-02 0. -1.
        1   -1    0    0  501    0  0.00000000000E+00  0.00000000000E+00 -0.17865093978E+04  0.17865093978E+04  0.50400001928E-02 0.  1.
    10030    2    1    2    0    0  0.00000000000E+00  0.00000000000E+00 -0.11210042558E+04  0.24520145397E+04  0.21807624266E+04 0.  0.
        5    1    3    3  502    0 -0.52610427279E+03  0.35234168894E+03  0.43759299210E+03  0.76970129813E+03  0.46999998093E+01 0. -1.
       -5    1    3    3    0  502  0.52610427279E+03 -0.35234168894E+03 -0.15585972479E+04  0.16823132416E+04  0.46999998093E+01 0.  1.
</event>
<event>
 5   0  0.4630615E-06  0.2202535E+04  0.7818609E-02  0.8517374E-01
       -1   -1    0    0    0  501  0.00000000000E+00  0.00000000000E+00  0.11043546559E+04  0.11043546559E+04  0.50400001928E-02 0.  1.
        1   -1    0    0  501    0  0.00000000000E+00  0.00000000000E+00 -0.10981888691E+04  0.10981888691E+04  0.50400001928E-02 0. -1.
    10030    2    1    2    0    0  0.00000000000E+00  0.00000000000E+00  0.61657867550E+01  0.22025435250E+04  0.22025348948E+04 0.  0.
        2    1    3    3  502    0 -0.17278996617E+03 -0.41891907362E+03 -0.10006343591E+04  0.10984619626E+04  0.25500000920E-02 0. -1.
       -2    1    3    3    0  502  0.17278996617E+03  0.41891907362E+03  0.10068001459E+04  0.11040815624E+04  0.25500000920E-02 0.  1.
</event>
<event>
 5   0  0.4630615E-06  0.2218505E+04  0.7818609E-02  0.8510765E-01
        1   -1    0    0  501    0  0.00000000000E+00  0.00000000000E+00  0.10351353427E+04  0.10351353427E+04  0.50400001928E-02 0.  1.
       -1   -1    0    0    0  501  0.00000000000E+00  0.00000000000E+00 -0.11886761901E+04  0.11886761901E+04  0.50400001928E-02 0. -1.
    10030    2    1    2    0    0  0.00000000000E+00  0.00000000000E+00 -0.15354084740E+03  0.22238115328E+04  0.22185046634E+04 0.  0.
        2    1    3    3  502    0 -0.30864258458E+03 -0.61544647493E+03 -0.94856698407E+03  0.11720980897E+04  0.25500000920E-02 0. -1.
       -2    1    3    3    0  502  0.30864258458E+03  0.61544647493E+03  0.79502613666E+03  0.10517134431E+04  0.25500000920E-02 0.  1.
</event>
<event>
 5   0  0.3546750E-06  0.2199832E+04  0.7818609E-02  0.8518498E-01
       -4   -1    0    0    0  501  0.00000000000E+00  0.00000000000E+00  0.16690839368E+04  0.16690844200E+04  0.12699999809E+01 0. -1.
        4   -1    0    0  501    0  0.00000000000E+00  0.00000000000E+00 -0.72483687164E+03  0.72483798423E+03  0.12699999809E+01 0.  1.
    10030    2    1    2    0    0  0.00000000000E+00  0.00000000000E+00  0.94424706520E+03  0.23939224042E+04  0.21998322566E+04 0.  0.
        5    1    3    3  502    0  0.24240436457E+03 -0.96328836448E+03 -0.41895378222E+02  0.99421409255E+03  0.46999998093E+01 0. -1.
       -5    1    3    3    0  502 -0.24240436457E+03  0.96328836448E+03  0.98614244342E+03  0.13997083117E+04  0.46999998093E+01 0.  1.
</event>
<event>
 5   0  0.1014015E-05  0.2203439E+04  0.7818609E-02  0.8516998E-01
       -2   -1    0    0    0  501  0.00000000000E+00  0.00000000000E+00  0.14945621878E+04  0.14945621878E+04  0.25500000920E-02 0.  1.
        2   -1    0    0  501    0  0.00000000000E+00  0.00000000000E+00 -0.81213479970E+03  0.81213479970E+03  0.25500000920E-02 0. -1.
    10030    2    1    2    0    0  0.00000000000E+00  0.00000000000E+00  0.68242738813E+03  0.23066969875E+04  0.22034390966E+04 0.  0.
        1    1    3    3  502    0  0.86559407197E+03 -0.39267210156E+03  0.92440281687E+03  0.13258827417E+04  0.50400001928E-02 0.  1.
       -1    1    3    3    0  502 -0.86559407197E+03  0.39267210156E+03 -0.24197542874E+03  0.98081424587E+03  0.50400001928E-02 0. -1.
</event>
<event>
 5   0  0.4794967E-06  0.2198488E+04  0.7818609E-02  0.8519058E-01
       -1   -1    0    0    0  501  0.00000000000E+00  0.00000000000E+00  0.78345136051E+03  0.78345136053E+03  0.50400001928E-02 0.  1.
        1   -1    0    0  501    0  0.00000000000E+00  0.00000000000E+00 -0.15423257320E+04  0.15423257320E+04  0.50400001928E-02 0. -1.
    10030    2    1    2    0    0  0.00000000000E+00  0.00000000000E+00 -0.75887437153E+03  0.23257770926E+04  0.21984878377E+04 0.  0.
        5    1    3    3  502    0 -0.23103168008E+03 -0.21585694112E+03  0.73429700629E+03  0.79948986215E+03  0.46999998093E+01 0.  1.
       -5    1    3    3    0  502  0.23103168008E+03  0.21585694112E+03 -0.14931713778E+04  0.15262872304E+04  0.46999998093E+01 0. -1.
</event>
<event>
 5   0  0.4630615E-06  0.2196772E+04  0.7818609E-02  0.8519773E-01
        1   -1    0    0  501    0  0.00000000000E+00  0.00000000000E+00  0.22214241899E+04  0.22214241900E+04  0.50400001928E-02 0. -1.
       -1   -1    0    0    0  501  0.00000000000E+00  0.00000000000E+00 -0.54309837229E+03  0.54309837231E+03  0.50400001928E-02 0.  1.
    10030    2    1    2    0    0  0.00000000000E+00  0.00000000000E+00  0.16783258177E+04  0.27645225623E+04  0.21967720517E+04 0.  0.
        2    1    3    3  502    0 -0.25916170957E+02  0.99085454265E+03  0.24357341968E+03  0.10206823127E+04  0.25500000920E-02 0.  1.
       -2    1    3    3    0  502  0.25916170957E+02 -0.99085454265E+03  0.14347523980E+04  0.17438402496E+04  0.25500000920E-02 0. -1.
</event>
<event>
 5   0  0.4408787E-06  0.2198207E+04  0.7818609E-02  0.8519175E-01
        1   -1    0    0  501    0  0.00000000000E+00  0.00000000000E+00  0.90194295748E+03  0.90194295749E+03  0.50400001928E-02 0. -1.
       -1   -1    0    0    0  501  0.00000000000E+00  0.00000000000E+00 -0.13393620993E+04  0.13393620994E+04  0.50400001928E-02 0.  1.
    10030    2    1    2    0    0  0.00000000000E+00  0.00000000000E+00 -0.43741914186E+03  0.22413050568E+04  0.21982067355E+04 0.  0.
        1    1    3    3  502    0 -0.57789849945E+03  0.93457339354E+03 -0.19303432927E+03  0.11156416790E+04  0.50400001928E-02 0. -1.
       -1    1    3    3    0  502  0.57789849945E+03 -0.93457339354E+03 -0.24438481259E+03  0.11256633779E+04  0.50400001928E-02 0.  1.
</event>
<event>
 5   0  0.1015876E-05  0.2171751E+04  0.7818609E-02  0.8530279E-01
        2   -1    0    0  501    0  0.00000000000E+00  0.00000000000E+00  0.15361986028E+04  0.15361986028E+04  0.25500000920E-02 0. -1.
       -2   -1    0    0    0  501  0.00000000000E+00  0.00000000000E+00 -0.76756092290E+03  0.76756092290E+03  0.25500000920E-02 0.  1.
    10030    2    1    2    0    0  0.00000000000E+00  0.00000000000E+00  0.76863767989E+03  0.23037595257E+04  0.21717513829E+04 0.  0.
        5    1    3    3  502    0  0.20476252847E+03  0.10492345674E+03  0.15100339464E+04  0.15274688979E+04  0.46999998093E+01 0. -1.
       -5    1    3    3    0  502 -0.20476252847E+03 -0.10492345674E+03 -0.74139626649E+03  0.77629062779E+03  0.46999998093E+01 0.  1.
</event>
<event>
 5   0  0.1015876E-05  0.2198774E+04  0.7818609E-02  0.8518939E-01
        2   -1    0    0  501    0  0.00000000000E+00  0.00000000000E+00  0.14137313837E+04  0.14137313837E+04  0.25500000920E-02 0. -1.
       -2   -1    0    0    0  501  0.00000000000E+00  0.00000000000E+00 -0.85493729871E+03  0.85493729871E+03  0.25500000920E-02 0.  1.
    10030    2    1    2    0    0  0.00000000000E+00  0.00000000000E+00  0.55879408503E+03  0.22686686825E+04  0.21987739223E+04 0.  0.
        5    1    3    3  502    0  0.57017786118E+03  0.14035767090E+03  0.12383642749E+04  0.13705368424E+04  0.46999998093E+01 0. -1.
       -5    1    3    3    0  502 -0.57017786118E+03 -0.14035767090E+03 -0.67957018984E+03  0.89813184003E+03  0.46999998093E+01 0.  1.
</event>
<event>
 5   0  0.9963173E-06  0.2198488E+04  0.7818609E-02  0.8519058E-01
        2   -1    0    0  501    0  0.00000000000E+00  0.00000000000E+00  0.85394328525E+03  0.85394328526E+03  0.25500000920E-02 0.  1.
       -2   -1    0    0    0  501  0.00000000000E+00  0.00000000000E+00 -0.14150084957E+04  0.14150084957E+04  0.25500000920E-02 0. -1.
    10030    2    1    2    0    0  0.00000000000E+00  0.00000000000E+00 -0.56106521044E+03  0.22689517810E+04  0.21984876652E+04 0.  0.
        4    1    3    3  502    0  0.50685468890E+03 -0.95898145563E+03 -0.96525426610E+02  0.10889746915E+04  0.12699999809E+01 0. -1.
       -4    1    3    3    0  502 -0.50685468890E+03  0.95898145563E+03 -0.46453978383E+03  0.11799770894E+04  0.12699999809E+01 0.  1.
</event>
<event>
 5   0  0.4794967E-06  0.2202567E+04  0.7818609E-02  0.8517361E-01
       -1   -1    0    0    0  501  0.00000000000E+00  0.00000000000E+00  0.10244911405E+04  0.10244911405E+04  0.50400001928E-02 0.  1.
        1   -1    0    0  501    0  0.00000000000E+00  0.00000000000E+00 -0.11838317083E+04  0.11838317083E+04  0.50400001928E-02 0. -1.
    10030    2    1    2    0    0  0.00000000000E+00  0.00000000000E+00 -0.15934056784E+03  0.22083228489E+04  0.22025667727E+04 0.  0.
        5    1    3    3  502    0  0.10649896515E+02 -0.57851321566E+03  0.85980145420E+03  0.10363742527E+04  0.46999998093E+01 0.  1.
       -5    1    3    3    0  502 -0.10649896515E+02  0.57851321566E+03 -0.10191420220E+04  0.11719485962E+04  0.46999998093E+01 0. -1.
</event>
<event>
 5   0  0.9963573E-06  0.2203222E+04  0.7818609E-02  0.8517088E-01
        2   -1    0    0  501    0  0.00000000000E+00  0.00000000000E+00  0.41504952671E+03  0.41504952672E+03  0.25500000920E-02 0. -1.
       -2   -1    0    0    0  501  0.00000000000E+00  0.00000000000E+00 -0.29238589828E+04  0.29238589828E+04  0.25500000920E-02 0.  1.
    10030    2    1    2    0    0  0.00000000000E+00  0.00000000000E+00 -0.25088094561E+04  0.33389085095E+04  0.22032215386E+04 0.  0.
        2    1    3    3  502    0 -0.75636851722E+03  0.21986892059E+02 -0.24676959142E+04  0.25811043920E+04  0.25500000920E-02 0.  1.
       -2    1    3    3    0  502  0.75636851722E+03 -0.21986892059E+02 -0.41113541898E+02  0.75780411756E+03  0.25500000920E-02 0. -1.
</event>
<event>
 5   0  0.4630615E-06  0.2202326E+04  0.7818609E-02  0.8517461E-01
        1   -1    0    0  501    0  0.00000000000E+00  0.00000000000E+00  0.93745001626E+03  0.93745001627E+03  0.50400001928E-02 0.  1.
       -1   -1    0    0    0  501  0.00000000000E+00  0.00000000000E+00 -0.12934661208E+04  0.12934661208E+04  0.50400001928E-02 0. -1.
    10030    2    1    2    0    0  0.00000000000E+00  0.00000000000E+00 -0.35601610452E+03  0.22309161371E+04  0.22023258941E+04 0.  0.
        2    1    3    3  502    0 -0.52568022486E+03  0.84142276963E+03  0.30592578409E+03  0.10382304953E+04  0.25500000920E-02 0.  1.
       -2    1    3    3    0  502  0.52568022486E+03 -0.84142276963E+03 -0.66194188861E+03  0.11926856417E+04  0.25500000920E-02 0. -1.
</event>
<event>
 5   0  0.9963573E-06  0.2212185E+04  0.7818609E-02  0.8513374E-01
       -2   -1    0    0    0  501  0.00000000000E+00  0.00000000000E+00  0.90366241367E+03  0.90366241367E+03  0.25500000920E-02 0.  1.
        2   -1    0    0  501    0  0.00000000000E+00  0.00000000000E+00 -0.13538689361E+04  0.13538689361E+04  0.25500000920E-02 0. -1.
    10030    2    1    2    0    0  0.00000000000E+00  0.00000000000E+00 -0.45020652247E+03  0.22575313498E+04  0.22121848663E+04 0.  0.
        2    1    3    3  502    0 -0.16149525815E+03  0.10941938110E+04 -0.21491583786E+03  0.11267340555E+04  0.25500000920E-02 0.  1.
       -2    1    3    3    0  502  0.16149525815E+03 -0.10941938110E+04 -0.23529068461E+03  0.11307972943E+04  0.25500000920E-02 0. -1.
</event>
<event>
 5   0  0.4794967E-06  0.2196935E+04  0.7818609E-02  0.8519705E-01
       -1   -1    0    0    0  501  0.00000000000E+00  0.00000000000E+00  0.89862281948E+03  0.89862281949E+03  0.50400001928E-02 0.  1.
        1   -1    0    0  501    0  0.00000000000E+00  0.00000000000E+00 -0.13427561389E+04  0.13427561389E+04  0.50400001928E-02 0. -1.
    10030    2    1    2    0    0  0.00000000000E+00  0.00000000000E+00 -0.44413331946E+03  0.22413789584E+04  0.21969354178E+04 0.  0.
        5    1    3    3  502    0 -0.70311849841E+03  0.39118674409E+03 -0.98499564624E+03  0.12718652463E+04  0.46999998093E+01 0. -1.
       -5    1    3    3    0  502  0.70311849841E+03 -0.39118674409E+03  0.54086232678E+03  0.96951371217E+03  0.46999998093E+01 0.  1.
</event>
<event>
 5   0  0.9963173E-06  0.2202880E+04  0.7818609E-02  0.8517230E-01
        2   -1    0    0  501    0  0.00000000000E+00  0.00000000000E+00  0.86044558793E+03  0.86044558793E+03  0.25500000920E-02 0. -1.
       -2   -1    0    0    0  501  0.00000000000E+00  0.00000000000E+00 -0.14099324648E+04  0.14099324648E+04  0.25500000920E-02 0.  1.
    10030    2    1    2    0    0  0.00000000000E+00  0.00000000000E+00 -0.54948687685E+03  0.22703780527E+04  0.22028800862E+04 0.  0.
        4    1    3    3  502    0 -0.38924411988E+03 -0.86546813150E+03  0.30151517222E+03  0.99572038418E+03  0.12699999809E+01 0.  1.
       -4    1    3    3    0  502  0.38924411988E+03  0.86546813150E+03 -0.85100204907E+03  0.12746576685E+04  0.12699999809E+01 0. -1.
</event>
<event>
 5   0  0.4408787E-06  0.2201046E+04  0.7818609E-02  0.8517993E-01
       -1   -1    0    0    0  501  0.00000000000E+00  0.00000000000E+00  0.81729249093E+03  0.81729249095E+03  0.50400001928E-02 0.  1.
        1   -1    0    0  501    0  0.00000000000E+00  0.00000000000E+00 -0.14819065950E+04  0.14819065950E+04  0.50400001928E-02 0. -1.
    10030    2    1    2    0    0  0.00000000000E+00  0.00000000000E+00 -0.66461410408E+03  0.22991990860E+04  0.22010462352E+04 0.  0.
        1    1    3    3  502    0  0.12351600584E+03  0.37299452599E+03 -0.14061422947E+04  0.14600059154E+04  0.50400001928E-02 0. -1.
       -1    1    3    3    0  502 -0.12351600584E+03 -0.37299452599E+03  0.74152819057E+03  0.83919317058E+03  0.50400001928E-02 0.  1.
</event>
<event>
 5   0  0.4794967E-06  0.2199974E+04  0.7818609E-02  0.8518439E-01
       -1   -1    0    0    0  501  0.00000000000E+00  0.00000000000E+00  0.10518111215E+04  0.10518111215E+04  0.50400001928E-02 0.  1.
        1   -1    0    0  501    0  0.00000000000E+00  0.00000000000E+00 -0.11503693707E+04  0.11503693707E+04  0.50400001928E-02 0. -1.
    10030    2    1    2    0    0  0.00000000000E+00  0.00000000000E+00 -0.98558249207E+02  0.22021804921E+04  0.21999739070E+04 0.  0.
        5    1    3    3  502    0  0.41247907220E+03 -0.85596117262E+03 -0.60403774799E+03  0.11259183829E+04  0.46999998093E+01 0. -1.
       -5    1    3    3    0  502 -0.41247907220E+03  0.85596117262E+03  0.50547949878E+03  0.10762621092E+04  0.46999998093E+01 0.  1.
</event>
<event>
 5   0  0.4408787E-06  0.2175409E+04  0.7818609E-02  0.8528734E-01
        1   -1    0    0  501    0  0.00000000000E+00  0.00000000000E+00  0.15646404249E+04  0.15646404249E+04  0.50400001928E-02 0. -1.
       -1   -1    0    0    0  501  0.00000000000E+00  0.00000000000E+00 -0.75614904110E+03  0.75614904111E+03  0.50400001928E-02 0.  1.
    10030    2    1    2    0    0  0.00000000000E+00  0.00000000000E+00  0.80849138383E+03  0.23207894660E+04  0.21754092553E+04 0.  0.
        1    1    3    3  502    0  0.63240707004E+03 -0.22661254166E+03 -0.50838226306E+03  0.84246333552E+03  0.50400001928E-02 0.  1.
       -1    1    3    3    0  502 -0.63240707004E+03  0.22661254166E+03  0.13168736469E+04  0.14783261305E+04  0.50400001928E-02 0. -1.
</event>
<event>
 5   0  0.9963573E-06  0.2199996E+04  0.7818609E-02  0.8518430E-01
       -2   -1    0    0    0  501  0.00000000000E+00  0.00000000000E+00  0.69597364445E+03  0.69597364445E+03  0.25500000920E-02 0.  1.
        2   -1    0    0  501    0  0.00000000000E+00  0.00000000000E+00 -0.17385650245E+04  0.17385650245E+04  0.25500000920E-02 0. -1.
    10030    2    1    2    0    0  0.00000000000E+00  0.00000000000E+00 -0.10425913800E+04  0.24345386689E+04  0.21999958511E+04 0.  0.
        2    1    3    3  502    0  0.10176092840E+04  0.40171450590E+03 -0.64791552550E+03  0.12714942892E+04  0.25500000920E-02 0. -1.
       -2    1    3    3    0  502 -0.10176092840E+04 -0.40171450590E+03 -0.39467585452E+03  0.11630443798E+04  0.25500000920E-02 0.  1.
</event>
<event>
 5   0  0.1035928E-05  0.2209142E+04  0.7818609E-02  0.8514633E-01
        2   -1    0    0  501    0  0.00000000000E+00  0.00000000000E+00  0.15646052055E+04  0.15646052055E+04  0.25500000920E-02 0. -1.
       -2   -1    0    0    0  501  0.00000000000E+00  0.00000000000E+00 -0.77979849786E+03  0.77979849786E+03  0.25500000920E-02 0.  1.
    10030    2    1    2    0    0  0.00000000000E+00  0.00000000000E+00  0.78480670760E+03  0.23444037033E+04  0.22091417238E+04 0.  0.
        3    1    3    3  502    0  0.79132460031E+03 -0.41570811552E+03 -0.29622581247E+03  0.94167807797E+03  0.10100000352E+00 0.  1.
       -3    1    3    3    0  502 -0.79132460031E+03  0.41570811552E+03  0.10810325201E+04  0.14027256254E+04  0.10100000352E+00 0. -1.
</event>
<event>
 5   0  0.4794967E-06  0.2196286E+04  0.7818609E-02  0.8519975E-01
        1   -1    0    0  501    0  0.00000000000E+00  0.00000000000E+00  0.12120765028E+04  0.12120765028E+04  0.50400001928E-02 0.  1.
       -1   -1    0    0    0  501  0.00000000000E+00  0.00000000000E+00 -0.99491947523E+03  0.99491947525E+03  0.50400001928E-02 0. -1.
    10030    2    1    2    0    0  0.00000000000E+00  0.00000000000E+00  0.21715702755E+03  0.22069959780E+04  0.21962864277E+04 0.  0.
        5    1    3    3  502    0 -0.95103187316E+03  0.22936590589E+02  0.65980483684E+03  0.11577358177E+04  0.46999998093E+01 0.  1.
       -5    1    3    3    0  502  0.95103187316E+03 -0.22936590589E+02 -0.44264780929E+03  0.10492601603E+04  0.46999998093E+01 0. -1.
</event>
<event>
 5   0  0.1015876E-05  0.2209308E+04  0.7818609E-02  0.8514564E-01
        2   -1    0    0  501    0  0.00000000000E+00  0.00000000000E+00  0.11790173232E+04  0.11790173232E+04  0.25500000920E-02 0. -1.
       -2   -1    0    0    0  501  0.00000000000E+00  0.00000000000E+00 -0.10349805034E+04  0.10349805034E+04  0.25500000920E-02 0.  1.
    10030    2    1    2    0    0  0.00000000000E+00  0.00000000000E+00  0.14403681977E+03  0.22139978266E+04  0.22093075320E+04 0.  0.
        5    1    3    3  502    0 -0.83453947375E+03  0.66543714874E+03 -0.21314698267E+03  0.10884468101E+04  0.46999998093E+01 0.  1.
       -5    1    3    3    0  502  0.83453947375E+03 -0.66543714874E+03  0.35718380243E+03  0.11255510166E+04  0.46999998093E+01 0. -1.
</event>
<event>
 5   0  0.1015876E-05  0.2200255E+04  0.7818609E-02  0.8518322E-01
        2   -1    0    0  501    0  0.00000000000E+00  0.00000000000E+00  0.16050439375E+04  0.16050439375E+04  0.25500000920E-02 0.  1.
       -2   -1    0    0    0  501  0.00000000000E+00  0.00000000000E+00 -0.75404794111E+03  0.75404794112E+03  0.25500000920E-02 0. -1.
    10030    2    1    2    0    0  0.00000000000E+00  0.00000000000E+00  0.85099599643E+03  0.23590918787E+04  0.22002546003E+04 0.  0.
        5    1    3    3  502    0  0.85698812702E+02  0.10047201616E+04  0.89708031980E+03  0.13496599867E+04  0.46999998093E+01 0.  1.
       -5    1    3    3    0  502 -0.85698812702E+02 -0.10047201616E+04 -0.46084323373E+02  0.10094318919E+04  0.46999998093E+01 0. -1.
</event>
<event>
 5   0  0.1015876E-05  0.2196862E+04  0.7818609E-02  0.8519735E-01
        2   -1    0    0  501    0  0.00000000000E+00  0.00000000000E+00  0.15274540131E+04  0.15274540131E+04  0.25500000920E-02 0. -1.
       -2   -1    0    0    0  501  0.00000000000E+00  0.00000000000E+00 -0.78990937980E+03  0.78990937980E+03  0.25500000920E-02 0.  1.
    10030    2    1    2    0    0  0.00000000000E+00  0.00000000000E+00  0.73754463334E+03  0.23173633929E+04  0.21968616271E+04 0.  0.
        5    1    3    3  502    0 -0.39790091425E+03  0.37538687755E+03  0.13735360589E+04  0.14784667195E+04  0.46999998093E+01 0. -1.
       -5    1    3    3    0  502  0.39790091425E+03 -0.37538687755E+03 -0.63599142557E+03  0.83889667349E+03  0.46999998093E+01 0.  1.
</event>
<event>
 5   0  0.4408787E-06  0.2192967E+04  0.7818609E-02  0.8521361E-01
       -1   -1    0    0    0  501  0.00000000000E+00  0.00000000000E+00  0.69675069416E+03  0.69675069418E+03  0.50400001928E-02 0. -1.
        1   -1    0    0  501    0  0.00000000000E+00  0.00000000000E+00 -0.17255467299E+04  0.17255467299E+04  0.50400001928E-02 0.  1.
    10030    2    1    2    0    0  0.00000000000E+00  0.00000000000E+00 -0.10287960358E+04  0.24222974241E+04  0.21929668323E+04 0.  0.
        1    1    3    3  502    0  0.77460387128E+03  0.10267572581E+03  0.33528006598E+03  0.85027418210E+03  0.50400001928E-02 0. -1.
       -1    1    3    3    0  502 -0.77460387128E+03 -0.10267572581E+03 -0.13640761017E+04  0.15720232420E+04  0.50400001928E-02 0.  1.
</event>
<event>
 5   0  0.9963173E-06  0.2204753E+04  0.7818609E-02  0.8516452E-01
        2   -1    0    0  501    0  0.00000000000E+00  0.00000000000E+00  0.21898873080E+04  0.21898873080E+04  0.25500000920E-02 0.  1.
       -2   -1    0    0    0  501  0.00000000000E+00  0.00000000000E+00 -0.55492997834E+03  0.55492997835E+03  0.25500000920E-02 0. -1.
    10030    2    1    2    0    0  0.00000000000E+00  0.00000000000E+00  0.16349573297E+04  0.27448172864E+04  0.22047531530E+04 0.  0.
        4    1    3    3  502    0 -0.18857923627E+03  0.10845272244E+04  0.89082618721E+03  0.14160982796E+04  0.12699999809E+01 0. -1.
       -4    1    3    3    0  502  0.18857923627E+03 -0.10845272244E+04  0.74413114246E+03  0.13287190067E+04  0.12699999809E+01 0.  1.
</event>
<event>
 5   0  0.4408787E-06  0.2199298E+04  0.7818609E-02  0.8518721E-01
        1   -1    0    0  501    0  0.00000000000E+00  0.00000000000E+00  0.16287687776E+04  0.16287687776E+04  0.50400001928E-02 0.  1.
       -1   -1    0    0    0  501  0.00000000000E+00  0.00000000000E+00 -0.74241809831E+03  0.74241809833E+03  0.50400001928E-02 0. -1.
    10030    2    1    2    0    0  0.00000000000E+00  0.00000000000E+00  0.88635067929E+03  0.23711868759E+04  0.21992975410E+04 0.  0.
        1    1    3    3  502    0 -0.10892971277E+04 -0.12537881033E+03  0.53298868578E+03  0.12191657056E+04  0.50400001928E-02 0.  1.
       -1    1    3    3    0  502  0.10892971277E+04  0.12537881033E+03  0.35336199351E+03  0.11520211704E+04  0.50400001928E-02 0. -1.
</event>
<event>
 5   0  0.4408787E-06  0.2202702E+04  0.7818609E-02  0.8517304E-01
       -1   -1    0    0    0  501  0.00000000000E+00  0.00000000000E+00  0.75620983342E+03  0.75620983344E+03  0.50400001928E-02 0.  1.
        1   -1    0    0  501    0  0.00000000000E+00  0.00000000000E+00 -0.16040176891E+04  0.16040176891E+04  0.50400001928E-02 0. -1.
    10030    2    1    2    0    0  0.00000000000E+00  0.00000000000E+00 -0.84780785569E+03  0.23602275226E+04  0.22027019313E+04 0.  0.
        1    1    3    3  502    0 -0.96864405008E+03  0.13505922498E+03 -0.96654087638E+03  0.13750322017E+04  0.50400001928E-02 0.  1.
       -1    1    3    3    0  502  0.96864405008E+03 -0.13505922498E+03  0.11873302069E+03  0.98519532085E+03  0.50400001928E-02 0. -1.
</event>
<event>
 5   0  0.4630615E-06  0.2201357E+04  0.7818609E-02  0.8517863E-01
       -1   -1    0    0    0  501  0.00000000000E+00  0.00000000000E+00  0.19027222597E+04  0.19027222597E+04  0.50400001928E-02 0. -1.
        1   -1    0    0  501    0  0.00000000000E+00  0.00000000000E+00 -0.63671583077E+03  0.63671583079E+03  0.50400001928E-02 0.  1.
    10030    2    1    2    0    0  0.00000000000E+00  0.00000000000E+00  0.12660064290E+04  0.25394380905E+04  0.22013572035E+04 0.  0.
        2    1    3    3  502    0 -0.46729026670E+03 -0.50140732481E+03 -0.36049763504E+03  0.77442110224E+03  0.25500000920E-02 0.  1.
       -2    1    3    3    0  502  0.46729026670E+03  0.50140732481E+03  0.16265040640E+04  0.17650169883E+04  0.25500000920E-02 0. -1.
</event>
<event>
 5   0  0.9963173E-06  0.2200168E+04  0.7818609E-02  0.8518358E-01
        2   -1    0    0  501    0  0.00000000000E+00  0.00000000000E+00  0.14905244036E+04  0.14905244036E+04  0.25500000920E-02 0.  1.
       -2   -1    0    0    0  501  0.00000000000E+00  0.00000000000E+00 -0.81191879386E+03  0.81191879386E+03  0.25500000920E-02 0. -1.
    10030    2    1    2    0    0  0.00000000000E+00  0.00000000000E+00  0.67860560971E+03  0.23024431974E+04  0.22001679717E+04 0.  0.
        4    1    3    3  502    0  0.43896787969E+03 -0.72983771489E+03  0.10679656208E+04  0.13659824558E+04  0.12699999809E+01 0.  1.
       -4    1    3    3    0  502 -0.43896787969E+03  0.72983771489E+03 -0.38936001109E+03  0.93646074162E+03  0.12699999809E+01 0. -1.
</event>
<event>
 5   0  0.4309945E-06  0.2199960E+04  0.7818609E-02  0.8518445E-01
        1   -1    0    0  501    0  0.00000000000E+00  0.00000000000E+00  0.14657275006E+04  0.14657275006E+04  0.50400001928E-02 0.  1.
       -1   -1    0    0    0  501  0.00000000000E+00  0.00000000000E+00 -0.82549829911E+03  0.82549829913E+03  0.50400001928E-02 0. -1.
    10030    2    1    2    0    0  0.00000000000E+00  0.00000000000E+00  0.64022920151E+03  0.22912257998E+04  0.21999595985E+04 0.  0.
        4    1    3    3  502    0 -0.23581463162E+03 -0.56135157562E+03  0.12742140335E+04  0.14122135632E+04  0.12699999809E+01 0.  1.
       -4    1    3    3    0  502  0.23581463162E+03  0.56135157562E+03 -0.63398483201E+03  0.87901223657E+03  0.12699999809E+01 0. -1.
</event>
<event>
 5   0  0.4462201E-06  0.2202139E+04  0.7818609E-02  0.8517538E-01
        1   -1    0    0  501    0  0.00000000000E+00  0.00000000000E+00  0.24183862226E+04  0.24183862226E+04  0.50400001928E-02 0. -1.
       -1   -1    0    0    0  501  0.00000000000E+00  0.00000000000E+00 -0.50130695992E+03  0.50130695995E+03  0.50400001928E-02 0.  1.
    10030    2    1    2    0    0  0.00000000000E+00  0.00000000000E+00  0.19170792627E+04  0.29196931826E+04  0.22021388196E+04 0.  0.
        3    1    3    3  502    0 -0.19313752051E+03  0.46057633155E+03 -0.34249210876E+03  0.60558526549E+03  0.10100000352E+00 0.  1.
       -3    1    3    3    0  502  0.19313752051E+03 -0.46057633155E+03  0.22595713715E+04  0.23141079171E+04  0.10100000352E+00 0. -1.
</event>
<event>
 5   0  0.1014015E-05  0.2192355E+04  0.7818609E-02  0.8521617E-01
        2   -1    0    0  501    0  0.00000000000E+00  0.00000000000E+00  0.13492137091E+04  0.13492137091E+04  0.25500000920E-02 0.  1.
       -2   -1    0    0    0  501  0.00000000000E+00  0.00000000000E+00 -0.89059698087E+03  0.89059698088E+03  0.25500000920E-02 0. -1.
    10030    2    1    2    0    0  0.00000000000E+00  0.00000000000E+00  0.45861672827E+03  0.22398106900E+04  0.21923554967E+04 0.  0.
        1    1    3    3  502    0 -0.58781447041E+03  0.89582377812E+03  0.46579135991E+03  0.11683268738E+04  0.50400001928E-02 0.  1.
       -1    1    3    3    0  502  0.58781447041E+03 -0.89582377812E+03 -0.71746316402E+01  0.10714838162E+04  0.50400001928E-02 0. -1.
</event>
<event>
 5   0  0.1015876E-05  0.2202032E+04  0.7818609E-02  0.8517583E-01
       -2   -1    0    0    0  501  0.00000000000E+00  0.00000000000E+00  0.29816760938E+04  0.29816760938E+04  0.25500000920E-02 0.  1.
        2   -1    0    0  501    0  0.00000000000E+00  0.00000000000E+00 -0.40656216733E+03  0.40656216734E+03  0.25500000920E-02 0. -1.
    10030    2    1    2    0    0  0.00000000000E+00  0.00000000000E+00  0.25751139265E+04  0.33882382612E+04  0.22020324203E+04 0.  0.
        5    1    3    3  502    0 -0.61284416860E+03  0.28308494945E+03  0.26258603227E+04  0.27112505579E+04  0.46999998093E+01 0.  1.
       -5    1    3    3    0  502  0.61284416860E+03 -0.28308494945E+03 -0.50746396197E+02  0.67698770323E+03  0.46999998093E+01 0. -1.
</event>
<event>
 5   0  0.4309945E-06  0.2203517E+04  0.7818609E-02  0.8516966E-01
        1   -1    0    0  501    0  0.00000000000E+00  0.00000000000E+00  0.16797138034E+04  0.16797138035E+04  0.50400001928E-02 0. -1.
       -1   -1    0    0    0  501  0.00000000000E+00  0.00000000000E+00 -0.72266598490E+03  0.72266598491E+03  0.50400001928E-02 0.  1.
    10030    2    1    2    0    0  0.00000000000E+00  0.00000000000E+00  0.95704781855E+03  0.24023797884E+04  0.22035172159E+04 0.  0.
        4    1    3    3  502    0  0.24613959718E+03  0.53957485934E+03  0.14908380317E+04  0.16044704359E+04  0.12699999809E+01 0. -1.
       -4    1    3    3    0  502 -0.24613959718E+03 -0.53957485934E+03 -0.53379021315E+03  0.79790935243E+03  0.12699999809E+01 0.  1.
</event>
<event>
 5   0  0.9963173E-06  0.2165663E+04  0.7818609E-02  0.8532857E-01
       -2   -1    0    0    0  501  0.00000000000E+00  0.00000000000E+00  0.12017518519E+04  0.12017518519E+04  0.25500000920E-02 0.  1.
        2   -1    0    0  501    0  0.00000000000E+00  0.00000000000E+00 -0.97567914584E+03  0.97567914584E+03  0.25500000920E-02 0. -1.
    10030    2    1    2    0    0  0.00000000000E+00  0.00000000000E+00  0.22607270608E+03  0.21774309978E+04  0.21656631505E+04 0.  0.
        4    1    3    3  502    0 -0.80696293494E+03  0.39011883321E+03 -0.49783459982E+03  0.10252915605E+04  0.12699999809E+01 0. -1.
       -4    1    3    3    0  502  0.80696293494E+03 -0.39011883321E+03  0.72390730590E+03  0.11521394372E+04  0.12699999809E+01 0.  1.
</event>
<event>
 5   0  0.9963573E-06  0.2203489E+04  0.7818609E-02  0.8516977E-01
       -2   -1    0    0    0  501  0.00000000000E+00  0.00000000000E+00  0.12567707444E+04  0.12567707444E+04  0.25500000920E-02 0. -1.
        2   -1    0    0  501    0  0.00000000000E+00  0.00000000000E+00 -0.96584099679E+03  0.96584099679E+03  0.25500000920E-02 0.  1.
    10030    2    1    2    0    0  0.00000000000E+00  0.00000000000E+00  0.29092974764E+03  0.22226117412E+04  0.22034887869E+04 0.  0.
        2    1    3    3  502    0 -0.45507035383E+02  0.51266286507E+03 -0.83712808481E+03  0.98268893037E+03  0.25500000920E-02 0.  1.
       -2    1    3    3    0  502  0.45507035383E+02 -0.51266286507E+03  0.11280578325E+04  0.12399228108E+04  0.25500000920E-02 0. -1.
</event>
<event>
 5   0  0.4408787E-06  0.2197387E+04  0.7818609E-02  0.8519517E-01
       -1   -1    0    0    0  501  0.00000000000E+00  0.00000000000E+00  0.70360825326E+03  0.70360825328E+03  0.50400001928E-02 0. -1.
        1   -1    0    0  501    0  0.00000000000E+00  0.00000000000E+00 -0.17156236988E+04  0.17156236988E+04  0.50400001928E-02 0.  1.
    10030    2    1    2    0    0  0.00000000000E+00  0.00000000000E+00 -0.10120154455E+04  0.24192319521E+04  0.21973866241E+04 0.  0.
        1    1    3    3  502    0  0.55211621338E+02 -0.58496004518E+02 -0.17123776200E+04  0.17142657960E+04  0.50400001928E-02 0.  1.
       -1    1    3    3    0  502 -0.55211621338E+02  0.58496004518E+02  0.70036217452E+03  0.70496615607E+03  0.50400001928E-02 0. -1.
</event>
<event>
 5   0  0.9963573E-06  0.2199933E+04  0.7818609E-02  0.8518456E-01
       -2   -1    0    0    0  501  0.00000000000E+00  0.00000000000E+00  0.91362007715E+03  0.91362007716E+03  0.25500000920E-02 0. -1.
        2   -1    0    0  501    0  0.00000000000E+00  0.00000000000E+00 -0.13243210222E+04  0.13243210222E+04  0.25500000920E-02 0.  1.
    10030    2    1    2    0    0  0.00000000000E+00  0.00000000000E+00 -0.41070094505E+03  0.22379410994E+04  0.21999329758E+04 0.  0.
        2    1    3    3  502    0 -0.52817622951E+02 -0.27330377233E+03 -0.12878983527E+04  0.13176368316E+04  0.25500000920E-02 0.  1.
       -2    1    3    3    0  502  0.52817622951E+02  0.27330377233E+03  0.87719740762E+03  0.92030426773E+03  0.25500000920E-02 0. -1.
</event>
<event>
 5   0  0.4630615E-06  0.2193729E+04  0.7818609E-02  0.8521043E-01
        1   -1    0    0  501    0  0.00000000000E+00  0.00000000000E+00  0.17226560615E+04  0.17226560615E+04  0.50400001928E-02 0.  1.
       -1   -1    0    0    0  501  0.00000000000E+00  0.00000000000E+00 -0.69840513525E+03  0.69840513527E+03  0.50400001928E-02 0. -1.
    10030    2    1    2    0    0  0.00000000000E+00  0.00000000000E+00  0.10242509262E+04  0.24210611968E+04  0.21937290987E+04 0.  0.
        2    1    3    3  502    0 -0.87969643041E+03 -0.61442833344E+03  0.26112865094E+03  0.11043442212E+04  0.25500000920E-02 0. -1.
       -2    1    3    3    0  502  0.87969643041E+03  0.61442833344E+03  0.76312227530E+03  0.13167169755E+04  0.25500000920E-02 0.  1.
</event>
<event>
 5   0  0.4309945E-06  0.2199362E+04  0.7818609E-02  0.8518694E-01
       -1   -1    0    0    0  501  0.00000000000E+00  0.00000000000E+00  0.13180882426E+04  0.13180882426E+04  0.50400001928E-02 0. -1.
        1   -1    0    0  501    0  0.00000000000E+00  0.00000000000E+00 -0.91746417401E+03  0.91746417402E+03  0.50400001928E-02 0.  1.
    10030    2    1    2    0    0  0.00000000000E+00  0.00000000000E+00  0.40062406863E+03  0.22355524167E+04  0.21993623993E+04 0.  0.
        4    1    3    3  502    0 -0.95985402322E+03  0.51591592417E+03  0.50206264290E+02  0.10908763764E+04  0.12699999809E+01 0.  1.
       -4    1    3    3    0  502  0.95985402322E+03 -0.51591592417E+03  0.35041780434E+03  0.11446760403E+04  0.12699999809E+01 0. -1.
</event>
<event>
 5   0  0.1014015E-05  0.2200643E+04  0.7818609E-02  0.8518160E-01
        2   -1    0    0  501    0  0.00000000000E+00  0.00000000000E+00  0.94599724256E+03  0.94599724257E+03  0.25500000920E-02 0. -1.
       -2   -1    0    0    0  501  0.00000000000E+00  0.00000000000E+00 -0.12798218414E+04  0.12798218414E+04  0.25500000920E-02 0.  1.
    10030    2    1    2    0    0  0.00000000000E+00  0.00000000000E+00 -0.33382459879E+03  0.22258190839E+04  0.22006434813E+04 0.  0.
        1    1    3    3  502    0 -0.99535766610E+03  0.12829270472E+03 -0.62319627465E+03  0.11813422444E+04  0.50400001928E-02 0.  1.
       -1    1    3    3    0  502  0.99535766610E+03 -0.12829270472E+03  0.28937167586E+03  0.10444768396E+04  0.50400001928E-02 0. -1.
</event>
<event>
 5   0  0.9963573E-06  0.2201710E+04  0.7818609E-02  0.8517717E-01
        2   -1    0    0  501    0  0.00000000000E+00  0.00000000000E+00  0.91455410217E+03  0.91455410217E+03  0.25500000920E-02 0. -1.
       -2   -1    0    0    0  501  0.00000000000E+00  0.00000000000E+00 -0.13251064370E+04  0.13251064370E+04  0.25500000920E-02 0.  1.
    10030    2    1    2    0    0  0.00000000000E+00  0.00000000000E+00 -0.41055233478E+03  0.22396605391E+04  0.22017098153E+04 0.  0.
        2    1    3    3  502    0  0.35626710172E+03  0.90539814667E+03 -0.72913785581E+03  0.12158593934E+04  0.25500000920E-02 0.  1.
       -2    1    3    3    0  502 -0.35626710172E+03 -0.90539814667E+03  0.31858552103E+03  0.10238011457E+04  0.25500000920E-02 0. -1.
</event>
<event>
 5   0  0.4408787E-06  0.2196867E+04  0.7818609E-02  0.8519733E-01
       -1   -1    0    0    0  501  0.00000000000E+00  0.00000000000E+00  0.51641945323E+03  0.51641945325E+03  0.50400001928E-02 0.  1.
        1   -1    0    0  501    0  0.00000000000E+00  0.00000000000E+00 -0.23363871258E+04  0.23363871258E+04  0.50400001928E-02 0. -1.
    10030    2    1    2    0    0  0.00000000000E+00  0.00000000000E+00 -0.18199676726E+04  0.28528065791E+04  0.21968666433E+04 0.  0.
        1    1    3    3  502    0 -0.47087904872E+03  0.61872396646E+03  0.97574605790E+02  0.78362441827E+03  0.50400001928E-02 0.  1.
       -1    1    3    3    0  502  0.47087904872E+03 -0.61872396646E+03 -0.19175422784E+04  0.20691821608E+04  0.50400001928E-02 0. -1.
</event>
<event>
 5   0  0.4630615E-06  0.2215381E+04  0.7818609E-02  0.8512053E-01
       -1   -1    0    0    0  501  0.00000000000E+00  0.00000000000E+00  0.85811948326E+03  0.85811948327E+03  0.50400001928E-02 0. -1.
        1   -1    0    0  501    0  0.00000000000E+00  0.00000000000E+00 -0.14298455850E+04  0.14298455850E+04  0.50400001928E-02 0.  1.
    10030    2    1    2    0    0  0.00000000000E+00  0.00000000000E+00 -0.57172610171E+03  0.22879650682E+04  0.22153811000E+04 0.  0.
        2    1    3    3  502    0  0.31878942021E+03 -0.10164770048E+04  0.27604380523E+02  0.10656520058E+04  0.25500000920E-02 0. -1.
       -2    1    3    3    0  502 -0.31878942021E+03  0.10164770048E+04 -0.59933048223E+03  0.12223130624E+04  0.25500000920E-02 0.  1.
</event>
<event>
 5   0  0.1014015E-05  0.2198884E+04  0.7818609E-02  0.8518893E-01
       -2   -1    0    0    0  501  0.00000000000E+00  0.00000000000E+00  0.98242710096E+03  0.98242710097E+03  0.25500000920E-02 0.  1.
        2   -1    0    0  501    0  0.00000000000E+00  0.00000000000E+00 -0.12303945282E+04  0.12303945282E+04  0.25500000920E-02 0. -1.
    10030    2    1    2    0    0  0.00000000000E+00  0.00000000000E+00 -0.24796742722E+03  0.22128216292E+04  0.21988841983E+04 0.  0.
        1    1    3    3  502    0 -0.61256144969E+03  0.64984668024E+02 -0.10404251093E+04  0.12091066723E+04  0.50400001928E-02 0. -1.
       -1    1    3    3    0  502  0.61256144969E+03 -0.64984668024E+02  0.79245768212E+03  0.10037149569E+04  0.50400001928E-02 0.  1.
</event>
<event>
 5   0  0.4630615E-06  0.2193672E+04  0.7818609E-02  0.8521066E-01
       -1   -1    0    0    0  501  0.00000000000E+00  0.00000000000E+00  0.99259638135E+03  0.99259638136E+03  0.50400001928E-02 0.  1.
        1   -1    0    0  501    0  0.00000000000E+00  0.00000000000E+00 -0.12120227667E+04  0.12120227667E+04  0.50400001928E-02 0. -1.
    10030    2    1    2    0    0  0.00000000000E+00  0.00000000000E+00 -0.21942638530E+03  0.22046191480E+04  0.21936721836E+04 0.  0.
        2    1    3    3  502    0  0.14374938726E+03  0.77758256227E+03 -0.87360553499E+03  0.11783400011E+04  0.25500000920E-02 0. -1.
       -2    1    3    3    0  502 -0.14374938726E+03 -0.77758256227E+03  0.65417914968E+03  0.10262791469E+04  0.25500000920E-02 0.  1.
</event>
<event>
 5   0  0.4462201E-06  0.2196728E+04  0.7818609E-02  0.8519791E-01
        1   -1    0    0  501    0  0.00000000000E+00  0.00000000000E+00  0.11204984213E+04  0.11204984213E+04  0.50400001928E-02 0. -1.
       -1   -1    0    0    0  501  0.00000000000E+00  0.00000000000E+00 -0.10766668400E+04  0.10766668400E+04  0.50400001928E-02 0.  1.
    10030    2    1    2    0    0  0.00000000000E+00  0.00000000000E+00  0.43831581224E+02  0.21971652613E+04  0.21967280164E+04 0.  0.
        3    1    3    3  502    0  0.67032115497E+02 -0.50335639330E+03 -0.95220954093E+03  0.10791496575E+04  0.10100000352E+00 0.  1.
       -3    1    3    3    0  502 -0.67032115497E+02  0.50335639330E+03  0.99604112215E+03  0.11180156038E+04  0.10100000352E+00 0. -1.
</event>
<event>
 5   0  0.9963173E-06  0.2200355E+04  0.7818609E-02  0.8518281E-01
       -2   -1    0    0    0  501  0.00000000000E+00  0.00000000000E+00  0.12886263966E+04  0.12886263966E+04  0.25500000920E-02 0.  1.
        2   -1    0    0  501    0  0.00000000000E+00  0.00000000000E+00 -0.93928699600E+03  0.93928699601E+03  0.25500000920E-02 0. -1.
    10030    2    1    2    0    0  0.00000000000E+00  0.00000000000E+00  0.34933940064E+03  0.22279133926E+04  0.22003545324E+04 0.  0.
        4    1    3    3  502    0  0.56297888023E+03  0.56759191985E+03 -0.59062928791E+03  0.99395692850E+03  0.12699999809E+01 0. -1.
       -4    1    3    3    0  502 -0.56297888023E+03 -0.56759191985E+03  0.93996868855E+03  0.12339564642E+04  0.12699999809E+01 0.  1.
</event>
<event>
 5   0  0.9963173E-06  0.2199057E+04  0.7818609E-02  0.8518821E-01
       -2   -1    0    0    0  501  0.00000000000E+00  0.00000000000E+00  0.10974918648E+04  0.10974918648E+04  0.25500000920E-02 0. -1.
        2   -1    0    0  501    0  0.00000000000E+00  0.00000000000E+00 -0.11015690312E+04  0.11015690312E+04  0.25500000920E-02 0.  1.
    10030    2    1    2    0    0  0.00000000000E+00  0.00000000000E+00 -0.40771663948E+01  0.21990608960E+04  0.21990571164E+04 0.  0.
        4    1    3    3  502    0  0.80218589751E+03  0.39880577831E+03 -0.63954510980E+03  0.11007124163E+04  0.12699999809E+01 0.  1.
       -4    1    3    3    0  502 -0.80218589751E+03 -0.39880577831E+03  0.63546794341E+03  0.10983484798E+04  0.12699999809E+01 0. -1.
</event>
<event>
 5   0  0.9963173E-06  0.2198072E+04  0.7818609E-02  0.8519231E-01
        2   -1    0    0  501    0  0.00000000000E+00  0.00000000000E+00  0.12080754072E+04  0.12080754073E+04  0.25500000920E-02 0. -1.
       -2   -1    0    0    0  501  0.00000000000E+00  0.00000000000E+00 -0.99983878716E+03  0.99983878717E+03  0.25500000920E-02 0.  1.
    10030    2    1    2    0    0  0.00000000000E+00  0.00000000000E+00  0.20823662009E+03  0.22079141944E+04  0.21980724738E+04 0.  0.
        4    1    3    3  502    0  0.45538176507E+03 -0.53474786842E+03 -0.74497781908E+03  0.10238756753E+04  0.12699999809E+01 0.  1.
       -4    1    3    3    0  502 -0.45538176507E+03  0.53474786842E+03  0.95321443916E+03  0.11840385191E+04  0.12699999809E+01 0. -1.
</event>
<event>
 5   0  0.1035928E-05  0.2155831E+04  0.7818609E-02  0.8537040E-01
       -2   -1    0    0    0  501  0.00000000000E+00  0.00000000000E+00  0.98109480983E+03  0.98109480983E+03  0.25500000920E-02 0. -1.
        2   -1    0    0  501    0  0.00000000000E+00  0.00000000000E+00 -0.11842909076E+04  0.11842909076E+04  0.25500000920E-02 0.  1.
    10030    2    1    2    0    0  0.00000000000E+00  0.00000000000E+00 -0.20319609782E+03  0.21653857175E+04  0.21558308494E+04 0.  0.
        3    1    3    3  502    0  0.19524677376E+03  0.82082716941E+03 -0.77540888812E+03  0.11459221172E+04  0.10100000352E+00 0. -1.
       -3    1    3    3    0  502 -0.19524677376E+03 -0.82082716941E+03  0.57221279030E+03  0.10194636003E+04  0.10100000352E+00 0.  1.
</event>
<event>
 5   0  0.4408787E-06  0.2196073E+04  0.7818609E-02  0.8520064E-01
       -1   -1    0    0    0  501  0.00000000000E+00  0.00000000000E+00  0.44820391369E+03  0.44820391372E+03  0.50400001928E-02 0. -1.
        1   -1    0    0  501    0  0.00000000000E+00  0.00000000000E+00 -0.26900345393E+04  0.26900345393E+04  0.50400001928E-02 0.  1.
    10030    2    1    2    0    0  0.00000000000E+00  0.00000000000E+00 -0.22418306256E+04  0.31382384530E+04  0.21960728663E+04 0.  0.
        1    1    3    3  502    0  0.82652534092E+03  0.69633653507E+03 -0.84361379591E+03  0.13710262382E+04  0.50400001928E-02 0.  1.
       -1    1    3    3    0  502 -0.82652534092E+03 -0.69633653507E+03 -0.13982168297E+04  0.17672122148E+04  0.50400001928E-02 0. -1.
</event>
<event>
 5   0  0.9963573E-06  0.2199823E+04  0.7818609E-02  0.8518502E-01
        2   -1    0    0  501    0  0.00000000000E+00  0.00000000000E+00  0.24781267820E+04  0.24781267820E+04  0.25500000920E-02 0.  1.
       -2   -1    0    0    0  501  0.00000000000E+00  0.00000000000E+00 -0.48819359625E+03  0.48819359625E+03  0.25500000920E-02 0. -1.
    10030    2    1    2    0    0  0.00000000000E+00  0.00000000000E+00  0.19899331858E+04  0.29663203783E+04  0.21998232890E+04 0.  0.
        2    1    3    3  502    0 -0.22663532588E+03 -0.40995314668E+03 -0.34696783216E+03  0.58293381269E+03  0.25500000920E-02 0. -1.
       -2    1    3    3    0  502  0.22663532588E+03  0.40995314668E+03  0.23369010180E+04  0.23833865656E+04  0.25500000920E-02 0.  1.
</event>
<event>
 5   0  0.1014015E-05  0.2198494E+04  0.7818609E-02  0.8519055E-01
        2   -1    0    0  501    0  0.00000000000E+00  0.00000000000E+00  0.20788254774E+04  0.20788254774E+04  0.25500000920E-02 0. -1.
       -2   -1    0    0    0  501  0.00000000000E+00  0.00000000000E+00 -0.58126270935E+03  0.58126270936E+03  0.25500000920E-02 0.  1.
    10030    2    1    2    0    0  0.00000000000E+00  0.00000000000E+00  0.14975627681E+04  0.26600881868E+04  0.21984937837E+04 0.  0.
        1    1    3    3  502    0  0.16083220576E+03 -0.10216006745E+04  0.11995765820E+04  0.15838304558E+04  0.50400001928E-02 0. -1.
       -1    1    3    3    0  502 -0.16083220576E+03  0.10216006745E+04  0.29798618605E+03  0.10762577310E+04  0.50400001928E-02 0.  1.
</event>
<event>
 5   0  0.4630615E-06  0.2200071E+04  0.7818609E-02  0.8518398E-01
       -1   -1    0    0    0  501  0.00000000000E+00  0.00000000000E+00  0.94287643727E+03  0.94287643728E+03  0.50400001928E-02 0. -1.
        1   -1    0    0  501    0  0.00000000000E+00  0.00000000000E+00 -0.12833900731E+04  0.12833900731E+04  0.50400001928E-02 0.  1.
    10030    2    1    2    0    0  0.00000000000E+00  0.00000000000E+00 -0.34051363580E+03  0.22262665104E+04  0.22000711441E+04 0.  0.
        2    1    3    3  502    0 -0.13424603537E+02 -0.66422964190E+03  0.71693602130E+03  0.97743465040E+03  0.25500000920E-02 0. -1.
       -2    1    3    3    0  502  0.13424603537E+02  0.66422964190E+03 -0.10574496571E+04  0.12488318600E+04  0.25500000920E-02 0.  1.
</event>
<event>
 5   0  0.4630615E-06  0.2202540E+04  0.7818609E-02  0.8517372E-01
       -1   -1    0    0    0  501  0.00000000000E+00  0.00000000000E+00  0.18893826462E+04  0.18893826462E+04  0.50400001928E-02 0.  1.
        1   -1    0    0  501    0  0.00000000000E+00  0.00000000000E+00 -0.64190042780E+03  0.64190042782E+03  0.50400001928E-02 0. -1.
    10030    2    1    2    0    0  0.00000000000E+00  0.00000000000E+00  0.12474822184E+04  0.25312830740E+04  0.22025399237E+04 0.  0.
        2    1    3    3  502    0 -0.50737271058E+03  0.44202080105E+03 -0.37814820065E+03  0.77188439398E+03  0.25500000920E-02 0. -1.
       -2    1    3    3    0  502  0.50737271058E+03 -0.44202080105E+03  0.16256304190E+04  0.17593986800E+04  0.25500000920E-02 0.  1.
</event>
<event>
 5   0  0.9963173E-06  0.2203045E+04  0.7818609E-02  0.8517162E-01
        2   -1    0    0  501    0  0.00000000000E+00  0.00000000000E+00  0.17906552599E+04  0.17906552599E+04  0.25500000920E-02 0. -1.
       -2   -1    0    0    0  501  0.00000000000E+00  0.00000000000E+00 -0.67760236345E+03  0.67760236346E+03  0.25500000920E-02 0.  1.
    10030    2    1    2    0    0  0.00000000000E+00  0.00000000000E+00  0.11130528965E+04  0.24682576234E+04  0.22030453797E+04 0.  0.
        4    1    3    3  502    0 -0.50295859263E+03  0.72242088744E+03  0.12984301768E+04  0.15686879299E+04  0.12699999809E+01 0. -1.
       -4    1    3    3    0  502  0.50295859263E+03 -0.72242088744E+03 -0.18537728030E+03  0.89956969350E+03  0.12699999809E+01 0.  1.
</event>
<event>
 5   0  0.9963173E-06  0.2197322E+04  0.7818609E-02  0.8519544E-01
        2   -1    0    0  501    0  0.00000000000E+00  0.00000000000E+00  0.95383315379E+03  0.95383315380E+03  0.25500000920E-02 0. -1.
       -2   -1    0    0    0  501  0.00000000000E+00  0.00000000000E+00 -0.12654793351E+04  0.12654793351E+04  0.25500000920E-02 0.  1.
    10030    2    1    2    0    0  0.00000000000E+00  0.00000000000E+00 -0.31164618133E+03  0.22193124889E+04  0.21973221387E+04 0.  0.
        4    1    3    3  502    0 -0.39899576098E+03 -0.66361469690E+02  0.87589533412E+03  0.96477754491E+03  0.12699999809E+01 0. -1.
       -4    1    3    3    0  502  0.39899576098E+03  0.66361469690E+02 -0.11875415154E+04  0.12545349440E+04  0.12699999809E+01 0.  1.
</event>
<event>
 5   0  0.9963173E-06  0.2209825E+04  0.7818609E-02  0.8514350E-01
        2   -1    0    0  501    0  0.00000000000E+00  0.00000000000E+00  0.15934655741E+04  0.15934655741E+04  0.25500000920E-02 0.  1.
       -2   -1    0    0    0  501  0.00000000000E+00  0.00000000000E+00 -0.76614887225E+03  0.76614887225E+03  0.25500000920E-02 0. -1.
    10030    2    1    2    0    0  0.00000000000E+00  0.00000000000E+00  0.82731670182E+03  0.23596144463E+04  0.22098251990E+04 0.  0.
        4    1    3    3  502    0  0.38949463493E+03  0.75790341884E+03  0.11646878001E+04  0.14431295671E+04  0.12699999809E+01 0.  1.
       -4    1    3    3    0  502 -0.38949463493E+03 -0.75790341884E+03 -0.33737109828E+03  0.91648487919E+03  0.12699999809E+01 0. -1.
</event>
<event>
 5   0  0.4462201E-06  0.2201120E+04  0.7818609E-02  0.8517962E-01
       -1   -1    0    0    0  501  0.00000000000E+00  0.00000000000E+00  0.64502925935E+03  0.64502925937E+03  0.50400001928E-02 0.  1.
        1   -1    0    0  501    0  0.00000000000E+00  0.00000000000E+00 -0.18777950115E+04  0.18777950116E+04  0.50400001928E-02 0. -1.
    10030    2    1    2    0    0  0.00000000000E+00  0.00000000000E+00 -0.12327657522E+04  0.25228242709E+04  0.22011203743E+04 0.  0.
        3    1    3    3  502    0  0.44876369180E+03  0.36842630540E+03 -0.16879644518E+04  0.17850352361E+04  0.10100000352E+00 0. -1.
       -3    1    3    3    0  502 -0.44876369180E+03 -0.36842630540E+03  0.45519869957E+03  0.73778903480E+03  0.10100000352E+00 0.  1.
</event>
<event>
 5   0  0.4462201E-06  0.2195727E+04  0.7818609E-02  0.8520209E-01
       -1   -1    0    0    0  501  0.00000000000E+00  0.00000000000E+00  0.10145099717E+04  0.10145099717E+04  0.50400001928E-02 0.  1.
        1   -1    0    0  501    0  0.00000000000E+00  0.00000000000E+00 -0.11880657752E+04  0.11880657752E+04  0.50400001928E-02 0. -1.
    10030    2    1    2    0    0  0.00000000000E+00  0.00000000000E+00 -0.17355580352E+03  0.22025757469E+04  0.21957272836E+04 0.  0.
        3    1    3    3  502    0 -0.85484283895E+02 -0.92502338976E+03  0.50013563964E+03  0.10550409957E+04  0.10100000352E+00 0.  1.
       -3    1    3    3    0  502  0.85484283895E+02  0.92502338976E+03 -0.67369144317E+03  0.11475347512E+04  0.10100000352E+00 0. -1.
</event>
<event>
 5   0  0.9963573E-06  0.2201470E+04  0.7818609E-02  0.8517816E-01
        2   -1    0    0  501    0  0.00000000000E+00  0.00000000000E+00  0.16761436506E+04  0.16761436506E+04  0.25500000920E-02 0. -1.
       -2   -1    0    0    0  501  0.00000000000E+00  0.00000000000E+00 -0.72286051375E+03  0.72286051376E+03  0.25500000920E-02 0.  1.
    10030    2    1    2    0    0  0.00000000000E+00  0.00000000000E+00  0.95328313683E+03  0.23990041643E+04  0.22014704726E+04 0.  0.
        2    1    3    3  502    0 -0.25421844581E+03  0.26568055910E+03  0.16072337207E+04  0.16487611745E+04  0.25500000920E-02 0. -1.
       -2    1    3    3    0  502  0.25421844581E+03 -0.26568055910E+03 -0.65395058385E+03  0.75024298983E+03  0.25500000920E-02 0.  1.
</event>
<event>
 5   0  0.4630615E-06  0.2196958E+04  0.7818609E-02  0.8519695E-01
        1   -1    0    0  501    0  0.00000000000E+00  0.00000000000E+00  0.13562471262E+04  0.13562471262E+04  0.50400001928E-02 0.  1.
       -1   -1    0    0    0  501  0.00000000000E+00  0.00000000000E+00 -0.88970208104E+03  0.88970208106E+03  0.50400001928E-02 0. -1.
    10030    2    1    2    0    0  0.00000000000E+00  0.00000000000E+00  0.46654504519E+03  0.22459492073E+04  0.21969577972E+04 0.  0.
        2    1    3    3  502    0 -0.60901258769E+03 -0.16473684296E+03  0.11525588754E+04  0.13139355086E+04  0.25500000920E-02 0.  1.
       -2    1    3    3    0  502  0.60901258769E+03  0.16473684296E+03 -0.68601383021E+03  0.93201369874E+03  0.25500000920E-02 0. -1.
</event>
<event>
 5   0  0.4630615E-06  0.2200361E+04  0.7818609E-02  0.8518278E-01
        1   -1    0    0  501    0  0.00000000000E+00  0.00000000000E+00  0.11682655592E+04  0.11682655593E+04  0.50400001928E-02 0.  1.
       -1   -1    0    0    0  501  0.00000000000E+00  0.00000000000E+00 -0.10360636638E+04  0.10360636638E+04  0.50400001928E-02 0. -1.
    10030    2    1    2    0    0  0.00000000000E+00  0.00000000000E+00  0.13220189546E+03  0.22043292231E+04  0.22003613300E+04 0.  0.
        2    1    3    3  502    0  0.59451333183E+03 -0.50293112611E+03 -0.71248241889E+03  0.10554700453E+04  0.25500000920E-02 0. -1.
       -2    1    3    3    0  502 -0.59451333183E+03  0.50293112611E+03  0.84468431435E+03  0.11488591777E+04  0.25500000920E-02 0.  1.
</event>
<event>
 5   0  0.4408787E-06  0.2198365E+04  0.7818609E-02  0.8519109E-01
       -1   -1    0    0    0  501  0.00000000000E+00  0.00000000000E+00  0.67027214473E+03  0.67027214475E+03  0.50400001928E-02 0. -1.
        1   -1    0    0  501    0  0.00000000000E+00  0.00000000000E+00 -0.18025549577E+04  0.18025549577E+04  0.50400001928E-02 0.  1.
    10030    2    1    2    0    0  0.00000000000E+00  0.00000000000E+00 -0.11322828130E+04  0.24728271024E+04  0.21983651903E+04 0.  0.
        1    1    3    3  502    0 -0.19238353208E+03 -0.16551659509E+03  0.63686530494E+03  0.68556880277E+03  0.50400001928E-02 0. -1.
       -1    1    3    3    0  502  0.19238353208E+03  0.16551659509E+03 -0.17691481179E+04  0.17872582997E+04  0.50400001928E-02 0.  1.
</event>
<event>
 5   0  0.9963573E-06  0.2198488E+04  0.7818609E-02  0.8519058E-01
        2   -1    0    0  501    0  0.00000000000E+00  0.00000000000E+00  0.11346805790E+04  0.11346805790E+04  0.25500000920E-02 0. -1.
       -2   -1    0    0    0  501  0.00000000000E+00  0.00000000000E+00 -0.10649137533E+04  0.10649137533E+04  0.25500000920E-02 0.  1.
    10030    2    1    2    0    0  0.00000000000E+00  0.00000000000E+00  0.69766825657E+02  0.21995943323E+04  0.21984876204E+04 0.  0.
        2    1    3    3  502    0 -0.94148717505E+03 -0.10193088999E+03  0.59333009033E+03  0.11175100014E+04  0.25500000920E-02 0. -1.
       -2    1    3    3    0  502  0.94148717505E+03  0.10193088999E+03 -0.52356326467E+03  0.10820843309E+04  0.25500000920E-02 0.  1.
</event>
<event>
 5   0  0.9963173E-06  0.2200061E+04  0.7818609E-02  0.8518403E-01
       -2   -1    0    0    0  501  0.00000000000E+00  0.00000000000E+00  0.12151512581E+04  0.12151512581E+04  0.25500000920E-02 0. -1.
        2   -1    0    0  501    0  0.00000000000E+00  0.00000000000E+00 -0.99581576221E+03  0.99581576221E+03  0.25500000920E-02 0.  1.
    10030    2    1    2    0    0  0.00000000000E+00  0.00000000000E+00  0.21933549593E+03  0.22109670204E+04  0.22000607049E+04 0.  0.
        4    1    3    3  502    0  0.82947435078E+03 -0.66571274777E+03 -0.17255174482E+03  0.10774863705E+04  0.12699999809E+01 0.  1.
       -4    1    3    3    0  502 -0.82947435078E+03  0.66571274777E+03  0.39188724075E+03  0.11334806498E+04  0.12699999809E+01 0. -1.
</event>
<event>
 5   0  0.4408787E-06  0.2202818E+04  0.7818609E-02  0.8517256E-01
        1   -1    0    0  501    0  0.00000000000E+00  0.00000000000E+00  0.19346342177E+04  0.19346342177E+04  0.50400001928E-02 0. -1.
       -1   -1    0    0    0  501  0.00000000000E+00  0.00000000000E+00 -0.62704468920E+03  0.62704468922E+03  0.50400001928E-02 0.  1.
    10030    2    1    2    0    0  0.00000000000E+00  0.00000000000E+00  0.13075895285E+04  0.25616789070E+04  0.22028182965E+04 0.  0.
        1    1    3    3  502    0  0.10227960820E+04  0.31857236525E+03  0.35616724772E+03  0.11289177497E+04  0.50400001928E-02 0.  1.
       -1    1    3    3    0  502 -0.10227960820E+04 -0.31857236525E+03  0.95142228080E+03  0.14327611572E+04  0.50400001928E-02 0. -1.
</event>
<event>
 5   0  0.1014015E-05  0.2188226E+04  0.7818609E-02  0.8523345E-01
       -2   -1    0    0    0  501  0.00000000000E+00  0.00000000000E+00  0.56303852300E+03  0.56303852300E+03  0.25500000920E-02 0.  1.
        2   -1    0    0  501    0  0.00000000000E+00  0.00000000000E+00 -0.21261124306E+04  0.21261124306E+04  0.25500000920E-02 0. -1.
    10030    2    1    2    0    0  0.00000000000E+00  0.00000000000E+00 -0.15630739076E+04  0.26891509536E+04  0.21882259505E+04 0.  0.
        1    1    3    3  502    0  0.88608963016E+03 -0.53529449453E+03 -0.34637461051E+03  0.10916365693E+04  0.50400001928E-02 0.  1.
       -1    1    3    3    0  502 -0.88608963016E+03  0.53529449453E+03 -0.12166992971E+04  0.15975143843E+04  0.50400001928E-02 0. -1.
</event>
<event>
 5   0  0.4630615E-06  0.2210542E+04  0.7818609E-02  0.8514053E-01
       -1   -1    0    0    0  501  0.00000000000E+00  0.00000000000E+00  0.74240244559E+03  0.74240244561E+03  0.50400001928E-02 0.  1.
        1   -1    0    0  501    0  0.00000000000E+00  0.00000000000E+00 -0.16455016148E+04  0.16455016148E+04  0.50400001928E-02 0. -1.
    10030    2    1    2    0    0  0.00000000000E+00  0.00000000000E+00 -0.90309916919E+03  0.23879040604E+04  0.22105423978E+04 0.  0.
        2    1    3    3  502    0  0.36771056288E+02 -0.66344018198E+03 -0.14056598631E+04  0.15547940816E+04  0.25500000920E-02 0. -1.
       -2    1    3    3    0  502 -0.36771056288E+02  0.66344018198E+03  0.50256069389E+03  0.83310997875E+03  0.25500000920E-02 0.  1.
</event>
<event>
 5   0  0.4408787E-06  0.2201954E+04  0.7818609E-02  0.8517615E-01
       -1   -1    0    0    0  501  0.00000000000E+00  0.00000000000E+00  0.84624331099E+03  0.84624331100E+03  0.50400001928E-02 0.  1.
        1   -1    0    0  501    0  0.00000000000E+00  0.00000000000E+00 -0.14323897721E+04  0.14323897721E+04  0.50400001928E-02 0. -1.
    10030    2    1    2    0    0  0.00000000000E+00  0.00000000000E+00 -0.58614646115E+03  0.22786330831E+04  0.22019539173E+04 0.  0.
        1    1    3    3  502    0  0.42431475441E+03  0.10148047054E+04 -0.24367559340E+03  0.11266096909E+04  0.50400001928E-02 0.  1.
       -1    1    3    3    0  502 -0.42431475441E+03 -0.10148047054E+04 -0.34247086775E+03  0.11520233922E+04  0.50400001928E-02 0. -1.
</event>
<event>
 5   0  0.4408787E-06  0.2201021E+04  0.7818609E-02  0.8518003E-01
       -1   -1    0    0    0  501  0.00000000000E+00  0.00000000000E+00  0.77010810537E+03  0.77010810539E+03  0.50400001928E-02 0. -1.
        1   -1    0    0  501    0  0.00000000000E+00  0.00000000000E+00 -0.15726667979E+04  0.15726667979E+04  0.50400001928E-02 0.  1.
    10030    2    1    2    0    0  0.00000000000E+00  0.00000000000E+00 -0.80255869256E+03  0.23427749033E+04  0.22010210796E+04 0.  0.
        1    1    3    3  502    0 -0.17174084317E+03  0.21937381667E+03  0.73195003107E+03  0.78317982396E+03  0.50400001928E-02 0. -1.
       -1    1    3    3    0  502  0.17174084317E+03 -0.21937381667E+03 -0.15345087236E+04  0.15595950794E+04  0.50400001928E-02 0.  1.
</event>
<event>
 5   0  0.4408787E-06  0.2243868E+04  0.7818609E-02  0.8500388E-01
        1   -1    0    0  501    0  0.00000000000E+00  0.00000000000E+00  0.23443922995E+04  0.23443922995E+04  0.50400001928E-02 0.  1.
       -1   -1    0    0    0  501  0.00000000000E+00  0.00000000000E+00 -0.53691359619E+03  0.53691359622E+03  0.50400001928E-02 0. -1.
    10030    2    1    2    0    0  0.00000000000E+00  0.00000000000E+00  0.18074787033E+04  0.28813058957E+04  0.22438681783E+04 0.  0.
        1    1    3    3  502    0 -0.30199668522E+03 -0.26640011631E+03  0.22483892836E+04  0.22841684243E+04  0.50400001928E-02 0.  1.
       -1    1    3    3    0  502  0.30199668522E+03  0.26640011631E+03 -0.44091058034E+03  0.59713747139E+03  0.50400001928E-02 0. -1.
</event>
<event>
 5   0  0.4408787E-06  0.2199577E+04  0.7818609E-02  0.8518604E-01
       -1   -1    0    0    0  501  0.00000000000E+00  0.00000000000E+00  0.19688844613E+04  0.19688844613E+04  0.50400001928E-02 0. -1.
        1   -1    0    0  501    0  0.00000000000E+00  0.00000000000E+00 -0.61432462750E+03  0.61432462752E+03  0.50400001928E-02 0.  1.
    10030    2    1    2    0    0  0.00000000000E+00  0.00000000000E+00  0.13545598338E+04  0.25832090889E+04  0.21995765168E+04 0.  0.
        1    1    3    3  502    0  0.77518836995E+03  0.76733588840E+03  0.51197192955E+03  0.12049218361E+04  0.50400001928E-02 0.  1.
       -1    1    3    3    0  502 -0.77518836995E+03 -0.76733588840E+03  0.84258790429E+03  0.13782872527E+04  0.50400001928E-02 0. -1.
</event>
<event>
 5   0  0.4630615E-06  0.2195915E+04  0.7818609E-02  0.8520130E-01
       -1   -1    0    0    0  501  0.00000000000E+00  0.00000000000E+00  0.12747935734E+04  0.12747935735E+04  0.50400001928E-02 0. -1.
        1   -1    0    0  501    0  0.00000000000E+00  0.00000000000E+00 -0.94565160974E+03  0.94565160976E+03  0.50400001928E-02 0.  1.
    10030    2    1    2    0    0  0.00000000000E+00  0.00000000000E+00  0.32914196370E+03  0.22204451832E+04  0.21959149299E+04 0.  0.
        2    1    3    3  502    0  0.51199616637E+03 -0.21832932256E+03  0.11215590372E+04  0.12520792473E+04  0.25500000920E-02 0. -1.
       -2    1    3    3    0  502 -0.51199616637E+03  0.21832932256E+03 -0.79241707352E+03  0.96836593594E+03  0.25500000920E-02 0.  1.
</event>
<event>
 5   0  0.4309945E-06  0.2200020E+04  0.7818609E-02  0.8518420E-01
        1   -1    0    0  501    0  0.00000000000E+00  0.00000000000E+00  0.13854320497E+04  0.13854320497E+04  0.50400001928E-02 0. -1.
       -1   -1    0    0    0  501  0.00000000000E+00  0.00000000000E+00 -0.87338970245E+03  0.87338970247E+03  0.50400001928E-02 0.  1.
    10030    2    1    2    0    0  0.00000000000E+00  0.00000000000E+00  0.51204234722E+03  0.22588217522E+04  0.22000200778E+04 0.  0.
        4    1    3    3  502    0  0.41621462477E+03 -0.48159829214E+03  0.11771333137E+04  0.13382137273E+04  0.12699999809E+01 0. -1.
       -4    1    3    3    0  502 -0.41621462477E+03  0.48159829214E+03 -0.66509096646E+03  0.92060802485E+03  0.12699999809E+01 0.  1.
</event>
<event>
 5   0  0.9963573E-06  0.2203848E+04  0.7818609E-02  0.8516828E-01
        2   -1    0    0  501    0  0.00000000000E+00  0.00000000000E+00  0.19094967110E+04  0.19094967110E+04  0.25500000920E-02 0. -1.
       -2   -1    0    0    0  501  0.00000000000E+00  0.00000000000E+00 -0.63589324560E+03  0.63589324560E+03  0.25500000920E-02 0.  1.
    10030    2    1    2    0    0  0.00000000000E+00  0.00000000000E+00  0.12736034654E+04  0.25453899566E+04  0.22038476000E+04 0.  0.
        2    1    3    3  502    0 -0.19307359906E+03 -0.56188614164E+03  0.17086554574E+04  0.18090044010E+04  0.25500000920E-02 0. -1.
       -2    1    3    3    0  502  0.19307359906E+03  0.56188614164E+03 -0.43505199195E+03  0.73638555562E+03  0.25500000920E-02 0.  1.
</event>
<event>
 5   0  0.4630615E-06  0.2201834E+04  0.7818609E-02  0.8517665E-01
       -1   -1    0    0    0  501  0.00000000000E+00  0.00000000000E+00  0.77788228984E+03  0.77788228986E+03  0.50400001928E-02 0.  1.
        1   -1    0    0  501    0  0.00000000000E+00  0.00000000000E+00 -0.15581004995E+04  0.15581004996E+04  0.50400001928E-02 0. -1.
    10030    2    1    2    0    0  0.00000000000E+00  0.00000000000E+00 -0.78021820971E+03  0.23359827894E+04  0.22018344937E+04 0.  0.
        2    1    3    3  502    0  0.42593608827E+03  0.72036359838E+03  0.36878545293E+03  0.91452062604E+03  0.25500000920E-02 0.  1.
       -2    1    3    3    0  502 -0.42593608827E+03 -0.72036359838E+03 -0.11490036626E+04  0.14214621634E+04  0.25500000920E-02 0. -1.
</event>
<event>
 5   0  0.4794967E-06  0.2200118E+04  0.7818609E-02  0.8518379E-01
       -1   -1    0    0    0  501  0.00000000000E+00  0.00000000000E+00  0.15256874509E+04  0.15256874509E+04  0.50400001928E-02 0. -1.
        1   -1    0    0  501    0  0.00000000000E+00  0.00000000000E+00 -0.79317047080E+03  0.79317047082E+03  0.50400001928E-02 0.  1.
    10030    2    1    2    0    0  0.00000000000E+00  0.00000000000E+00  0.73251698012E+03  0.23188579217E+04  0.22001183912E+04 0.  0.
        5    1    3    3  502    0  0.24659407085E+03  0.40879339644E+03 -0.67828200754E+03  0.82946322915E+03  0.46999998093E+01 0.  1.
       -5    1    3    3    0  502 -0.24659407085E+03 -0.40879339644E+03  0.14107989877E+04  0.14893946926E+04  0.46999998093E+01 0. -1.
</event>
<event>
 5   0  0.1014015E-05  0.2186349E+04  0.7818609E-02  0.8524131E-01
       -2   -1    0    0    0  501  0.00000000000E+00  0.00000000000E+00  0.88643928266E+03  0.88643928267E+03  0.25500000920E-02 0.  1.
        2   -1    0    0  501    0  0.00000000000E+00  0.00000000000E+00 -0.13481248576E+04  0.13481248576E+04  0.25500000920E-02 0. -1.
    10030    2    1    2    0    0  0.00000000000E+00  0.00000000000E+00 -0.46168557495E+03  0.22345641403E+04  0.21863493149E+04 0.  0.
        1    1    3    3  502    0  0.13855780746E+03 -0.73881316323E+03 -0.10420640047E+04  0.12848893128E+04  0.50400001928E-02 0. -1.
       -1    1    3    3    0  502 -0.13855780746E+03  0.73881316323E+03  0.58037842978E+03  0.94967482748E+03  0.50400001928E-02 0.  1.
</event>
<event>
 5   0  0.1014015E-05  0.2200404E+04  0.7818609E-02  0.8518260E-01
        2   -1    0    0  501    0  0.00000000000E+00  0.00000000000E+00  0.11641545210E+04  0.11641545210E+04  0.25500000920E-02 0. -1.
       -2   -1    0    0    0  501  0.00000000000E+00  0.00000000000E+00 -0.10397625243E+04  0.10397625243E+04  0.25500000920E-02 0.  1.
    10030    2    1    2    0    0  0.00000000000E+00  0.00000000000E+00  0.12439199665E+03  0.22039170453E+04  0.22004038206E+04 0.  0.
        1    1    3    3  502    0 -0.40545428765E+03  0.66948104189E+03  0.83663566523E+03  0.11456689230E+04  0.50400001928E-02 0. -1.
       -1    1    3    3    0  502  0.40545428765E+03 -0.66948104189E+03 -0.71224366858E+03  0.10582481223E+04  0.50400001928E-02 0.  1.
</event>
<event>
 5   0  0.9963573E-06  0.2202248E+04  0.7818609E-02  0.8517493E-01
       -2   -1    0    0    0  501  0.00000000000E+00  0.00000000000E+00  0.10230051265E+04  0.10230051265E+04  0.25500000920E-02 0. -1.
        2   -1    0    0  501    0  0.00000000000E+00  0.00000000000E+00 -0.11852080289E+04  0.11852080289E+04  0.25500000920E-02 0.  1.
    10030    2    1    2    0    0  0.00000000000E+00  0.00000000000E+00 -0.16220290241E+03  0.22082131554E+04  0.22022478421E+04 0.  0.
        2    1    3    3  502    0  0.68341994594E+03 -0.49374148543E+03  0.62907575505E+03  0.10519409596E+04  0.25500000920E-02 0. -1.
       -2    1    3    3    0  502 -0.68341994594E+03  0.49374148543E+03 -0.79127865746E+03  0.11562721958E+04  0.25500000920E-02 0.  1.
</event>
<event>
 5   0  0.1015876E-05  0.2200051E+04  0.7818609E-02  0.8518407E-01
       -2   -1    0    0    0  501  0.00000000000E+00  0.00000000000E+00  0.10329136826E+04  0.10329136826E+04  0.25500000920E-02 0.  1.
        2   -1    0    0  501    0  0.00000000000E+00  0.00000000000E+00 -0.11714980898E+04  0.11714980898E+04  0.25500000920E-02 0. -1.
    10030    2    1    2    0    0  0.00000000000E+00  0.00000000000E+00 -0.13858440719E+03  0.22044117723E+04  0.22000512776E+04 0.  0.
        5    1    3    3  502    0 -0.77805100461E+03  0.19571549857E+03  0.68477257584E+03  0.10548002146E+04  0.46999998093E+01 0.  1.
       -5    1    3    3    0  502  0.77805100461E+03 -0.19571549857E+03 -0.82335698302E+03  0.11496115577E+04  0.46999998093E+01 0. -1.
</event>
<event>
 5   0  0.4309945E-06  0.2207154E+04  0.7818609E-02  0.8515456E-01
       -1   -1    0    0    0  501  0.00000000000E+00  0.00000000000E+00  0.10600183141E+04  0.10600183141E+04  0.50400001928E-02 0. -1.
        1   -1    0    0  501    0  0.00000000000E+00  0.00000000000E+00 -0.11489253447E+04  0.11489253447E+04  0.50400001928E-02 0.  1.
    10030    2    1    2    0    0  0.00000000000E+00  0.00000000000E+00 -0.88907030540E+02  0.22089436588E+04  0.22071537391E+04 0.  0.
        4    1    3    3  502    0 -0.67712952242E+03 -0.85036036600E+03  0.14612977848E+03  0.10968011065E+04  0.12699999809E+01 0.  1.
       -4    1    3    3    0  502  0.67712952242E+03  0.85036036600E+03 -0.23503680902E+03  0.11121425523E+04  0.12699999809E+01 0. -1.
</event>
<event>
 5   0  0.1014015E-05  0.2201192E+04  0.7818609E-02  0.8517932E-01
        2   -1    0    0  501    0  0.00000000000E+00  0.00000000000E+00  0.93497575476E+03  0.93497575476E+03  0.25500000920E-02 0.  1.
       -2   -1    0    0    0  501  0.00000000000E+00  0.00000000000E+00 -0.12955535531E+04  0.12955535531E+04  0.25500000920E-02 0. -1.
    10030    2    1    2    0    0  0.00000000000E+00  0.00000000000E+00 -0.36057779832E+03  0.22305293078E+04  0.22011916419E+04 0.  0.
        1    1    3    3  502    0 -0.31046859469E+03  0.98208851901E+03  0.21272377628E+03  0.10517319109E+04  0.50400001928E-02 0.  1.
       -1    1    3    3    0  502  0.31046859469E+03 -0.98208851901E+03 -0.57330157460E+03  0.11787973969E+04  0.50400001928E-02 0. -1.
</event>
<event>
 5   0  0.4408787E-06  0.2199373E+04  0.7818609E-02  0.8518689E-01
        1   -1    0    0  501    0  0.00000000000E+00  0.00000000000E+00  0.14665843898E+04  0.14665843898E+04  0.50400001928E-02 0. -1.
       -1   -1    0    0    0  501  0.00000000000E+00  0.00000000000E+00 -0.82457614109E+03  0.82457614111E+03  0.50400001928E-02 0.  1.
    10030    2    1    2    0    0  0.00000000000E+00  0.00000000000E+00  0.64200824871E+03  0.22911605309E+04  0.21993730896E+04 0.  0.
        1    1    3    3  502    0  0.26016020668E+03  0.67806885218E+03  0.11812071574E+04  0.13866185669E+04  0.50400001928E-02 0. -1.
       -1    1    3    3    0  502 -0.26016020668E+03 -0.67806885218E+03 -0.53919890870E+03  0.90454196398E+03  0.50400001928E-02 0.  1.
</event>
<event>
 5   0  0.4630615E-06  0.2201626E+04  0.7818609E-02  0.8517752E-01
       -1   -1    0    0    0  501  0.00000000000E+00  0.00000000000E+00  0.37988844941E+03  0.37988844944E+03  0.50400001928E-02 0. -1.
        1   -1    0    0  501    0  0.00000000000E+00  0.00000000000E+00 -0.31898541429E+04  0.31898541429E+04  0.50400001928E-02 0.  1.
    10030    2    1    2    0    0  0.00000000000E+00  0.00000000000E+00 -0.28099656935E+04  0.35697425923E+04  0.22016255306E+04 0.  0.
        2    1    3    3  502    0 -0.31030479612E+03  0.35923245782E+03 -0.30153739599E+04  0.30525099743E+04  0.25500000920E-02 0.  1.
       -2    1    3    3    0  502  0.31030479612E+03 -0.35923245782E+03  0.20540826640E+03  0.51723261803E+03  0.25500000920E-02 0. -1.
</event>
<event>
 5   0  0.4408787E-06  0.2195769E+04  0.7818609E-02  0.8520191E-01
        1   -1    0    0  501    0  0.00000000000E+00  0.00000000000E+00  0.16510257849E+04  0.16510257849E+04  0.50400001928E-02 0.  1.
       -1   -1    0    0    0  501  0.00000000000E+00  0.00000000000E+00 -0.73006177994E+03  0.73006177996E+03  0.50400001928E-02 0. -1.
    10030    2    1    2    0    0  0.00000000000E+00  0.00000000000E+00  0.92096400494E+03  0.23810875648E+04  0.21957694080E+04 0.  0.
        1    1    3    3  502    0 -0.77093700456E+03  0.76560766121E+03  0.63143162659E+03  0.12566641775E+04  0.50400001928E-02 0.  1.
       -1    1    3    3    0  502  0.77093700456E+03 -0.76560766121E+03  0.28953237835E+03  0.11244233874E+04  0.50400001928E-02 0. -1.
</event>
<event>
 5   0  0.4794967E-06  0.2203383E+04  0.7818609E-02  0.8517021E-01
        1   -1    0    0  501    0  0.00000000000E+00  0.00000000000E+00  0.94393123570E+03  0.94393123571E+03  0.50400001928E-02 0.  1.
       -1   -1    0    0    0  501  0.00000000000E+00  0.00000000000E+00 -0.12858181239E+04  0.12858181239E+04  0.50400001928E-02 0. -1.
    10030    2    1    2    0    0  0.00000000000E+00  0.00000000000E+00 -0.34188688820E+03  0.22297493596E+04  0.22033827544E+04 0.  0.
        5    1    3    3  502    0  0.58645231688E+03  0.83089567494E+03 -0.59955376439E+03  0.11805933885E+04  0.46999998093E+01 0. -1.
       -5    1    3    3    0  502 -0.58645231688E+03 -0.83089567494E+03  0.25766687619E+03  0.10491559711E+04  0.46999998093E+01 0.  1.
</event>
<event>
 5   0  0.4630615E-06  0.2200086E+04  0.7818609E-02  0.8518393E-01
       -1   -1    0    0    0  501  0.00000000000E+00  0.00000000000E+00  0.53136008945E+03  0.53136008948E+03  0.50400001928E-02 0.  1.
        1   -1    0    0  501    0  0.00000000000E+00  0.00000000000E+00 -0.22773522287E+04  0.22773522287E+04  0.50400001928E-02 0. -1.
    10030    2    1    2    0    0  0.00000000000E+00  0.00000000000E+00 -0.17459921393E+04  0.28087123182E+04  0.22000855293E+04 0.  0.
        2    1    3    3  502    0 -0.96746206250E+02 -0.81294721599E+03  0.65007911254E+02  0.82126063643E+03  0.25500000920E-02 0.  1.
       -2    1    3    3    0  502  0.96746206250E+02  0.81294721599E+03 -0.18110000505E+04  0.19874516818E+04  0.25500000920E-02 0. -1.
</event>
<event>
 5   0  0.1014015E-05  0.2201790E+04  0.7818609E-02  0.8517684E-01
       -2   -1    0    0    0  501  0.00000000000E+00  0.00000000000E+00  0.11431105640E+04  0.11431105640E+04  0.25500000920E-02 0.  1.
        2   -1    0    0  501    0  0.00000000000E+00  0.00000000000E+00 -0.10602380298E+04  0.10602380298E+04  0.25500000920E-02 0. -1.
    10030    2    1    2    0    0  0.00000000000E+00  0.00000000000E+00  0.82872534183E+02  0.22033485938E+04  0.22017895379E+04 0.  0.
        1    1    3    3  502    0 -0.85227536913E+03  0.60807306276E+03  0.38203463705E+03  0.11144849117E+04  0.50400001928E-02 0.  1.
       -1    1    3    3    0  502  0.85227536913E+03 -0.60807306276E+03 -0.29916210287E+03  0.10888636821E+04  0.50400001928E-02 0. -1.
</event>
<event>
 5   0  0.1035928E-05  0.2202877E+04  0.7818609E-02  0.8517232E-01
       -2   -1    0    0    0  501  0.00000000000E+00  0.00000000000E+00  0.73446972691E+03  0.73446972691E+03  0.25500000920E-02 0.  1.
        2   -1    0    0  501    0  0.00000000000E+00  0.00000000000E+00 -0.16517580335E+04  0.16517580335E+04  0.25500000920E-02 0. -1.
    10030    2    1    2    0    0  0.00000000000E+00  0.00000000000E+00 -0.91728830662E+03  0.23862277604E+04  0.22028765483E+04 0.  0.
        3    1    3    3  502    0  0.46104038488E+03 -0.35317376400E+03 -0.14724227692E+04  0.15828198778E+04  0.10100000352E+00 0. -1.
       -3    1    3    3    0  502 -0.46104038488E+03  0.35317376400E+03  0.55513446262E+03  0.80340788262E+03  0.10100000352E+00 0.  1.
</event>
<event>
 5   0  0.4408787E-06  0.2172355E+04  0.7818609E-02  0.8530023E-01
       -1   -1    0    0    0  501  0.00000000000E+00  0.00000000000E+00  0.95469386033E+03  0.95469386034E+03  0.50400001928E-02 0. -1.
        1   -1    0    0  501    0  0.00000000000E+00  0.00000000000E+00 -0.12357697302E+04  0.12357697303E+04  0.50400001928E-02 0.  1.
    10030    2    1    2    0    0  0.00000000000E+00  0.00000000000E+00 -0.28107586992E+03  0.21904635906E+04  0.21723551959E+04 0.  0.
        1    1    3    3  502    0  0.81543593969E+03  0.22657002671E+03  0.54595441955E+03  0.10071424810E+04  0.50400001928E-02 0. -1.
       -1    1    3    3    0  502 -0.81543593969E+03 -0.22657002671E+03 -0.82703028946E+03  0.11833211096E+04  0.50400001928E-02 0.  1.
</event>
<event>
 5   0  0.4630615E-06  0.2202712E+04  0.7818609E-02  0.8517300E-01
       -1   -1    0    0    0  501  0.00000000000E+00  0.00000000000E+00  0.79102214716E+03  0.79102214718E+03  0.50400001928E-02 0. -1.
        1   -1    0    0  501    0  0.00000000000E+00  0.00000000000E+00 -0.15334405685E+04  0.15334405685E+04  0.50400001928E-02 0.  1.
    10030    2    1    2    0    0  0.00000000000E+00  0.00000000000E+00 -0.74241842130E+03  0.23244627156E+04  0.22027123744E+04 0.  0.
        2    1    3    3  502    0  0.71936156096E+03 -0.72659428344E+03 -0.80318224149E+03  0.13002007619E+04  0.25500000920E-02 0. -1.
       -2    1    3    3    0  502 -0.71936156096E+03  0.72659428344E+03  0.60763820186E+02  0.10242619538E+04  0.25500000920E-02 0.  1.
</event>
<event>
 5   0  0.4408787E-06  0.2201003E+04  0.7818609E-02  0.8518011E-01
        1   -1    0    0  501    0  0.00000000000E+00  0.00000000000E+00  0.10723369863E+04  0.10723369864E+04  0.50400001928E-02 0. -1.
       -1   -1    0    0    0  501  0.00000000000E+00  0.00000000000E+00 -0.11294058504E+04  0.11294058504E+04  0.50400001928E-02 0.  1.
    10030    2    1    2    0    0  0.00000000000E+00  0.00000000000E+00 -0.57068864040E+02  0.22017428368E+04  0.22010031040E+04 0.  0.
        1    1    3    3  502    0  0.34695831146E+03 -0.30192507846E+03  0.97158398161E+03  0.10749484900E+04  0.50400001928E-02 0. -1.
       -1    1    3    3    0  502 -0.34695831146E+03  0.30192507846E+03 -0.10286528457E+04  0.11267943467E+04  0.50400001928E-02 0.  1.
</event>
<event>
 5   0  0.4630615E-06  0.2201329E+04  0.7818609E-02  0.8517875E-01
        1   -1    0    0  501    0  0.00000000000E+00  0.00000000000E+00  0.11570575015E+04  0.11570575015E+04  0.50400001928E-02 0. -1.
       -1   -1    0    0    0  501  0.00000000000E+00  0.00000000000E+00 -0.10470196433E+04  0.10470196433E+04  0.50400001928E-02 0.  1.
    10030    2    1    2    0    0  0.00000000000E+00  0.00000000000E+00  0.11003785822E+03  0.22040771449E+04  0.22013286284E+04 0.  0.
        2    1    3    3  502    0  0.10911801755E+04 -0.68040574071E+01  0.19921771114E+03  0.11092376513E+04  0.25500000920E-02 0.  1.
       -2    1    3    3    0  502 -0.10911801755E+04  0.68040574071E+01 -0.89179852920E+02  0.10948394936E+04  0.25500000920E-02 0. -1.
</event>
<event>
 5   0  0.4462201E-06  0.2200090E+04  0.7818609E-02  0.8518391E-01
       -1   -1    0    0    0  501  0.00000000000E+00  0.00000000000E+00  0.90655044438E+03  0.90655044440E+03  0.50400001928E-02 0. -1.
        1   -1    0    0  501    0  0.00000000000E+00  0.00000000000E+00 -0.13348394852E+04  0.13348394852E+04  0.50400001928E-02 0.  1.
    10030    2    1    2    0    0  0.00000000000E+00  0.00000000000E+00 -0.42828904078E+03  0.22413899296E+04  0.22000902968E+04 0.  0.
        3    1    3    3  502    0 -0.10511401444E+04  0.17902573812E+03  0.61401704824E+02  0.10680430692E+04  0.10100000352E+00 0. -1.
       -3    1    3    3    0  502  0.10511401444E+04 -0.17902573812E+03 -0.48969074561E+03  0.11733468603E+04  0.10100000352E+00 0.  1.
</event>
<event>
 5   0  0.1014015E-05  0.2200874E+04  0.7818609E-02  0.8518064E-01
       -2   -1    0    0    0  501  0.00000000000E+00  0.00000000000E+00  0.68280388354E+03  0.68280388354E+03  0.25500000920E-02 0. -1.
        2   -1    0    0  501    0  0.00000000000E+00  0.00000000000E+00 -0.17735130223E+04  0.17735130223E+04  0.25500000920E-02 0.  1.
    10030    2    1    2    0    0  0.00000000000E+00  0.00000000000E+00 -0.10907091388E+04  0.24563169059E+04  0.22008739893E+04 0.  0.
        1    1    3    3  502    0  0.50231768695E+03 -0.92531142995E+03 -0.18814898929E+03  0.10695439884E+04  0.50400001928E-02 0. -1.
       -1    1    3    3    0  502 -0.50231768695E+03  0.92531142995E+03 -0.90256014950E+03  0.13867729174E+04  0.50400001928E-02 0.  1.
</event>
<event>
 5   0  0.4794967E-06  0.2199488E+04  0.7818609E-02  0.8518641E-01
        1   -1    0    0  501    0  0.00000000000E+00  0.00000000000E+00  0.91098895105E+03  0.91098895107E+03  0.50400001928E-02 0. -1.
       -1   -1    0    0    0  501  0.00000000000E+00  0.00000000000E+00 -0.13276088287E+04  0.13276088287E+04  0.50400001928E-02 0.  1.
    10030    2    1    2    0    0  0.00000000000E+00  0.00000000000E+00 -0.41661987764E+03  0.22385977798E+04  0.21994880989E+04 0.  0.
        5    1    3    3  502    0  0.96979179602E+03 -0.17952495724E+03 -0.70346815642E+03  0.12114515570E+04  0.46999998093E+01 0.  1.
       -5    1    3    3    0  502 -0.96979179602E+03  0.17952495724E+03  0.28684827878E+03  0.10271462228E+04  0.46999998093E+01 0. -1.
</event>
<event>
 5   0  0.9963573E-06  0.2197975E+04  0.7818609E-02  0.8519272E-01
       -2   -1    0    0    0  501  0.00000000000E+00  0.00000000000E+00  0.45006241715E+03  0.45006241715E+03  0.25500000920E-02 0. -1.
        2   -1    0    0  501    0  0.00000000000E+00  0.00000000000E+00 -0.26835680187E+04  0.26835680187E+04  0.25500000920E-02 0.  1.
    10030    2    1    2    0    0  0.00000000000E+00  0.00000000000E+00 -0.22335056016E+04  0.31336304359E+04  0.21979746214E+04 0.  0.
        2    1    3    3  502    0 -0.10350071489E+04  0.68222525443E+02 -0.16344942346E+04  0.19358371611E+04  0.25500000920E-02 0.  1.
       -2    1    3    3    0  502  0.10350071489E+04 -0.68222525443E+02 -0.59901136699E+03  0.11977932748E+04  0.25500000920E-02 0. -1.
</event>
<event>
 5   0  0.4630615E-06  0.2186692E+04  0.7818609E-02  0.8523988E-01
        1   -1    0    0  501    0  0.00000000000E+00  0.00000000000E+00  0.13340694385E+04  0.13340694385E+04  0.50400001928E-02 0. -1.
       -1   -1    0    0    0  501  0.00000000000E+00  0.00000000000E+00 -0.89605963150E+03  0.89605963151E+03  0.50400001928E-02 0.  1.
    10030    2    1    2    0    0  0.00000000000E+00  0.00000000000E+00  0.43800980698E+03  0.22301290700E+04  0.21866922687E+04 0.  0.
        2    1    3    3  502    0 -0.68494171657E+03  0.27935063415E+02 -0.64966570091E+03  0.94445277585E+03  0.25500000920E-02 0.  1.
       -2    1    3    3    0  502  0.68494171657E+03 -0.27935063415E+02  0.10876755079E+04  0.12856762941E+04  0.25500000920E-02 0. -1.
</event>
<event>
 5   0  0.1035928E-05  0.2200397E+04  0.7818609E-02  0.8518263E-01
        2   -1    0    0  501    0  0.00000000000E+00  0.00000000000E+00  0.11051664826E+04  0.11051664826E+04  0.25500000920E-02 0. -1.
       -2   -1    0    0    0  501  0.00000000000E+00  0.00000000000E+00 -0.10952529770E+04  0.10952529770E+04  0.25500000920E-02 0.  1.
    10030    2    1    2    0    0  0.00000000000E+00  0.00000000000E+00  0.99135055914E+01  0.22004194597E+04  0.22003971280E+04 0.  0.
        3    1    3    3  502    0  0.10573991833E+04  0.11829832389E+03 -0.27495561594E+03  0.10989486463E+04  0.10100000352E+00 0.  1.
       -3    1    3    3    0  502 -0.10573991833E+04 -0.11829832389E+03  0.28486912153E+03  0.11014708134E+04  0.10100000352E+00 0. -1.
</event>
<event>
 5   0  0.4408787E-06  0.2202723E+04  0.7818609E-02  0.8517296E-01
        1   -1    0    0  501    0  0.00000000000E+00  0.00000000000E+00  0.88099999391E+03  0.88099999392E+03  0.50400001928E-02 0.  1.
       -1   -1    0    0    0  501  0.00000000000E+00  0.00000000000E+00 -0.13768407104E+04  0.13768407105E+04  0.50400001928E-02 0. -1.
    10030    2    1    2    0    0  0.00000000000E+00  0.00000000000E+00 -0.49584071654E+03  0.22578407044E+04  0.22027225495E+04 0.  0.
        1    1    3    3  502    0  0.45065150444E+03  0.75755242135E+03 -0.92476469810E+03  0.12775610343E+04  0.50400001928E-02 0. -1.
       -1    1    3    3    0  502 -0.45065150444E+03 -0.75755242135E+03  0.42892398156E+03  0.98027967006E+03  0.50400001928E-02 0.  1.
</event>
<event>
 5   0  0.1035928E-05  0.2190962E+04  0.7818609E-02  0.8522200E-01
       -2   -1    0    0    0  501  0.00000000000E+00  0.00000000000E+00  0.99430674414E+03  0.99430674414E+03  0.25500000920E-02 0.  1.
        2   -1    0    0  501    0  0.00000000000E+00  0.00000000000E+00 -0.12069495754E+04  0.12069495754E+04  0.25500000920E-02 0. -1.
    10030    2    1    2    0    0  0.00000000000E+00  0.00000000000E+00 -0.21264283125E+03  0.22012563195E+04  0.21909615265E+04 0.  0.
        3    1    3    3  502    0  0.42760526025E+03  0.95432567754E+03  0.22154664928E+03  0.10689558856E+04  0.10100000352E+00 0.  1.
       -3    1    3    3    0  502 -0.42760526025E+03 -0.95432567754E+03 -0.43418948053E+03  0.11323004339E+04  0.10100000352E+00 0. -1.
</event>
<event>
 5   0  0.4462201E-06  0.2200224E+04  0.7818609E-02  0.8518335E-01
        1   -1    0    0  501    0  0.00000000000E+00  0.00000000000E+00  0.51975424818E+03  0.51975424821E+03  0.50400001928E-02 0.  1.
       -1   -1    0    0    0  501  0.00000000000E+00  0.00000000000E+00 -0.23284970554E+04  0.23284970554E+04  0.50400001928E-02 0. -1.
    10030    2    1    2    0    0  0.00000000000E+00  0.00000000000E+00 -0.18087428072E+04  0.28482513036E+04  0.22002238399E+04 0.  0.
        3    1    3    3  502    0 -0.32108743800E+02 -0.10992855945E+04 -0.86806833897E+03  0.14010718900E+04  0.10100000352E+00 0.  1.
       -3    1    3    3    0  502  0.32108743800E+02  0.10992855945E+04 -0.94067446823E+03  0.14471794136E+04  0.10100000352E+00 0. -1.
</event>
<event>
 5   0  0.4794967E-06  0.2194968E+04  0.7818609E-02  0.8520526E-01
        1   -1    0    0  501    0  0.00000000000E+00  0.00000000000E+00  0.11193948257E+04  0.11193948258E+04  0.50400001928E-02 0.  1.
       -1   -1    0    0    0  501  0.00000000000E+00  0.00000000000E+00 -0.10760017895E+04  0.10760017896E+04  0.50400001928E-02 0. -1.
    10030    2    1    2    0    0  0.00000000000E+00  0.00000000000E+00  0.43393036192E+02  0.21953966153E+04  0.21949677316E+04 0.  0.
        5    1    3    3  502    0 -0.52952745233E+03  0.85082103814E+03 -0.42577550235E+03  0.10888538148E+04  0.46999998093E+01 0. -1.
       -5    1    3    3    0  502  0.52952745233E+03 -0.85082103814E+03  0.46916853854E+03  0.11065428005E+04  0.46999998093E+01 0.  1.
</event>
<event>
 5   0  0.4462201E-06  0.2199530E+04  0.7818609E-02  0.8518624E-01
       -1   -1    0    0    0  501  0.00000000000E+00  0.00000000000E+00  0.11038379301E+04  0.11038379301E+04  0.50400001928E-02 0.  1.
        1   -1    0    0  501    0  0.00000000000E+00  0.00000000000E+00 -0.10957072831E+04  0.10957072831E+04  0.50400001928E-02 0. -1.
    10030    2    1    2    0    0  0.00000000000E+00  0.00000000000E+00  0.81306470357E+01  0.21995452133E+04  0.21995301857E+04 0.  0.
        3    1    3    3  502    0  0.21174706098E+03  0.31062418438E+03 -0.10294595399E+04  0.10959521687E+04  0.10100000352E+00 0. -1.
       -3    1    3    3    0  502 -0.21174706098E+03 -0.31062418438E+03  0.10375901869E+04  0.11035930445E+04  0.10100000352E+00 0.  1.
</event>
<event>
 5   0  0.1015876E-05  0.2185900E+04  0.7818609E-02  0.8524320E-01
       -2   -1    0    0    0  501  0.00000000000E+00  0.00000000000E+00  0.66893317291E+03  0.66893317292E+03  0.25500000920E-02 0. -1.
        2   -1    0    0  501    0  0.00000000000E+00  0.00000000000E+00 -0.17857390291E+04  0.17857390291E+04  0.25500000920E-02 0.  1.
    10030    2    1    2    0    0  0.00000000000E+00  0.00000000000E+00 -0.11168058561E+04  0.24546722020E+04  0.21859003406E+04 0.  0.
        5    1    3    3  502    0 -0.74615290142E+02 -0.10749069005E+04 -0.35278922086E+03  0.11337877273E+04  0.46999998093E+01 0.  1.
       -5    1    3    3    0  502  0.74615290142E+02  0.10749069005E+04 -0.76401663529E+03  0.13208844746E+04  0.46999998093E+01 0. -1.
</event>
<event>
 5   0  0.1014015E-05  0.2199765E+04  0.7818609E-02  0.8518526E-01
       -2   -1    0    0    0  501  0.00000000000E+00  0.00000000000E+00  0.14093762601E+04  0.14093762601E+04  0.25500000920E-02 0.  1.
        2   -1    0    0  501    0  0.00000000000E+00  0.00000000000E+00 -0.85835244215E+03  0.85835244215E+03  0.25500000920E-02 0. -1.
    10030    2    1    2    0    0  0.00000000000E+00  0.00000000000E+00  0.55102381796E+03  0.22677287023E+04  0.21997650373E+04 0.  0.
        1    1    3    3  502    0  0.48273878765E+03 -0.66850493149E+03 -0.47485422914E+03  0.95153671473E+03  0.50400001928E-02 0. -1.
       -1    1    3    3    0  502 -0.48273878765E+03  0.66850493149E+03  0.10258780471E+04  0.13161919875E+04  0.50400001928E-02 0.  1.
</event>
<event>
 5   0  0.1014015E-05  0.2200808E+04  0.7818609E-02  0.8518092E-01
       -2   -1    0    0    0  501  0.00000000000E+00  0.00000000000E+00  0.55342683339E+03  0.55342683340E+03  0.25500000920E-02 0. -1.
        2   -1    0    0  501    0  0.00000000000E+00  0.00000000000E+00 -0.21879837982E+04  0.21879837982E+04  0.25500000920E-02 0.  1.
    10030    2    1    2    0    0  0.00000000000E+00  0.00000000000E+00 -0.16345569648E+04  0.27414106316E+04  0.22008079834E+04 0.  0.
        1    1    3    3  502    0 -0.25069720336E+03  0.10648875552E+03  0.51077287577E+03  0.57885911367E+03  0.50400001928E-02 0. -1.
       -1    1    3    3    0  502  0.25069720336E+03 -0.10648875552E+03 -0.21453298406E+04  0.21625515179E+04  0.50400001928E-02 0.  1.
</event>
<event>
 5   0  0.4630615E-06  0.2205531E+04  0.7818609E-02  0.8516130E-01
       -1   -1    0    0    0  501  0.00000000000E+00  0.00000000000E+00  0.10724823703E+04  0.10724823703E+04  0.50400001928E-02 0. -1.
        1   -1    0    0  501    0  0.00000000000E+00  0.00000000000E+00 -0.11339035538E+04  0.11339035538E+04  0.50400001928E-02 0.  1.
    10030    2    1    2    0    0  0.00000000000E+00  0.00000000000E+00 -0.61421183549E+02  0.22063859241E+04  0.22055308396E+04 0.  0.
        2    1    3    3  502    0  0.23994990425E+03  0.48021164125E+03 -0.99436615113E+03  0.11300191235E+04  0.25500000920E-02 0.  1.
       -2    1    3    3    0  502 -0.23994990425E+03 -0.48021164125E+03  0.93294496758E+03  0.10763668006E+04  0.25500000920E-02 0. -1.
</event>
<event>
 5   0  0.3546750E-06  0.2201423E+04  0.7818609E-02  0.8517836E-01
        4   -1    0    0  501    0  0.00000000000E+00  0.00000000000E+00  0.98732598243E+03  0.98732679923E+03  0.12699999809E+01 0.  1.
       -4   -1    0    0    0  501  0.00000000000E+00  0.00000000000E+00 -0.12271167480E+04  0.12271174052E+04  0.12699999809E+01 0. -1.
    10030    2    1    2    0    0  0.00000000000E+00  0.00000000000E+00 -0.23979076558E+03  0.22144442044E+04  0.22014230678E+04 0.  0.
        3    1    3    3  502    0 -0.26326739707E+03  0.11646621063E+03  0.94878763563E+03  0.99149991846E+03  0.10100000352E+00 0.  1.
       -3    1    3    3    0  502  0.26326739707E+03 -0.11646621063E+03 -0.11885784012E+04  0.12229442860E+04  0.10100000352E+00 0. -1.
</event>
<event>
 5   0  0.9963573E-06  0.2207325E+04  0.7818609E-02  0.8515385E-01
        2   -1    0    0  501    0  0.00000000000E+00  0.00000000000E+00  0.10253727742E+04  0.10253727742E+04  0.25500000920E-02 0.  1.
       -2   -1    0    0    0  501  0.00000000000E+00  0.00000000000E+00 -0.11879299930E+04  0.11879299930E+04  0.25500000920E-02 0. -1.
    10030    2    1    2    0    0  0.00000000000E+00  0.00000000000E+00 -0.16255721875E+03  0.22133027672E+04  0.22073251437E+04 0.  0.
        2    1    3    3  502    0  0.51418175577E+03 -0.55744618679E+03 -0.88528665725E+03  0.11657021895E+04  0.25500000920E-02 0. -1.
       -2    1    3    3    0  502 -0.51418175577E+03  0.55744618679E+03  0.72272943849E+03  0.10476005777E+04  0.25500000920E-02 0.  1.
</event>
<event>
 5   0  0.4794967E-06  0.2198339E+04  0.7818609E-02  0.8519120E-01
        1   -1    0    0  501    0  0.00000000000E+00  0.00000000000E+00  0.20436050628E+04  0.20436050628E+04  0.50400001928E-02 0.  1.
       -1   -1    0    0    0  501  0.00000000000E+00  0.00000000000E+00 -0.59119698410E+03  0.59119698412E+03  0.50400001928E-02 0. -1.
    10030    2    1    2    0    0  0.00000000000E+00  0.00000000000E+00  0.14524080787E+04  0.26348020469E+04  0.21983385998E+04 0.  0.
        5    1    3    3  502    0  0.75278664709E+03  0.43587465416E+03 -0.79120687791E+02  0.87347388250E+03  0.46999998093E+01 0. -1.
       -5    1    3    3    0  502 -0.75278664709E+03 -0.43587465416E+03  0.15315287665E+04  0.17613281644E+04  0.46999998093E+01 0.  1.
</event>
<event>
 5   0  0.4309945E-06  0.2199805E+04  0.7818609E-02  0.8518509E-01
        1   -1    0    0  501    0  0.00000000000E+00  0.00000000000E+00  0.16475249801E+04  0.16475249801E+04  0.50400001928E-02 0. -1.
       -1   -1    0    0    0  501  0.00000000000E+00  0.00000000000E+00 -0.73430457632E+03  0.73430457633E+03  0.50400001928E-02 0.  1.
    10030    2    1    2    0    0  0.00000000000E+00  0.00000000000E+00  0.91322040380E+03  0.23818295565E+04  0.21998046573E+04 0.  0.
        4    1    3    3  502    0 -0.35044069501E+03  0.73073817958E+03 -0.34856014962E+03  0.88220335446E+03  0.12699999809E+01 0.  1.
       -4    1    3    3    0  502  0.35044069501E+03 -0.73073817958E+03  0.12617805534E+04  0.14996262020E+04  0.12699999809E+01 0. -1.
</event>
<event>
 5   0  0.4462201E-06  0.2170749E+04  0.7818609E-02  0.8530702E-01
       -1   -1    0    0    0  501  0.00000000000E+00  0.00000000000E+00  0.92842323381E+03  0.92842323383E+03  0.50400001928E-02 0. -1.
        1   -1    0    0  501    0  0.00000000000E+00  0.00000000000E+00 -0.12688589059E+04  0.12688589059E+04  0.50400001928E-02 0.  1.
    10030    2    1    2    0    0  0.00000000000E+00  0.00000000000E+00 -0.34043567204E+03  0.21972821397E+04  0.21707492611E+04 0.  0.
        3    1    3    3  502    0 -0.10344177255E+04  0.92965394900E+01 -0.50276290747E+03  0.11501639047E+04  0.10100000352E+00 0. -1.
       -3    1    3    3    0  502  0.10344177255E+04 -0.92965394900E+01  0.16232723542E+03  0.10471182350E+04  0.10100000352E+00 0.  1.
</event>
<event>
 5   0  0.4794967E-06  0.2203588E+04  0.7818609E-02  0.8516936E-01
       -1   -1    0    0    0  501  0.00000000000E+00  0.00000000000E+00  0.10125311621E+04  0.10125311621E+04  0.50400001928E-02 0.  1.
        1   -1    0    0  501    0  0.00000000000E+00  0.00000000000E+00 -0.11989259365E+04  0.11989259365E+04  0.50400001928E-02 0. -1.
    10030    2    1    2    0    0  0.00000000000E+00  0.00000000000E+00 -0.18639477440E+03  0.22114570987E+04  0.22035878670E+04 0.  0.
        5    1    3    3  502    0  0.54555241978E+03 -0.22592693410E+03 -0.10267113048E+04  0.11844106618E+04  0.46999998093E+01 0. -1.
       -5    1    3    3    0  502 -0.54555241978E+03  0.22592693410E+03  0.84031653042E+03  0.10270464369E+04  0.46999998093E+01 0.  1.
</event>
<event>
 5   0  0.9963573E-06  0.2193340E+04  0.7818609E-02  0.8521205E-01
       -2   -1    0    0    0  501  0.00000000000E+00  0.00000000000E+00  0.92940577849E+03  0.92940577850E+03  0.25500000920E-02 0.  1.
        2   -1    0    0  501    0  0.00000000000E+00  0.00000000000E+00 -0.12940365184E+04  0.12940365184E+04  0.25500000920E-02 0. -1.
    10030    2    1    2    0    0  0.00000000000E+00  0.00000000000E+00 -0.36463073994E+03  0.22234422969E+04  0.21933399352E+04 0.  0.
        2    1    3    3  502    0  0.19945890625E+03  0.91450078702E+03 -0.76163868611E+03  0.12067265775E+04  0.25500000920E-02 0. -1.
       -2    1    3    3    0  502 -0.19945890625E+03 -0.91450078702E+03  0.39700794617E+03  0.10167157194E+04  0.25500000920E-02 0.  1.
</event>
<event>
 5   0  0.9963573E-06  0.2208228E+04  0.7818609E-02  0.8515011E-01
        2   -1    0    0  501    0  0.00000000000E+00  0.00000000000E+00  0.14221196537E+04  0.14221196537E+04  0.25500000920E-02 0.  1.
       -2   -1    0    0    0  501  0.00000000000E+00  0.00000000000E+00 -0.85721859539E+03  0.85721859540E+03  0.25500000920E-02 0. -1.
    10030    2    1    2    0    0  0.00000000000E+00  0.00000000000E+00  0.56490105834E+03  0.22793382491E+04  0.22082277166E+04 0.  0.
        2    1    3    3  502    0  0.72756037659E+03  0.82970812162E+03  0.31977779567E+03  0.11489201483E+04  0.25500000920E-02 0. -1.
       -2    1    3    3    0  502 -0.72756037659E+03 -0.82970812162E+03  0.24512326268E+03  0.11304181008E+04  0.25500000920E-02 0.  1.
</event>
<event>
 5   0  0.4309945E-06  0.2201280E+04  0.7818609E-02  0.8517895E-01
        1   -1    0    0  501    0  0.00000000000E+00  0.00000000000E+00  0.78675414573E+03  0.78675414575E+03  0.50400001928E-02 0.  1.
       -1   -1    0    0    0  501  0.00000000000E+00  0.00000000000E+00 -0.15397551738E+04  0.15397551738E+04  0.50400001928E-02 0. -1.
    10030    2    1    2    0    0  0.00000000000E+00  0.00000000000E+00 -0.75300102811E+03  0.23265093196E+04  0.22012803242E+04 0.  0.
        4    1    3    3  502    0 -0.28909628375E+03 -0.74302474817E+03  0.42544419280E+03  0.90369619439E+03  0.12699999809E+01 0.  1.
       -4    1    3    3    0  502  0.28909628375E+03  0.74302474817E+03 -0.11784452209E+04  0.14228131252E+04  0.12699999809E+01 0. -1.
</event>
<event>
 5   0  0.4408787E-06  0.2201124E+04  0.7818609E-02  0.8517961E-01
       -1   -1    0    0    0  501  0.00000000000E+00  0.00000000000E+00  0.15706174409E+04  0.15706174409E+04  0.50400001928E-02 0.  1.
        1   -1    0    0  501    0  0.00000000000E+00  0.00000000000E+00 -0.77118480039E+03  0.77118480040E+03  0.50400001928E-02 0. -1.
    10030    2    1    2    0    0  0.00000000000E+00  0.00000000000E+00  0.79943264054E+03  0.23418022413E+04  0.22011236201E+04 0.  0.
        1    1    3    3  502    0 -0.10061105959E+03 -0.29073375925E+03  0.15239385853E+04  0.15546824486E+04  0.50400001928E-02 0.  1.
       -1    1    3    3    0  502  0.10061105959E+03  0.29073375925E+03 -0.72450594479E+03  0.78711979275E+03  0.50400001928E-02 0. -1.
</event>
<event>
 5   0  0.4408787E-06  0.2204093E+04  0.7818609E-02  0.8516727E-01
       -1   -1    0    0    0  501  0.00000000000E+00  0.00000000000E+00  0.76784317972E+03  0.76784317973E+03  0.50400001928E-02 0.  1.
        1   -1    0    0  501    0  0.00000000000E+00  0.00000000000E+00 -0.15817114367E+04  0.15817114367E+04  0.50400001928E-02 0. -1.
    10030    2    1    2    0    0  0.00000000000E+00  0.00000000000E+00 -0.81386825701E+03  0.23495546165E+04  0.22040928647E+04 0.  0.
        1    1    3    3  502    0  0.80409135609E+03 -0.17179322397E+03 -0.11891389527E+04  0.14457272459E+04  0.50400001928E-02 0. -1.
       -1    1    3    3    0  502 -0.80409135609E+03  0.17179322397E+03  0.37527069566E+03  0.90382737057E+03  0.50400001928E-02 0.  1.
</event>
<event>
 5   0  0.4794967E-06  0.2200818E+04  0.7818609E-02  0.8518088E-01
        1   -1    0    0  501    0  0.00000000000E+00  0.00000000000E+00  0.15478241749E+04  0.15478241749E+04  0.50400001928E-02 0. -1.
       -1   -1    0    0    0  501  0.00000000000E+00  0.00000000000E+00 -0.78232425011E+03  0.78232425013E+03  0.50400001928E-02 0.  1.
    10030    2    1    2    0    0  0.00000000000E+00  0.00000000000E+00  0.76549992477E+03  0.23301484250E+04  0.22008183814E+04 0.  0.
        5    1    3    3  502    0  0.87289885236E+03 -0.64576993477E+03  0.57187234215E+03  0.12272046613E+04  0.46999998093E+01 0. -1.
       -5    1    3    3    0  502 -0.87289885236E+03  0.64576993477E+03  0.19362758262E+03  0.11029437637E+04  0.46999998093E+01 0.  1.
</event>
<event>
 5   0  0.9963173E-06  0.2192565E+04  0.7818609E-02  0.8521529E-01
        2   -1    0    0  501    0  0.00000000000E+00  0.00000000000E+00  0.13678861867E+04  0.13678861867E+04  0.25500000920E-02 0. -1.
       -2   -1    0    0    0  501  0.00000000000E+00  0.00000000000E+00 -0.87860780833E+03  0.87860780833E+03  0.25500000920E-02 0.  1.
    10030    2    1    2    0    0  0.00000000000E+00  0.00000000000E+00  0.48927837833E+03  0.22464939950E+04  0.21925651502E+04 0.  0.
        4    1    3    3  502    0  0.10059596938E+04  0.12302457594E+03  0.67294482759E+03  0.12165304377E+04  0.12699999809E+01 0. -1.
       -4    1    3    3    0  502 -0.10059596938E+04 -0.12302457594E+03 -0.18366644926E+03  0.10299635573E+04  0.12699999809E+01 0.  1.
</event>
<event>
 5   0  0.1035928E-05  0.2201124E+04  0.7818609E-02  0.8517960E-01
       -2   -1    0    0    0  501  0.00000000000E+00  0.00000000000E+00  0.12730236273E+04  0.12730236273E+04  0.25500000920E-02 0. -1.
        2   -1    0    0  501    0  0.00000000000E+00  0.00000000000E+00 -0.95146452467E+03  0.95146452467E+03  0.25500000920E-02 0.  1.
    10030    2    1    2    0    0  0.00000000000E+00  0.00000000000E+00  0.32155910265E+03  0.22244881520E+04  0.22011240951E+04 0.  0.
        3    1    3    3  502    0 -0.81370257843E+03 -0.82018501581E+02  0.90507363108E+03  0.12198349104E+04  0.10100000352E+00 0. -1.
       -3    1    3    3    0  502  0.81370257843E+03  0.82018501581E+02 -0.58351452843E+03  0.10046532416E+04  0.10100000352E+00 0.  1.
</event>
<event>
 5   0  0.1014015E-05  0.2196028E+04  0.7818609E-02  0.8520083E-01
       -2   -1    0    0    0  501  0.00000000000E+00  0.00000000000E+00  0.77698688551E+03  0.77698688551E+03  0.25500000920E-02 0. -1.
        2   -1    0    0  501    0  0.00000000000E+00  0.00000000000E+00 -0.15516791740E+04  0.15516791740E+04  0.25500000920E-02 0.  1.
    10030    2    1    2    0    0  0.00000000000E+00  0.00000000000E+00 -0.77469228848E+03  0.23286660595E+04  0.21960276580E+04 0.  0.
        1    1    3    3  502    0 -0.39532344387E+03  0.30952107203E+03  0.64813273591E+03  0.81985362273E+03  0.50400001928E-02 0. -1.
       -1    1    3    3    0  502  0.39532344387E+03 -0.30952107203E+03 -0.14228250244E+04  0.15088124368E+04  0.50400001928E-02 0.  1.
</event>
<event>
 5   0  0.1035928E-05  0.2201394E+04  0.7818609E-02  0.8517848E-01
        2   -1    0    0  501    0  0.00000000000E+00  0.00000000000E+00  0.17354012319E+04  0.17354012319E+04  0.25500000920E-02 0. -1.
       -2   -1    0    0    0  501  0.00000000000E+00  0.00000000000E+00 -0.69812889560E+03  0.69812889561E+03  0.25500000920E-02 0.  1.
    10030    2    1    2    0    0  0.00000000000E+00  0.00000000000E+00  0.10372723363E+04  0.24335301275E+04  0.22013938725E+04 0.  0.
        3    1    3    3  502    0  0.40396542490E+03  0.54287573955E+03  0.14782986685E+04  0.16258133646E+04  0.10100000352E+00 0. -1.
       -3    1    3    3    0  502 -0.40396542490E+03 -0.54287573955E+03 -0.44102633222E+03  0.80771676287E+03  0.10100000352E+00 0.  1.
</event>
<event>
 5   0  0.1015876E-05  0.2196423E+04  0.7818609E-02  0.8519918E-01
       -2   -1    0    0    0  501  0.00000000000E+00  0.00000000000E+00  0.93726237040E+03  0.93726237040E+03  0.25500000920E-02 0. -1.
        2   -1    0    0  501    0  0.00000000000E+00  0.00000000000E+00 -0.12867996435E+04  0.12867996435E+04  0.25500000920E-02 0.  1.
    10030    2    1    2    0    0  0.00000000000E+00  0.00000000000E+00 -0.34953727312E+03  0.22240620139E+04  0.21964233509E+04 0.  0.
        5    1    3    3  502    0 -0.62333995112E+03  0.68854049681E+03 -0.76815127155E+03  0.12052880056E+04  0.46999998093E+01 0.  1.
       -5    1    3    3    0  502  0.62333995112E+03 -0.68854049681E+03  0.41861399843E+03  0.10187740083E+04  0.46999998093E+01 0. -1.
</event>
<event>
 5   0  0.3546750E-06  0.2201542E+04  0.7818609E-02  0.8517786E-01
       -4   -1    0    0    0  501  0.00000000000E+00  0.00000000000E+00  0.15311536465E+04  0.15311541732E+04  0.12699999809E+01 0.  1.
        4   -1    0    0  501    0  0.00000000000E+00  0.00000000000E+00 -0.79136098395E+03  0.79136200302E+03  0.12699999809E+01 0. -1.
    10030    2    1    2    0    0  0.00000000000E+00  0.00000000000E+00  0.73979266259E+03  0.23225161763E+04  0.22015422334E+04 0.  0.
        1    1    3    3  502    0  0.46708402689E+03  0.93317938452E+03  0.35393474776E+00  0.10435474964E+04  0.50400001928E-02 0. -1.
       -1    1    3    3    0  502 -0.46708402689E+03 -0.93317938452E+03  0.73943872784E+03  0.12789686799E+04  0.50400001928E-02 0.  1.
</event>
<event>
 5   0  0.4408787E-06  0.2208976E+04  0.7818609E-02  0.8514701E-01
        1   -1    0    0  501    0  0.00000000000E+00  0.00000000000E+00  0.11886482921E+04  0.11886482921E+04  0.50400001928E-02 0. -1.
       -1   -1    0    0    0  501  0.00000000000E+00  0.00000000000E+00 -0.10262868195E+04  0.10262868195E+04  0.50400001928E-02 0.  1.
    10030    2    1    2    0    0  0.00000000000E+00  0.00000000000E+00  0.16236147263E+03  0.22149351116E+04  0.22089763015E+04 0.  0.
        1    1    3    3  502    0 -0.74003790006E+03 -0.44765059035E+02  0.90206740305E+03  0.11676410423E+04  0.50400001928E-02 0. -1.
       -1    1    3    3    0  502  0.74003790006E+03  0.44765059035E+02 -0.73970593041E+03  0.10472940693E+04  0.50400001928E-02 0.  1.
</event>
<event>
 5   0  0.1014015E-05  0.2204922E+04  0.7818609E-02  0.8516382E-01
        2   -1    0    0  501    0  0.00000000000E+00  0.00000000000E+00  0.15246587479E+04  0.15246587479E+04  0.25500000920E-02 0.  1.
       -2   -1    0    0    0  501  0.00000000000E+00  0.00000000000E+00 -0.79717536179E+03  0.79717536180E+03  0.25500000920E-02 0. -1.
    10030    2    1    2    0    0  0.00000000000E+00  0.00000000000E+00  0.72748338613E+03  0.23218341097E+04  0.22049221202E+04 0.  0.
        1    1    3    3  502    0 -0.79159594277E+02 -0.10840410796E+04  0.16954787144E+03  0.11000717178E+04  0.50400001928E-02 0. -1.
       -1    1    3    3    0  502  0.79159594277E+02  0.10840410796E+04  0.55793551469E+03  0.12217623919E+04  0.50400001928E-02 0.  1.
</event>
<event>
 5   0  0.4462201E-06  0.2197954E+04  0.7818609E-02  0.8519280E-01
        1   -1    0    0  501    0  0.00000000000E+00  0.00000000000E+00  0.12758222212E+04  0.12758222212E+04  0.50400001928E-02 0. -1.
       -1   -1    0    0    0  501  0.00000000000E+00  0.00000000000E+00 -0.94664516785E+03  0.94664516786E+03  0.50400001928E-02 0.  1.
    10030    2    1    2    0    0  0.00000000000E+00  0.00000000000E+00  0.32917705339E+03  0.22224673891E+04  0.21979544497E+04 0.  0.
        3    1    3    3  502    0  0.35185064452E+03  0.94851561043E+03  0.59864301629E+03  0.11755229519E+04  0.10100000352E+00 0. -1.
       -3    1    3    3    0  502 -0.35185064452E+03 -0.94851561043E+03 -0.26946596289E+03  0.10469444372E+04  0.10100000352E+00 0.  1.
</event>
<event>
 5   0  0.4630615E-06  0.2203064E+04  0.7818609E-02  0.8517154E-01
       -1   -1    0    0    0  501  0.00000000000E+00  0.00000000000E+00  0.11607836696E+04  0.11607836696E+04  0.50400001928E-02 0. -1.
        1   -1    0    0  501    0  0.00000000000E+00  0.00000000000E+00 -0.10453045443E+04  0.10453045443E+04  0.50400001928E-02 0.  1.
    10030    2    1    2    0    0  0.00000000000E+00  0.00000000000E+00  0.11547912525E+03  0.22060882139E+04  0.22030637256E+04 0.  0.
        2    1    3    3  502    0 -0.18180690103E+02  0.10833901847E+04  0.25627322855E+03  0.11134364811E+04  0.25500000920E-02 0. -1.
       -2    1    3    3    0  502  0.18180690103E+02 -0.10833901847E+04 -0.14079410331E+03  0.10926517328E+04  0.25500000920E-02 0.  1.
</event>
<event>
 5   0  0.4309945E-06  0.2200989E+04  0.7818609E-02  0.8518017E-01
        1   -1    0    0  501    0  0.00000000000E+00  0.00000000000E+00  0.14645633856E+04  0.14645633856E+04  0.50400001928E-02 0.  1.
       -1   -1    0    0    0  501  0.00000000000E+00  0.00000000000E+00 -0.82692744548E+03  0.82692744550E+03  0.50400001928E-02 0. -1.
    10030    2    1    2    0    0  0.00000000000E+00  0.00000000000E+00  0.63763594013E+03  0.22914908311E+04  0.22009885590E+04 0.  0.
        4    1    3    3  502    0 -0.54868702479E+03 -0.93693873522E+03  0.50556580607E+03  0.11977103331E+04  0.12699999809E+01 0. -1.
       -4    1    3    3    0  502  0.54868702479E+03  0.93693873522E+03  0.13207013406E+03  0.10937804981E+04  0.12699999809E+01 0.  1.
</event>
<event>
 5   0  0.9963173E-06  0.2195536E+04  0.7818609E-02  0.8520288E-01
        2   -1    0    0  501    0  0.00000000000E+00  0.00000000000E+00  0.19809772098E+04  0.19809772098E+04  0.25500000920E-02 0.  1.
       -2   -1    0    0    0  501  0.00000000000E+00  0.00000000000E+00 -0.60833335349E+03  0.60833335349E+03  0.25500000920E-02 0. -1.
    10030    2    1    2    0    0  0.00000000000E+00  0.00000000000E+00  0.13726438564E+04  0.25893105633E+04  0.21955359339E+04 0.  0.
        4    1    3    3  502    0  0.17506997099E+03  0.25902314651E+03 -0.55471907116E+03  0.63675532662E+03  0.12699999809E+01 0. -1.
       -4    1    3    3    0  502 -0.17506997099E+03 -0.25902314651E+03  0.19273629275E+04  0.19525552367E+04  0.12699999809E+01 0.  1.
</event>
<event>
 5   0  0.4794967E-06  0.2200947E+04  0.7818609E-02  0.8518034E-01
       -1   -1    0    0    0  501  0.00000000000E+00  0.00000000000E+00  0.11046079486E+04  0.11046079486E+04  0.50400001928E-02 0.  1.
        1   -1    0    0  501    0  0.00000000000E+00  0.00000000000E+00 -0.10963542433E+04  0.10963542433E+04  0.50400001928E-02 0. -1.
    10030    2    1    2    0    0  0.00000000000E+00  0.00000000000E+00  0.82537053547E+01  0.22009621919E+04  0.22009467160E+04 0.  0.
        5    1    3    3  502    0  0.21808210864E+03 -0.80623288264E-01 -0.10745186270E+04  0.10964361278E+04  0.46999998093E+01 0. -1.
       -5    1    3    3    0  502 -0.21808210864E+03  0.80623288264E-01  0.10827723324E+04  0.11045260641E+04  0.46999998093E+01 0.  1.
</event>
<event>
 5   0  0.4794967E-06  0.2198796E+04  0.7818609E-02  0.8518930E-01
        1   -1    0    0  501    0  0.00000000000E+00  0.00000000000E+00  0.56830762261E+03  0.56830762263E+03  0.50400001928E-02 0.  1.
       -1   -1    0    0    0  501  0.00000000000E+00  0.00000000000E+00 -0.21267980922E+04  0.21267980922E+04  0.50400001928E-02 0. -1.
    10030    2    1    2    0    0  0.00000000000E+00  0.00000000000E+00 -0.15584904696E+04  0.26951057148E+04  0.21987956409E+04 0.  0.
        5    1    3    3  502    0 -0.57726632713E+03 -0.54645712820E+03 -0.17101477271E+04  0.18858629706E+04  0.46999998093E+01 0. -1.
       -5    1    3    3    0  502  0.57726632713E+03  0.54645712820E+03  0.15165725747E+03  0.80924274426E+03  0.46999998093E+01 0.  1.
</event>
<event>
 5   0  0.4794967E-06  0.2202443E+04  0.7818609E-02  0.8517412E-01
        1   -1    0    0  501    0  0.00000000000E+00  0.00000000000E+00  0.18414559658E+04  0.18414559658E+04  0.50400001928E-02 0.  1.
       -1   -1    0    0    0  501  0.00000000000E+00  0.00000000000E+00 -0.65854900986E+03  0.65854900988E+03  0.50400001928E-02 0. -1.
    10030    2    1    2    0    0  0.00000000000E+00  0.00000000000E+00  0.11829069560E+04  0.25000049757E+04  0.22024431916E+04 0.  0.
        5    1    3    3  502    0  0.96201545699E+03 -0.41129725040E+03  0.98142079744E+03  0.14345201425E+04  0.46999998093E+01 0.  1.
       -5    1    3    3    0  502 -0.96201545699E+03  0.41129725040E+03  0.20148615853E+03  0.10654848332E+04  0.46999998093E+01 0. -1.
</event>
<event>
 5   0  0.1015876E-05  0.2197160E+04  0.7818609E-02  0.8519611E-01
        2   -1    0    0  501    0  0.00000000000E+00  0.00000000000E+00  0.28461124989E+04  0.28461124989E+04  0.25500000920E-02 0. -1.
       -2   -1    0    0    0  501  0.00000000000E+00  0.00000000000E+00 -0.42404428520E+03  0.42404428521E+03  0.25500000920E-02 0.  1.
    10030    2    1    2    0    0  0.00000000000E+00  0.00000000000E+00  0.24220682137E+04  0.32701567841E+04  0.21971597486E+04 0.  0.
        5    1    3    3  502    0 -0.35584866135E+03  0.77910961145E+03  0.22348844127E+04  0.23934014466E+04  0.46999998093E+01 0. -1.
       -5    1    3    3    0  502  0.35584866135E+03 -0.77910961145E+03  0.18718380094E+03  0.87675533746E+03  0.46999998093E+01 0.  1.
</event>
<event>
 5   0  0.1014015E-05  0.2202854E+04  0.7818609E-02  0.8517241E-01
        2   -1    0    0  501    0  0.00000000000E+00  0.00000000000E+00  0.16026713384E+04  0.16026713384E+04  0.25500000920E-02 0.  1.
       -2   -1    0    0    0  501  0.00000000000E+00  0.00000000000E+00 -0.75694974974E+03  0.75694974975E+03  0.25500000920E-02 0. -1.
    10030    2    1    2    0    0  0.00000000000E+00  0.00000000000E+00  0.84572158867E+03  0.23596210882E+04  0.22028542108E+04 0.  0.
        1    1    3    3  502    0 -0.27541964601E+03  0.28846669806E+03  0.15226052619E+04  0.15739745236E+04  0.50400001928E-02 0.  1.
       -1    1    3    3    0  502  0.27541964601E+03 -0.28846669806E+03 -0.67688367324E+03  0.78564656457E+03  0.50400001928E-02 0. -1.
</event>
<event>
 5   0  0.4630615E-06  0.2205186E+04  0.7818609E-02  0.8516273E-01
        1   -1    0    0  501    0  0.00000000000E+00  0.00000000000E+00  0.16979685462E+04  0.16979685462E+04  0.50400001928E-02 0. -1.
       -1   -1    0    0    0  501  0.00000000000E+00  0.00000000000E+00 -0.71598002992E+03  0.71598002994E+03  0.50400001928E-02 0.  1.
    10030    2    1    2    0    0  0.00000000000E+00  0.00000000000E+00  0.98198851629E+03  0.24139485762E+04  0.22051862239E+04 0.  0.
        2    1    3    3  502    0  0.40872106053E+03  0.29429528042E+03 -0.58270172691E+03  0.77019732533E+03  0.25500000920E-02 0.  1.
       -2    1    3    3    0  502 -0.40872106053E+03 -0.29429528042E+03  0.15646902432E+04  0.16437512508E+04  0.25500000920E-02 0. -1.
</event>
<event>
 5   0  0.3546750E-06  0.2200872E+04  0.7818609E-02  0.8518065E-01
        4   -1    0    0  501    0  0.00000000000E+00  0.00000000000E+00  0.16909373896E+04  0.16909378665E+04  0.12699999809E+01 0. -1.
       -4   -1    0    0    0  501  0.00000000000E+00  0.00000000000E+00 -0.71614571759E+03  0.71614684368E+03  0.12699999809E+01 0.  1.
    10030    2    1    2    0    0  0.00000000000E+00  0.00000000000E+00  0.97479167201E+03  0.24070847102E+04  0.22008720995E+04 0.  0.
        4    1    3    3  502    0  0.24141765527E+03 -0.59137113265E+03  0.14674325178E+04  0.16004256021E+04  0.12699999809E+01 0. -1.
       -4    1    3    3    0  502 -0.24141765527E+03  0.59137113265E+03 -0.49264084577E+03  0.80665910807E+03  0.12699999809E+01 0.  1.
</event>
<event>
 5   0  0.1014015E-05  0.2190618E+04  0.7818609E-02  0.8522343E-01
        2   -1    0    0  501    0  0.00000000000E+00  0.00000000000E+00  0.16261367766E+04  0.16261367766E+04  0.25500000920E-02 0.  1.
       -2   -1    0    0    0  501  0.00000000000E+00  0.00000000000E+00 -0.73776205108E+03  0.73776205109E+03  0.25500000920E-02 0. -1.
    10030    2    1    2    0    0  0.00000000000E+00  0.00000000000E+00  0.88837472547E+03  0.23638988276E+04  0.21906181809E+04 0.  0.
        1    1    3    3  502    0  0.91496245897E+03  0.54403499318E+03  0.16576328622E+03  0.10773151081E+04  0.50400001928E-02 0. -1.
       -1    1    3    3    0  502 -0.91496245897E+03 -0.54403499318E+03  0.72261143926E+03  0.12865837195E+04  0.50400001928E-02 0.  1.
</event>
<event>
 5   0  0.3546750E-06  0.2208552E+04  0.7818609E-02  0.8514877E-01
       -3   -1    0    0    0  501  0.00000000000E+00  0.00000000000E+00  0.11850959404E+04  0.11850959447E+04  0.10100000352E+00 0.  1.
        3   -1    0    0  501    0  0.00000000000E+00  0.00000000000E+00 -0.10289680364E+04  0.10289680414E+04  0.10100000352E+00 0. -1.
    10030    2    1    2    0    0  0.00000000000E+00  0.00000000000E+00  0.15612790396E+03  0.22140639860E+04  0.22085523339E+04 0.  0.
        5    1    3    3  502    0 -0.93782620984E+03 -0.30406715300E+02  0.66172063660E+03  0.11481893829E+04  0.46999998093E+01 0.  1.
       -5    1    3    3    0  502  0.93782620984E+03  0.30406715300E+02 -0.50559273264E+03  0.10658746031E+04  0.46999998093E+01 0. -1.
</event>
<event>
 5   0  0.1014015E-05  0.2199775E+04  0.7818609E-02  0.8518522E-01
        2   -1    0    0  501    0  0.00000000000E+00  0.00000000000E+00  0.10653925501E+04  0.10653925501E+04  0.25500000920E-02 0.  1.
       -2   -1    0    0    0  501  0.00000000000E+00  0.00000000000E+00 -0.11354990587E+04  0.11354990587E+04  0.25500000920E-02 0. -1.
    10030    2    1    2    0    0  0.00000000000E+00  0.00000000000E+00 -0.70106508616E+02  0.22008916088E+04  0.21997747501E+04 0.  0.
        1    1    3    3  502    0 -0.73625231756E+03  0.78325033324E+03 -0.26798829274E+03  0.11078656438E+04  0.50400001928E-02 0. -1.
       -1    1    3    3    0  502  0.73625231756E+03 -0.78325033324E+03  0.19788178413E+03  0.10930259650E+04  0.50400001928E-02 0.  1.
</event>
<event>
 5   0  0.1035928E-05  0.2197653E+04  0.7818609E-02  0.8519406E-01
        2   -1    0    0  501    0  0.00000000000E+00  0.00000000000E+00  0.21117080347E+04  0.21117080347E+04  0.25500000920E-02 0.  1.
       -2   -1    0    0    0  501  0.00000000000E+00  0.00000000000E+00 -0.57177397745E+03  0.57177397746E+03  0.25500000920E-02 0. -1.
    10030    2    1    2    0    0  0.00000000000E+00  0.00000000000E+00  0.15399340572E+04  0.26834820121E+04  0.21976530229E+04 0.  0.
        3    1    3    3  502    0 -0.63634566244E+03 -0.54048339249E+03  0.16422925036E+04  0.18423308002E+04  0.10100000352E+00 0.  1.
       -3    1    3    3    0  502  0.63634566244E+03  0.54048339249E+03 -0.10235844637E+03  0.84115121197E+03  0.10100000352E+00 0. -1.
</event>
<event>
 5   0  0.4309945E-06  0.2206200E+04  0.7818609E-02  0.8515852E-01
       -1   -1    0    0    0  501  0.00000000000E+00  0.00000000000E+00  0.14632502519E+04  0.14632502519E+04  0.50400001928E-02 0. -1.
        1   -1    0    0  501    0  0.00000000000E+00  0.00000000000E+00 -0.83159337706E+03  0.83159337708E+03  0.50400001928E-02 0.  1.
    10030    2    1    2    0    0  0.00000000000E+00  0.00000000000E+00  0.63165687487E+03  0.22948436290E+04  0.22061996451E+04 0.  0.
        4    1    3    3  502    0 -0.80477757939E+03 -0.56097442154E+03  0.84054548705E+03  0.12918504490E+04  0.12699999809E+01 0.  1.
       -4    1    3    3    0  502  0.80477757939E+03  0.56097442154E+03 -0.20888861219E+03  0.10029931800E+04  0.12699999809E+01 0. -1.
</event>
<event>
 5   0  0.4309945E-06  0.2200518E+04  0.7818609E-02  0.8518212E-01
        1   -1    0    0  501    0  0.00000000000E+00  0.00000000000E+00  0.12350358124E+04  0.12350358124E+04  0.50400001928E-02 0. -1.
       -1   -1    0    0    0  501  0.00000000000E+00  0.00000000000E+00 -0.98019047339E+03  0.98019047341E+03  0.50400001928E-02 0.  1.
    10030    2    1    2    0    0  0.00000000000E+00  0.00000000000E+00  0.25484533900E+03  0.22152262858E+04  0.22005184277E+04 0.  0.
        4    1    3    3  502    0 -0.65151554146E+02  0.30468431253E+03 -0.93485128523E+03  0.98540641042E+03  0.12699999809E+01 0.  1.
       -4    1    3    3    0  502  0.65151554146E+02 -0.30468431253E+03  0.11896966242E+04  0.12298198754E+04  0.12699999809E+01 0. -1.
</event>
<event>
 5   0  0.4408787E-06  0.2200162E+04  0.7818609E-02  0.8518361E-01
       -1   -1    0    0    0  501  0.00000000000E+00  0.00000000000E+00  0.85391708557E+03  0.85391708558E+03  0.50400001928E-02 0.  1.
        1   -1    0    0  501    0  0.00000000000E+00  0.00000000000E+00 -0.14172074516E+04  0.14172074516E+04  0.50400001928E-02 0. -1.
    10030    2    1    2    0    0  0.00000000000E+00  0.00000000000E+00 -0.56329036602E+03  0.22711245372E+04  0.22001615002E+04 0.  0.
        1    1    3    3  502    0  0.76942512751E+03  0.66321449863E+03  0.15424111169E+03  0.10274525870E+04  0.50400001928E-02 0.  1.
       -1    1    3    3    0  502 -0.76942512751E+03 -0.66321449863E+03 -0.71753147771E+03  0.12436719501E+04  0.50400001928E-02 0. -1.
</event>
<event>
 5   0  0.1015876E-05  0.2201274E+04  0.7818609E-02  0.8517898E-01
       -2   -1    0    0    0  501  0.00000000000E+00  0.00000000000E+00  0.71413038240E+03  0.71413038240E+03  0.25500000920E-02 0.  1.
        2   -1    0    0  501    0  0.00000000000E+00  0.00000000000E+00 -0.16963314392E+04  0.16963314392E+04  0.25500000920E-02 0. -1.
    10030    2    1    2    0    0  0.00000000000E+00  0.00000000000E+00 -0.98220105678E+03  0.24104618216E+04  0.22012740123E+04 0.  0.
        5    1    3    3  502    0 -0.10093503809E+04  0.40630426062E+03 -0.30948260582E+03  0.11312262890E+04  0.46999998093E+01 0. -1.
       -5    1    3    3    0  502  0.10093503809E+04 -0.40630426062E+03 -0.67271845096E+03  0.12792355326E+04  0.46999998093E+01 0.  1.
</event>
<event>
 5   0  0.4408787E-06  0.2198573E+04  0.7818609E-02  0.8519022E-01
       -1   -1    0    0    0  501  0.00000000000E+00  0.00000000000E+00  0.82615118524E+03  0.82615118526E+03  0.50400001928E-02 0.  1.
        1   -1    0    0  501    0  0.00000000000E+00  0.00000000000E+00 -0.14627237521E+04  0.14627237521E+04  0.50400001928E-02 0. -1.
    10030    2    1    2    0    0  0.00000000000E+00  0.00000000000E+00 -0.63657256686E+03  0.22888749374E+04  0.21985731387E+04 0.  0.
        1    1    3    3  502    0 -0.36699056800E+03  0.97428176363E+03 -0.68565955404E+03  0.12466098251E+04  0.50400001928E-02 0.  1.
       -1    1    3    3    0  502  0.36699056800E+03 -0.97428176363E+03  0.49086987174E+02  0.10422651123E+04  0.50400001928E-02 0. -1.
</event>
<event>
 5   0  0.1015876E-05  0.2199547E+04  0.7818609E-02  0.8518617E-01
       -2   -1    0    0    0  501  0.00000000000E+00  0.00000000000E+00  0.10287249527E+04  0.10287249527E+04  0.25500000920E-02 0.  1.
        2   -1    0    0  501    0  0.00000000000E+00  0.00000000000E+00 -0.11757286368E+04  0.11757286368E+04  0.25500000920E-02 0. -1.
    10030    2    1    2    0    0  0.00000000000E+00  0.00000000000E+00 -0.14700368413E+03  0.22044535895E+04  0.21995466681E+04 0.  0.
        5    1    3    3  502    0  0.61832121765E+02  0.72817614491E+03  0.75016829131E+03  0.10473004653E+04  0.46999998093E+01 0.  1.
       -5    1    3    3    0  502 -0.61832121765E+02 -0.72817614491E+03 -0.89717197544E+03  0.11571531242E+04  0.46999998093E+01 0. -1.
</event>
<event>
 5   0  0.1014015E-05  0.2202528E+04  0.7818609E-02  0.8517377E-01
       -2   -1    0    0    0  501  0.00000000000E+00  0.00000000000E+00  0.10039190450E+04  0.10039190450E+04  0.25500000920E-02 0.  1.
        2   -1    0    0  501    0  0.00000000000E+00  0.00000000000E+00 -0.12080482086E+04  0.12080482086E+04  0.25500000920E-02 0. -1.
    10030    2    1    2    0    0  0.00000000000E+00  0.00000000000E+00 -0.20412916360E+03  0.22119672536E+04  0.22025281873E+04 0.  0.
        1    1    3    3  502    0  0.37465230468E+03 -0.63301644708E+03  0.72102597350E+03  0.10300255464E+04  0.50400001928E-02 0.  1.
       -1    1    3    3    0  502 -0.37465230468E+03  0.63301644708E+03 -0.92515513709E+03  0.11819417073E+04  0.50400001928E-02 0. -1.
</event>
<event>
 5   0  0.9963173E-06  0.2200183E+04  0.7818609E-02  0.8518352E-01
        2   -1    0    0  501    0  0.00000000000E+00  0.00000000000E+00  0.14242105426E+04  0.14242105426E+04  0.25500000920E-02 0.  1.
       -2   -1    0    0    0  501  0.00000000000E+00  0.00000000000E+00 -0.84973494699E+03  0.84973494699E+03  0.25500000920E-02 0. -1.
    10030    2    1    2    0    0  0.00000000000E+00  0.00000000000E+00  0.57447559558E+03  0.22739454896E+04  0.22001831468E+04 0.  0.
        4    1    3    3  502    0  0.59987949375E+03 -0.75201081470E+03  0.83881924162E+03  0.12763208866E+04  0.12699999809E+01 0.  1.
       -4    1    3    3    0  502 -0.59987949375E+03  0.75201081470E+03 -0.26434364603E+03  0.99762460302E+03  0.12699999809E+01 0. -1.
</event>
<event>
 5   0  0.1015876E-05  0.2187126E+04  0.7818609E-02  0.8523806E-01
       -2   -1    0    0    0  501  0.00000000000E+00  0.00000000000E+00  0.85479123960E+03  0.85479123961E+03  0.25500000920E-02 0.  1.
        2   -1    0    0  501    0  0.00000000000E+00  0.00000000000E+00 -0.13990319074E+04  0.13990319074E+04  0.25500000920E-02 0. -1.
    10030    2    1    2    0    0  0.00000000000E+00  0.00000000000E+00 -0.54424066778E+03  0.22538231470E+04  0.21871261677E+04 0.  0.
        5    1    3    3  502    0 -0.34476329207E+03  0.10038706702E+04 -0.96086597296E+00  0.10614334946E+04  0.46999998093E+01 0.  1.
       -5    1    3    3    0  502  0.34476329207E+03 -0.10038706702E+04 -0.54327980181E+03  0.11923896524E+04  0.46999998093E+01 0. -1.
</event>
<event>
 5   0  0.4309945E-06  0.2195210E+04  0.7818609E-02  0.8520424E-01
        1   -1    0    0  501    0  0.00000000000E+00  0.00000000000E+00  0.59717192287E+03  0.59717192289E+03  0.50400001928E-02 0. -1.
       -1   -1    0    0    0  501  0.00000000000E+00  0.00000000000E+00 -0.20174043664E+04  0.20174043664E+04  0.50400001928E-02 0.  1.
    10030    2    1    2    0    0  0.00000000000E+00  0.00000000000E+00 -0.14202324435E+04  0.26145762893E+04  0.21952104635E+04 0.  0.
        4    1    3    3  502    0  0.54414061160E+03 -0.93278782582E+03 -0.94397681767E+03  0.14343207376E+04  0.12699999809E+01 0.  1.
       -4    1    3    3    0  502 -0.54414061160E+03  0.93278782582E+03 -0.47625562586E+03  0.11802555517E+04  0.12699999809E+01 0. -1.
</event>
<event>
 5   0  0.1014015E-05  0.2198542E+04  0.7818609E-02  0.8519035E-01
       -2   -1    0    0    0  501  0.00000000000E+00  0.00000000000E+00  0.16396084183E+04  0.16396084184E+04  0.25500000920E-02 0.  1.
        2   -1    0    0  501    0  0.00000000000E+00  0.00000000000E+00 -0.73700331466E+03  0.73700331466E+03  0.25500000920E-02 0. -1.
    10030    2    1    2    0    0  0.00000000000E+00  0.00000000000E+00  0.90260510369E+03  0.23766117330E+04  0.21985420979E+04 0.  0.
        1    1    3    3  502    0  0.22103766311E+03  0.27192141185E+03 -0.67500748808E+03  0.76054849400E+03  0.50400001928E-02 0. -1.
       -1    1    3    3    0  502 -0.22103766311E+03 -0.27192141185E+03  0.15776125918E+04  0.16160632390E+04  0.50400001928E-02 0.  1.
</event>
<event>
 5   0  0.4309945E-06  0.2198302E+04  0.7818609E-02  0.8519135E-01
       -1   -1    0    0    0  501  0.00000000000E+00  0.00000000000E+00  0.89643568848E+03  0.89643568849E+03  0.50400001928E-02 0.  1.
        1   -1    0    0  501    0  0.00000000000E+00  0.00000000000E+00 -0.13477067846E+04  0.13477067846E+04  0.50400001928E-02 0. -1.
    10030    2    1    2    0    0  0.00000000000E+00  0.00000000000E+00 -0.45127109611E+03  0.22441424731E+04  0.21983015802E+04 0.  0.
        4    1    3    3  502    0  0.38834337625E+03 -0.33128701679E+02 -0.12747935893E+04  0.13330447843E+04  0.12699999809E+01 0. -1.
       -4    1    3    3    0  502 -0.38834337625E+03  0.33128701679E+02  0.82352249321E+03  0.91109768877E+03  0.12699999809E+01 0.  1.
</event>
<event>
 5   0  0.4630615E-06  0.2194172E+04  0.7818609E-02  0.8520858E-01
        1   -1    0    0  501    0  0.00000000000E+00  0.00000000000E+00  0.90680936081E+03  0.90680936083E+03  0.50400001928E-02 0.  1.
       -1   -1    0    0    0  501  0.00000000000E+00  0.00000000000E+00 -0.13272884953E+04  0.13272884953E+04  0.50400001928E-02 0. -1.
    10030    2    1    2    0    0  0.00000000000E+00  0.00000000000E+00 -0.42047913452E+03  0.22340978562E+04  0.21941719459E+04 0.  0.
        2    1    3    3  502    0  0.42575699751E+03  0.42018511638E+03  0.72615408840E+03  0.94081045544E+03  0.25500000920E-02 0.  1.
       -2    1    3    3    0  502 -0.42575699751E+03 -0.42018511638E+03 -0.11466332229E+04  0.12932874007E+04  0.25500000920E-02 0. -1.
</event>
<event>
 5   0  0.4630615E-06  0.2194457E+04  0.7818609E-02  0.8520739E-01
        1   -1    0    0  501    0  0.00000000000E+00  0.00000000000E+00  0.71134496566E+03  0.71134496567E+03  0.50400001928E-02 0. -1.
       -1   -1    0    0    0  501  0.00000000000E+00  0.00000000000E+00 -0.16924417355E+04  0.16924417355E+04  0.50400001928E-02 0.  1.
    10030    2    1    2    0    0  0.00000000000E+00  0.00000000000E+00 -0.98109676983E+03  0.24037867012E+04  0.21944565689E+04 0.  0.
        2    1    3    3  502    0 -0.23759446854E+03 -0.95251413297E+03 -0.10273741889E+04  0.14209968434E+04  0.25500000920E-02 0.  1.
       -2    1    3    3    0  502  0.23759446854E+03  0.95251413297E+03  0.46277419052E+02  0.98278985776E+03  0.25500000920E-02 0. -1.
</event>
<event>
 5   0  0.4408787E-06  0.2197411E+04  0.7818609E-02  0.8519506E-01
        1   -1    0    0  501    0  0.00000000000E+00  0.00000000000E+00  0.78114748840E+03  0.78114748841E+03  0.50400001928E-02 0.  1.
       -1   -1    0    0    0  501  0.00000000000E+00  0.00000000000E+00 -0.15453598626E+04  0.15453598626E+04  0.50400001928E-02 0. -1.
    10030    2    1    2    0    0  0.00000000000E+00  0.00000000000E+00 -0.76421237419E+03  0.23265073510E+04  0.21974111817E+04 0.  0.
        1    1    3    3  502    0  0.16246242165E+03 -0.73176167584E+03  0.46838303058E+03  0.88388452415E+03  0.50400001928E-02 0.  1.
       -1    1    3    3    0  502 -0.16246242165E+03  0.73176167584E+03 -0.12325954048E+04  0.14426228269E+04  0.50400001928E-02 0. -1.
</event>
<event>
 5   0  0.4309945E-06  0.2202400E+04  0.7818609E-02  0.8517430E-01
       -1   -1    0    0    0  501  0.00000000000E+00  0.00000000000E+00  0.61067260011E+03  0.61067260013E+03  0.50400001928E-02 0. -1.
        1   -1    0    0  501    0  0.00000000000E+00  0.00000000000E+00 -0.19857477953E+04  0.19857477954E+04  0.50400001928E-02 0.  1.
    10030    2    1    2    0    0  0.00000000000E+00  0.00000000000E+00 -0.13750751952E+04  0.25964203955E+04  0.22024002991E+04 0.  0.
        4    1    3    3  502    0  0.10842120465E+04 -0.60876042696E+02 -0.47202520658E+03  0.11840739262E+04  0.12699999809E+01 0. -1.
       -4    1    3    3    0  502 -0.10842120465E+04  0.60876042696E+02 -0.90304998865E+03  0.14123464692E+04  0.12699999809E+01 0.  1.
</event>
<event>
 5   0  0.9963173E-06  0.2196488E+04  0.7818609E-02  0.8519891E-01
       -2   -1    0    0    0  501  0.00000000000E+00  0.00000000000E+00  0.12774964105E+04  0.12774964106E+04  0.25500000920E-02 0. -1.
        2   -1    0    0  501    0  0.00000000000E+00  0.00000000000E+00 -0.94414364949E+03  0.94414364949E+03  0.25500000920E-02 0.  1.
    10030    2    1    2    0    0  0.00000000000E+00  0.00000000000E+00  0.33335276106E+03  0.22216400600E+04  0.21964882183E+04 0.  0.
        4    1    3    3  502    0 -0.73450797682E+03  0.15999643931E+03  0.97649283972E+03  0.12323314114E+04  0.12699999809E+01 0. -1.
       -4    1    3    3    0  502  0.73450797682E+03 -0.15999643931E+03 -0.64314007866E+03  0.98930864864E+03  0.12699999809E+01 0.  1.
</event>
<event>
 5   0  0.9963173E-06  0.2200908E+04  0.7818609E-02  0.8518050E-01
       -2   -1    0    0    0  501  0.00000000000E+00  0.00000000000E+00  0.54278375569E+03  0.54278375569E+03  0.25500000920E-02 0.  1.
        2   -1    0    0  501    0  0.00000000000E+00  0.00000000000E+00 -0.22310886856E+04  0.22310886856E+04  0.25500000920E-02 0. -1.
    10030    2    1    2    0    0  0.00000000000E+00  0.00000000000E+00 -0.16883049299E+04  0.27738724413E+04  0.22009077183E+04 0.  0.
        4    1    3    3  502    0  0.55338197946E+03  0.11307992290E+03  0.34616230077E+03  0.66245651595E+03  0.12699999809E+01 0.  1.
       -4    1    3    3    0  502 -0.55338197946E+03 -0.11307992290E+03 -0.20344672307E+04  0.21114159254E+04  0.12699999809E+01 0. -1.
</event>
<event>
 5   0  0.4794967E-06  0.2204060E+04  0.7818609E-02  0.8516740E-01
        1   -1    0    0  501    0  0.00000000000E+00  0.00000000000E+00  0.10647871724E+04  0.10647871724E+04  0.50400001928E-02 0.  1.
       -1   -1    0    0    0  501  0.00000000000E+00  0.00000000000E+00 -0.11405758628E+04  0.11405758628E+04  0.50400001928E-02 0. -1.
    10030    2    1    2    0    0  0.00000000000E+00  0.00000000000E+00 -0.75788690367E+02  0.22053630352E+04  0.22040603875E+04 0.  0.
        5    1    3    3  502    0 -0.82360211911E+02 -0.76054861091E+03 -0.83160402900E+03  0.11299578510E+04  0.46999998093E+01 0. -1.
       -5    1    3    3    0  502  0.82360211911E+02  0.76054861091E+03  0.75581533864E+03  0.10754051842E+04  0.46999998093E+01 0.  1.
</event>
<event>
 5   0  0.9963573E-06  0.2199419E+04  0.7818609E-02  0.8518670E-01
        2   -1    0    0  501    0  0.00000000000E+00  0.00000000000E+00  0.13656941390E+04  0.13656941390E+04  0.25500000920E-02 0.  1.
       -2   -1    0    0    0  501  0.00000000000E+00  0.00000000000E+00 -0.88552821223E+03  0.88552821223E+03  0.25500000920E-02 0. -1.
    10030    2    1    2    0    0  0.00000000000E+00  0.00000000000E+00  0.48016592682E+03  0.22512223513E+04  0.21994187318E+04 0.  0.
        2    1    3    3  502    0  0.85063962856E+03 -0.28899251621E+02  0.95285961785E+03  0.12776401668E+04  0.25500000920E-02 0.  1.
       -2    1    3    3    0  502 -0.85063962856E+03  0.28899251621E+02 -0.47269369103E+03  0.97358218450E+03  0.25500000920E-02 0. -1.
</event>
<event>
 5   0  0.4794967E-06  0.2200075E+04  0.7818609E-02  0.8518397E-01
       -1   -1    0    0    0  501  0.00000000000E+00  0.00000000000E+00  0.59883954202E+03  0.59883954204E+03  0.50400001928E-02 0.  1.
        1   -1    0    0  501    0  0.00000000000E+00  0.00000000000E+00 -0.20207128855E+04  0.20207128855E+04  0.50400001928E-02 0. -1.
    10030    2    1    2    0    0  0.00000000000E+00  0.00000000000E+00 -0.14218733435E+04  0.26195524275E+04  0.22000752523E+04 0.  0.
        5    1    3    3  502    0  0.88345844318E+03 -0.46533172490E+03 -0.12604878746E+04  0.16080684709E+04  0.46999998093E+01 0. -1.
       -5    1    3    3    0  502 -0.88345844318E+03  0.46533172490E+03 -0.16138546887E+03  0.10114839567E+04  0.46999998093E+01 0.  1.
</event>
<event>
 5   0  0.1014015E-05  0.2200983E+04  0.7818609E-02  0.8518019E-01
        2   -1    0    0  501    0  0.00000000000E+00  0.00000000000E+00  0.14372175937E+04  0.14372175937E+04  0.25500000920E-02 0.  1.
       -2   -1    0    0    0  501  0.00000000000E+00  0.00000000000E+00 -0.84265712129E+03  0.84265712129E+03  0.25500000920E-02 0. -1.
    10030    2    1    2    0    0  0.00000000000E+00  0.00000000000E+00  0.59456047242E+03  0.22798747150E+04  0.22009830896E+04 0.  0.
        1    1    3    3  502    0  0.12114149974E+03 -0.95958031342E+03 -0.24652493984E+03  0.99812032684E+03  0.50400001928E-02 0.  1.
       -1    1    3    3    0  502 -0.12114149974E+03  0.95958031342E+03  0.84108541226E+03  0.12817543882E+04  0.50400001928E-02 0. -1.
</event>
<event>
 5   0  0.9963173E-06  0.2197209E+04  0.7818609E-02  0.8519591E-01
       -2   -1    0    0    0  501  0.00000000000E+00  0.00000000000E+00  0.97836123886E+03  0.97836123886E+03  0.25500000920E-02 0. -1.
        2   -1    0    0  501    0  0.00000000000E+00  0.00000000000E+00 -0.12336257384E+04  0.12336257384E+04  0.25500000920E-02 0.  1.
    10030    2    1    2    0    0  0.00000000000E+00  0.00000000000E+00 -0.25526449949E+03  0.22119869772E+04  0.21972087799E+04 0.  0.
        4    1    3    3  502    0  0.82844178801E+03 -0.58858575436E+03 -0.54778928295E+03  0.11544798386E+04  0.12699999809E+01 0.  1.
       -4    1    3    3    0  502 -0.82844178801E+03  0.58858575436E+03  0.29252478346E+03  0.10575071386E+04  0.12699999809E+01 0. -1.
</event>
<event>
 5   0  0.4462201E-06  0.2194466E+04  0.7818609E-02  0.8520735E-01
       -1   -1    0    0    0  501  0.00000000000E+00  0.00000000000E+00  0.98806794612E+03  0.98806794613E+03  0.50400001928E-02 0. -1.
        1   -1    0    0  501    0  0.00000000000E+00  0.00000000000E+00 -0.12184588264E+04  0.12184588264E+04  0.50400001928E-02 0.  1.
    10030    2    1    2    0    0  0.00000000000E+00  0.00000000000E+00 -0.23039088031E+03  0.22065267726E+04  0.21944658668E+04 0.  0.
        3    1    3    3  502    0 -0.25463994708E+03 -0.31252585457E+03 -0.11412972367E+04  0.12104021254E+04  0.10100000352E+00 0.  1.
       -3    1    3    3    0  502  0.25463994708E+03  0.31252585457E+03  0.91090635639E+03  0.99612464719E+03  0.10100000352E+00 0. -1.
</event>
<event>
 5   0  0.9963173E-06  0.2202906E+04  0.7818609E-02  0.8517220E-01
       -2   -1    0    0    0  501  0.00000000000E+00  0.00000000000E+00  0.89418936117E+03  0.89418936117E+03  0.25500000920E-02 0.  1.
        2   -1    0    0  501    0  0.00000000000E+00  0.00000000000E+00 -0.13567581097E+04  0.13567581097E+04  0.25500000920E-02 0. -1.
    10030    2    1    2    0    0  0.00000000000E+00  0.00000000000E+00 -0.46256874857E+03  0.22509474709E+04  0.22029059602E+04 0.  0.
        4    1    3    3  502    0  0.33394071027E+03  0.52756385597E+03  0.69589444602E+03  0.93493888196E+03  0.12699999809E+01 0.  1.
       -4    1    3    3    0  502 -0.33394071027E+03 -0.52756385597E+03 -0.11584631946E+04  0.13160085890E+04  0.12699999809E+01 0. -1.
</event>
<event>
 5   0  0.1015876E-05  0.2203879E+04  0.7818609E-02  0.8516815E-01
       -2   -1    0    0    0  501  0.00000000000E+00  0.00000000000E+00  0.87978095777E+03  0.87978095777E+03  0.25500000920E-02 0. -1.
        2   -1    0    0  501    0  0.00000000000E+00  0.00000000000E+00 -0.13801966933E+04  0.13801966933E+04  0.25500000920E-02 0.  1.
    10030    2    1    2    0    0  0.00000000000E+00  0.00000000000E+00 -0.50041573549E+03  0.22599776510E+04  0.22038790972E+04 0.  0.
        5    1    3    3  502    0  0.30312904736E+03  0.11726309062E+03 -0.13299149160E+04  0.13690630466E+04  0.46999998093E+01 0.  1.
       -5    1    3    3    0  502 -0.30312904736E+03 -0.11726309062E+03  0.82949918056E+03  0.89091460439E+03  0.46999998093E+01 0. -1.
</event>
<event>
 5   0  0.1014015E-05  0.2183350E+04  0.7818609E-02  0.8525390E-01
        2   -1    0    0  501    0  0.00000000000E+00  0.00000000000E+00  0.99851015519E+03  0.99851015519E+03  0.25500000920E-02 0. -1.
       -2   -1    0    0    0  501  0.00000000000E+00  0.00000000000E+00 -0.11935324096E+04  0.11935324096E+04  0.25500000920E-02 0.  1.
    10030    2    1    2    0    0  0.00000000000E+00  0.00000000000E+00 -0.19502225437E+03  0.21920425647E+04  0.21833499321E+04 0.  0.
        1    1    3    3  502    0 -0.22431086975E+03  0.43339964043E+03  0.88290304568E+03  0.10087955208E+04  0.50400001928E-02 0. -1.
       -1    1    3    3    0  502  0.22431086975E+03 -0.43339964043E+03 -0.10779253000E+04  0.11832470440E+04  0.50400001928E-02 0.  1.
</event>
<event>
 5   0  0.4309945E-06  0.2201589E+04  0.7818609E-02  0.8517767E-01
        1   -1    0    0  501    0  0.00000000000E+00  0.00000000000E+00  0.10255290152E+04  0.10255290152E+04  0.50400001928E-02 0. -1.
       -1   -1    0    0    0  501  0.00000000000E+00  0.00000000000E+00 -0.11815842833E+04  0.11815842833E+04  0.50400001928E-02 0.  1.
    10030    2    1    2    0    0  0.00000000000E+00  0.00000000000E+00 -0.15605526817E+03  0.22071132985E+04  0.22015893954E+04 0.  0.
        4    1    3    3  502    0  0.29060983867E+03 -0.75159886274E+03 -0.82983752316E+03  0.11567138179E+04  0.12699999809E+01 0.  1.
       -4    1    3    3    0  502 -0.29060983867E+03  0.75159886274E+03  0.67378225499E+03  0.10503994806E+04  0.12699999809E+01 0. -1.
</event>
<event>
 5   0  0.1014015E-05  0.2195870E+04  0.7818609E-02  0.8520149E-01
        2   -1    0    0  501    0  0.00000000000E+00  0.00000000000E+00  0.24286354861E+04  0.24286354861E+04  0.25500000920E-02 0.  1.
       -2   -1    0    0    0  501  0.00000000000E+00  0.00000000000E+00 -0.49635313375E+03  0.49635313376E+03  0.25500000920E-02 0. -1.
    10030    2    1    2    0    0  0.00000000000E+00  0.00000000000E+00  0.19322823524E+04  0.29249886199E+04  0.21958696084E+04 0.  0.
        1    1    3    3  502    0  0.17939996395E+03 -0.43496844665E+02  0.24078161895E+04  0.24148820106E+04  0.50400001928E-02 0.  1.
       -1    1    3    3    0  502 -0.17939996395E+03  0.43496844665E+02 -0.47553383714E+03  0.51010660930E+03  0.50400001928E-02 0. -1.
</event>
<event>
 5   0  0.4630615E-06  0.2201935E+04  0.7818609E-02  0.8517623E-01
       -1   -1    0    0    0  501  0.00000000000E+00  0.00000000000E+00  0.93887519295E+03  0.93887519296E+03  0.50400001928E-02 0. -1.
        1   -1    0    0  501    0  0.00000000000E+00  0.00000000000E+00 -0.12910443542E+04  0.12910443542E+04  0.50400001928E-02 0.  1.
    10030    2    1    2    0    0  0.00000000000E+00  0.00000000000E+00 -0.35216916125E+03  0.22299195472E+04  0.22019350737E+04 0.  0.
        2    1    3    3  502    0  0.10119786490E+03 -0.10414102809E+04 -0.52300673567E+03  0.11697488733E+04  0.25500000920E-02 0. -1.
       -2    1    3    3    0  502 -0.10119786490E+03  0.10414102809E+04  0.17083757442E+03  0.10601706739E+04  0.25500000920E-02 0.  1.
</event>
<event>
 5   0  0.1035928E-05  0.2202913E+04  0.7818609E-02  0.8517217E-01
        2   -1    0    0  501    0  0.00000000000E+00  0.00000000000E+00  0.85205973953E+03  0.85205973953E+03  0.25500000920E-02 0.  1.
       -2   -1    0    0    0  501  0.00000000000E+00  0.00000000000E+00 -0.14238511293E+04  0.14238511293E+04  0.25500000920E-02 0. -1.
    10030    2    1    2    0    0  0.00000000000E+00  0.00000000000E+00 -0.57179138982E+03  0.22759108689E+04  0.22029128193E+04 0.  0.
        3    1    3    3  502    0 -0.67747967816E+03  0.77944934283E+03  0.10979204850E+03  0.10385443161E+04  0.10100000352E+00 0. -1.
       -3    1    3    3    0  502  0.67747967816E+03 -0.77944934283E+03 -0.68158343832E+03  0.12373665528E+04  0.10100000352E+00 0.  1.
</event>
<event>
 5   0  0.4309945E-06  0.2206210E+04  0.7818609E-02  0.8515848E-01
       -1   -1    0    0    0  501  0.00000000000E+00  0.00000000000E+00  0.14830455399E+04  0.14830455399E+04  0.50400001928E-02 0.  1.
        1   -1    0    0  501    0  0.00000000000E+00  0.00000000000E+00 -0.82050098575E+03  0.82050098577E+03  0.50400001928E-02 0. -1.
    10030    2    1    2    0    0  0.00000000000E+00  0.00000000000E+00  0.66254455410E+03  0.23035465256E+04  0.22062097157E+04 0.  0.
        4    1    3    3  502    0  0.90895520419E+02 -0.99998602695E+02 -0.81182493355E+03  0.82299638626E+03  0.12699999809E+01 0. -1.
       -4    1    3    3    0  502 -0.90895520419E+02  0.99998602695E+02  0.14743694876E+04  0.14805501394E+04  0.12699999809E+01 0.  1.
</event>
<event>
 5   0  0.4309945E-06  0.2199738E+04  0.7818609E-02  0.8518537E-01
        1   -1    0    0  501    0  0.00000000000E+00  0.00000000000E+00  0.20820842800E+04  0.20820842800E+04  0.50400001928E-02 0. -1.
       -1   -1    0    0    0  501  0.00000000000E+00  0.00000000000E+00 -0.58100993425E+03  0.58100993427E+03  0.50400001928E-02 0.  1.
    10030    2    1    2    0    0  0.00000000000E+00  0.00000000000E+00  0.15010743458E+04  0.26630942143E+04  0.21997378486E+04 0.  0.
        4    1    3    3  502    0  0.94356334730E+03 -0.94561766800E+02  0.75984517648E+02  0.95133010986E+03  0.12699999809E+01 0.  1.
       -4    1    3    3    0  502 -0.94356334730E+03  0.94561766800E+02  0.14250898281E+04  0.17117641044E+04  0.12699999809E+01 0. -1.
</event>
<event>
 5   0  0.1014015E-05  0.2198440E+04  0.7818609E-02  0.8519078E-01
        2   -1    0    0  501    0  0.00000000000E+00  0.00000000000E+00  0.12992623392E+04  0.12992623392E+04  0.25500000920E-02 0.  1.
       -2   -1    0    0    0  501  0.00000000000E+00  0.00000000000E+00 -0.92997743049E+03  0.92997743049E+03  0.25500000920E-02 0. -1.
    10030    2    1    2    0    0  0.00000000000E+00  0.00000000000E+00  0.36928490874E+03  0.22292397697E+04  0.21984400395E+04 0.  0.
        1    1    3    3  502    0 -0.40471295876E+03 -0.94276581164E+03  0.58473929344E+03  0.11808979617E+04  0.50400001928E-02 0.  1.
       -1    1    3    3    0  502  0.40471295876E+03  0.94276581164E+03 -0.21545438471E+03  0.10483418080E+04  0.50400001928E-02 0. -1.
</event>
<event>
 5   0  0.9963173E-06  0.2188115E+04  0.7818609E-02  0.8523391E-01
        2   -1    0    0  501    0  0.00000000000E+00  0.00000000000E+00  0.10940783793E+04  0.10940783793E+04  0.25500000920E-02 0.  1.
       -2   -1    0    0    0  501  0.00000000000E+00  0.00000000000E+00 -0.10940370691E+04  0.10940370691E+04  0.25500000920E-02 0. -1.
    10030    2    1    2    0    0  0.00000000000E+00  0.00000000000E+00  0.41310264495E-01  0.21881154484E+04  0.21881154480E+04 0.  0.
        4    1    3    3  502    0 -0.86377222853E+02 -0.27141647758E+01 -0.10906178275E+04  0.10940371336E+04  0.12699999809E+01 0. -1.
       -4    1    3    3    0  502  0.86377222853E+02  0.27141647758E+01  0.10906591377E+04  0.10940783148E+04  0.12699999809E+01 0.  1.
</event>
<event>
 5   0  0.4794967E-06  0.2195358E+04  0.7818609E-02  0.8520362E-01
       -1   -1    0    0    0  501  0.00000000000E+00  0.00000000000E+00  0.64084146680E+03  0.64084146682E+03  0.50400001928E-02 0.  1.
        1   -1    0    0  501    0  0.00000000000E+00  0.00000000000E+00 -0.18801837868E+04  0.18801837868E+04  0.50400001928E-02 0. -1.
    10030    2    1    2    0    0  0.00000000000E+00  0.00000000000E+00 -0.12393423200E+04  0.25210252536E+04  0.21953584999E+04 0.  0.
        5    1    3    3  502    0 -0.21345722468E+03 -0.57892594055E+03 -0.16621736342E+04  0.17730094505E+04  0.46999998093E+01 0. -1.
       -5    1    3    3    0  502  0.21345722468E+03  0.57892594055E+03  0.42283131421E+03  0.74801580310E+03  0.46999998093E+01 0.  1.
</event>
<event>
 5   0  0.1014015E-05  0.2198145E+04  0.7818609E-02  0.8519201E-01
       -2   -1    0    0    0  501  0.00000000000E+00  0.00000000000E+00  0.96260461591E+03  0.96260461591E+03  0.25500000920E-02 0.  1.
        2   -1    0    0  501    0  0.00000000000E+00  0.00000000000E+00 -0.12548871060E+04  0.12548871060E+04  0.25500000920E-02 0. -1.
    10030    2    1    2    0    0  0.00000000000E+00  0.00000000000E+00 -0.29228249006E+03  0.22174917219E+04  0.21981447820E+04 0.  0.
        1    1    3    3  502    0  0.44325282841E+03 -0.31357678025E+02  0.86794449847E+03  0.97508154855E+03  0.50400001928E-02 0.  1.
       -1    1    3    3    0  502 -0.44325282841E+03  0.31357678025E+02 -0.11602269885E+04  0.12424101733E+04  0.50400001928E-02 0. -1.
</event>
<event>
 5   0  0.1035928E-05  0.2204511E+04  0.7818609E-02  0.8516553E-01
       -2   -1    0    0    0  501  0.00000000000E+00  0.00000000000E+00  0.73675607185E+03  0.73675607186E+03  0.25500000920E-02 0. -1.
        2   -1    0    0  501    0  0.00000000000E+00  0.00000000000E+00 -0.16490764945E+04  0.16490764945E+04  0.25500000920E-02 0.  1.
    10030    2    1    2    0    0  0.00000000000E+00  0.00000000000E+00 -0.91232042267E+03  0.23858325664E+04  0.22045109392E+04 0.  0.
        3    1    3    3  502    0 -0.47628759398E+03 -0.67588101584E+03 -0.12450175434E+04  0.14945680691E+04  0.10100000352E+00 0.  1.
       -3    1    3    3    0  502  0.47628759398E+03  0.67588101584E+03  0.33269712070E+03  0.89126449726E+03  0.10100000352E+00 0. -1.
</event>
<event>
 5   0  0.4408787E-06  0.2201541E+04  0.7818609E-02  0.8517787E-01
       -1   -1    0    0    0  501  0.00000000000E+00  0.00000000000E+00  0.11625457970E+04  0.11625457970E+04  0.50400001928E-02 0.  1.
        1   -1    0    0  501    0  0.00000000000E+00  0.00000000000E+00 -0.10422780897E+04  0.10422780897E+04  0.50400001928E-02 0. -1.
    10030    2    1    2    0    0  0.00000000000E+00  0.00000000000E+00  0.12026770731E+03  0.22048238867E+04  0.22015412897E+04 0.  0.
        1    1    3    3  502    0  0.83188602077E+03 -0.51876586471E+02 -0.65994481046E+03  0.10631334275E+04  0.50400001928E-02 0. -1.
       -1    1    3    3    0  502 -0.83188602077E+03  0.51876586471E+02  0.78021251777E+03  0.11416904592E+04  0.50400001928E-02 0.  1.
</event>
<event>
 5   0  0.4309945E-06  0.2200679E+04  0.7818609E-02  0.8518145E-01
        1   -1    0    0  501    0  0.00000000000E+00  0.00000000000E+00  0.80781326520E+03  0.80781326522E+03  0.50400001928E-02 0. -1.
       -1   -1    0    0    0  501  0.00000000000E+00  0.00000000000E+00 -0.14987962018E+04  0.14987962018E+04  0.50400001928E-02 0.  1.
    10030    2    1    2    0    0  0.00000000000E+00  0.00000000000E+00 -0.69098293664E+03  0.23066094671E+04  0.22006793985E+04 0.  0.
        4    1    3    3  502    0  0.28094425979E+03  0.82759941326E+03  0.35518934001E+03  0.94340423260E+03  0.12699999809E+01 0. -1.
       -4    1    3    3    0  502 -0.28094425979E+03 -0.82759941326E+03 -0.10461722767E+04  0.13632052345E+04  0.12699999809E+01 0.  1.
</event>
<event>
 5   0  0.4462201E-06  0.2201960E+04  0.7818609E-02  0.8517613E-01
        1   -1    0    0  501    0  0.00000000000E+00  0.00000000000E+00  0.16202956115E+04  0.16202956116E+04  0.50400001928E-02 0. -1.
       -1   -1    0    0    0  501  0.00000000000E+00  0.00000000000E+00 -0.74810834636E+03  0.74810834638E+03  0.50400001928E-02 0.  1.
    10030    2    1    2    0    0  0.00000000000E+00  0.00000000000E+00  0.87218726519E+03  0.23684039579E+04  0.22019597368E+04 0.  0.
        3    1    3    3  502    0  0.71804614079E+03 -0.80678640438E+03  0.20625430917E+03  0.10995614639E+04  0.10100000352E+00 0.  1.
       -3    1    3    3    0  502 -0.71804614079E+03  0.80678640438E+03  0.66593295602E+03  0.12688424941E+04  0.10100000352E+00 0. -1.
</event>
<event>
 5   0  0.4794967E-06  0.2197064E+04  0.7818609E-02  0.8519651E-01
        1   -1    0    0  501    0  0.00000000000E+00  0.00000000000E+00  0.75628831517E+03  0.75628831519E+03  0.50400001928E-02 0.  1.
       -1   -1    0    0    0  501  0.00000000000E+00  0.00000000000E+00 -0.15956514359E+04  0.15956514359E+04  0.50400001928E-02 0. -1.
    10030    2    1    2    0    0  0.00000000000E+00  0.00000000000E+00 -0.83936312070E+03  0.23519397511E+04  0.21970639827E+04 0.  0.
        5    1    3    3  502    0  0.21267173050E+03  0.99005421072E+03  0.36144306772E+02  0.10132941853E+04  0.46999998093E+01 0.  1.
       -5    1    3    3    0  502 -0.21267173050E+03 -0.99005421072E+03 -0.87550742747E+03  0.13386455657E+04  0.46999998093E+01 0. -1.
</event>
<event>
 5   0  0.4462201E-06  0.2199997E+04  0.7818609E-02  0.8518430E-01
        1   -1    0    0  501    0  0.00000000000E+00  0.00000000000E+00  0.10259732027E+04  0.10259732028E+04  0.50400001928E-02 0.  1.
       -1   -1    0    0    0  501  0.00000000000E+00  0.00000000000E+00 -0.11793644440E+04  0.11793644440E+04  0.50400001928E-02 0. -1.
    10030    2    1    2    0    0  0.00000000000E+00  0.00000000000E+00 -0.15339124123E+03  0.22053376467E+04  0.21999966507E+04 0.  0.
        3    1    3    3  502    0  0.58124833188E+03 -0.36823063787E+03  0.78361451101E+03  0.10428303496E+04  0.10100000352E+00 0.  1.
       -3    1    3    3    0  502 -0.58124833188E+03  0.36823063787E+03 -0.93700575223E+03  0.11625072971E+04  0.10100000352E+00 0. -1.
</event>
<event>
 5   0  0.9963173E-06  0.2192705E+04  0.7818609E-02  0.8521471E-01
       -2   -1    0    0    0  501  0.00000000000E+00  0.00000000000E+00  0.63457106732E+03  0.63457106733E+03  0.25500000920E-02 0.  1.
        2   -1    0    0  501    0  0.00000000000E+00  0.00000000000E+00 -0.18941745304E+04  0.18941745304E+04  0.25500000920E-02 0. -1.
    10030    2    1    2    0    0  0.00000000000E+00  0.00000000000E+00 -0.12596034630E+04  0.25287455977E+04  0.21927045888E+04 0.  0.
        4    1    3    3  502    0  0.68666728314E+03 -0.85387758403E+03 -0.58714918828E+03  0.12431269720E+04  0.12699999809E+01 0. -1.
       -4    1    3    3    0  502 -0.68666728314E+03  0.85387758403E+03 -0.67245427476E+03  0.12856186257E+04  0.12699999809E+01 0.  1.
</event>
<event>
 5   0  0.1014015E-05  0.2200726E+04  0.7818609E-02  0.8518126E-01
        2   -1    0    0  501    0  0.00000000000E+00  0.00000000000E+00  0.18092627294E+04  0.18092627295E+04  0.25500000920E-02 0.  1.
       -2   -1    0    0    0  501  0.00000000000E+00  0.00000000000E+00 -0.66922189207E+03  0.66922189208E+03  0.25500000920E-02 0. -1.
    10030    2    1    2    0    0  0.00000000000E+00  0.00000000000E+00  0.11400408374E+04  0.24784846215E+04  0.22007255413E+04 0.  0.
        1    1    3    3  502    0  0.13076214772E+03 -0.97200557663E+03  0.81491216188E+01  0.98079558955E+03  0.50400001928E-02 0. -1.
       -1    1    3    3    0  502 -0.13076214772E+03  0.97200557663E+03  0.11318917158E+04  0.14976890320E+04  0.50400001928E-02 0.  1.
</event>
<event>
 5   0  0.4630615E-06  0.2209947E+04  0.7818609E-02  0.8514299E-01
        1   -1    0    0  501    0  0.00000000000E+00  0.00000000000E+00  0.84167653594E+03  0.84167653596E+03  0.50400001928E-02 0. -1.
       -1   -1    0    0    0  501  0.00000000000E+00  0.00000000000E+00 -0.14506367226E+04  0.14506367226E+04  0.50400001928E-02 0.  1.
    10030    2    1    2    0    0  0.00000000000E+00  0.00000000000E+00 -0.60896018666E+03  0.22923132586E+04  0.22099474126E+04 0.  0.
        2    1    3    3  502    0  0.31649508888E+02 -0.48740859150E+03  0.72362089376E+03  0.87303838654E+03  0.25500000920E-02 0. -1.
       -2    1    3    3    0  502 -0.31649508888E+02  0.48740859150E+03 -0.13325810804E+04  0.14192748720E+04  0.25500000920E-02 0.  1.
</event>
<event>
 5   0  0.1015876E-05  0.2191023E+04  0.7818609E-02  0.8522174E-01
        2   -1    0    0  501    0  0.00000000000E+00  0.00000000000E+00  0.15371341822E+04  0.15371341822E+04  0.25500000920E-02 0.  1.
       -2   -1    0    0    0  501  0.00000000000E+00  0.00000000000E+00 -0.78076792863E+03  0.78076792864E+03  0.25500000920E-02 0. -1.
    10030    2    1    2    0    0  0.00000000000E+00  0.00000000000E+00  0.75636625354E+03  0.23179021108E+04  0.21910226575E+04 0.  0.
        5    1    3    3  502    0  0.13517164054E+02  0.42341431622E+03  0.14469645440E+04  0.15077104757E+04  0.46999998093E+01 0.  1.
       -5    1    3    3    0  502 -0.13517164054E+02 -0.42341431622E+03 -0.69059829044E+03  0.81019163515E+03  0.46999998093E+01 0. -1.
</event>
<event>
 5   0  0.4630615E-06  0.2196413E+04  0.7818609E-02  0.8519923E-01
       -1   -1    0    0    0  501  0.00000000000E+00  0.00000000000E+00  0.11665716602E+04  0.11665716602E+04  0.50400001928E-02 0.  1.
        1   -1    0    0  501    0  0.00000000000E+00  0.00000000000E+00 -0.10338477513E+04  0.10338477513E+04  0.50400001928E-02 0. -1.
    10030    2    1    2    0    0  0.00000000000E+00  0.00000000000E+00  0.13272390890E+03  0.22004194116E+04  0.21964129737E+04 0.  0.
        2    1    3    3  502    0  0.13536025591E+02  0.34114049679E+03 -0.97933193769E+03  0.10371360117E+04  0.25500000920E-02 0. -1.
       -2    1    3    3    0  502 -0.13536025591E+02 -0.34114049679E+03  0.11120558466E+04  0.11632833999E+04  0.25500000920E-02 0.  1.
</event>
<event>
 5   0  0.9963573E-06  0.2199501E+04  0.7818609E-02  0.8518636E-01
       -2   -1    0    0    0  501  0.00000000000E+00  0.00000000000E+00  0.17013055558E+04  0.17013055558E+04  0.25500000920E-02 0.  1.
        2   -1    0    0  501    0  0.00000000000E+00  0.00000000000E+00 -0.71089613406E+03  0.71089613406E+03  0.25500000920E-02 0. -1.
    10030    2    1    2    0    0  0.00000000000E+00  0.00000000000E+00  0.99040942169E+03  0.24122016898E+04  0.21995013457E+04 0.  0.
        2    1    3    3  502    0 -0.67245072008E+03  0.26854069514E+03 -0.41257696803E+03  0.83338096357E+03  0.25500000920E-02 0. -1.
       -2    1    3    3    0  502  0.67245072008E+03 -0.26854069514E+03  0.14029863897E+04  0.15788207263E+04  0.25500000920E-02 0.  1.
</event>
<event>
 5   0  0.1035928E-05  0.2201392E+04  0.7818609E-02  0.8517849E-01
        2   -1    0    0  501    0  0.00000000000E+00  0.00000000000E+00  0.20000698086E+04  0.20000698086E+04  0.25500000920E-02 0. -1.
       -2   -1    0    0    0  501  0.00000000000E+00  0.00000000000E+00 -0.60574446311E+03  0.60574446312E+03  0.25500000920E-02 0.  1.
    10030    2    1    2    0    0  0.00000000000E+00  0.00000000000E+00  0.13943253455E+04  0.26058142718E+04  0.22013915712E+04 0.  0.
        3    1    3    3  502    0  0.10101243976E+04 -0.30536991254E+03  0.32673614103E+03  0.11046984195E+04  0.10100000352E+00 0.  1.
       -3    1    3    3    0  502 -0.10101243976E+04  0.30536991254E+03  0.10675892045E+04  0.15011158522E+04  0.10100000352E+00 0. -1.
</event>
<event>
 5   0  0.3546750E-06  0.2201488E+04  0.7818609E-02  0.8517809E-01
       -3   -1    0    0    0  501  0.00000000000E+00  0.00000000000E+00  0.93718618336E+03  0.93718618880E+03  0.10100000352E+00 0. -1.
        3   -1    0    0  501    0  0.00000000000E+00  0.00000000000E+00 -0.12928455898E+04  0.12928455938E+04  0.10100000352E+00 0.  1.
    10030    2    1    2    0    0  0.00000000000E+00  0.00000000000E+00 -0.35565940647E+03  0.22300317826E+04  0.22014877101E+04 0.  0.
        5    1    3    3  502    0  0.19728854402E+03  0.68762945027E+03  0.66959228068E+03  0.97986373687E+03  0.46999998093E+01 0. -1.
       -5    1    3    3    0  502 -0.19728854402E+03 -0.68762945027E+03 -0.10252516871E+04  0.12501680457E+04  0.46999998093E+01 0.  1.
</event>
<event>
 5   0  0.1014015E-05  0.2198231E+04  0.7818609E-02  0.8519165E-01
       -2   -1    0    0    0  501  0.00000000000E+00  0.00000000000E+00  0.10422796006E+04  0.10422796006E+04  0.25500000920E-02 0. -1.
        2   -1    0    0  501    0  0.00000000000E+00  0.00000000000E+00 -0.11590504092E+04  0.11590504092E+04  0.25500000920E-02 0.  1.
    10030    2    1    2    0    0  0.00000000000E+00  0.00000000000E+00 -0.11677080855E+03  0.22013300098E+04  0.21982307409E+04 0.  0.
        1    1    3    3  502    0  0.18625326681E+03 -0.10830382105E+04 -0.78226280640E+02  0.11017174755E+04  0.50400001928E-02 0.  1.
       -1    1    3    3    0  502 -0.18625326681E+03  0.10830382105E+04 -0.38544527911E+02  0.10996125343E+04  0.50400001928E-02 0. -1.
</event>
<event>
 5   0  0.9963173E-06  0.2198727E+04  0.7818609E-02  0.8518958E-01
       -2   -1    0    0    0  501  0.00000000000E+00  0.00000000000E+00  0.65331231635E+03  0.65331231635E+03  0.25500000920E-02 0.  1.
        2   -1    0    0  501    0  0.00000000000E+00  0.00000000000E+00 -0.18499573850E+04  0.18499573850E+04  0.25500000920E-02 0. -1.
    10030    2    1    2    0    0  0.00000000000E+00  0.00000000000E+00 -0.11966450686E+04  0.25032697013E+04  0.21987268537E+04 0.  0.
        4    1    3    3  502    0  0.25556628893E+03 -0.79588234834E+03 -0.14112651915E+04  0.16402481197E+04  0.12699999809E+01 0. -1.
       -4    1    3    3    0  502 -0.25556628893E+03  0.79588234834E+03  0.21462012283E+03  0.86302158169E+03  0.12699999809E+01 0.  1.
</event>
<event>
 5   0  0.4794967E-06  0.2204359E+04  0.7818609E-02  0.8516616E-01
        1   -1    0    0  501    0  0.00000000000E+00  0.00000000000E+00  0.15867426309E+04  0.15867426309E+04  0.50400001928E-02 0.  1.
       -1   -1    0    0    0  501  0.00000000000E+00  0.00000000000E+00 -0.76559315322E+03  0.76559315324E+03  0.50400001928E-02 0. -1.
    10030    2    1    2    0    0  0.00000000000E+00  0.00000000000E+00  0.82114947768E+03  0.23523357842E+04  0.22043586770E+04 0.  0.
        5    1    3    3  502    0  0.72099962265E+03  0.33968865490E+03  0.12229597407E+04  0.14597539024E+04  0.46999998093E+01 0.  1.
       -5    1    3    3    0  502 -0.72099962265E+03 -0.33968865490E+03 -0.40181026305E+03  0.89258188175E+03  0.46999998093E+01 0. -1.
</event>
<event>
 5   0  0.4309945E-06  0.2200019E+04  0.7818609E-02  0.8518420E-01
       -1   -1    0    0    0  501  0.00000000000E+00  0.00000000000E+00  0.10494121311E+04  0.10494121311E+04  0.50400001928E-02 0. -1.
        1   -1    0    0  501    0  0.00000000000E+00  0.00000000000E+00 -0.11530469182E+04  0.11530469182E+04  0.50400001928E-02 0.  1.
    10030    2    1    2    0    0  0.00000000000E+00  0.00000000000E+00 -0.10363478710E+03  0.22024590493E+04  0.22000194760E+04 0.  0.
        4    1    3    3  502    0  0.76893168743E+03 -0.40841782629E+03 -0.72484164888E+03  0.11328980932E+04  0.12699999809E+01 0.  1.
       -4    1    3    3    0  502 -0.76893168743E+03  0.40841782629E+03  0.62120686177E+03  0.10695609561E+04  0.12699999809E+01 0. -1.
</event>
<event>
 5   0  0.4794967E-06  0.2199538E+04  0.7818609E-02  0.8518620E-01
        1   -1    0    0  501    0  0.00000000000E+00  0.00000000000E+00  0.17530994576E+04  0.17530994576E+04  0.50400001928E-02 0.  1.
       -1   -1    0    0    0  501  0.00000000000E+00  0.00000000000E+00 -0.68991655325E+03  0.68991655326E+03  0.50400001928E-02 0. -1.
    10030    2    1    2    0    0  0.00000000000E+00  0.00000000000E+00  0.10631829043E+04  0.24430160108E+04  0.21995384382E+04 0.  0.
        5    1    3    3  502    0 -0.35539438861E+03  0.10332295850E+04  0.67032474618E+03  0.12818837319E+04  0.46999998093E+01 0. -1.
       -5    1    3    3    0  502  0.35539438861E+03 -0.10332295850E+04  0.39285815815E+03  0.11611322789E+04  0.46999998093E+01 0.  1.
</event>
<event>
 5   0  0.1035928E-05  0.2198086E+04  0.7818609E-02  0.8519225E-01
        2   -1    0    0  501    0  0.00000000000E+00  0.00000000000E+00  0.16351263464E+04  0.16351263464E+04  0.25500000920E-02 0. -1.
       -2   -1    0    0    0  501  0.00000000000E+00  0.00000000000E+00 -0.73871660096E+03  0.73871660096E+03  0.25500000920E-02 0.  1.
    10030    2    1    2    0    0  0.00000000000E+00  0.00000000000E+00  0.89640974540E+03  0.23738429473E+04  0.21980855095E+04 0.  0.
        3    1    3    3  502    0  0.30461620191E+03 -0.44303449503E+03  0.14834034175E+04  0.15778327869E+04  0.10100000352E+00 0. -1.
       -3    1    3    3    0  502 -0.30461620191E+03  0.44303449503E+03 -0.58699367207E+03  0.79601016043E+03  0.10100000352E+00 0.  1.
</event>
<event>
 5   0  0.9963573E-06  0.2198428E+04  0.7818609E-02  0.8519083E-01
       -2   -1    0    0    0  501  0.00000000000E+00  0.00000000000E+00  0.81532536478E+03  0.81532536479E+03  0.25500000920E-02 0.  1.
        2   -1    0    0  501    0  0.00000000000E+00  0.00000000000E+00 -0.14819505364E+04  0.14819505364E+04  0.25500000920E-02 0. -1.
    10030    2    1    2    0    0  0.00000000000E+00  0.00000000000E+00 -0.66662517157E+03  0.22972759011E+04  0.21984284038E+04 0.  0.
        2    1    3    3  502    0 -0.48356672607E+02 -0.10634496746E+04 -0.47121934212E+02  0.10655909417E+04  0.25500000920E-02 0.  1.
       -2    1    3    3    0  502  0.48356672607E+02  0.10634496746E+04 -0.61950323736E+03  0.12316849595E+04  0.25500000920E-02 0. -1.
</event>
<event>
 5   0  0.1015876E-05  0.2198429E+04  0.7818609E-02  0.8519082E-01
        2   -1    0    0  501    0  0.00000000000E+00  0.00000000000E+00  0.15882837946E+04  0.15882837946E+04  0.25500000920E-02 0. -1.
       -2   -1    0    0    0  501  0.00000000000E+00  0.00000000000E+00 -0.76074098084E+03  0.76074098084E+03  0.25500000920E-02 0.  1.
    10030    2    1    2    0    0  0.00000000000E+00  0.00000000000E+00  0.82754281376E+03  0.23490247754E+04  0.21984290498E+04 0.  0.
        5    1    3    3  502    0 -0.18412030177E+03  0.10747093180E+04  0.56240483827E+03  0.12268747678E+04  0.46999998093E+01 0.  1.
       -5    1    3    3    0  502  0.18412030177E+03 -0.10747093180E+04  0.26513797550E+03  0.11221500077E+04  0.46999998093E+01 0. -1.
</event>
<event>
 5   0  0.4309945E-06  0.2202158E+04  0.7818609E-02  0.8517530E-01
       -1   -1    0    0    0  501  0.00000000000E+00  0.00000000000E+00  0.67447276410E+03  0.67447276412E+03  0.50400001928E-02 0.  1.
        1   -1    0    0  501    0  0.00000000000E+00  0.00000000000E+00 -0.17975158274E+04  0.17975158274E+04  0.50400001928E-02 0. -1.
    10030    2    1    2    0    0  0.00000000000E+00  0.00000000000E+00 -0.11230430633E+04  0.24719885915E+04  0.22021584581E+04 0.  0.
        4    1    3    3  502    0 -0.32457136284E+03 -0.67140783220E+03  0.34782382081E+03  0.82287184296E+03  0.12699999809E+01 0. -1.
       -4    1    3    3    0  502  0.32457136284E+03  0.67140783220E+03 -0.14708668841E+04  0.16491167485E+04  0.12699999809E+01 0.  1.
</event>
<event>
 5   0  0.4408787E-06  0.2197020E+04  0.7818609E-02  0.8519670E-01
        1   -1    0    0  501    0  0.00000000000E+00  0.00000000000E+00  0.18613554872E+04  0.18613554872E+04  0.50400001928E-02 0. -1.
       -1   -1    0    0    0  501  0.00000000000E+00  0.00000000000E+00 -0.64830379114E+03  0.64830379116E+03  0.50400001928E-02 0.  1.
    10030    2    1    2    0    0  0.00000000000E+00  0.00000000000E+00  0.12130516960E+04  0.25096592783E+04  0.21970196349E+04 0.  0.
        1    1    3    3  502    0 -0.46939458817E+03 -0.72250410482E+03  0.13849525890E+04  0.16310846498E+04  0.50400001928E-02 0. -1.
       -1    1    3    3    0  502  0.46939458817E+03  0.72250410482E+03 -0.17190089300E+03  0.87857462855E+03  0.50400001928E-02 0.  1.
</event>
<event>
 5   0  0.9963573E-06  0.2190694E+04  0.7818609E-02  0.8522312E-01
        2   -1    0    0  501    0  0.00000000000E+00  0.00000000000E+00  0.83589905645E+03  0.83589905646E+03  0.25500000920E-02 0.  1.
       -2   -1    0    0    0  501  0.00000000000E+00  0.00000000000E+00 -0.14353226604E+04  0.14353226604E+04  0.25500000920E-02 0. -1.
    10030    2    1    2    0    0  0.00000000000E+00  0.00000000000E+00 -0.59942360399E+03  0.22712217169E+04  0.21906938239E+04 0.  0.
        2    1    3    3  502    0 -0.10075585712E+04 -0.24338138047E+03 -0.66681249448E+03  0.12324965207E+04  0.25500000920E-02 0. -1.
       -2    1    3    3    0  502  0.10075585712E+04  0.24338138047E+03  0.67388890489E+02  0.10387251962E+04  0.25500000920E-02 0.  1.
</event>
<event>
 5   0  0.3546750E-06  0.2203059E+04  0.7818609E-02  0.8517156E-01
        3   -1    0    0  501    0  0.00000000000E+00  0.00000000000E+00  0.15194520639E+04  0.15194520673E+04  0.10100000352E+00 0. -1.
       -3   -1    0    0    0  501  0.00000000000E+00  0.00000000000E+00 -0.79855600497E+03  0.79855601135E+03  0.10100000352E+00 0.  1.
    10030    2    1    2    0    0  0.00000000000E+00  0.00000000000E+00  0.72089605897E+03  0.23180080786E+04  0.22030593103E+04 0.  0.
        3    1    3    3  502    0  0.10616792998E+03 -0.68609763297E+02  0.15117952664E+04  0.15170708180E+04  0.10100000352E+00 0. -1.
       -3    1    3    3    0  502 -0.10616792998E+03  0.68609763297E+02 -0.79089920745E+03  0.80093726067E+03  0.10100000352E+00 0.  1.
</event>
<event>
 5   0  0.4309945E-06  0.2201921E+04  0.7818609E-02  0.8517629E-01
        1   -1    0    0  501    0  0.00000000000E+00  0.00000000000E+00  0.13348592704E+04  0.13348592704E+04  0.50400001928E-02 0.  1.
       -1   -1    0    0    0  501  0.00000000000E+00  0.00000000000E+00 -0.90804606599E+03  0.90804606600E+03  0.50400001928E-02 0. -1.
    10030    2    1    2    0    0  0.00000000000E+00  0.00000000000E+00  0.42681320441E+03  0.22429053364E+04  0.22019207153E+04 0.  0.
        4    1    3    3  502    0 -0.80740689514E+02 -0.44727850803E+03 -0.80802162912E+03  0.92708019541E+03  0.12699999809E+01 0. -1.
       -4    1    3    3    0  502  0.80740689514E+02  0.44727850803E+03  0.12348348335E+04  0.13158251410E+04  0.12699999809E+01 0.  1.
</event>
<event>
 5   0  0.9963173E-06  0.2202547E+04  0.7818609E-02  0.8517369E-01
       -2   -1    0    0    0  501  0.00000000000E+00  0.00000000000E+00  0.85876327845E+03  0.85876327845E+03  0.25500000920E-02 0.  1.
        2   -1    0    0  501    0  0.00000000000E+00  0.00000000000E+00 -0.14122674778E+04  0.14122674778E+04  0.25500000920E-02 0. -1.
    10030    2    1    2    0    0  0.00000000000E+00  0.00000000000E+00 -0.55350419934E+03  0.22710307562E+04  0.22025471158E+04 0.  0.
        4    1    3    3  502    0  0.55060518622E+03 -0.82426866961E+03 -0.77148003436E+03  0.12560923402E+04  0.12699999809E+01 0. -1.
       -4    1    3    3    0  502 -0.55060518622E+03  0.82426866961E+03  0.21797583502E+03  0.10149384160E+04  0.12699999809E+01 0.  1.
</event>
<event>
 5   0  0.4794967E-06  0.2205238E+04  0.7818609E-02  0.8516251E-01
       -1   -1    0    0    0  501  0.00000000000E+00  0.00000000000E+00  0.10601654706E+04  0.10601654706E+04  0.50400001928E-02 0.  1.
        1   -1    0    0  501    0  0.00000000000E+00  0.00000000000E+00 -0.11467723355E+04  0.11467723355E+04  0.50400001928E-02 0. -1.
    10030    2    1    2    0    0  0.00000000000E+00  0.00000000000E+00 -0.86606864874E+02  0.22069378061E+04  0.22052377946E+04 0.  0.
        5    1    3    3  502    0  0.26566713408E+03  0.11600367624E+03  0.10213354739E+04  0.10616892762E+04  0.46999998093E+01 0.  1.
       -5    1    3    3    0  502 -0.26566713408E+03 -0.11600367624E+03 -0.11079423388E+04  0.11452485298E+04  0.46999998093E+01 0. -1.
</event>
<event>
 5   0  0.1015876E-05  0.2212096E+04  0.7818609E-02  0.8513410E-01
       -2   -1    0    0    0  501  0.00000000000E+00  0.00000000000E+00  0.92407745901E+03  0.92407745902E+03  0.25500000920E-02 0. -1.
        2   -1    0    0  501    0  0.00000000000E+00  0.00000000000E+00 -0.13238519806E+04  0.13238519806E+04  0.25500000920E-02 0.  1.
    10030    2    1    2    0    0  0.00000000000E+00  0.00000000000E+00 -0.39977452155E+03  0.22479294396E+04  0.22120956347E+04 0.  0.
        5    1    3    3  502    0 -0.72215479365E+03 -0.14306422384E+03  0.63892011063E+03  0.97479019070E+03  0.46999998093E+01 0. -1.
       -5    1    3    3    0  502  0.72215479365E+03  0.14306422384E+03 -0.10386946322E+04  0.12731392489E+04  0.46999998093E+01 0.  1.
</event>
<event>
 5   0  0.1014015E-05  0.2141877E+04  0.7818609E-02  0.8543017E-01
        2   -1    0    0  501    0  0.00000000000E+00  0.00000000000E+00  0.26354345934E+04  0.26354345934E+04  0.25500000920E-02 0.  1.
       -2   -1    0    0    0  501  0.00000000000E+00  0.00000000000E+00 -0.43518804851E+03  0.43518804852E+03  0.25500000920E-02 0. -1.
    10030    2    1    2    0    0  0.00000000000E+00  0.00000000000E+00  0.22002465449E+04  0.30706226419E+04  0.21418773426E+04 0.  0.
        1    1    3    3  502    0 -0.62850456054E+02 -0.62097817611E+03 -0.14748686164E+03  0.64133957418E+03  0.50400001928E-02 0. -1.
       -1    1    3    3    0  502  0.62850456054E+02  0.62097817611E+03  0.23477334065E+04  0.24292830677E+04  0.50400001928E-02 0.  1.
</event>
<event>
 5   0  0.4462201E-06  0.2200879E+04  0.7818609E-02  0.8518062E-01
       -1   -1    0    0    0  501  0.00000000000E+00  0.00000000000E+00  0.75707720190E+03  0.75707720192E+03  0.50400001928E-02 0.  1.
        1   -1    0    0  501    0  0.00000000000E+00  0.00000000000E+00 -0.15995296928E+04  0.15995296928E+04  0.50400001928E-02 0. -1.
    10030    2    1    2    0    0  0.00000000000E+00  0.00000000000E+00 -0.84245249092E+03  0.23566068947E+04  0.22008793372E+04 0.  0.
        3    1    3    3  502    0 -0.16739942969E+03  0.68068116018E+03 -0.13295526370E+04  0.15030168448E+04  0.10100000352E+00 0. -1.
       -3    1    3    3    0  502  0.16739942969E+03 -0.68068116018E+03  0.48710014610E+03  0.85359004997E+03  0.10100000352E+00 0.  1.
</event>
<event>
 5   0  0.4309945E-06  0.2207787E+04  0.7818609E-02  0.8515194E-01
        1   -1    0    0  501    0  0.00000000000E+00  0.00000000000E+00  0.10191634664E+04  0.10191634664E+04  0.50400001928E-02 0. -1.
       -1   -1    0    0    0  501  0.00000000000E+00  0.00000000000E+00 -0.11956675455E+04  0.11956675455E+04  0.50400001928E-02 0.  1.
    10030    2    1    2    0    0  0.00000000000E+00  0.00000000000E+00 -0.17650407911E+03  0.22148310119E+04  0.22077868379E+04 0.  0.
        4    1    3    3  502    0 -0.47866463728E+03 -0.89167174927E+03  0.35404094789E+03  0.10721683399E+04  0.12699999809E+01 0. -1.
       -4    1    3    3    0  502  0.47866463728E+03  0.89167174927E+03 -0.53054502700E+03  0.11426626720E+04  0.12699999809E+01 0.  1.
</event>
<event>
 5   0  0.4309945E-06  0.2199151E+04  0.7818609E-02  0.8518782E-01
        1   -1    0    0  501    0  0.00000000000E+00  0.00000000000E+00  0.18635575364E+04  0.18635575364E+04  0.50400001928E-02 0. -1.
       -1   -1    0    0    0  501  0.00000000000E+00  0.00000000000E+00 -0.64879453426E+03  0.64879453428E+03  0.50400001928E-02 0.  1.
    10030    2    1    2    0    0  0.00000000000E+00  0.00000000000E+00  0.12147630021E+04  0.25123520707E+04  0.21991506942E+04 0.  0.
        4    1    3    3  502    0 -0.84309867898E+03  0.70584647283E+03  0.61360798268E+03  0.12591866403E+04  0.12699999809E+01 0.  1.
       -4    1    3    3    0  502  0.84309867898E+03 -0.70584647283E+03  0.60115501946E+03  0.12531654304E+04  0.12699999809E+01 0. -1.
</event>
<event>
 5   0  0.4309945E-06  0.2200574E+04  0.7818609E-02  0.8518189E-01
        1   -1    0    0  501    0  0.00000000000E+00  0.00000000000E+00  0.11263113361E+04  0.11263113361E+04  0.50400001928E-02 0.  1.
       -1   -1    0    0    0  501  0.00000000000E+00  0.00000000000E+00 -0.10748636252E+04  0.10748636252E+04  0.50400001928E-02 0. -1.
    10030    2    1    2    0    0  0.00000000000E+00  0.00000000000E+00  0.51447710954E+02  0.22011749613E+04  0.22005736396E+04 0.  0.
        4    1    3    3  502    0 -0.61210847159E+03  0.80492771451E+03  0.45948283117E+03  0.11107256599E+04  0.12699999809E+01 0.  1.
       -4    1    3    3    0  502  0.61210847159E+03 -0.80492771451E+03 -0.40803512022E+03  0.10904493014E+04  0.12699999809E+01 0. -1.
</event>
<event>
 5   0  0.4408787E-06  0.2198522E+04  0.7818609E-02  0.8519043E-01
        1   -1    0    0  501    0  0.00000000000E+00  0.00000000000E+00  0.19705076116E+04  0.19705076116E+04  0.50400001928E-02 0.  1.
       -1   -1    0    0    0  501  0.00000000000E+00  0.00000000000E+00 -0.61323033911E+03  0.61323033913E+03  0.50400001928E-02 0. -1.
    10030    2    1    2    0    0  0.00000000000E+00  0.00000000000E+00  0.13572772725E+04  0.25837379507E+04  0.21985222773E+04 0.  0.
        1    1    3    3  502    0 -0.10293998293E+04 -0.36343600863E+03  0.83016997841E+03  0.13714707193E+04  0.50400001928E-02 0.  1.
       -1    1    3    3    0  502  0.10293998293E+04  0.36343600863E+03  0.52710729409E+03  0.12122672314E+04  0.50400001928E-02 0. -1.
</event>
<event>
 5   0  0.1015876E-05  0.2201559E+04  0.7818609E-02  0.8517780E-01
       -2   -1    0    0    0  501  0.00000000000E+00  0.00000000000E+00  0.88814543473E+03  0.88814543474E+03  0.25500000920E-02 0. -1.
        2   -1    0    0  501    0  0.00000000000E+00  0.00000000000E+00 -0.13643204354E+04  0.13643204354E+04  0.25500000920E-02 0.  1.
    10030    2    1    2    0    0  0.00000000000E+00  0.00000000000E+00 -0.47617500064E+03  0.22524658701E+04  0.22015585081E+04 0.  0.
        5    1    3    3  502    0 -0.48664994983E+03 -0.68784395402E+03  0.48662434240E+03  0.97302765601E+03  0.46999998093E+01 0. -1.
       -5    1    3    3    0  502  0.48664994983E+03  0.68784395402E+03 -0.96279934304E+03  0.12794382141E+04  0.46999998093E+01 0.  1.
</event>
<event>
 5   0  0.9963573E-06  0.2199385E+04  0.7818609E-02  0.8518684E-01
        2   -1    0    0  501    0  0.00000000000E+00  0.00000000000E+00  0.15014793717E+04  0.15014793717E+04  0.25500000920E-02 0.  1.
       -2   -1    0    0    0  501  0.00000000000E+00  0.00000000000E+00 -0.80542105741E+03  0.80542105741E+03  0.25500000920E-02 0. -1.
    10030    2    1    2    0    0  0.00000000000E+00  0.00000000000E+00  0.69605831434E+03  0.23069004292E+04  0.21993845533E+04 0.  0.
        2    1    3    3  502    0  0.14907317942E+03  0.31717997384E+02 -0.79428952921E+03  0.80877976013E+03  0.25500000920E-02 0. -1.
       -2    1    3    3    0  502 -0.14907317942E+03 -0.31717997384E+02  0.14903478435E+04  0.14981206690E+04  0.25500000920E-02 0.  1.
</event>
<event>
 5   0  0.4630615E-06  0.2193128E+04  0.7818609E-02  0.8521294E-01
       -1   -1    0    0    0  501  0.00000000000E+00  0.00000000000E+00  0.10977558385E+04  0.10977558385E+04  0.50400001928E-02 0.  1.
        1   -1    0    0  501    0  0.00000000000E+00  0.00000000000E+00 -0.10953734984E+04  0.10953734985E+04  0.50400001928E-02 0. -1.
    10030    2    1    2    0    0  0.00000000000E+00  0.00000000000E+00  0.23823400785E+01  0.21931293370E+04  0.21931280431E+04 0.  0.
        2    1    3    3  502    0  0.14429532372E+03 -0.65476718849E+03  0.86889637929E+03  0.10975072344E+04  0.25500000920E-02 0.  1.
       -2    1    3    3    0  502 -0.14429532372E+03  0.65476718849E+03 -0.86651403922E+03  0.10956221026E+04  0.25500000920E-02 0. -1.
</event>
<event>
 5   0  0.4408787E-06  0.2203560E+04  0.7818609E-02  0.8516948E-01
       -1   -1    0    0    0  501  0.00000000000E+00  0.00000000000E+00  0.14392303107E+04  0.14392303107E+04  0.50400001928E-02 0. -1.
        1   -1    0    0  501    0  0.00000000000E+00  0.00000000000E+00 -0.84344988681E+03  0.84344988683E+03  0.50400001928E-02 0.  1.
    10030    2    1    2    0    0  0.00000000000E+00  0.00000000000E+00  0.59578042390E+03  0.22826801975E+04  0.22035595229E+04 0.  0.
        1    1    3    3  502    0 -0.87741026527E+03 -0.28484226525E+03  0.92196201869E+03  0.13042230843E+04  0.50400001928E-02 0. -1.
       -1    1    3    3    0  502  0.87741026527E+03  0.28484226525E+03 -0.32618159479E+03  0.97845711325E+03  0.50400001928E-02 0.  1.
</event>
<event>
 5   0  0.4462201E-06  0.2208315E+04  0.7818609E-02  0.8514975E-01
        1   -1    0    0  501    0  0.00000000000E+00  0.00000000000E+00  0.99518884865E+03  0.99518884867E+03  0.50400001928E-02 0. -1.
       -1   -1    0    0    0  501  0.00000000000E+00  0.00000000000E+00 -0.12250574471E+04  0.12250574471E+04  0.50400001928E-02 0.  1.
    10030    2    1    2    0    0  0.00000000000E+00  0.00000000000E+00 -0.22986859847E+03  0.22202462958E+04  0.22083147514E+04 0.  0.
        3    1    3    3  502    0 -0.24218653828E+03  0.10559549212E+04  0.99450972617E+02  0.10879272131E+04  0.10100000352E+00 0.  1.
       -3    1    3    3    0  502  0.24218653828E+03 -0.10559549212E+04 -0.32931957109E+03  0.11323190827E+04  0.10100000352E+00 0. -1.
</event>
<event>
 5   0  0.4408787E-06  0.2197527E+04  0.7818609E-02  0.8519458E-01
       -1   -1    0    0    0  501  0.00000000000E+00  0.00000000000E+00  0.79030924152E+03  0.79030924153E+03  0.50400001928E-02 0.  1.
        1   -1    0    0  501    0  0.00000000000E+00  0.00000000000E+00 -0.15276063546E+04  0.15276063546E+04  0.50400001928E-02 0. -1.
    10030    2    1    2    0    0  0.00000000000E+00  0.00000000000E+00 -0.73729711310E+03  0.23179155962E+04  0.21975271734E+04 0.  0.
        1    1    3    3  502    0 -0.72796720778E+03 -0.52127357632E+03  0.30312440640E+03  0.94527604579E+03  0.50400001928E-02 0.  1.
       -1    1    3    3    0  502  0.72796720778E+03  0.52127357632E+03 -0.10404215195E+04  0.13726395504E+04  0.50400001928E-02 0. -1.
</event>
<event>
 5   0  0.4309945E-06  0.2200131E+04  0.7818609E-02  0.8518374E-01
       -1   -1    0    0    0  501  0.00000000000E+00  0.00000000000E+00  0.85862909370E+03  0.85862909372E+03  0.50400001928E-02 0.  1.
        1   -1    0    0  501    0  0.00000000000E+00  0.00000000000E+00 -0.14093909373E+04  0.14093909373E+04  0.50400001928E-02 0. -1.
    10030    2    1    2    0    0  0.00000000000E+00  0.00000000000E+00 -0.55076184359E+03  0.22680200310E+04  0.22001309626E+04 0.  0.
        4    1    3    3  502    0  0.89901435048E+02  0.11611988630E+03  0.84847825466E+03  0.86109410494E+03  0.12699999809E+01 0.  1.
       -4    1    3    3    0  502 -0.89901435048E+02 -0.11611988630E+03 -0.13992400983E+04  0.14069259261E+04  0.12699999809E+01 0. -1.
</event>
<event>
 5   0  0.4309945E-06  0.2170095E+04  0.7818609E-02  0.8530979E-01
       -1   -1    0    0    0  501  0.00000000000E+00  0.00000000000E+00  0.17313932702E+04  0.17313932702E+04  0.50400001928E-02 0.  1.
        1   -1    0    0  501    0  0.00000000000E+00  0.00000000000E+00 -0.67998894658E+03  0.67998894660E+03  0.50400001928E-02 0. -1.
    10030    2    1    2    0    0  0.00000000000E+00  0.00000000000E+00  0.10514043236E+04  0.24113822168E+04  0.21700951923E+04 0.  0.
        4    1    3    3  502    0  0.17334518361E+03  0.31922810986E+03  0.16618179731E+04  0.17010572382E+04  0.12699999809E+01 0.  1.
       -4    1    3    3    0  502 -0.17334518361E+03 -0.31922810986E+03 -0.61041364953E+03  0.71032497861E+03  0.12699999809E+01 0. -1.
</event>
<event>
 5   0  0.4462201E-06  0.2202723E+04  0.7818609E-02  0.8517296E-01
        1   -1    0    0  501    0  0.00000000000E+00  0.00000000000E+00  0.17040737879E+04  0.17040737879E+04  0.50400001928E-02 0. -1.
       -1   -1    0    0    0  501  0.00000000000E+00  0.00000000000E+00 -0.71182211633E+03  0.71182211634E+03  0.50400001928E-02 0.  1.
    10030    2    1    2    0    0  0.00000000000E+00  0.00000000000E+00  0.99225167160E+03  0.24158959043E+04  0.22027232328E+04 0.  0.
        3    1    3    3  502    0  0.58435270605E+03  0.82758071905E+03  0.96995308123E+03  0.14025572793E+04  0.10100000352E+00 0. -1.
       -3    1    3    3    0  502 -0.58435270605E+03 -0.82758071905E+03  0.22298590367E+02  0.10133386250E+04  0.10100000352E+00 0.  1.
</event>
<event>
 5   0  0.9963573E-06  0.2203114E+04  0.7818609E-02  0.8517133E-01
        2   -1    0    0  501    0  0.00000000000E+00  0.00000000000E+00  0.25684833724E+04  0.25684833724E+04  0.25500000920E-02 0.  1.
       -2   -1    0    0    0  501  0.00000000000E+00  0.00000000000E+00 -0.47242948915E+03  0.47242948916E+03  0.25500000920E-02 0. -1.
    10030    2    1    2    0    0  0.00000000000E+00  0.00000000000E+00  0.20960538833E+04  0.30409128616E+04  0.22031135128E+04 0.  0.
        2    1    3    3  502    0  0.57447977077E+03 -0.24671750451E+03 -0.20379677006E+03  0.65759383935E+03  0.25500000920E-02 0. -1.
       -2    1    3    3    0  502 -0.57447977077E+03  0.24671750451E+03  0.22998506533E+04  0.23833190222E+04  0.25500000920E-02 0.  1.
</event>
<event>
 5   0  0.4794967E-06  0.2199228E+04  0.7818609E-02  0.8518749E-01
        1   -1    0    0  501    0  0.00000000000E+00  0.00000000000E+00  0.13806420624E+04  0.13806420624E+04  0.50400001928E-02 0.  1.
       -1   -1    0    0    0  501  0.00000000000E+00  0.00000000000E+00 -0.87578921407E+03  0.87578921408E+03  0.50400001928E-02 0. -1.
    10030    2    1    2    0    0  0.00000000000E+00  0.00000000000E+00  0.50485284835E+03  0.22564312765E+04  0.21992284345E+04 0.  0.
        5    1    3    3  502    0 -0.91427187458E+03  0.33651516188E+03  0.77558492070E+03  0.12452668686E+04  0.46999998093E+01 0.  1.
       -5    1    3    3    0  502  0.91427187458E+03 -0.33651516188E+03 -0.27073207235E+03  0.10111644079E+04  0.46999998093E+01 0. -1.
</event>
<event>
 5   0  0.1014015E-05  0.2198198E+04  0.7818609E-02  0.8519179E-01
        2   -1    0    0  501    0  0.00000000000E+00  0.00000000000E+00  0.95286069924E+03  0.95286069924E+03  0.25500000920E-02 0. -1.
       -2   -1    0    0    0  501  0.00000000000E+00  0.00000000000E+00 -0.12677809512E+04  0.12677809512E+04  0.25500000920E-02 0.  1.
    10030    2    1    2    0    0  0.00000000000E+00  0.00000000000E+00 -0.31492025198E+03  0.22206416505E+04  0.21981980290E+04 0.  0.
        1    1    3    3  502    0  0.10805329054E+04  0.52002693494E+02 -0.35377126097E+03  0.11381606850E+04  0.50400001928E-02 0.  1.
       -1    1    3    3    0  502 -0.10805329054E+04 -0.52002693494E+02  0.38851008997E+02  0.10824809655E+04  0.50400001928E-02 0. -1.
</event>
<event>
 5   0  0.4462201E-06  0.2206328E+04  0.7818609E-02  0.8515799E-01
        1   -1    0    0  501    0  0.00000000000E+00  0.00000000000E+00  0.12194276565E+04  0.12194276565E+04  0.50400001928E-02 0. -1.
       -1   -1    0    0    0  501  0.00000000000E+00  0.00000000000E+00 -0.99798560904E+03  0.99798560905E+03  0.50400001928E-02 0.  1.
    10030    2    1    2    0    0  0.00000000000E+00  0.00000000000E+00  0.22144204742E+03  0.22174132655E+04  0.22063284003E+04 0.  0.
        3    1    3    3  502    0 -0.93807071085E+03  0.16902738557E+03 -0.44742880861E+03  0.10529669817E+04  0.10100000352E+00 0.  1.
       -3    1    3    3    0  502  0.93807071085E+03 -0.16902738557E+03  0.66887085603E+03  0.11644462838E+04  0.10100000352E+00 0. -1.
</event>
<event>
 5   0  0.1014015E-05  0.2199627E+04  0.7818609E-02  0.8518583E-01
        2   -1    0    0  501    0  0.00000000000E+00  0.00000000000E+00  0.10427301222E+04  0.10427301222E+04  0.25500000920E-02 0. -1.
       -2   -1    0    0    0  501  0.00000000000E+00  0.00000000000E+00 -0.11600223111E+04  0.11600223111E+04  0.25500000920E-02 0.  1.
    10030    2    1    2    0    0  0.00000000000E+00  0.00000000000E+00 -0.11729218890E+03  0.22027524334E+04  0.21996274287E+04 0.  0.
        1    1    3    3  502    0 -0.51759583343E+03  0.34690049967E+03  0.84892220887E+03  0.10530500084E+04  0.50400001928E-02 0. -1.
       -1    1    3    3    0  502  0.51759583343E+03 -0.34690049967E+03 -0.96621439777E+03  0.11497024250E+04  0.50400001928E-02 0.  1.
</event>
<event>
 5   0  0.4408787E-06  0.2200940E+04  0.7818609E-02  0.8518037E-01
        1   -1    0    0  501    0  0.00000000000E+00  0.00000000000E+00  0.10741991891E+04  0.10741991891E+04  0.50400001928E-02 0. -1.
       -1   -1    0    0    0  501  0.00000000000E+00  0.00000000000E+00 -0.11273832967E+04  0.11273832967E+04  0.50400001928E-02 0.  1.
    10030    2    1    2    0    0  0.00000000000E+00  0.00000000000E+00 -0.53184107639E+02  0.22015824858E+04  0.22009400020E+04 0.  0.
        1    1    3    3  502    0 -0.86739245443E+03  0.55615703154E+03 -0.41316820269E+03  0.11101298471E+04  0.50400001928E-02 0.  1.
       -1    1    3    3    0  502  0.86739245443E+03 -0.55615703154E+03  0.35998409505E+03  0.10914526387E+04  0.50400001928E-02 0. -1.
</event>
<event>
 5   0  0.1015876E-05  0.2201628E+04  0.7818609E-02  0.8517751E-01
        2   -1    0    0  501    0  0.00000000000E+00  0.00000000000E+00  0.21829025109E+04  0.21829025109E+04  0.25500000920E-02 0. -1.
       -2   -1    0    0    0  501  0.00000000000E+00  0.00000000000E+00 -0.55512849375E+03  0.55512849376E+03  0.25500000920E-02 0.  1.
    10030    2    1    2    0    0  0.00000000000E+00  0.00000000000E+00  0.16277740172E+04  0.27380310047E+04  0.22016279276E+04 0.  0.
        5    1    3    3  502    0  0.46131382487E+02 -0.62168069529E+03  0.19422142202E+04  0.20398120400E+04  0.46999998093E+01 0. -1.
       -5    1    3    3    0  502 -0.46131382487E+02  0.62168069529E+03 -0.31444020304E+03  0.69821896468E+03  0.46999998093E+01 0.  1.
</event>
<event>
 5   0  0.4630615E-06  0.2186714E+04  0.7818609E-02  0.8523978E-01
        1   -1    0    0  501    0  0.00000000000E+00  0.00000000000E+00  0.21572012411E+04  0.21572012411E+04  0.50400001928E-02 0.  1.
       -1   -1    0    0    0  501  0.00000000000E+00  0.00000000000E+00 -0.55415765565E+03  0.55415765567E+03  0.50400001928E-02 0. -1.
    10030    2    1    2    0    0  0.00000000000E+00  0.00000000000E+00  0.16030435855E+04  0.27113588968E+04  0.21867140486E+04 0.  0.
        2    1    3    3  502    0 -0.11314933117E+02  0.87252121564E+03  0.16183750064E+04  0.18386296421E+04  0.25500000920E-02 0.  1.
       -2    1    3    3    0  502  0.11314933117E+02 -0.87252121564E+03 -0.15331420968E+02  0.87272925466E+03  0.25500000920E-02 0. -1.
</event>
<event>
 5   0  0.1035928E-05  0.2201112E+04  0.7818609E-02  0.8517966E-01
        2   -1    0    0  501    0  0.00000000000E+00  0.00000000000E+00  0.18945077184E+04  0.18945077184E+04  0.25500000920E-02 0.  1.
       -2   -1    0    0    0  501  0.00000000000E+00  0.00000000000E+00 -0.63933399693E+03  0.63933399693E+03  0.25500000920E-02 0. -1.
    10030    2    1    2    0    0  0.00000000000E+00  0.00000000000E+00  0.12551737214E+04  0.25338417153E+04  0.22011117117E+04 0.  0.
        3    1    3    3  502    0  0.17444070695E+03 -0.65609738633E+03  0.16247437788E+04  0.17608764004E+04  0.10100000352E+00 0.  1.
       -3    1    3    3    0  502 -0.17444070695E+03  0.65609738633E+03 -0.36957005733E+03  0.77296531492E+03  0.10100000352E+00 0. -1.
</event>
<event>
 5   0  0.9963573E-06  0.2201223E+04  0.7818609E-02  0.8517919E-01
        2   -1    0    0  501    0  0.00000000000E+00  0.00000000000E+00  0.12603629186E+04  0.12603629186E+04  0.25500000920E-02 0.  1.
       -2   -1    0    0    0  501  0.00000000000E+00  0.00000000000E+00 -0.96110903316E+03  0.96110903316E+03  0.25500000920E-02 0. -1.
    10030    2    1    2    0    0  0.00000000000E+00  0.00000000000E+00  0.29925388543E+03  0.22214719518E+04  0.22012234654E+04 0.  0.
        2    1    3    3  502    0 -0.38872803788E+03  0.10132074005E+04  0.33474673645E+03  0.11356734132E+04  0.25500000920E-02 0. -1.
       -2    1    3    3    0  502  0.38872803788E+03 -0.10132074005E+04 -0.35492851020E+02  0.10857985386E+04  0.25500000920E-02 0.  1.
</event>
<event>
 5   0  0.4630615E-06  0.2189100E+04  0.7818609E-02  0.8522979E-01
        1   -1    0    0  501    0  0.00000000000E+00  0.00000000000E+00  0.16724540629E+04  0.16724540629E+04  0.50400001928E-02 0. -1.
       -1   -1    0    0    0  501  0.00000000000E+00  0.00000000000E+00 -0.71633628623E+03  0.71633628625E+03  0.50400001928E-02 0.  1.
    10030    2    1    2    0    0  0.00000000000E+00  0.00000000000E+00  0.95611777668E+03  0.23887903492E+04  0.21890998446E+04 0.  0.
        2    1    3    3  502    0 -0.48272154357E+03 -0.82709882169E+03  0.10564334630E+04  0.14258906730E+04  0.25500000920E-02 0. -1.
       -2    1    3    3    0  502  0.48272154357E+03  0.82709882169E+03 -0.10031568635E+03  0.96289967619E+03  0.25500000920E-02 0.  1.
</event>
<event>
 5   0  0.1015876E-05  0.2200345E+04  0.7818609E-02  0.8518285E-01
       -2   -1    0    0    0  501  0.00000000000E+00  0.00000000000E+00  0.10807336985E+04  0.10807336985E+04  0.25500000920E-02 0.  1.
        2   -1    0    0  501    0  0.00000000000E+00  0.00000000000E+00 -0.11199606880E+04  0.11199606880E+04  0.25500000920E-02 0. -1.
    10030    2    1    2    0    0  0.00000000000E+00  0.00000000000E+00 -0.39226989554E+02  0.22006943865E+04  0.22003447517E+04 0.  0.
        5    1    3    3  502    0  0.72266000624E+03  0.75609280096E+03  0.32167870687E+03  0.10942637199E+04  0.46999998093E+01 0. -1.
       -5    1    3    3    0  502 -0.72266000624E+03 -0.75609280096E+03 -0.36090569643E+03  0.11064306666E+04  0.46999998093E+01 0.  1.
</event>
<event>
 5   0  0.1015876E-05  0.2220506E+04  0.7818609E-02  0.8509941E-01
        2   -1    0    0  501    0  0.00000000000E+00  0.00000000000E+00  0.10938319243E+04  0.10938319244E+04  0.25500000920E-02 0. -1.
       -2   -1    0    0    0  501  0.00000000000E+00  0.00000000000E+00 -0.11269202198E+04  0.11269202198E+04  0.25500000920E-02 0.  1.
    10030    2    1    2    0    0  0.00000000000E+00  0.00000000000E+00 -0.33088295427E+02  0.22207521441E+04  0.22205056294E+04 0.  0.
        5    1    3    3  502    0 -0.10355496379E+04  0.39091400651E+03  0.69850681197E+02  0.11090888246E+04  0.46999998093E+01 0.  1.
       -5    1    3    3    0  502  0.10355496379E+04 -0.39091400651E+03 -0.10293897662E+03  0.11116633196E+04  0.46999998093E+01 0. -1.
</event>
<event>
 5   0  0.1035928E-05  0.2199296E+04  0.7818609E-02  0.8518721E-01
        2   -1    0    0  501    0  0.00000000000E+00  0.00000000000E+00  0.25895229404E+04  0.25895229404E+04  0.25500000920E-02 0.  1.
       -2   -1    0    0    0  501  0.00000000000E+00  0.00000000000E+00 -0.46696860944E+03  0.46696860944E+03  0.25500000920E-02 0. -1.
    10030    2    1    2    0    0  0.00000000000E+00  0.00000000000E+00  0.21225543310E+04  0.30564915499E+04  0.21992961843E+04 0.  0.
        3    1    3    3  502    0  0.81774203606E+02  0.26702992033E+03  0.25394175675E+04  0.25547276941E+04  0.10100000352E+00 0.  1.
       -3    1    3    3    0  502 -0.81774203606E+02 -0.26702992033E+03 -0.41686323655E+03  0.50176385572E+03  0.10100000352E+00 0. -1.
</event>
<event>
 5   0  0.1014015E-05  0.2213407E+04  0.7818609E-02  0.8512868E-01
       -2   -1    0    0    0  501  0.00000000000E+00  0.00000000000E+00  0.96760982655E+03  0.96760982655E+03  0.25500000920E-02 0. -1.
        2   -1    0    0  501    0  0.00000000000E+00  0.00000000000E+00 -0.12657921751E+04  0.12657921751E+04  0.25500000920E-02 0.  1.
    10030    2    1    2    0    0  0.00000000000E+00  0.00000000000E+00 -0.29818234858E+03  0.22334020017E+04  0.22134072802E+04 0.  0.
        1    1    3    3  502    0 -0.75554661743E+03  0.65533599004E+03 -0.62716117034E+03  0.11805283074E+04  0.50400001928E-02 0.  1.
       -1    1    3    3    0  502  0.75554661743E+03 -0.65533599004E+03  0.32897882176E+03  0.10528736943E+04  0.50400001928E-02 0. -1.
</event>
<event>
 5   0  0.4794967E-06  0.2197852E+04  0.7818609E-02  0.8519323E-01
        1   -1    0    0  501    0  0.00000000000E+00  0.00000000000E+00  0.10121320637E+04  0.10121320638E+04  0.50400001928E-02 0. -1.
       -1   -1    0    0    0  501  0.00000000000E+00  0.00000000000E+00 -0.11931631051E+04  0.11931631051E+04  0.50400001928E-02 0.  1.
    10030    2    1    2    0    0  0.00000000000E+00  0.00000000000E+00 -0.18103104134E+03  0.22052951689E+04  0.21978522571E+04 0.  0.
        5    1    3    3  502    0 -0.70455835950E+03 -0.66075583750E+03 -0.61632811139E+03  0.11458111492E+04  0.46999998093E+01 0.  1.
       -5    1    3    3    0  502  0.70455835950E+03  0.66075583750E+03  0.43529707005E+03  0.10594840197E+04  0.46999998093E+01 0. -1.
</event>
<event>
 5   0  0.4408787E-06  0.2199035E+04  0.7818609E-02  0.8518830E-01
        1   -1    0    0  501    0  0.00000000000E+00  0.00000000000E+00  0.13637080681E+04  0.13637080681E+04  0.50400001928E-02 0. -1.
       -1   -1    0    0    0  501  0.00000000000E+00  0.00000000000E+00 -0.88650814233E+03  0.88650814234E+03  0.50400001928E-02 0.  1.
    10030    2    1    2    0    0  0.00000000000E+00  0.00000000000E+00  0.47719992575E+03  0.22502162104E+04  0.21990346119E+04 0.  0.
        1    1    3    3  502    0 -0.67277893198E+03  0.79447018066E+03 -0.12336155561E+03  0.10483474771E+04  0.50400001928E-02 0.  1.
       -1    1    3    3    0  502  0.67277893198E+03 -0.79447018066E+03  0.60056148136E+03  0.12018687333E+04  0.50400001928E-02 0. -1.
</event>
<event>
 5   0  0.9963573E-06  0.2201747E+04  0.7818609E-02  0.8517701E-01
       -2   -1    0    0    0  501  0.00000000000E+00  0.00000000000E+00  0.92033804964E+03  0.92033804964E+03  0.25500000920E-02 0. -1.
        2   -1    0    0  501    0  0.00000000000E+00  0.00000000000E+00 -0.13168234682E+04  0.13168234682E+04  0.25500000920E-02 0.  1.
    10030    2    1    2    0    0  0.00000000000E+00  0.00000000000E+00 -0.39648541856E+03  0.22371615178E+04  0.22017472538E+04 0.  0.
        2    1    3    3  502    0  0.22776453465E+03 -0.93739448296E+03  0.34070148627E+03  0.10230652974E+04  0.25500000920E-02 0. -1.
       -2    1    3    3    0  502 -0.22776453465E+03  0.93739448296E+03 -0.73718690483E+03  0.12140962205E+04  0.25500000920E-02 0.  1.
</event>
<event>
 5   0  0.4630615E-06  0.2201405E+04  0.7818609E-02  0.8517843E-01
        1   -1    0    0  501    0  0.00000000000E+00  0.00000000000E+00  0.86602155240E+03  0.86602155241E+03  0.50400001928E-02 0. -1.
       -1   -1    0    0    0  501  0.00000000000E+00  0.00000000000E+00 -0.13989793645E+04  0.13989793645E+04  0.50400001928E-02 0.  1.
    10030    2    1    2    0    0  0.00000000000E+00  0.00000000000E+00 -0.53295781207E+03  0.22650009169E+04  0.22014052612E+04 0.  0.
        2    1    3    3  502    0 -0.73870693166E+03  0.53875361057E+03 -0.89704824389E+03  0.12808742857E+04  0.25500000920E-02 0.  1.
       -2    1    3    3    0  502  0.73870693166E+03 -0.53875361057E+03  0.36409043181E+03  0.98412663124E+03  0.25500000920E-02 0. -1.
</event>
<event>
 5   0  0.1014015E-05  0.2203427E+04  0.7818609E-02  0.8517003E-01
       -2   -1    0    0    0  501  0.00000000000E+00  0.00000000000E+00  0.47403447960E+03  0.47403447961E+03  0.25500000920E-02 0. -1.
        2   -1    0    0  501    0  0.00000000000E+00  0.00000000000E+00 -0.25605151344E+04  0.25605151344E+04  0.25500000920E-02 0.  1.
    10030    2    1    2    0    0  0.00000000000E+00  0.00000000000E+00 -0.20864806548E+04  0.30345496140E+04  0.22034268395E+04 0.  0.
        1    1    3    3  502    0  0.44821284527E+03 -0.59378251032E+03 -0.21623335548E+04  0.22867354080E+04  0.50400001928E-02 0.  1.
       -1    1    3    3    0  502 -0.44821284527E+03  0.59378251032E+03  0.75852899962E+02  0.74781420599E+03  0.50400001928E-02 0. -1.
</event>
<event>
 5   0  0.1015876E-05  0.2202073E+04  0.7818609E-02  0.8517566E-01
        2   -1    0    0  501    0  0.00000000000E+00  0.00000000000E+00  0.22732911074E+04  0.22732911074E+04  0.25500000920E-02 0.  1.
       -2   -1    0    0    0  501  0.00000000000E+00  0.00000000000E+00 -0.53327148620E+03  0.53327148621E+03  0.25500000920E-02 0. -1.
    10030    2    1    2    0    0  0.00000000000E+00  0.00000000000E+00  0.17400196212E+04  0.28065625937E+04  0.22020729574E+04 0.  0.
        5    1    3    3  502    0 -0.14052146708E+03  0.65263369174E+03  0.19859024162E+04  0.20951151556E+04  0.46999998093E+01 0.  1.
       -5    1    3    3    0  502  0.14052146708E+03 -0.65263369174E+03 -0.24588279497E+03  0.71144743810E+03  0.46999998093E+01 0. -1.
</event>
<event>
 5   0  0.4462201E-06  0.2205756E+04  0.7818609E-02  0.8516036E-01
        1   -1    0    0  501    0  0.00000000000E+00  0.00000000000E+00  0.17241918827E+04  0.17241918827E+04  0.50400001928E-02 0.  1.
       -1   -1    0    0    0  501  0.00000000000E+00  0.00000000000E+00 -0.70545512198E+03  0.70545512200E+03  0.50400001928E-02 0. -1.
    10030    2    1    2    0    0  0.00000000000E+00  0.00000000000E+00  0.10187367607E+04  0.24296470047E+04  0.22057561016E+04 0.  0.
        3    1    3    3  502    0  0.43285983908E+02 -0.52764046111E+03 -0.55633897938E+03  0.76797864735E+03  0.10100000352E+00 0. -1.
       -3    1    3    3    0  502 -0.43285983908E+02  0.52764046111E+03  0.15750757401E+04  0.16616683574E+04  0.10100000352E+00 0.  1.
</event>
<event>
 5   0  0.4794967E-06  0.2200894E+04  0.7818609E-02  0.8518056E-01
        1   -1    0    0  501    0  0.00000000000E+00  0.00000000000E+00  0.14509571879E+04  0.14509571879E+04  0.50400001928E-02 0. -1.
       -1   -1    0    0    0  501  0.00000000000E+00  0.00000000000E+00 -0.83461000148E+03  0.83461000150E+03  0.50400001928E-02 0.  1.
    10030    2    1    2    0    0  0.00000000000E+00  0.00000000000E+00  0.61634718638E+03  0.22855671894E+04  0.22008938009E+04 0.  0.
        5    1    3    3  502    0 -0.16548114215E+03 -0.11896360624E+03  0.14311770214E+04  0.14456230852E+04  0.46999998093E+01 0. -1.
       -5    1    3    3    0  502  0.16548114215E+03  0.11896360624E+03 -0.81482983502E+03  0.83994410412E+03  0.46999998093E+01 0.  1.
</event>
<event>
 5   0  0.1014015E-05  0.2200995E+04  0.7818609E-02  0.8518014E-01
       -2   -1    0    0    0  501  0.00000000000E+00  0.00000000000E+00  0.97044646872E+03  0.97044646872E+03  0.25500000920E-02 0.  1.
        2   -1    0    0  501    0  0.00000000000E+00  0.00000000000E+00 -0.12479774063E+04  0.12479774063E+04  0.25500000920E-02 0. -1.
    10030    2    1    2    0    0  0.00000000000E+00  0.00000000000E+00 -0.27753093759E+03  0.22184238750E+04  0.22009954720E+04 0.  0.
        1    1    3    3  502    0  0.27902990672E+03 -0.54391458526E+03 -0.10611041744E+04  0.12245990502E+04  0.50400001928E-02 0. -1.
       -1    1    3    3    0  502 -0.27902990672E+03  0.54391458526E+03  0.78357323681E+03  0.99382482479E+03  0.50400001928E-02 0.  1.
</event>
<event>
 5   0  0.9963173E-06  0.2204356E+04  0.7818609E-02  0.8516617E-01
       -2   -1    0    0    0  501  0.00000000000E+00  0.00000000000E+00  0.15669815442E+04  0.15669815442E+04  0.25500000920E-02 0.  1.
        2   -1    0    0  501    0  0.00000000000E+00  0.00000000000E+00 -0.77524584263E+03  0.77524584263E+03  0.25500000920E-02 0. -1.
    10030    2    1    2    0    0  0.00000000000E+00  0.00000000000E+00  0.79173570153E+03  0.23422273868E+04  0.22043556225E+04 0.  0.
        4    1    3    3  502    0  0.62639379395E+03  0.35652311129E+03  0.12818778680E+04  0.14706088519E+04  0.12699999809E+01 0.  1.
       -4    1    3    3    0  502 -0.62639379395E+03 -0.35652311129E+03 -0.49014216651E+03  0.87161853483E+03  0.12699999809E+01 0. -1.
</event>
<event>
 5   0  0.4630615E-06  0.2189686E+04  0.7818609E-02  0.8522733E-01
        1   -1    0    0  501    0  0.00000000000E+00  0.00000000000E+00  0.19393250726E+04  0.19393250726E+04  0.50400001928E-02 0. -1.
       -1   -1    0    0    0  501  0.00000000000E+00  0.00000000000E+00 -0.61809200330E+03  0.61809200333E+03  0.50400001928E-02 0.  1.
    10030    2    1    2    0    0  0.00000000000E+00  0.00000000000E+00  0.13212330693E+04  0.25574170759E+04  0.21896861138E+04 0.  0.
        2    1    3    3  502    0 -0.64883858041E+03 -0.19591112033E+03 -0.34361207474E+03  0.75989599841E+03  0.25500000920E-02 0.  1.
       -2    1    3    3    0  502  0.64883858041E+03  0.19591112033E+03  0.16648451440E+04  0.17975210775E+04  0.25500000920E-02 0. -1.
</event>
<event>
 5   0  0.4309945E-06  0.2203433E+04  0.7818609E-02  0.8517001E-01
       -1   -1    0    0    0  501  0.00000000000E+00  0.00000000000E+00  0.10329444466E+04  0.10329444466E+04  0.50400001928E-02 0.  1.
        1   -1    0    0  501    0  0.00000000000E+00  0.00000000000E+00 -0.11750673343E+04  0.11750673343E+04  0.50400001928E-02 0. -1.
    10030    2    1    2    0    0  0.00000000000E+00  0.00000000000E+00 -0.14212288763E+03  0.22080117809E+04  0.22034330281E+04 0.  0.
        4    1    3    3  502    0  0.87821892332E+03 -0.20287130244E+02  0.59522445117E+03  0.10611191286E+04  0.12699999809E+01 0.  1.
       -4    1    3    3    0  502 -0.87821892332E+03  0.20287130244E+02 -0.73734733881E+03  0.11468926523E+04  0.12699999809E+01 0. -1.
</event>
<event>
 5   0  0.1035928E-05  0.2199866E+04  0.7818609E-02  0.8518484E-01
        2   -1    0    0  501    0  0.00000000000E+00  0.00000000000E+00  0.97577052823E+03  0.97577052824E+03  0.25500000920E-02 0. -1.
       -2   -1    0    0    0  501  0.00000000000E+00  0.00000000000E+00 -0.12398946253E+04  0.12398946253E+04  0.25500000920E-02 0.  1.
    10030    2    1    2    0    0  0.00000000000E+00  0.00000000000E+00 -0.26412409704E+03  0.22156651535E+04  0.21998660263E+04 0.  0.
        3    1    3    3  502    0 -0.75907104965E+03  0.28931653036E+03 -0.87898074725E+03  0.11968709527E+04  0.10100000352E+00 0.  1.
       -3    1    3    3    0  502  0.75907104965E+03 -0.28931653036E+03  0.61485665020E+03  0.10187942008E+04  0.10100000352E+00 0. -1.
</event>
<event>
 5   0  0.4408787E-06  0.2179984E+04  0.7818609E-02  0.8526806E-01
       -1   -1    0    0    0  501  0.00000000000E+00  0.00000000000E+00  0.15984631089E+04  0.15984631089E+04  0.50400001928E-02 0.  1.
        1   -1    0    0  501    0  0.00000000000E+00  0.00000000000E+00 -0.74326567183E+03  0.74326567185E+03  0.50400001928E-02 0. -1.
    10030    2    1    2    0    0  0.00000000000E+00  0.00000000000E+00  0.85519743704E+03  0.23417287807E+04  0.21799841803E+04 0.  0.
        1    1    3    3  502    0 -0.24735412823E+03  0.79905877025E+02 -0.70948344001E+03  0.75560291530E+03  0.50400001928E-02 0. -1.
       -1    1    3    3    0  502  0.24735412823E+03 -0.79905877025E+02  0.15646808771E+04  0.15861258654E+04  0.50400001928E-02 0.  1.
</event>
<event>
 5   0  0.1015876E-05  0.2222199E+04  0.7818609E-02  0.8509245E-01
        2   -1    0    0  501    0  0.00000000000E+00  0.00000000000E+00  0.24840973909E+04  0.24840973909E+04  0.25500000920E-02 0. -1.
       -2   -1    0    0    0  501  0.00000000000E+00  0.00000000000E+00 -0.49697806760E+03  0.49697806761E+03  0.25500000920E-02 0.  1.
    10030    2    1    2    0    0  0.00000000000E+00  0.00000000000E+00  0.19871193233E+04  0.29810754585E+04  0.22221988400E+04 0.  0.
        5    1    3    3  502    0 -0.25874960935E+02 -0.11041589581E+04  0.11561153145E+04  0.15988937515E+04  0.46999998093E+01 0. -1.
       -5    1    3    3    0  502  0.25874960935E+02  0.11041589581E+04  0.83100400884E+03  0.13821817070E+04  0.46999998093E+01 0.  1.
</event>
<event>
 5   0  0.4630615E-06  0.2200993E+04  0.7818609E-02  0.8518015E-01
        1   -1    0    0  501    0  0.00000000000E+00  0.00000000000E+00  0.71130090435E+03  0.71130090437E+03  0.50400001928E-02 0. -1.
       -1   -1    0    0    0  501  0.00000000000E+00  0.00000000000E+00 -0.17026452234E+04  0.17026452234E+04  0.50400001928E-02 0.  1.
    10030    2    1    2    0    0  0.00000000000E+00  0.00000000000E+00 -0.99134431907E+03  0.24139461278E+04  0.22009934913E+04 0.  0.
        2    1    3    3  502    0  0.48286869316E+02 -0.10739387399E+04 -0.23748745428E+03  0.11009433817E+04  0.25500000920E-02 0.  1.
       -2    1    3    3    0  502 -0.48286869316E+02  0.10739387399E+04 -0.75385686478E+03  0.13130027461E+04  0.25500000920E-02 0. -1.
</event>
<event>
 5   0  0.1014015E-05  0.2200480E+04  0.7818609E-02  0.8518228E-01
       -2   -1    0    0    0  501  0.00000000000E+00  0.00000000000E+00  0.87887306660E+03  0.87887306660E+03  0.25500000920E-02 0.  1.
        2   -1    0    0  501    0  0.00000000000E+00  0.00000000000E+00 -0.13773638496E+04  0.13773638496E+04  0.25500000920E-02 0. -1.
    10030    2    1    2    0    0  0.00000000000E+00  0.00000000000E+00 -0.49849078296E+03  0.22562369162E+04  0.22004799388E+04 0.  0.
        1    1    3    3  502    0  0.92840783645E+03 -0.38479849683E+03  0.20989223250E+03  0.10266770394E+04  0.50400001928E-02 0.  1.
       -1    1    3    3    0  502 -0.92840783645E+03  0.38479849683E+03 -0.70838301545E+03  0.12295598768E+04  0.50400001928E-02 0. -1.
</event>
<event>
 5   0  0.9963573E-06  0.2200073E+04  0.7818609E-02  0.8518398E-01
       -2   -1    0    0    0  501  0.00000000000E+00  0.00000000000E+00  0.48354879880E+03  0.48354879881E+03  0.25500000920E-02 0.  1.
        2   -1    0    0  501    0  0.00000000000E+00  0.00000000000E+00 -0.25024989857E+04  0.25024989857E+04  0.25500000920E-02 0. -1.
    10030    2    1    2    0    0  0.00000000000E+00  0.00000000000E+00 -0.20189501869E+04  0.29860477845E+04  0.22000730702E+04 0.  0.
        2    1    3    3  502    0  0.10811180643E+04 -0.77947057767E+02 -0.75487462591E+03  0.13208814154E+04  0.25500000920E-02 0.  1.
       -2    1    3    3    0  502 -0.10811180643E+04  0.77947057767E+02 -0.12640755609E+04  0.16651663690E+04  0.25500000920E-02 0. -1.
</event>
<event>
 5   0  0.3546750E-06  0.2206105E+04  0.7818609E-02  0.8515892E-01
       -3   -1    0    0    0  501  0.00000000000E+00  0.00000000000E+00  0.12683919616E+04  0.12683919656E+04  0.10100000352E+00 0. -1.
        3   -1    0    0  501    0  0.00000000000E+00  0.00000000000E+00 -0.95926521558E+03  0.95926522090E+03  0.10100000352E+00 0.  1.
    10030    2    1    2    0    0  0.00000000000E+00  0.00000000000E+00  0.30912674598E+03  0.22276571865E+04  0.22061045296E+04 0.  0.
        4    1    3    3  502    0 -0.10725744576E+04  0.22328319487E+03  0.25047550001E+02  0.10958559872E+04  0.12699999809E+01 0.  1.
       -4    1    3    3    0  502  0.10725744576E+04 -0.22328319487E+03  0.28407919598E+03  0.11318011992E+04  0.12699999809E+01 0. -1.
</event>
<event>
 5   0  0.4309945E-06  0.2198598E+04  0.7818609E-02  0.8519012E-01
       -1   -1    0    0    0  501  0.00000000000E+00  0.00000000000E+00  0.11022907600E+04  0.11022907600E+04  0.50400001928E-02 0.  1.
        1   -1    0    0  501    0  0.00000000000E+00  0.00000000000E+00 -0.10963155718E+04  0.10963155718E+04  0.50400001928E-02 0. -1.
    10030    2    1    2    0    0  0.00000000000E+00  0.00000000000E+00  0.59751881455E+01  0.21986063318E+04  0.21985982123E+04 0.  0.
        4    1    3    3  502    0 -0.56173268155E+03 -0.94454526139E+03 -0.24353969889E+02  0.10992288593E+04  0.12699999809E+01 0. -1.
       -4    1    3    3    0  502  0.56173268155E+03  0.94454526139E+03  0.30329158034E+02  0.10993774725E+04  0.12699999809E+01 0.  1.
</event>
<event>
 5   0  0.9963173E-06  0.2200406E+04  0.7818609E-02  0.8518259E-01
        2   -1    0    0  501    0  0.00000000000E+00  0.00000000000E+00  0.93398051693E+03  0.93398051693E+03  0.25500000920E-02 0. -1.
       -2   -1    0    0    0  501  0.00000000000E+00  0.00000000000E+00 -0.12960080801E+04  0.12960080801E+04  0.25500000920E-02 0.  1.
    10030    2    1    2    0    0  0.00000000000E+00  0.00000000000E+00 -0.36202756319E+03  0.22299885970E+04  0.22004056868E+04 0.  0.
        4    1    3    3  502    0  0.44626943843E+03  0.37453917928E+03  0.76481194763E+03  0.96144419320E+03  0.12699999809E+01 0. -1.
       -4    1    3    3    0  502 -0.44626943843E+03 -0.37453917928E+03 -0.11268395108E+04  0.12685444039E+04  0.12699999809E+01 0.  1.
</event>
<event>
 5   0  0.1015876E-05  0.2222044E+04  0.7818609E-02  0.8509309E-01
        2   -1    0    0  501    0  0.00000000000E+00  0.00000000000E+00  0.14751912933E+04  0.14751912933E+04  0.25500000920E-02 0.  1.
       -2   -1    0    0    0  501  0.00000000000E+00  0.00000000000E+00 -0.83675242643E+03  0.83675242643E+03  0.25500000920E-02 0. -1.
    10030    2    1    2    0    0  0.00000000000E+00  0.00000000000E+00  0.63843886683E+03  0.23119437197E+04  0.22220440086E+04 0.  0.
        5    1    3    3  502    0  0.28904268267E+03 -0.66678934392E+03 -0.55513324515E+03  0.91452102843E+03  0.46999998093E+01 0. -1.
       -5    1    3    3    0  502 -0.28904268267E+03  0.66678934392E+03  0.11935721120E+04  0.13974226913E+04  0.46999998093E+01 0.  1.
</event>
<event>
 5   0  0.4408787E-06  0.2200981E+04  0.7818609E-02  0.8518020E-01
        1   -1    0    0  501    0  0.00000000000E+00  0.00000000000E+00  0.14462524536E+04  0.14462524536E+04  0.50400001928E-02 0.  1.
       -1   -1    0    0    0  501  0.00000000000E+00  0.00000000000E+00 -0.83739103475E+03  0.83739103476E+03  0.50400001928E-02 0. -1.
    10030    2    1    2    0    0  0.00000000000E+00  0.00000000000E+00  0.60886141881E+03  0.22836434883E+04  0.22009805439E+04 0.  0.
        1    1    3    3  502    0 -0.44751300776E+03  0.88525683749E+03 -0.19005138921E+03  0.10099837083E+04  0.50400001928E-02 0. -1.
       -1    1    3    3    0  502  0.44751300776E+03 -0.88525683749E+03  0.79891280802E+03  0.12736597800E+04  0.50400001928E-02 0.  1.
</event>
<event>
 5   0  0.9963173E-06  0.2172821E+04  0.7818609E-02  0.8529827E-01
        2   -1    0    0  501    0  0.00000000000E+00  0.00000000000E+00  0.69831072867E+03  0.69831072867E+03  0.25500000920E-02 0. -1.
       -2   -1    0    0    0  501  0.00000000000E+00  0.00000000000E+00 -0.16902040189E+04  0.16902040189E+04  0.25500000920E-02 0.  1.
    10030    2    1    2    0    0  0.00000000000E+00  0.00000000000E+00 -0.99189329024E+03  0.23885147476E+04  0.21728208394E+04 0.  0.
        4    1    3    3  502    0  0.77775038338E+03  0.37567423103E+03  0.22845349127E+03  0.89343124933E+03  0.12699999809E+01 0. -1.
       -4    1    3    3    0  502 -0.77775038338E+03 -0.37567423103E+03 -0.12203467815E+04  0.14950834983E+04  0.12699999809E+01 0.  1.
</event>
<event>
 5   0  0.3546750E-06  0.2237910E+04  0.7818609E-02  0.8502813E-01
       -3   -1    0    0    0  501  0.00000000000E+00  0.00000000000E+00  0.84540109723E+03  0.84540110326E+03  0.10100000352E+00 0.  1.
        3   -1    0    0  501    0  0.00000000000E+00  0.00000000000E+00 -0.14810256177E+04  0.14810256211E+04  0.10100000352E+00 0. -1.
    10030    2    1    2    0    0  0.00000000000E+00  0.00000000000E+00 -0.63562452047E+03  0.23264267244E+04  0.22379103586E+04 0.  0.
        5    1    3    3  502    0 -0.35703251842E+03 -0.19679204875E+03 -0.14010641725E+04  0.14591786166E+04  0.46999998093E+01 0. -1.
       -5    1    3    3    0  502  0.35703251842E+03  0.19679204875E+03  0.76543965201E+03  0.86724810783E+03  0.46999998093E+01 0.  1.
</event>
<event>
 5   0  0.4462201E-06  0.2199364E+04  0.7818609E-02  0.8518693E-01
       -1   -1    0    0    0  501  0.00000000000E+00  0.00000000000E+00  0.67653186568E+03  0.67653186570E+03  0.50400001928E-02 0. -1.
        1   -1    0    0  501    0  0.00000000000E+00  0.00000000000E+00 -0.17874995350E+04  0.17874995350E+04  0.50400001928E-02 0.  1.
    10030    2    1    2    0    0  0.00000000000E+00  0.00000000000E+00 -0.11109676693E+04  0.24640314007E+04  0.21993639038E+04 0.  0.
        3    1    3    3  502    0  0.19563879295E+03 -0.10683759336E+04 -0.74822991436E+03  0.13189198944E+04  0.10100000352E+00 0. -1.
       -3    1    3    3    0  502 -0.19563879295E+03  0.10683759336E+04 -0.36273775492E+03  0.11451115063E+04  0.10100000352E+00 0.  1.
</event>
<event>
 5   0  0.4630615E-06  0.2201148E+04  0.7818609E-02  0.8517951E-01
        1   -1    0    0  501    0  0.00000000000E+00  0.00000000000E+00  0.21343212625E+04  0.21343212625E+04  0.50400001928E-02 0. -1.
       -1   -1    0    0    0  501  0.00000000000E+00  0.00000000000E+00 -0.56751662412E+03  0.56751662414E+03  0.50400001928E-02 0.  1.
    10030    2    1    2    0    0  0.00000000000E+00  0.00000000000E+00  0.15668046384E+04  0.27018378867E+04  0.22011476986E+04 0.  0.
        2    1    3    3  502    0 -0.44172774006E+03  0.18091951178E+03  0.20006441466E+04  0.20568014652E+04  0.25500000920E-02 0. -1.
       -2    1    3    3    0  502  0.44172774006E+03 -0.18091951178E+03 -0.43383950820E+03  0.64503642143E+03  0.25500000920E-02 0.  1.
</event>
<event>
 5   0  0.4630615E-06  0.2194880E+04  0.7818609E-02  0.8520562E-01
       -1   -1    0    0    0  501  0.00000000000E+00  0.00000000000E+00  0.10391265518E+04  0.10391265518E+04  0.50400001928E-02 0. -1.
        1   -1    0    0  501    0  0.00000000000E+00  0.00000000000E+00 -0.11590260673E+04  0.11590260673E+04  0.50400001928E-02 0.  1.
    10030    2    1    2    0    0  0.00000000000E+00  0.00000000000E+00 -0.11989951548E+03  0.21981526191E+04  0.21948801888E+04 0.  0.
        2    1    3    3  502    0 -0.81743331029E+03 -0.72328040912E+03  0.54426443275E+02  0.10928375930E+04  0.25500000920E-02 0.  1.
       -2    1    3    3    0  502  0.81743331029E+03  0.72328040912E+03 -0.17432595875E+03  0.11053150261E+04  0.25500000920E-02 0. -1.
</event>
<event>
 5   0  0.4408787E-06  0.2201319E+04  0.7818609E-02  0.8517879E-01
        1   -1    0    0  501    0  0.00000000000E+00  0.00000000000E+00  0.99720015201E+03  0.99720015202E+03  0.50400001928E-02 0.  1.
       -1   -1    0    0    0  501  0.00000000000E+00  0.00000000000E+00 -0.12148528476E+04  0.12148528476E+04  0.50400001928E-02 0. -1.
    10030    2    1    2    0    0  0.00000000000E+00  0.00000000000E+00 -0.21765269561E+03  0.22120529996E+04  0.22013190994E+04 0.  0.
        1    1    3    3  502    0  0.87837804408E+03  0.64706159838E+03  0.37536692823E+02  0.10916252579E+04  0.50400001928E-02 0. -1.
       -1    1    3    3    0  502 -0.87837804408E+03 -0.64706159838E+03 -0.25518938843E+03  0.11204277417E+04  0.50400001928E-02 0.  1.
</event>
<event>
 5   0  0.4794967E-06  0.2208177E+04  0.7818609E-02  0.8515033E-01
        1   -1    0    0  501    0  0.00000000000E+00  0.00000000000E+00  0.15445381321E+04  0.15445381321E+04  0.50400001928E-02 0. -1.
       -1   -1    0    0    0  501  0.00000000000E+00  0.00000000000E+00 -0.78923977354E+03  0.78923977355E+03  0.50400001928E-02 0.  1.
    10030    2    1    2    0    0  0.00000000000E+00  0.00000000000E+00  0.75529835857E+03  0.23337779057E+04  0.22081765560E+04 0.  0.
        5    1    3    3  502    0 -0.28593584082E+03 -0.53610415593E+03 -0.59664403896E+03  0.85157100132E+03  0.46999998093E+01 0.  1.
       -5    1    3    3    0  502  0.28593584082E+03  0.53610415593E+03  0.13519423975E+04  0.14822069044E+04  0.46999998093E+01 0. -1.
</event>
<event>
 5   0  0.4630615E-06  0.2199029E+04  0.7818609E-02  0.8518832E-01
        1   -1    0    0  501    0  0.00000000000E+00  0.00000000000E+00  0.20324362673E+04  0.20324362673E+04  0.50400001928E-02 0. -1.
       -1   -1    0    0    0  501  0.00000000000E+00  0.00000000000E+00 -0.59481905252E+03  0.59481905254E+03  0.50400001928E-02 0.  1.
    10030    2    1    2    0    0  0.00000000000E+00  0.00000000000E+00  0.14376172148E+04  0.26272553198E+04  0.21990287082E+04 0.  0.
        2    1    3    3  502    0 -0.27343002440E+03  0.37450729486E+02  0.19903817472E+04  0.20094243044E+04  0.25500000920E-02 0. -1.
       -2    1    3    3    0  502  0.27343002440E+03 -0.37450729486E+02 -0.55276453242E+03  0.61783101548E+03  0.25500000920E-02 0.  1.
</event>
<event>
 5   0  0.9963173E-06  0.2203254E+04  0.7818609E-02  0.8517075E-01
       -2   -1    0    0    0  501  0.00000000000E+00  0.00000000000E+00  0.12540128524E+04  0.12540128524E+04  0.25500000920E-02 0. -1.
        2   -1    0    0  501    0  0.00000000000E+00  0.00000000000E+00 -0.96775921121E+03  0.96775921121E+03  0.25500000920E-02 0.  1.
    10030    2    1    2    0    0  0.00000000000E+00  0.00000000000E+00  0.28625364117E+03  0.22217720636E+04  0.22032544010E+04 0.  0.
        4    1    3    3  502    0 -0.99464760329E+03  0.20698749770E+03 -0.28637923752E+03  0.10555483691E+04  0.12699999809E+01 0.  1.
       -4    1    3    3    0  502  0.99464760329E+03 -0.20698749770E+03  0.57263287869E+03  0.11662236945E+04  0.12699999809E+01 0. -1.
</event>
<event>
 5   0  0.9963173E-06  0.2200835E+04  0.7818609E-02  0.8518081E-01
        2   -1    0    0  501    0  0.00000000000E+00  0.00000000000E+00  0.13705222160E+04  0.13705222160E+04  0.25500000920E-02 0. -1.
       -2   -1    0    0    0  501  0.00000000000E+00  0.00000000000E+00 -0.88354560338E+03  0.88354560338E+03  0.25500000920E-02 0.  1.
    10030    2    1    2    0    0  0.00000000000E+00  0.00000000000E+00  0.48697661266E+03  0.22540678194E+04  0.22008351854E+04 0.  0.
        4    1    3    3  502    0 -0.50003871090E+03  0.10072530342E+02 -0.76041244458E+03  0.91014771715E+03  0.12699999809E+01 0.  1.
       -4    1    3    3    0  502  0.50003871090E+03 -0.10072530342E+02  0.12473890572E+04  0.13439201023E+04  0.12699999809E+01 0. -1.
</event>
<event>
 5   0  0.1014015E-05  0.2197951E+04  0.7818609E-02  0.8519281E-01
       -2   -1    0    0    0  501  0.00000000000E+00  0.00000000000E+00  0.65180339465E+03  0.65180339466E+03  0.25500000920E-02 0. -1.
        2   -1    0    0  501    0  0.00000000000E+00  0.00000000000E+00 -0.18529318790E+04  0.18529318790E+04  0.25500000920E-02 0.  1.
    10030    2    1    2    0    0  0.00000000000E+00  0.00000000000E+00 -0.12011284844E+04  0.25047352737E+04  0.21979511267E+04 0.  0.
        1    1    3    3  502    0 -0.25801303441E+03  0.60041052826E+03 -0.16074527251E+04  0.17352140478E+04  0.50400001928E-02 0.  1.
       -1    1    3    3    0  502  0.25801303441E+03 -0.60041052826E+03  0.40632424074E+03  0.76952122583E+03  0.50400001928E-02 0. -1.
</event>
<event>
 5   0  0.4309945E-06  0.2200026E+04  0.7818609E-02  0.8518417E-01
        1   -1    0    0  501    0  0.00000000000E+00  0.00000000000E+00  0.21770462461E+04  0.21770462461E+04  0.50400001928E-02 0. -1.
       -1   -1    0    0    0  501  0.00000000000E+00  0.00000000000E+00 -0.55581190915E+03  0.55581190917E+03  0.50400001928E-02 0.  1.
    10030    2    1    2    0    0  0.00000000000E+00  0.00000000000E+00  0.16212343369E+04  0.27328581553E+04  0.22000256638E+04 0.  0.
        4    1    3    3  502    0 -0.60949510750E+03  0.84078426336E+03  0.35994873433E+03  0.10990755970E+04  0.12699999809E+01 0. -1.
       -4    1    3    3    0  502  0.60949510750E+03 -0.84078426336E+03  0.12612856026E+04  0.16337825583E+04  0.12699999809E+01 0.  1.
</event>
<event>
 5   0  0.4309945E-06  0.2203322E+04  0.7818609E-02  0.8517047E-01
        1   -1    0    0  501    0  0.00000000000E+00  0.00000000000E+00  0.17536856218E+04  0.17536856218E+04  0.50400001928E-02 0. -1.
       -1   -1    0    0    0  501  0.00000000000E+00  0.00000000000E+00 -0.69206043144E+03  0.69206043146E+03  0.50400001928E-02 0.  1.
    10030    2    1    2    0    0  0.00000000000E+00  0.00000000000E+00  0.10616251903E+04  0.24457460532E+04  0.22033215181E+04 0.  0.
        4    1    3    3  502    0  0.94462002769E+03  0.95375063361E+02  0.11510896177E+04  0.14921167248E+04  0.12699999809E+01 0. -1.
       -4    1    3    3    0  502 -0.94462002769E+03 -0.95375063361E+02 -0.89464427393E+02  0.95362932846E+03  0.12699999809E+01 0.  1.
</event>
<event>
 5   0  0.1015876E-05  0.2198682E+04  0.7818609E-02  0.8518977E-01
       -2   -1    0    0    0  501  0.00000000000E+00  0.00000000000E+00  0.43389512172E+03  0.43389512173E+03  0.25500000920E-02 0.  1.
        2   -1    0    0  501    0  0.00000000000E+00  0.00000000000E+00 -0.27853519235E+04  0.27853519235E+04  0.25500000920E-02 0. -1.
    10030    2    1    2    0    0  0.00000000000E+00  0.00000000000E+00 -0.23514568018E+04  0.32192470452E+04  0.21986819796E+04 0.  0.
        5    1    3    3  502    0 -0.10815281397E+04  0.15160670368E+03 -0.13600094236E+04  0.17442291799E+04  0.46999998093E+01 0. -1.
       -5    1    3    3    0  502  0.10815281397E+04 -0.15160670368E+03 -0.99144737816E+03  0.14750178654E+04  0.46999998093E+01 0.  1.
</event>
<event>
 5   0  0.4794967E-06  0.2187592E+04  0.7818609E-02  0.8523610E-01
       -1   -1    0    0    0  501  0.00000000000E+00  0.00000000000E+00  0.74261795078E+03  0.74261795079E+03  0.50400001928E-02 0.  1.
        1   -1    0    0  501    0  0.00000000000E+00  0.00000000000E+00 -0.16110440546E+04  0.16110440546E+04  0.50400001928E-02 0. -1.
    10030    2    1    2    0    0  0.00000000000E+00  0.00000000000E+00 -0.86842610384E+03  0.23536620054E+04  0.21875924981E+04 0.  0.
        5    1    3    3  502    0 -0.80408370808E+03  0.42968788255E+03 -0.10843946102E+04  0.14167272309E+04  0.46999998093E+01 0. -1.
       -5    1    3    3    0  502  0.80408370808E+03 -0.42968788255E+03  0.21596850639E+03  0.93693477455E+03  0.46999998093E+01 0.  1.
</event>
<event>
 5   0  0.4794967E-06  0.2198367E+04  0.7818609E-02  0.8519108E-01
       -1   -1    0    0    0  501  0.00000000000E+00  0.00000000000E+00  0.12366690721E+04  0.12366690721E+04  0.50400001928E-02 0.  1.
        1   -1    0    0  501    0  0.00000000000E+00  0.00000000000E+00 -0.97698232799E+03  0.97698232800E+03  0.50400001928E-02 0. -1.
    10030    2    1    2    0    0  0.00000000000E+00  0.00000000000E+00  0.25968674406E+03  0.22136514001E+04  0.21983665108E+04 0.  0.
        5    1    3    3  502    0 -0.64414900800E+03  0.43282027134E+03  0.91366441865E+03  0.11987769149E+04  0.46999998093E+01 0.  1.
       -5    1    3    3    0  502  0.64414900800E+03 -0.43282027134E+03 -0.65397767459E+03  0.10148744852E+04  0.46999998093E+01 0. -1.
</event>
<event>
 5   0  0.9963573E-06  0.2201681E+04  0.7818609E-02  0.8517729E-01
        2   -1    0    0  501    0  0.00000000000E+00  0.00000000000E+00  0.17568287970E+04  0.17568287970E+04  0.25500000920E-02 0.  1.
       -2   -1    0    0    0  501  0.00000000000E+00  0.00000000000E+00 -0.68979411116E+03  0.68979411117E+03  0.25500000920E-02 0. -1.
    10030    2    1    2    0    0  0.00000000000E+00  0.00000000000E+00  0.10670346859E+04  0.24466229082E+04  0.22016813198E+04 0.  0.
        2    1    3    3  502    0  0.80416299675E+03  0.16306704832E+03  0.13490440035E+04  0.15789834423E+04  0.25500000920E-02 0.  1.
       -2    1    3    3    0  502 -0.80416299675E+03 -0.16306704832E+03 -0.28200931763E+03  0.86763946593E+03  0.25500000920E-02 0. -1.
</event>
<event>
 5   0  0.4462201E-06  0.2193457E+04  0.7818609E-02  0.8521156E-01
       -1   -1    0    0    0  501  0.00000000000E+00  0.00000000000E+00  0.11844874503E+04  0.11844874503E+04  0.50400001928E-02 0. -1.
        1   -1    0    0  501    0  0.00000000000E+00  0.00000000000E+00 -0.10154718422E+04  0.10154718422E+04  0.50400001928E-02 0.  1.
    10030    2    1    2    0    0  0.00000000000E+00  0.00000000000E+00  0.16901560811E+03  0.21999592925E+04  0.21934572284E+04 0.  0.
        3    1    3    3  502    0  0.56409216456E+03  0.85252269463E+02  0.10239517160E+04  0.11721540200E+04  0.10100000352E+00 0. -1.
       -3    1    3    3    0  502 -0.56409216456E+03 -0.85252269463E+02 -0.85493610789E+03  0.10278052726E+04  0.10100000352E+00 0.  1.
</event>
<event>
 5   0  0.1035928E-05  0.2199386E+04  0.7818609E-02  0.8518684E-01
        2   -1    0    0  501    0  0.00000000000E+00  0.00000000000E+00  0.72769051538E+03  0.72769051539E+03  0.25500000920E-02 0. -1.
       -2   -1    0    0    0  501  0.00000000000E+00  0.00000000000E+00 -0.16618670671E+04  0.16618670671E+04  0.25500000920E-02 0.  1.
    10030    2    1    2    0    0  0.00000000000E+00  0.00000000000E+00 -0.93417655169E+03  0.23895575825E+04  0.21993861894E+04 0.  0.
        3    1    3    3  502    0 -0.92720956651E+01  0.10943147491E+03  0.72171750824E+03  0.73002561007E+03  0.10100000352E+00 0. -1.
       -3    1    3    3    0  502  0.92720956651E+01 -0.10943147491E+03 -0.16558940599E+04  0.16595319724E+04  0.10100000352E+00 0.  1.
</event>
<event>
 5   0  0.9963173E-06  0.2200592E+04  0.7818609E-02  0.8518182E-01
       -2   -1    0    0    0  501  0.00000000000E+00  0.00000000000E+00  0.44322384286E+03  0.44322384287E+03  0.25500000920E-02 0.  1.
        2   -1    0    0  501    0  0.00000000000E+00  0.00000000000E+00 -0.27314679377E+04  0.27314679377E+04  0.25500000920E-02 0. -1.
    10030    2    1    2    0    0  0.00000000000E+00  0.00000000000E+00 -0.22882440949E+04  0.31746917806E+04  0.22005923894E+04 0.  0.
        4    1    3    3  502    0 -0.56821740801E+03  0.35616194577E+03  0.11432130747E+03  0.68028915075E+03  0.12699999809E+01 0.  1.
       -4    1    3    3    0  502  0.56821740801E+03 -0.35616194577E+03 -0.24025654024E+04  0.24944026299E+04  0.12699999809E+01 0. -1.
</event>
<event>
 5   0  0.9963173E-06  0.2201090E+04  0.7818609E-02  0.8517975E-01
       -2   -1    0    0    0  501  0.00000000000E+00  0.00000000000E+00  0.13144137308E+04  0.13144137308E+04  0.25500000920E-02 0.  1.
        2   -1    0    0  501    0  0.00000000000E+00  0.00000000000E+00 -0.92147499451E+03  0.92147499452E+03  0.25500000920E-02 0. -1.
    10030    2    1    2    0    0  0.00000000000E+00  0.00000000000E+00  0.39293873628E+03  0.22358887253E+04  0.22010900803E+04 0.  0.
        4    1    3    3  502    0  0.44892033257E+03 -0.63613250122E+03 -0.59364762465E+03  0.97908791191E+03  0.12699999809E+01 0. -1.
       -4    1    3    3    0  502 -0.44892033257E+03  0.63613250122E+03  0.98658636093E+03  0.12568008134E+04  0.12699999809E+01 0.  1.
</event>
<event>
 5   0  0.4630615E-06  0.2200347E+04  0.7818609E-02  0.8518284E-01
        1   -1    0    0  501    0  0.00000000000E+00  0.00000000000E+00  0.17087035164E+04  0.17087035164E+04  0.50400001928E-02 0. -1.
       -1   -1    0    0    0  501  0.00000000000E+00  0.00000000000E+00 -0.70836292940E+03  0.70836292942E+03  0.50400001928E-02 0.  1.
    10030    2    1    2    0    0  0.00000000000E+00  0.00000000000E+00  0.10003405870E+04  0.24170664458E+04  0.22003474529E+04 0.  0.
        2    1    3    3  502    0  0.57958288038E+02 -0.59947774653E+03 -0.51118902137E+03  0.78996642163E+03  0.25500000920E-02 0.  1.
       -2    1    3    3    0  502 -0.57958288038E+02  0.59947774653E+03  0.15115296084E+04  0.16271000242E+04  0.25500000920E-02 0. -1.
</event>
<event>
 5   0  0.1014015E-05  0.2202301E+04  0.7818609E-02  0.8517471E-01
       -2   -1    0    0    0  501  0.00000000000E+00  0.00000000000E+00  0.98639683582E+03  0.98639683582E+03  0.25500000920E-02 0.  1.
        2   -1    0    0  501    0  0.00000000000E+00  0.00000000000E+00 -0.12292540375E+04  0.12292540375E+04  0.25500000920E-02 0. -1.
    10030    2    1    2    0    0  0.00000000000E+00  0.00000000000E+00 -0.24285720169E+03  0.22156508733E+04  0.22023008814E+04 0.  0.
        1    1    3    3  502    0 -0.10066094442E+04 -0.44018475680E+03 -0.46768917447E+02  0.10996419986E+04  0.50400001928E-02 0.  1.
       -1    1    3    3    0  502  0.10066094442E+04  0.44018475680E+03 -0.19608828424E+03  0.11160088748E+04  0.50400001928E-02 0. -1.
</event>
<event>
 5   0  0.4408787E-06  0.2199189E+04  0.7818609E-02  0.8518766E-01
        1   -1    0    0  501    0  0.00000000000E+00  0.00000000000E+00  0.22530446401E+04  0.22530446401E+04  0.50400001928E-02 0.  1.
       -1   -1    0    0    0  501  0.00000000000E+00  0.00000000000E+00 -0.53665527351E+03  0.53665527354E+03  0.50400001928E-02 0. -1.
    10030    2    1    2    0    0  0.00000000000E+00  0.00000000000E+00  0.17163893666E+04  0.27896999137E+04  0.21991892030E+04 0.  0.
        1    1    3    3  502    0 -0.23816923846E+03 -0.61268918155E+03 -0.25996593717E+03  0.70689101554E+03  0.50400001928E-02 0. -1.
       -1    1    3    3    0  502  0.23816923846E+03  0.61268918155E+03  0.19763553038E+04  0.20828088981E+04  0.50400001928E-02 0.  1.
</event>
<event>
 5   0  0.4794967E-06  0.2198368E+04  0.7818609E-02  0.8519108E-01
       -1   -1    0    0    0  501  0.00000000000E+00  0.00000000000E+00  0.11560704777E+04  0.11560704777E+04  0.50400001928E-02 0. -1.
        1   -1    0    0  501    0  0.00000000000E+00  0.00000000000E+00 -0.10450966849E+04  0.10450966849E+04  0.50400001928E-02 0.  1.
    10030    2    1    2    0    0  0.00000000000E+00  0.00000000000E+00  0.11097379283E+03  0.22011671626E+04  0.21983679617E+04 0.  0.
        5    1    3    3  502    0 -0.61015270661E+03  0.78803486902E+03  0.51964814543E+03  0.11239846819E+04  0.46999998093E+01 0. -1.
       -5    1    3    3    0  502  0.61015270661E+03 -0.78803486902E+03 -0.40867435260E+03  0.10771824807E+04  0.46999998093E+01 0.  1.
</event>
<event>
 5   0  0.1014015E-05  0.2201593E+04  0.7818609E-02  0.8517765E-01
        2   -1    0    0  501    0  0.00000000000E+00  0.00000000000E+00  0.16208699492E+04  0.16208699492E+04  0.25500000920E-02 0.  1.
       -2   -1    0    0    0  501  0.00000000000E+00  0.00000000000E+00 -0.74759398009E+03  0.74759398009E+03  0.25500000920E-02 0. -1.
    10030    2    1    2    0    0  0.00000000000E+00  0.00000000000E+00  0.87327596912E+03  0.23684639293E+04  0.22015927112E+04 0.  0.
        1    1    3    3  502    0  0.52748881812E+03 -0.61958757868E+03  0.12341933139E+04  0.14782984668E+04  0.50400001928E-02 0.  1.
       -1    1    3    3    0  502 -0.52748881812E+03  0.61958757868E+03 -0.36091734473E+03  0.89016546252E+03  0.50400001928E-02 0. -1.
</event>
<event>
 5   0  0.4794967E-06  0.2196480E+04  0.7818609E-02  0.8519895E-01
       -1   -1    0    0    0  501  0.00000000000E+00  0.00000000000E+00  0.64925900810E+03  0.64925900812E+03  0.50400001928E-02 0.  1.
        1   -1    0    0  501    0  0.00000000000E+00  0.00000000000E+00 -0.18577045937E+04  0.18577045937E+04  0.50400001928E-02 0. -1.
    10030    2    1    2    0    0  0.00000000000E+00  0.00000000000E+00 -0.12084455856E+04  0.25069636018E+04  0.21964803135E+04 0.  0.
        5    1    3    3  502    0 -0.75386204427E+03 -0.41362607553E+03  0.17551129074E+03  0.87762225093E+03  0.46999998093E+01 0.  1.
       -5    1    3    3    0  502  0.75386204427E+03  0.41362607553E+03 -0.13839568763E+04  0.16293413508E+04  0.46999998093E+01 0. -1.
</event>
<event>
 5   0  0.4462201E-06  0.2200852E+04  0.7818609E-02  0.8518074E-01
        1   -1    0    0  501    0  0.00000000000E+00  0.00000000000E+00  0.97292565003E+03  0.97292565004E+03  0.50400001928E-02 0. -1.
       -1   -1    0    0    0  501  0.00000000000E+00  0.00000000000E+00 -0.12446350713E+04  0.12446350713E+04  0.50400001928E-02 0.  1.
    10030    2    1    2    0    0  0.00000000000E+00  0.00000000000E+00 -0.27170942126E+03  0.22175607213E+04  0.22008520039E+04 0.  0.
        3    1    3    3  502    0  0.28903569245E+03  0.58047425263E+03 -0.10316744244E+04  0.12185417997E+04  0.10100000352E+00 0.  1.
       -3    1    3    3    0  502 -0.28903569245E+03 -0.58047425263E+03  0.75996500317E+03  0.99901892160E+03  0.10100000352E+00 0. -1.
</event>
<event>
 5   0  0.4309945E-06  0.2200902E+04  0.7818609E-02  0.8518053E-01
        1   -1    0    0  501    0  0.00000000000E+00  0.00000000000E+00  0.11036643494E+04  0.11036643494E+04  0.50400001928E-02 0. -1.
       -1   -1    0    0    0  501  0.00000000000E+00  0.00000000000E+00 -0.10972466346E+04  0.10972466346E+04  0.50400001928E-02 0.  1.
    10030    2    1    2    0    0  0.00000000000E+00  0.00000000000E+00  0.64177148104E+01  0.22009109840E+04  0.22009016272E+04 0.  0.
        4    1    3    3  502    0  0.79912240249E+03  0.14012657298E+03  0.74668919313E+03  0.11026234328E+04  0.12699999809E+01 0. -1.
       -4    1    3    3    0  502 -0.79912240249E+03 -0.14012657298E+03 -0.74027147832E+03  0.10982875512E+04  0.12699999809E+01 0.  1.
</event>
<event>
 5   0  0.1015876E-05  0.2193602E+04  0.7818609E-02  0.8521096E-01
       -2   -1    0    0    0  501  0.00000000000E+00  0.00000000000E+00  0.12598109777E+04  0.12598109777E+04  0.25500000920E-02 0.  1.
        2   -1    0    0  501    0  0.00000000000E+00  0.00000000000E+00 -0.95488342823E+03  0.95488342823E+03  0.25500000920E-02 0. -1.
    10030    2    1    2    0    0  0.00000000000E+00  0.00000000000E+00  0.30492754944E+03  0.22146944059E+04  0.21936021748E+04 0.  0.
        5    1    3    3  502    0 -0.27318551146E+03  0.41110461379E+03  0.11413268324E+04  0.12434976299E+04  0.46999998093E+01 0.  1.
       -5    1    3    3    0  502  0.27318551146E+03 -0.41110461379E+03 -0.83639928299E+03  0.97119677601E+03  0.46999998093E+01 0. -1.
</event>
<event>
 5   0  0.1014015E-05  0.2203764E+04  0.7818609E-02  0.8516863E-01
        2   -1    0    0  501    0  0.00000000000E+00  0.00000000000E+00  0.17293547465E+04  0.17293547465E+04  0.25500000920E-02 0.  1.
       -2   -1    0    0    0  501  0.00000000000E+00  0.00000000000E+00 -0.70207939255E+03  0.70207939255E+03  0.25500000920E-02 0. -1.
    10030    2    1    2    0    0  0.00000000000E+00  0.00000000000E+00  0.10272753540E+04  0.24314341391E+04  0.22037643522E+04 0.  0.
        1    1    3    3  502    0 -0.57612489649E+03  0.91307124001E+03  0.75667986654E+03  0.13184018379E+04  0.50400001928E-02 0. -1.
       -1    1    3    3    0  502  0.57612489649E+03 -0.91307124001E+03  0.27059548745E+03  0.11130323012E+04  0.50400001928E-02 0.  1.
</event>
<event>
 5   0  0.4630615E-06  0.2212577E+04  0.7818609E-02  0.8513211E-01
       -1   -1    0    0    0  501  0.00000000000E+00  0.00000000000E+00  0.61294083559E+03  0.61294083561E+03  0.50400001928E-02 0. -1.
        1   -1    0    0  501    0  0.00000000000E+00  0.00000000000E+00 -0.19967248712E+04  0.19967248712E+04  0.50400001928E-02 0.  1.
    10030    2    1    2    0    0  0.00000000000E+00  0.00000000000E+00 -0.13837840356E+04  0.26096657068E+04  0.22125769691E+04 0.  0.
        2    1    3    3  502    0 -0.63069312255E+03 -0.65936850714E+03 -0.14297283597E+04  0.16960730602E+04  0.25500000920E-02 0.  1.
       -2    1    3    3    0  502  0.63069312255E+03  0.65936850714E+03  0.45944324080E+02  0.91359264662E+03  0.25500000920E-02 0. -1.
</event>
<event>
 5   0  0.4794967E-06  0.2201100E+04  0.7818609E-02  0.8517970E-01
        1   -1    0    0  501    0  0.00000000000E+00  0.00000000000E+00  0.13833786943E+04  0.13833786943E+04  0.50400001928E-02 0.  1.
       -1   -1    0    0    0  501  0.00000000000E+00  0.00000000000E+00 -0.87554520313E+03  0.87554520314E+03  0.50400001928E-02 0. -1.
    10030    2    1    2    0    0  0.00000000000E+00  0.00000000000E+00  0.50783349119E+03  0.22589238975E+04  0.22011002521E+04 0.  0.
        5    1    3    3  502    0  0.32428435479E+03  0.36600781212E+03 -0.75791837277E+03  0.90198914133E+03  0.46999998093E+01 0. -1.
       -5    1    3    3    0  502 -0.32428435479E+03 -0.36600781212E+03  0.12657518640E+04  0.13569347561E+04  0.46999998093E+01 0.  1.
</event>
<event>
 5   0  0.1035928E-05  0.2198119E+04  0.7818609E-02  0.8519211E-01
       -2   -1    0    0    0  501  0.00000000000E+00  0.00000000000E+00  0.13755259721E+04  0.13755259721E+04  0.25500000920E-02 0.  1.
        2   -1    0    0  501    0  0.00000000000E+00  0.00000000000E+00 -0.87816027228E+03  0.87816027228E+03  0.25500000920E-02 0. -1.
    10030    2    1    2    0    0  0.00000000000E+00  0.00000000000E+00  0.49736569986E+03  0.22536862444E+04  0.21981194346E+04 0.  0.
        3    1    3    3  502    0 -0.52187316346E+03  0.57680288628E+03  0.10447638819E+04  0.13025301330E+04  0.10100000352E+00 0.  1.
       -3    1    3    3    0  502  0.52187316346E+03 -0.57680288628E+03 -0.54739818202E+03  0.95115611139E+03  0.10100000352E+00 0. -1.
</event>
<event>
 5   0  0.1014015E-05  0.2196334E+04  0.7818609E-02  0.8519955E-01
        2   -1    0    0  501    0  0.00000000000E+00  0.00000000000E+00  0.10845780793E+04  0.10845780793E+04  0.25500000920E-02 0. -1.
       -2   -1    0    0    0  501  0.00000000000E+00  0.00000000000E+00 -0.11119264510E+04  0.11119264510E+04  0.25500000920E-02 0.  1.
    10030    2    1    2    0    0  0.00000000000E+00  0.00000000000E+00 -0.27348371712E+02  0.21965045303E+04  0.21963342683E+04 0.  0.
        1    1    3    3  502    0  0.22849188634E+03 -0.43428859841E+03 -0.99617384036E+03  0.11104852314E+04  0.50400001928E-02 0.  1.
       -1    1    3    3    0  502 -0.22849188634E+03  0.43428859841E+03  0.96882546865E+03  0.10860192989E+04  0.50400001928E-02 0. -1.
</event>
<event>
 5   0  0.4794967E-06  0.2202780E+04  0.7818609E-02  0.8517272E-01
        1   -1    0    0  501    0  0.00000000000E+00  0.00000000000E+00  0.13741684488E+04  0.13741684488E+04  0.50400001928E-02 0.  1.
       -1   -1    0    0    0  501  0.00000000000E+00  0.00000000000E+00 -0.88275924107E+03  0.88275924108E+03  0.50400001928E-02 0. -1.
    10030    2    1    2    0    0  0.00000000000E+00  0.00000000000E+00  0.49140920771E+03  0.22569276899E+04  0.22027799681E+04 0.  0.
        5    1    3    3  502    0  0.83146930873E+03  0.11002277581E+03  0.97710914104E+03  0.12877152581E+04  0.46999998093E+01 0.  1.
       -5    1    3    3    0  502 -0.83146930873E+03 -0.11002277581E+03 -0.48569993333E+03  0.96921243172E+03  0.46999998093E+01 0. -1.
</event>
<event>
 5   0  0.4630615E-06  0.2196668E+04  0.7818609E-02  0.8519816E-01
       -1   -1    0    0    0  501  0.00000000000E+00  0.00000000000E+00  0.12371321905E+04  0.12371321905E+04  0.50400001928E-02 0. -1.
        1   -1    0    0  501    0  0.00000000000E+00  0.00000000000E+00 -0.97510822904E+03  0.97510822905E+03  0.50400001928E-02 0.  1.
    10030    2    1    2    0    0  0.00000000000E+00  0.00000000000E+00  0.26202396142E+03  0.22122404195E+04  0.21966681855E+04 0.  0.
        2    1    3    3  502    0 -0.76281484156E+03 -0.40998317615E+03 -0.54932498931E+03  0.10255391904E+04  0.25500000920E-02 0. -1.
       -2    1    3    3    0  502  0.76281484156E+03  0.40998317615E+03  0.81134895074E+03  0.11867012291E+04  0.25500000920E-02 0.  1.
</event>
<event>
 5   0  0.4794967E-06  0.2199360E+04  0.7818609E-02  0.8518694E-01
        1   -1    0    0  501    0  0.00000000000E+00  0.00000000000E+00  0.15227943700E+04  0.15227943700E+04  0.50400001928E-02 0.  1.
       -1   -1    0    0    0  501  0.00000000000E+00  0.00000000000E+00 -0.79412969776E+03  0.79412969778E+03  0.50400001928E-02 0. -1.
    10030    2    1    2    0    0  0.00000000000E+00  0.00000000000E+00  0.72866467222E+03  0.23169240678E+04  0.21993601186E+04 0.  0.
        5    1    3    3  502    0  0.20484874521E+03 -0.97961812637E+03 -0.11572301647E+03  0.10074862721E+04  0.46999998093E+01 0.  1.
       -5    1    3    3    0  502 -0.20484874521E+03  0.97961812637E+03  0.84438768869E+03  0.13094377957E+04  0.46999998093E+01 0. -1.
</event>
<event>
 5   0  0.4630615E-06  0.2199765E+04  0.7818609E-02  0.8518526E-01
        1   -1    0    0  501    0  0.00000000000E+00  0.00000000000E+00  0.86363667815E+03  0.86363667816E+03  0.50400001928E-02 0. -1.
       -1   -1    0    0    0  501  0.00000000000E+00  0.00000000000E+00 -0.14007528653E+04  0.14007528653E+04  0.50400001928E-02 0.  1.
    10030    2    1    2    0    0  0.00000000000E+00  0.00000000000E+00 -0.53711618717E+03  0.22643895435E+04  0.21997650343E+04 0.  0.
        2    1    3    3  502    0  0.97244652493E+03 -0.32128047460E+03  0.14430864748E+03  0.10342622361E+04  0.25500000920E-02 0.  1.
       -2    1    3    3    0  502 -0.97244652493E+03  0.32128047460E+03 -0.68142483465E+03  0.12301273074E+04  0.25500000920E-02 0. -1.
</event>
<event>
 5   0  0.4794967E-06  0.2194689E+04  0.7818609E-02  0.8520642E-01
        1   -1    0    0  501    0  0.00000000000E+00  0.00000000000E+00  0.12896070741E+04  0.12896070742E+04  0.50400001928E-02 0.  1.
       -1   -1    0    0    0  501  0.00000000000E+00  0.00000000000E+00 -0.93374519663E+03  0.93374519665E+03  0.50400001928E-02 0. -1.
    10030    2    1    2    0    0  0.00000000000E+00  0.00000000000E+00  0.35586187751E+03  0.22233522708E+04  0.21946885073E+04 0.  0.
        5    1    3    3  502    0  0.28178973248E+03 -0.79260829770E+03 -0.53590585846E+03  0.99742194985E+03  0.46999998093E+01 0. -1.
       -5    1    3    3    0  502 -0.28178973248E+03  0.79260829770E+03  0.89176773597E+03  0.12259303210E+04  0.46999998093E+01 0.  1.
</event>
<event>
 5   0  0.4630615E-06  0.2198321E+04  0.7818609E-02  0.8519127E-01
       -1   -1    0    0    0  501  0.00000000000E+00  0.00000000000E+00  0.88218218381E+03  0.88218218383E+03  0.50400001928E-02 0.  1.
        1   -1    0    0  501    0  0.00000000000E+00  0.00000000000E+00 -0.13695057412E+04  0.13695057412E+04  0.50400001928E-02 0. -1.
    10030    2    1    2    0    0  0.00000000000E+00  0.00000000000E+00 -0.48732355740E+03  0.22516879251E+04  0.21983207824E+04 0.  0.
        2    1    3    3  502    0 -0.14457977365E+03 -0.99010854053E+03 -0.70960656646E+03  0.12266864767E+04  0.25500000920E-02 0. -1.
       -2    1    3    3    0  502  0.14457977365E+03  0.99010854053E+03  0.22228300905E+03  0.10250014483E+04  0.25500000920E-02 0.  1.
</event>
<event>
 5   0  0.1035928E-05  0.2201505E+04  0.7818609E-02  0.8517802E-01
        2   -1    0    0  501    0  0.00000000000E+00  0.00000000000E+00  0.11409312808E+04  0.11409312808E+04  0.25500000920E-02 0.  1.
       -2   -1    0    0    0  501  0.00000000000E+00  0.00000000000E+00 -0.10619883822E+04  0.10619883822E+04  0.25500000920E-02 0. -1.
    10030    2    1    2    0    0  0.00000000000E+00  0.00000000000E+00  0.78942898672E+02  0.22029196630E+04  0.22015047264E+04 0.  0.
        3    1    3    3  502    0 -0.12081635919E+03 -0.93465888384E+03 -0.52964002149E+03  0.10810653932E+04  0.10100000352E+00 0. -1.
       -3    1    3    3    0  502  0.12081635919E+03  0.93465888384E+03  0.60858292016E+03  0.11218542698E+04  0.10100000352E+00 0.  1.
</event>
<event>
 5   0  0.9963573E-06  0.2194338E+04  0.7818609E-02  0.8520789E-01
        2   -1    0    0  501    0  0.00000000000E+00  0.00000000000E+00  0.17244367100E+04  0.17244367100E+04  0.25500000920E-02 0. -1.
       -2   -1    0    0    0  501  0.00000000000E+00  0.00000000000E+00 -0.69807106220E+03  0.69807106221E+03  0.25500000920E-02 0.  1.
    10030    2    1    2    0    0  0.00000000000E+00  0.00000000000E+00  0.10263656478E+04  0.24225077722E+04  0.21943375910E+04 0.  0.
        2    1    3    3  502    0  0.15094667576E+03 -0.48075558988E+02 -0.68537856829E+03  0.70344860521E+03  0.25500000920E-02 0.  1.
       -2    1    3    3    0  502 -0.15094667576E+03  0.48075558988E+02  0.17117442160E+04  0.17190591669E+04  0.25500000920E-02 0. -1.
</event>
<event>
 5   0  0.1014015E-05  0.2147401E+04  0.7818609E-02  0.8540646E-01
       -2   -1    0    0    0  501  0.00000000000E+00  0.00000000000E+00  0.79705542842E+03  0.79705542842E+03  0.25500000920E-02 0.  1.
        2   -1    0    0  501    0  0.00000000000E+00  0.00000000000E+00 -0.14463645019E+04  0.14463645019E+04  0.25500000920E-02 0. -1.
    10030    2    1    2    0    0  0.00000000000E+00  0.00000000000E+00 -0.64930907351E+03  0.22434199303E+04  0.21474009199E+04 0.  0.
        1    1    3    3  502    0  0.29610745522E+03 -0.10104137393E+04 -0.10497343151E+03  0.10581280504E+04  0.50400001928E-02 0.  1.
       -1    1    3    3    0  502 -0.29610745522E+03  0.10104137393E+04 -0.54433564200E+03  0.11852918800E+04  0.50400001928E-02 0. -1.
</event>
<event>
 5   0  0.4630615E-06  0.2211411E+04  0.7818609E-02  0.8513693E-01
        1   -1    0    0  501    0  0.00000000000E+00  0.00000000000E+00  0.18112644555E+04  0.18112644555E+04  0.50400001928E-02 0.  1.
       -1   -1    0    0    0  501  0.00000000000E+00  0.00000000000E+00 -0.67498988748E+03  0.67498988749E+03  0.50400001928E-02 0. -1.
    10030    2    1    2    0    0  0.00000000000E+00  0.00000000000E+00  0.11362745680E+04  0.24862543430E+04  0.22114114869E+04 0.  0.
        2    1    3    3  502    0  0.37662988940E+03  0.45285779635E+03  0.16202020911E+04  0.17239446259E+04  0.25500000920E-02 0.  1.
       -2    1    3    3    0  502 -0.37662988940E+03 -0.45285779635E+03 -0.48392752301E+03  0.76230971713E+03  0.25500000920E-02 0. -1.
</event>
<event>
 5   0  0.9963173E-06  0.2187230E+04  0.7818609E-02  0.8523762E-01
       -2   -1    0    0    0  501  0.00000000000E+00  0.00000000000E+00  0.77122068207E+03  0.77122068207E+03  0.25500000920E-02 0. -1.
        2   -1    0    0  501    0  0.00000000000E+00  0.00000000000E+00 -0.15507802327E+04  0.15507802327E+04  0.25500000920E-02 0.  1.
    10030    2    1    2    0    0  0.00000000000E+00  0.00000000000E+00 -0.77955955062E+03  0.23220009148E+04  0.21872300188E+04 0.  0.
        4    1    3    3  502    0  0.53323693109E+02  0.85305709495E+03  0.33449086094E+03  0.91784289094E+03  0.12699999809E+01 0. -1.
       -4    1    3    3    0  502 -0.53323693109E+02 -0.85305709495E+03 -0.11140504116E+04  0.14041580238E+04  0.12699999809E+01 0.  1.
</event>
<event>
 5   0  0.4408787E-06  0.2201949E+04  0.7818609E-02  0.8517617E-01
       -1   -1    0    0    0  501  0.00000000000E+00  0.00000000000E+00  0.64097337610E+03  0.64097337612E+03  0.50400001928E-02 0.  1.
        1   -1    0    0  501    0  0.00000000000E+00  0.00000000000E+00 -0.18911004536E+04  0.18911004536E+04  0.50400001928E-02 0. -1.
    10030    2    1    2    0    0  0.00000000000E+00  0.00000000000E+00 -0.12501270775E+04  0.25320738297E+04  0.22019491750E+04 0.  0.
        1    1    3    3  502    0  0.10093213929E+04  0.39459741169E+03 -0.40176428713E+03  0.11557903503E+04  0.50400001928E-02 0.  1.
       -1    1    3    3    0  502 -0.10093213929E+04 -0.39459741169E+03 -0.84836279037E+03  0.13762834794E+04  0.50400001928E-02 0. -1.
</event>
<event>
 5   0  0.4309945E-06  0.2197925E+04  0.7818609E-02  0.8519292E-01
        1   -1    0    0  501    0  0.00000000000E+00  0.00000000000E+00  0.13742692353E+04  0.13742692353E+04  0.50400001928E-02 0.  1.
       -1   -1    0    0    0  501  0.00000000000E+00  0.00000000000E+00 -0.87880801884E+03  0.87880801885E+03  0.50400001928E-02 0. -1.
    10030    2    1    2    0    0  0.00000000000E+00  0.00000000000E+00  0.49546121646E+03  0.22530772542E+04  0.21979252253E+04 0.  0.
        4    1    3    3  502    0 -0.90703329540E+03  0.37518464948E+03  0.75434250067E+03  0.12379447247E+04  0.12699999809E+01 0.  1.
       -4    1    3    3    0  502  0.90703329540E+03 -0.37518464948E+03 -0.25888128421E+03  0.10151325295E+04  0.12699999809E+01 0. -1.
</event>
<event>
 5   0  0.1035928E-05  0.2189557E+04  0.7818609E-02  0.8522787E-01
       -2   -1    0    0    0  501  0.00000000000E+00  0.00000000000E+00  0.10496543626E+04  0.10496543626E+04  0.25500000920E-02 0.  1.
        2   -1    0    0  501    0  0.00000000000E+00  0.00000000000E+00 -0.11418424552E+04  0.11418424553E+04  0.25500000920E-02 0. -1.
    10030    2    1    2    0    0  0.00000000000E+00  0.00000000000E+00 -0.92188092684E+02  0.21914968178E+04  0.21895569547E+04 0.  0.
        3    1    3    3  502    0 -0.15931866022E+03 -0.99189631874E+03 -0.48156475006E+03  0.11140670363E+04  0.10100000352E+00 0. -1.
       -3    1    3    3    0  502  0.15931866022E+03  0.99189631874E+03  0.38937665737E+03  0.10774297815E+04  0.10100000352E+00 0.  1.
</event>
<event>
 5   0  0.4794967E-06  0.2190431E+04  0.7818609E-02  0.8522421E-01
       -1   -1    0    0    0  501  0.00000000000E+00  0.00000000000E+00  0.63629741346E+03  0.63629741348E+03  0.50400001928E-02 0. -1.
        1   -1    0    0  501    0  0.00000000000E+00  0.00000000000E+00 -0.18851207507E+04  0.18851207507E+04  0.50400001928E-02 0.  1.
    10030    2    1    2    0    0  0.00000000000E+00  0.00000000000E+00 -0.12488233372E+04  0.25214181642E+04  0.21904314258E+04 0.  0.
        5    1    3    3  502    0  0.30272849074E+03  0.62910124364E+03  0.34693500855E+03  0.77961458684E+03  0.46999998093E+01 0. -1.
       -5    1    3    3    0  502 -0.30272849074E+03 -0.62910124364E+03 -0.15957583458E+04  0.17418035773E+04  0.46999998093E+01 0.  1.
</event>
<event>
 5   0  0.1035928E-05  0.2201050E+04  0.7818609E-02  0.8517991E-01
       -2   -1    0    0    0  501  0.00000000000E+00  0.00000000000E+00  0.44564236339E+03  0.44564236340E+03  0.25500000920E-02 0.  1.
        2   -1    0    0  501    0  0.00000000000E+00  0.00000000000E+00 -0.27177747062E+04  0.27177747062E+04  0.25500000920E-02 0. -1.
    10030    2    1    2    0    0  0.00000000000E+00  0.00000000000E+00 -0.22721323428E+04  0.31634170696E+04  0.22010502432E+04 0.  0.
        3    1    3    3  502    0  0.85495262982E+03 -0.52829039855E+03 -0.49151859597E+03  0.11187606021E+04  0.10100000352E+00 0.  1.
       -3    1    3    3    0  502 -0.85495262982E+03  0.52829039855E+03 -0.17806137468E+04  0.20446564675E+04  0.10100000352E+00 0. -1.
</event>
<event>
 5   0  0.4309945E-06  0.2199200E+04  0.7818609E-02  0.8518761E-01
       -1   -1    0    0    0  501  0.00000000000E+00  0.00000000000E+00  0.58824720584E+03  0.58824720586E+03  0.50400001928E-02 0.  1.
        1   -1    0    0  501    0  0.00000000000E+00  0.00000000000E+00 -0.20554623970E+04  0.20554623970E+04  0.50400001928E-02 0. -1.
    10030    2    1    2    0    0  0.00000000000E+00  0.00000000000E+00 -0.14672151911E+04  0.26437096028E+04  0.21991998652E+04 0.  0.
        4    1    3    3  502    0 -0.26496708193E+03 -0.51010885770E+02  0.54782928973E+03  0.61067848215E+03  0.12699999809E+01 0.  1.
       -4    1    3    3    0  502  0.26496708193E+03  0.51010885770E+02 -0.20150444809E+04  0.20330311207E+04  0.12699999809E+01 0. -1.
</event>
<event>
 5   0  0.4794967E-06  0.2201208E+04  0.7818609E-02  0.8517926E-01
       -1   -1    0    0    0  501  0.00000000000E+00  0.00000000000E+00  0.13772807830E+04  0.13772807830E+04  0.50400001928E-02 0.  1.
        1   -1    0    0  501    0  0.00000000000E+00  0.00000000000E+00 -0.87950746961E+03  0.87950746963E+03  0.50400001928E-02 0. -1.
    10030    2    1    2    0    0  0.00000000000E+00  0.00000000000E+00  0.49777331339E+03  0.22567882526E+04  0.22012076108E+04 0.  0.
        5    1    3    3  502    0 -0.32402962224E+03  0.99037771750E+03  0.61203860611E+03  0.12084935104E+04  0.46999998093E+01 0. -1.
       -5    1    3    3    0  502  0.32402962224E+03 -0.99037771750E+03 -0.11426529272E+03  0.10482947422E+04  0.46999998093E+01 0.  1.
</event>
<event>
 5   0  0.1015876E-05  0.2198641E+04  0.7818609E-02  0.8518994E-01
        2   -1    0    0  501    0  0.00000000000E+00  0.00000000000E+00  0.24306273739E+04  0.24306273739E+04  0.25500000920E-02 0. -1.
       -2   -1    0    0    0  501  0.00000000000E+00  0.00000000000E+00 -0.49719889948E+03  0.49719889949E+03  0.25500000920E-02 0.  1.
    10030    2    1    2    0    0  0.00000000000E+00  0.00000000000E+00  0.19334284744E+04  0.29278262733E+04  0.21986407213E+04 0.  0.
        5    1    3    3  502    0 -0.48818048287E+03  0.97525708366E+03  0.78298183450E+03  0.13425830351E+04  0.46999998093E+01 0. -1.
       -5    1    3    3    0  502  0.48818048287E+03 -0.97525708366E+03  0.11504466399E+04  0.15852432382E+04  0.46999998093E+01 0.  1.
</event>
<event>
 5   0  0.4408787E-06  0.2204730E+04  0.7818609E-02  0.8516462E-01
       -1   -1    0    0    0  501  0.00000000000E+00  0.00000000000E+00  0.13401094509E+04  0.13401094509E+04  0.50400001928E-02 0. -1.
        1   -1    0    0  501    0  0.00000000000E+00  0.00000000000E+00 -0.90679764809E+03  0.90679764811E+03  0.50400001928E-02 0.  1.
    10030    2    1    2    0    0  0.00000000000E+00  0.00000000000E+00  0.43331180283E+03  0.22469070990E+04  0.22047295510E+04 0.  0.
        1    1    3    3  502    0  0.47035868670E+03 -0.33831395031E+03 -0.73910946454E+03  0.93913599853E+03  0.50400001928E-02 0.  1.
       -1    1    3    3    0  502 -0.47035868670E+03  0.33831395031E+03  0.11724212674E+04  0.13077711005E+04  0.50400001928E-02 0. -1.
</event>
<event>
 5   0  0.1015876E-05  0.2181467E+04  0.7818609E-02  0.8526182E-01
        2   -1    0    0  501    0  0.00000000000E+00  0.00000000000E+00  0.81240683626E+03  0.81240683626E+03  0.25500000920E-02 0.  1.
       -2   -1    0    0    0  501  0.00000000000E+00  0.00000000000E+00 -0.14644141837E+04  0.14644141837E+04  0.25500000920E-02 0. -1.
    10030    2    1    2    0    0  0.00000000000E+00  0.00000000000E+00 -0.65200734748E+03  0.22768210200E+04  0.21814674822E+04 0.  0.
        5    1    3    3  502    0 -0.41349277989E+02 -0.46084523080E+03 -0.13568971697E+04  0.14336248145E+04  0.46999998093E+01 0. -1.
       -5    1    3    3    0  502  0.41349277989E+02  0.46084523080E+03  0.70488982222E+03  0.84319620552E+03  0.46999998093E+01 0.  1.
</event>
<event>
 5   0  0.4630615E-06  0.2200141E+04  0.7818609E-02  0.8518369E-01
        1   -1    0    0  501    0  0.00000000000E+00  0.00000000000E+00  0.21696068811E+04  0.21696068811E+04  0.50400001928E-02 0.  1.
       -1   -1    0    0    0  501  0.00000000000E+00  0.00000000000E+00 -0.55777631061E+03  0.55777631063E+03  0.50400001928E-02 0. -1.
    10030    2    1    2    0    0  0.00000000000E+00  0.00000000000E+00  0.16118305705E+04  0.27273831917E+04  0.22001411970E+04 0.  0.
        2    1    3    3  502    0  0.31659808881E+03  0.41656799135E+03  0.20054821822E+04  0.20726123672E+04  0.25500000920E-02 0.  1.
       -2    1    3    3    0  502 -0.31659808881E+03 -0.41656799135E+03 -0.39365161175E+03  0.65477082456E+03  0.25500000920E-02 0. -1.
</event>
<event>
 5   0  0.4462201E-06  0.2198056E+04  0.7818609E-02  0.8519238E-01
        1   -1    0    0  501    0  0.00000000000E+00  0.00000000000E+00  0.18062098308E+04  0.18062098308E+04  0.50400001928E-02 0.  1.
       -1   -1    0    0    0  501  0.00000000000E+00  0.00000000000E+00 -0.66872778331E+03  0.66872778333E+03  0.50400001928E-02 0. -1.
    10030    2    1    2    0    0  0.00000000000E+00  0.00000000000E+00  0.11374820475E+04  0.24749376142E+04  0.21980561379E+04 0.  0.
        3    1    3    3  502    0  0.21010177080E+03  0.64379838199E+03 -0.40588272560E+03  0.78953144832E+03  0.10100000352E+00 0. -1.
       -3    1    3    3    0  502 -0.21010177080E+03 -0.64379838199E+03  0.15433647731E+04  0.16854061658E+04  0.10100000352E+00 0.  1.
</event>
<event>
 5   0  0.4794967E-06  0.2196861E+04  0.7818609E-02  0.8519736E-01
        1   -1    0    0  501    0  0.00000000000E+00  0.00000000000E+00  0.56980197445E+03  0.56980197447E+03  0.50400001928E-02 0. -1.
       -1   -1    0    0    0  501  0.00000000000E+00  0.00000000000E+00 -0.21174891984E+04  0.21174891984E+04  0.50400001928E-02 0.  1.
    10030    2    1    2    0    0  0.00000000000E+00  0.00000000000E+00 -0.15476872240E+04  0.26872911729E+04  0.21968609662E+04 0.  0.
        5    1    3    3  502    0 -0.55384052461E+03 -0.93235625951E+03 -0.56021399272E+03  0.12206102281E+04  0.46999998093E+01 0.  1.
       -5    1    3    3    0  502  0.55384052461E+03  0.93235625951E+03 -0.98747323125E+03  0.14666809448E+04  0.46999998093E+01 0. -1.
</event>
<event>
 5   0  0.9963573E-06  0.2195551E+04  0.7818609E-02  0.8520282E-01
       -2   -1    0    0    0  501  0.00000000000E+00  0.00000000000E+00  0.44829129572E+03  0.44829129573E+03  0.25500000920E-02 0. -1.
        2   -1    0    0  501    0  0.00000000000E+00  0.00000000000E+00 -0.26882324984E+04  0.26882324984E+04  0.25500000920E-02 0.  1.
    10030    2    1    2    0    0  0.00000000000E+00  0.00000000000E+00 -0.22399412026E+04  0.31365237941E+04  0.21955511653E+04 0.  0.
        2    1    3    3  502    0  0.43585148784E+03  0.63826078037E+02  0.31649701150E+03  0.54241187854E+03  0.25500000920E-02 0. -1.
       -2    1    3    3    0  502 -0.43585148784E+03 -0.63826078037E+02 -0.25564382141E+04  0.25941119155E+04  0.25500000920E-02 0.  1.
</event>
<event>
 5   0  0.1014015E-05  0.2202447E+04  0.7818609E-02  0.8517410E-01
        2   -1    0    0  501    0  0.00000000000E+00  0.00000000000E+00  0.21467803698E+04  0.21467803698E+04  0.25500000920E-02 0.  1.
       -2   -1    0    0    0  501  0.00000000000E+00  0.00000000000E+00 -0.56488941168E+03  0.56488941169E+03  0.25500000920E-02 0. -1.
    10030    2    1    2    0    0  0.00000000000E+00  0.00000000000E+00  0.15818909581E+04  0.27116697815E+04  0.22024472753E+04 0.  0.
        1    1    3    3  502    0  0.71212560098E+03  0.42579714950E+03 -0.10052653532E+03  0.83578206994E+03  0.50400001928E-02 0. -1.
       -1    1    3    3    0  502 -0.71212560098E+03 -0.42579714950E+03  0.16824174934E+04  0.18758877115E+04  0.50400001928E-02 0.  1.
</event>
<event>
 5   0  0.4408787E-06  0.2211515E+04  0.7818609E-02  0.8513651E-01
       -1   -1    0    0    0  501  0.00000000000E+00  0.00000000000E+00  0.11415210657E+04  0.11415210657E+04  0.50400001928E-02 0. -1.
        1   -1    0    0  501    0  0.00000000000E+00  0.00000000000E+00 -0.10711141878E+04  0.10711141878E+04  0.50400001928E-02 0.  1.
    10030    2    1    2    0    0  0.00000000000E+00  0.00000000000E+00  0.70406877873E+02  0.22126352535E+04  0.22115147832E+04 0.  0.
        1    1    3    3  502    0 -0.81546614310E+03  0.72343148702E+03 -0.15025838844E+03  0.11004161623E+04  0.50400001928E-02 0.  1.
       -1    1    3    3    0  502  0.81546614310E+03 -0.72343148702E+03  0.22066526631E+03  0.11122190912E+04  0.50400001928E-02 0. -1.
</event>
<event>
 5   0  0.4462201E-06  0.2203441E+04  0.7818609E-02  0.8516997E-01
       -1   -1    0    0    0  501  0.00000000000E+00  0.00000000000E+00  0.12363018311E+04  0.12363018311E+04  0.50400001928E-02 0. -1.
        1   -1    0    0  501    0  0.00000000000E+00  0.00000000000E+00 -0.98178919589E+03  0.98178919590E+03  0.50400001928E-02 0.  1.
    10030    2    1    2    0    0  0.00000000000E+00  0.00000000000E+00  0.25451263524E+03  0.22180910270E+04  0.22034407464E+04 0.  0.
        3    1    3    3  502    0  0.39924940090E+03 -0.79532839387E+03  0.78106711794E+03  0.11840663795E+04  0.10100000352E+00 0. -1.
       -3    1    3    3    0  502 -0.39924940090E+03  0.79532839387E+03 -0.52655448270E+03  0.10340246475E+04  0.10100000352E+00 0.  1.
</event>
<event>
 5   0  0.4462201E-06  0.2197222E+04  0.7818609E-02  0.8519585E-01
        1   -1    0    0  501    0  0.00000000000E+00  0.00000000000E+00  0.10036197505E+04  0.10036197505E+04  0.50400001928E-02 0. -1.
       -1   -1    0    0    0  501  0.00000000000E+00  0.00000000000E+00 -0.12025928159E+04  0.12025928159E+04  0.50400001928E-02 0.  1.
    10030    2    1    2    0    0  0.00000000000E+00  0.00000000000E+00 -0.19897306536E+03  0.22062125664E+04  0.21972217930E+04 0.  0.
        3    1    3    3  502    0  0.92801663779E+03 -0.22662349229E+02 -0.68944279213E+03  0.11563130354E+04  0.10100000352E+00 0.  1.
       -3    1    3    3    0  502 -0.92801663779E+03  0.22662349229E+02  0.49046972678E+03  0.10498995310E+04  0.10100000352E+00 0. -1.
</event>
<event>
 5   0  0.4630615E-06  0.2202909E+04  0.7818609E-02  0.8517218E-01
       -1   -1    0    0    0  501  0.00000000000E+00  0.00000000000E+00  0.94931806983E+03  0.94931806984E+03  0.50400001928E-02 0.  1.
        1   -1    0    0  501    0  0.00000000000E+00  0.00000000000E+00 -0.12779719065E+04  0.12779719065E+04  0.50400001928E-02 0. -1.
    10030    2    1    2    0    0  0.00000000000E+00  0.00000000000E+00 -0.32865383665E+03  0.22272899763E+04  0.22029088257E+04 0.  0.
        2    1    3    3  502    0  0.63837060056E+03  0.77587752332E+03 -0.62065221856E+03  0.11809793103E+04  0.25500000920E-02 0. -1.
       -2    1    3    3    0  502 -0.63837060056E+03 -0.77587752332E+03  0.29199838192E+03  0.10463106661E+04  0.25500000920E-02 0.  1.
</event>
<event>
 5   0  0.1014015E-05  0.2205922E+04  0.7818609E-02  0.8515967E-01
       -2   -1    0    0    0  501  0.00000000000E+00  0.00000000000E+00  0.70280454742E+03  0.70280454742E+03  0.25500000920E-02 0. -1.
        2   -1    0    0  501    0  0.00000000000E+00  0.00000000000E+00 -0.17309554205E+04  0.17309554205E+04  0.25500000920E-02 0.  1.
    10030    2    1    2    0    0  0.00000000000E+00  0.00000000000E+00 -0.10281508731E+04  0.24337599679E+04  0.22059223385E+04 0.  0.
        1    1    3    3  502    0  0.99613450461E+03  0.30288390006E+03 -0.11247269901E+03  0.10472214266E+04  0.50400001928E-02 0. -1.
       -1    1    3    3    0  502 -0.99613450461E+03 -0.30288390006E+03 -0.91567817406E+03  0.13865385414E+04  0.50400001928E-02 0.  1.
</event>
<event>
 5   0  0.1035928E-05  0.2200773E+04  0.7818609E-02  0.8518106E-01
       -2   -1    0    0    0  501  0.00000000000E+00  0.00000000000E+00  0.81006098508E+03  0.81006098508E+03  0.25500000920E-02 0. -1.
        2   -1    0    0  501    0  0.00000000000E+00  0.00000000000E+00 -0.14947650049E+04  0.14947650049E+04  0.25500000920E-02 0.  1.
    10030    2    1    2    0    0  0.00000000000E+00  0.00000000000E+00 -0.68470401983E+03  0.23048259900E+04  0.22007733299E+04 0.  0.
        3    1    3    3  502    0  0.10019485573E+04 -0.15309891595E+03  0.10628326784E+03  0.10191350905E+04  0.10100000352E+00 0. -1.
       -3    1    3    3    0  502 -0.10019485573E+04  0.15309891595E+03 -0.79098728767E+03  0.12856908995E+04  0.10100000352E+00 0.  1.
</event>
<event>
 5   0  0.4462201E-06  0.2199665E+04  0.7818609E-02  0.8518567E-01
       -1   -1    0    0    0  501  0.00000000000E+00  0.00000000000E+00  0.61475229631E+03  0.61475229633E+03  0.50400001928E-02 0. -1.
        1   -1    0    0  501    0  0.00000000000E+00  0.00000000000E+00 -0.19676737749E+04  0.19676737749E+04  0.50400001928E-02 0.  1.
    10030    2    1    2    0    0  0.00000000000E+00  0.00000000000E+00 -0.13529214786E+04  0.25824260712E+04  0.21996654032E+04 0.  0.
        3    1    3    3  502    0  0.14352923273E+03  0.30498895720E+03  0.55261638974E+03  0.64730502011E+03  0.10100000352E+00 0. -1.
       -3    1    3    3    0  502 -0.14352923273E+03 -0.30498895720E+03 -0.19055378683E+04  0.19351210511E+04  0.10100000352E+00 0.  1.
</event>
<event>
 5   0  0.9963173E-06  0.2201194E+04  0.7818609E-02  0.8517931E-01
        2   -1    0    0  501    0  0.00000000000E+00  0.00000000000E+00  0.14803955169E+04  0.14803955169E+04  0.25500000920E-02 0.  1.
       -2   -1    0    0    0  501  0.00000000000E+00  0.00000000000E+00 -0.81823634592E+03  0.81823634592E+03  0.25500000920E-02 0. -1.
    10030    2    1    2    0    0  0.00000000000E+00  0.00000000000E+00  0.66215917101E+03  0.22986318629E+04  0.22011936928E+04 0.  0.
        4    1    3    3  502    0 -0.88526901897E+03 -0.53948921241E+03  0.71698069928E+03  0.12604811709E+04  0.12699999809E+01 0. -1.
       -4    1    3    3    0  502  0.88526901897E+03  0.53948921241E+03 -0.54821528266E+02  0.10381506919E+04  0.12699999809E+01 0.  1.
</event>
<event>
 5   0  0.4462201E-06  0.2195869E+04  0.7818609E-02  0.8520150E-01
        1   -1    0    0  501    0  0.00000000000E+00  0.00000000000E+00  0.12677152573E+04  0.12677152573E+04  0.50400001928E-02 0.  1.
       -1   -1    0    0    0  501  0.00000000000E+00  0.00000000000E+00 -0.95089171836E+03  0.95089171837E+03  0.50400001928E-02 0. -1.
    10030    2    1    2    0    0  0.00000000000E+00  0.00000000000E+00  0.31682353895E+03  0.22186069757E+04  0.21958687934E+04 0.  0.
        3    1    3    3  502    0 -0.90711033021E+03  0.24189724436E+02  0.78289422364E+03  0.11984814014E+04  0.10100000352E+00 0.  1.
       -3    1    3    3    0  502  0.90711033021E+03 -0.24189724436E+02 -0.46607068470E+03  0.10201255743E+04  0.10100000352E+00 0. -1.
</event>
<event>
 5   0  0.4462201E-06  0.2202272E+04  0.7818609E-02  0.8517483E-01
        1   -1    0    0  501    0  0.00000000000E+00  0.00000000000E+00  0.89912356802E+03  0.89912356804E+03  0.50400001928E-02 0. -1.
       -1   -1    0    0    0  501  0.00000000000E+00  0.00000000000E+00 -0.13485364968E+04  0.13485364968E+04  0.50400001928E-02 0.  1.
    10030    2    1    2    0    0  0.00000000000E+00  0.00000000000E+00 -0.44941292881E+03  0.22476600649E+04  0.22022724143E+04 0.  0.
        3    1    3    3  502    0  0.67836384378E+03 -0.28447042360E+03 -0.10609836754E+04  0.12910411675E+04  0.10100000352E+00 0.  1.
       -3    1    3    3    0  502 -0.67836384378E+03  0.28447042360E+03  0.61157074664E+03  0.95661889736E+03  0.10100000352E+00 0. -1.
</event>
<event>
 5   0  0.1015876E-05  0.2201742E+04  0.7818609E-02  0.8517703E-01
       -2   -1    0    0    0  501  0.00000000000E+00  0.00000000000E+00  0.11316196076E+04  0.11316196076E+04  0.25500000920E-02 0.  1.
        2   -1    0    0  501    0  0.00000000000E+00  0.00000000000E+00 -0.10709578208E+04  0.10709578208E+04  0.25500000920E-02 0. -1.
    10030    2    1    2    0    0  0.00000000000E+00  0.00000000000E+00  0.60661786844E+02  0.22025774284E+04  0.22017419186E+04 0.  0.
        5    1    3    3  502    0 -0.17032924221E+03 -0.10279563414E+04 -0.32503409890E+03  0.10915015099E+04  0.46999998093E+01 0. -1.
       -5    1    3    3    0  502  0.17032924221E+03  0.10279563414E+04  0.38569588575E+03  0.11110759186E+04  0.46999998093E+01 0.  1.
</event>
<event>
 5   0  0.4309945E-06  0.2190543E+04  0.7818609E-02  0.8522375E-01
        1   -1    0    0  501    0  0.00000000000E+00  0.00000000000E+00  0.12923144771E+04  0.12923144771E+04  0.50400001928E-02 0. -1.
       -1   -1    0    0    0  501  0.00000000000E+00  0.00000000000E+00 -0.92827242434E+03  0.92827242435E+03  0.50400001928E-02 0.  1.
    10030    2    1    2    0    0  0.00000000000E+00  0.00000000000E+00  0.36404205276E+03  0.22205869015E+04  0.21905432136E+04 0.  0.
        4    1    3    3  502    0 -0.89933641217E+02 -0.92994860902E+03  0.76145995165E+03  0.12052864166E+04  0.12699999809E+01 0. -1.
       -4    1    3    3    0  502  0.89933641217E+02  0.92994860902E+03 -0.39741789889E+03  0.10153004848E+04  0.12699999809E+01 0.  1.
</event>
<event>
 5   0  0.4462201E-06  0.2201795E+04  0.7818609E-02  0.8517681E-01
       -1   -1    0    0    0  501  0.00000000000E+00  0.00000000000E+00  0.12203919649E+04  0.12203919649E+04  0.50400001928E-02 0. -1.
        1   -1    0    0  501    0  0.00000000000E+00  0.00000000000E+00 -0.99310320933E+03  0.99310320934E+03  0.50400001928E-02 0.  1.
    10030    2    1    2    0    0  0.00000000000E+00  0.00000000000E+00  0.22728875559E+03  0.22134951743E+04  0.22017948833E+04 0.  0.
        3    1    3    3  502    0 -0.83346161013E+03 -0.61161715955E+03  0.49412797716E+03  0.11458168586E+04  0.10100000352E+00 0. -1.
       -3    1    3    3    0  502  0.83346161013E+03  0.61161715955E+03 -0.26683922156E+03  0.10676783157E+04  0.10100000352E+00 0.  1.
</event>
<event>
 5   0  0.9963573E-06  0.2213581E+04  0.7818609E-02  0.8512797E-01
        2   -1    0    0  501    0  0.00000000000E+00  0.00000000000E+00  0.20494887842E+04  0.20494887842E+04  0.25500000920E-02 0.  1.
       -2   -1    0    0    0  501  0.00000000000E+00  0.00000000000E+00 -0.59770292862E+03  0.59770292863E+03  0.25500000920E-02 0. -1.
    10030    2    1    2    0    0  0.00000000000E+00  0.00000000000E+00  0.14517858555E+04  0.26471917128E+04  0.22135812147E+04 0.  0.
        2    1    3    3  502    0  0.77691280308E+03  0.78730022924E+03  0.77297948703E+03  0.13494192980E+04  0.25500000920E-02 0. -1.
       -2    1    3    3    0  502 -0.77691280308E+03 -0.78730022924E+03  0.67880636851E+03  0.12977724147E+04  0.25500000920E-02 0.  1.
</event>
<event>
 5   0  0.4309945E-06  0.2199713E+04  0.7818609E-02  0.8518548E-01
        1   -1    0    0  501    0  0.00000000000E+00  0.00000000000E+00  0.74575337499E+03  0.74575337501E+03  0.50400001928E-02 0.  1.
       -1   -1    0    0    0  501  0.00000000000E+00  0.00000000000E+00 -0.16220962928E+04  0.16220962928E+04  0.50400001928E-02 0. -1.
    10030    2    1    2    0    0  0.00000000000E+00  0.00000000000E+00 -0.87634291783E+03  0.23678496678E+04  0.21997125130E+04 0.  0.
        4    1    3    3  502    0 -0.69205502006E+03 -0.32344597456E+03 -0.12899341771E+04  0.14991628475E+04  0.12699999809E+01 0. -1.
       -4    1    3    3    0  502  0.69205502006E+03  0.32344597456E+03  0.41359125922E+03  0.86868682035E+03  0.12699999809E+01 0.  1.
</event>
<event>
 5   0  0.1014015E-05  0.2198806E+04  0.7818609E-02  0.8518925E-01
        2   -1    0    0  501    0  0.00000000000E+00  0.00000000000E+00  0.66957505851E+03  0.66957505851E+03  0.25500000920E-02 0.  1.
       -2   -1    0    0    0  501  0.00000000000E+00  0.00000000000E+00 -0.18051557080E+04  0.18051557080E+04  0.25500000920E-02 0. -1.
    10030    2    1    2    0    0  0.00000000000E+00  0.00000000000E+00 -0.11355806495E+04  0.24747307665E+04  0.21988062569E+04 0.  0.
        1    1    3    3  502    0 -0.80596202514E+02  0.75429119875E+03  0.32782989020E+03  0.82639179407E+03  0.50400001928E-02 0.  1.
       -1    1    3    3    0  502  0.80596202514E+02 -0.75429119875E+03 -0.14634105397E+04  0.16483389725E+04  0.50400001928E-02 0. -1.
</event>
<event>
 5   0  0.4630615E-06  0.2202810E+04  0.7818609E-02  0.8517259E-01
       -1   -1    0    0    0  501  0.00000000000E+00  0.00000000000E+00  0.15548543647E+04  0.15548543647E+04  0.50400001928E-02 0. -1.
        1   -1    0    0  501    0  0.00000000000E+00  0.00000000000E+00 -0.78019707366E+03  0.78019707367E+03  0.50400001928E-02 0.  1.
    10030    2    1    2    0    0  0.00000000000E+00  0.00000000000E+00  0.77465729101E+03  0.23350514383E+04  0.22028098650E+04 0.  0.
        2    1    3    3  502    0  0.33497270378E+03 -0.89731264046E+03 -0.18911512781E+03  0.97628951575E+03  0.25500000920E-02 0.  1.
       -2    1    3    3    0  502 -0.33497270378E+03  0.89731264046E+03  0.96377241882E+03  0.13587619226E+04  0.25500000920E-02 0. -1.
</event>
<event>
 5   0  0.4309945E-06  0.2200908E+04  0.7818609E-02  0.8518050E-01
        1   -1    0    0  501    0  0.00000000000E+00  0.00000000000E+00  0.94738737667E+03  0.94738737668E+03  0.50400001928E-02 0.  1.
       -1   -1    0    0    0  501  0.00000000000E+00  0.00000000000E+00 -0.12782514125E+04  0.12782514125E+04  0.50400001928E-02 0. -1.
    10030    2    1    2    0    0  0.00000000000E+00  0.00000000000E+00 -0.33086403584E+03  0.22256387892E+04  0.22009082238E+04 0.  0.
        4    1    3    3  502    0  0.31775593057E+03  0.25450903949E+03 -0.11992966026E+04  0.12665139701E+04  0.12699999809E+01 0. -1.
       -4    1    3    3    0  502 -0.31775593057E+03 -0.25450903949E+03  0.86843256678E+03  0.95912481906E+03  0.12699999809E+01 0.  1.
</event>
<event>
 5   0  0.1035928E-05  0.2203248E+04  0.7818609E-02  0.8517077E-01
       -2   -1    0    0    0  501  0.00000000000E+00  0.00000000000E+00  0.64142122512E+03  0.64142122512E+03  0.25500000920E-02 0.  1.
        2   -1    0    0  501    0  0.00000000000E+00  0.00000000000E+00 -0.18920098871E+04  0.18920098871E+04  0.25500000920E-02 0. -1.
    10030    2    1    2    0    0  0.00000000000E+00  0.00000000000E+00 -0.12505886619E+04  0.25334311122E+04  0.22032478750E+04 0.  0.
        3    1    3    3  502    0 -0.82459991227E+03  0.70747967433E+03 -0.83443898518E+03  0.13699565450E+04  0.10100000352E+00 0. -1.
       -3    1    3    3    0  502  0.82459991227E+03 -0.70747967433E+03 -0.41614967677E+03  0.11634745672E+04  0.10100000352E+00 0.  1.
</event>
<event>
 5   0  0.4462201E-06  0.2199861E+04  0.7818609E-02  0.8518486E-01
       -1   -1    0    0    0  501  0.00000000000E+00  0.00000000000E+00  0.33575563015E+04  0.33575563015E+04  0.50400001928E-02 0. -1.
        1   -1    0    0  501    0  0.00000000000E+00  0.00000000000E+00 -0.36033554906E+03  0.36033554910E+03  0.50400001928E-02 0.  1.
    10030    2    1    2    0    0  0.00000000000E+00  0.00000000000E+00  0.29972207525E+04  0.37178918506E+04  0.21998608079E+04 0.  0.
        3    1    3    3  502    0 -0.41721969495E+03  0.61448344243E+03  0.28697303076E+04  0.29642898345E+04  0.10100000352E+00 0. -1.
       -3    1    3    3    0  502  0.41721969495E+03 -0.61448344243E+03  0.12749044490E+03  0.75360201607E+03  0.10100000352E+00 0.  1.
</event>
<event>
 5   0  0.9963573E-06  0.2200418E+04  0.7818609E-02  0.8518254E-01
       -2   -1    0    0    0  501  0.00000000000E+00  0.00000000000E+00  0.85433104227E+03  0.85433104227E+03  0.25500000920E-02 0.  1.
        2   -1    0    0  501    0  0.00000000000E+00  0.00000000000E+00 -0.14168506005E+04  0.14168506005E+04  0.25500000920E-02 0. -1.
    10030    2    1    2    0    0  0.00000000000E+00  0.00000000000E+00 -0.56251955819E+03  0.22711816427E+04  0.22004176424E+04 0.  0.
        2    1    3    3  502    0 -0.57015446531E+03  0.70681495673E+03  0.35983993709E+03  0.97680513804E+03  0.25500000920E-02 0. -1.
       -2    1    3    3    0  502  0.57015446531E+03 -0.70681495673E+03 -0.92235949528E+03  0.12943765047E+04  0.25500000920E-02 0.  1.
</event>
<event>
 5   0  0.1035928E-05  0.2199477E+04  0.7818609E-02  0.8518646E-01
        2   -1    0    0  501    0  0.00000000000E+00  0.00000000000E+00  0.44483090049E+03  0.44483090049E+03  0.25500000920E-02 0.  1.
       -2   -1    0    0    0  501  0.00000000000E+00  0.00000000000E+00 -0.27188421235E+04  0.27188421235E+04  0.25500000920E-02 0. -1.
    10030    2    1    2    0    0  0.00000000000E+00  0.00000000000E+00 -0.22740112231E+04  0.31636730240E+04  0.21994772016E+04 0.  0.
        3    1    3    3  502    0  0.62529941679E+03 -0.52640878283E+03 -0.21952815640E+04  0.23425129077E+04  0.10100000352E+00 0. -1.
       -3    1    3    3    0  502 -0.62529941679E+03  0.52640878283E+03 -0.78729659075E+02  0.82116011636E+03  0.10100000352E+00 0.  1.
</event>
<event>
 5   0  0.9963573E-06  0.2202597E+04  0.7818609E-02  0.8517348E-01
        2   -1    0    0  501    0  0.00000000000E+00  0.00000000000E+00  0.12982561343E+04  0.12982561343E+04  0.25500000920E-02 0. -1.
       -2   -1    0    0    0  501  0.00000000000E+00  0.00000000000E+00 -0.93422100330E+03  0.93422100330E+03  0.25500000920E-02 0.  1.
    10030    2    1    2    0    0  0.00000000000E+00  0.00000000000E+00  0.36403513098E+03  0.22324771376E+04  0.22025967841E+04 0.  0.
        2    1    3    3  502    0  0.94864233987E+03  0.26232657077E+03 -0.31877083378E+03  0.10345783504E+04  0.25500000920E-02 0.  1.
       -2    1    3    3    0  502 -0.94864233987E+03 -0.26232657077E+03  0.68280596476E+03  0.11978987871E+04  0.25500000920E-02 0. -1.
</event>
<event>
 5   0  0.9963573E-06  0.2200706E+04  0.7818609E-02  0.8518134E-01
        2   -1    0    0  501    0  0.00000000000E+00  0.00000000000E+00  0.61586117394E+03  0.61586117395E+03  0.25500000920E-02 0. -1.
       -2   -1    0    0    0  501  0.00000000000E+00  0.00000000000E+00 -0.19659898424E+04  0.19659898424E+04  0.25500000920E-02 0.  1.
    10030    2    1    2    0    0  0.00000000000E+00  0.00000000000E+00 -0.13501286685E+04  0.25818510164E+04  0.22007060797E+04 0.  0.
        2    1    3    3  502    0 -0.71779335012E+03  0.66812256357E+03 -0.89452521184E+02  0.98469122418E+03  0.25500000920E-02 0. -1.
       -2    1    3    3    0  502  0.71779335012E+03 -0.66812256357E+03 -0.12606761473E+04  0.15971597922E+04  0.25500000920E-02 0.  1.
</event>
<event>
 5   0  0.4794967E-06  0.2201457E+04  0.7818609E-02  0.8517822E-01
       -1   -1    0    0    0  501  0.00000000000E+00  0.00000000000E+00  0.16187575437E+04  0.16187575437E+04  0.50400001928E-02 0.  1.
        1   -1    0    0  501    0  0.00000000000E+00  0.00000000000E+00 -0.74847733918E+03  0.74847733919E+03  0.50400001928E-02 0. -1.
    10030    2    1    2    0    0  0.00000000000E+00  0.00000000000E+00  0.87028020447E+03  0.23672348829E+04  0.22014570984E+04 0.  0.
        5    1    3    3  502    0  0.91053432810E+03  0.39447647626E+03 -0.77066659210E+02  0.99531191741E+03  0.46999998093E+01 0. -1.
       -5    1    3    3    0  502 -0.91053432810E+03 -0.39447647626E+03  0.94734686368E+03  0.13719229654E+04  0.46999998093E+01 0.  1.
</event>
<event>
 5   0  0.4309945E-06  0.2192061E+04  0.7818609E-02  0.8521740E-01
       -1   -1    0    0    0  501  0.00000000000E+00  0.00000000000E+00  0.90223539863E+03  0.90223539864E+03  0.50400001928E-02 0.  1.
        1   -1    0    0  501    0  0.00000000000E+00  0.00000000000E+00 -0.13314517292E+04  0.13314517292E+04  0.50400001928E-02 0. -1.
    10030    2    1    2    0    0  0.00000000000E+00  0.00000000000E+00 -0.42921633060E+03  0.22336871279E+04  0.21920610226E+04 0.  0.
        4    1    3    3  502    0  0.10455931057E+04  0.26998820992E+03 -0.40557748603E+03  0.11535394602E+04  0.12699999809E+01 0. -1.
       -4    1    3    3    0  502 -0.10455931057E+04 -0.26998820992E+03 -0.23638844577E+02  0.10801476677E+04  0.12699999809E+01 0.  1.
</event>
<event>
 5   0  0.9963573E-06  0.2200387E+04  0.7818609E-02  0.8518267E-01
        2   -1    0    0  501    0  0.00000000000E+00  0.00000000000E+00  0.22774258640E+04  0.22774258640E+04  0.25500000920E-02 0.  1.
       -2   -1    0    0    0  501  0.00000000000E+00  0.00000000000E+00 -0.53148854717E+03  0.53148854717E+03  0.25500000920E-02 0. -1.
    10030    2    1    2    0    0  0.00000000000E+00  0.00000000000E+00  0.17459373169E+04  0.28089144112E+04  0.22003870239E+04 0.  0.
        2    1    3    3  502    0  0.10268982735E+04  0.48064020518E+02  0.37267068102E+03  0.10934869230E+04  0.25500000920E-02 0. -1.
       -2    1    3    3    0  502 -0.10268982735E+04 -0.48064020518E+02  0.13732666358E+04  0.17154274882E+04  0.25500000920E-02 0.  1.
</event>
<event>
 5   0  0.9963573E-06  0.2199463E+04  0.7818609E-02  0.8518652E-01
        2   -1    0    0  501    0  0.00000000000E+00  0.00000000000E+00  0.19094829831E+04  0.19094829831E+04  0.25500000920E-02 0.  1.
       -2   -1    0    0    0  501  0.00000000000E+00  0.00000000000E+00 -0.63336983432E+03  0.63336983433E+03  0.25500000920E-02 0. -1.
    10030    2    1    2    0    0  0.00000000000E+00  0.00000000000E+00  0.12761131488E+04  0.25428528175E+04  0.21994625895E+04 0.  0.
        2    1    3    3  502    0  0.38259525830E+03  0.61696314664E+03  0.15930926619E+04  0.17507046825E+04  0.25500000920E-02 0.  1.
       -2    1    3    3    0  502 -0.38259525830E+03 -0.61696314664E+03 -0.31697951309E+03  0.79214813495E+03  0.25500000920E-02 0. -1.
</event>
<event>
 5   0  0.3546750E-06  0.2209520E+04  0.7818609E-02  0.8514476E-01
       -3   -1    0    0    0  501  0.00000000000E+00  0.00000000000E+00  0.93561642732E+03  0.93561643277E+03  0.10100000352E+00 0.  1.
        3   -1    0    0  501    0  0.00000000000E+00  0.00000000000E+00 -0.13044821498E+04  0.13044821537E+04  0.10100000352E+00 0. -1.
    10030    2    1    2    0    0  0.00000000000E+00  0.00000000000E+00 -0.36886572244E+03  0.22400985864E+04  0.22095202547E+04 0.  0.
        3    1    3    3  502    0  0.74640803671E+03 -0.51801714997E+03 -0.82164376236E+03  0.12249755946E+04  0.10100000352E+00 0. -1.
       -3    1    3    3    0  502 -0.74640803671E+03  0.51801714997E+03  0.45277803992E+03  0.10151229918E+04  0.10100000352E+00 0.  1.
</event>
<event>
 5   0  0.1035928E-05  0.2192320E+04  0.7818609E-02  0.8521631E-01
       -2   -1    0    0    0  501  0.00000000000E+00  0.00000000000E+00  0.75719330445E+03  0.75719330446E+03  0.25500000920E-02 0.  1.
        2   -1    0    0  501    0  0.00000000000E+00  0.00000000000E+00 -0.15868694978E+04  0.15868694978E+04  0.25500000920E-02 0. -1.
    10030    2    1    2    0    0  0.00000000000E+00  0.00000000000E+00 -0.82967619336E+03  0.23440628023E+04  0.21923201945E+04 0.  0.
        3    1    3    3  502    0  0.42380353920E+03 -0.93295778522E+02 -0.14911156803E+04  0.15529776316E+04  0.10100000352E+00 0. -1.
       -3    1    3    3    0  502 -0.42380353920E+03  0.93295778522E+02  0.66143948693E+03  0.79108517064E+03  0.10100000352E+00 0.  1.
</event>
<event>
 5   0  0.4630615E-06  0.2194278E+04  0.7818609E-02  0.8520814E-01
        1   -1    0    0  501    0  0.00000000000E+00  0.00000000000E+00  0.12550196638E+04  0.12550196638E+04  0.50400001928E-02 0.  1.
       -1   -1    0    0    0  501  0.00000000000E+00  0.00000000000E+00 -0.95911959903E+03  0.95911959904E+03  0.50400001928E-02 0. -1.
    10030    2    1    2    0    0  0.00000000000E+00  0.00000000000E+00  0.29590006473E+03  0.22141392628E+04  0.21942779739E+04 0.  0.
        2    1    3    3  502    0  0.37586048398E+03 -0.37252859962E+03  0.11177241807E+04  0.12366713408E+04  0.25500000920E-02 0.  1.
       -2    1    3    3    0  502 -0.37586048398E+03  0.37252859962E+03 -0.82182411599E+03  0.97746792202E+03  0.25500000920E-02 0. -1.
</event>
<event>
 5   0  0.4408787E-06  0.2203462E+04  0.7818609E-02  0.8516989E-01
        1   -1    0    0  501    0  0.00000000000E+00  0.00000000000E+00  0.13120533278E+04  0.13120533278E+04  0.50400001928E-02 0. -1.
       -1   -1    0    0    0  501  0.00000000000E+00  0.00000000000E+00 -0.92512331281E+03  0.92512331282E+03  0.50400001928E-02 0.  1.
    10030    2    1    2    0    0  0.00000000000E+00  0.00000000000E+00  0.38693001496E+03  0.22371766406E+04  0.22034619318E+04 0.  0.
        1    1    3    3  502    0  0.72110489407E+03  0.82276207454E+03  0.32538154161E+03  0.11414038931E+04  0.50400001928E-02 0. -1.
       -1    1    3    3    0  502 -0.72110489407E+03 -0.82276207454E+03  0.61548473353E+02  0.10957727475E+04  0.50400001928E-02 0.  1.
</event>
<event>
 5   0  0.9963573E-06  0.2199216E+04  0.7818609E-02  0.8518755E-01
        2   -1    0    0  501    0  0.00000000000E+00  0.00000000000E+00  0.10651536939E+04  0.10651536939E+04  0.25500000920E-02 0. -1.
       -2   -1    0    0    0  501  0.00000000000E+00  0.00000000000E+00 -0.11351766068E+04  0.11351766068E+04  0.25500000920E-02 0.  1.
    10030    2    1    2    0    0  0.00000000000E+00  0.00000000000E+00 -0.70022912907E+02  0.22003303007E+04  0.21992158202E+04 0.  0.
        2    1    3    3  502    0 -0.30731750149E+03 -0.40377259066E+03 -0.10110370613E+04  0.11312260124E+04  0.25500000920E-02 0.  1.
       -2    1    3    3    0  502  0.30731750149E+03  0.40377259066E+03  0.94101414844E+03  0.10691042883E+04  0.25500000920E-02 0. -1.
</event>
<event>
 5   0  0.1015876E-05  0.2204056E+04  0.7818609E-02  0.8516742E-01
       -2   -1    0    0    0  501  0.00000000000E+00  0.00000000000E+00  0.63523163180E+03  0.63523163181E+03  0.25500000920E-02 0.  1.
        2   -1    0    0  501    0  0.00000000000E+00  0.00000000000E+00 -0.19118475019E+04  0.19118475019E+04  0.25500000920E-02 0. -1.
    10030    2    1    2    0    0  0.00000000000E+00  0.00000000000E+00 -0.12766158701E+04  0.25470791337E+04  0.22040562683E+04 0.  0.
        5    1    3    3  502    0 -0.66547822388E+03  0.30311157461E+03 -0.15910609249E+04  0.17510667748E+04  0.46999998093E+01 0. -1.
       -5    1    3    3    0  502  0.66547822388E+03 -0.30311157461E+03  0.31444505475E+03  0.79601235894E+03  0.46999998093E+01 0.  1.
</event>
<event>
 5   0  0.4630615E-06  0.2184524E+04  0.7818609E-02  0.8524897E-01
       -1   -1    0    0    0  501  0.00000000000E+00  0.00000000000E+00  0.65291915982E+03  0.65291915984E+03  0.50400001928E-02 0.  1.
        1   -1    0    0  501    0  0.00000000000E+00  0.00000000000E+00 -0.18272344382E+04  0.18272344382E+04  0.50400001928E-02 0. -1.
    10030    2    1    2    0    0  0.00000000000E+00  0.00000000000E+00 -0.11743152784E+04  0.24801535981E+04  0.21845240893E+04 0.  0.
        2    1    3    3  502    0  0.10602936486E+03 -0.10243483147E+04 -0.17388434170E+03  0.10443981331E+04  0.25500000920E-02 0.  1.
       -2    1    3    3    0  502 -0.10602936486E+03  0.10243483147E+04 -0.10004309367E+04  0.14357554650E+04  0.25500000920E-02 0. -1.
</event>
<event>
 5   0  0.4794967E-06  0.2202261E+04  0.7818609E-02  0.8517488E-01
        1   -1    0    0  501    0  0.00000000000E+00  0.00000000000E+00  0.14943816728E+04  0.14943816728E+04  0.50400001928E-02 0.  1.
       -1   -1    0    0    0  501  0.00000000000E+00  0.00000000000E+00 -0.81136430047E+03  0.81136430049E+03  0.50400001928E-02 0. -1.
    10030    2    1    2    0    0  0.00000000000E+00  0.00000000000E+00  0.68301737233E+03  0.23057459733E+04  0.22022606028E+04 0.  0.
        5    1    3    3  502    0  0.76234652125E+03 -0.47174000310E+03  0.10108910860E+04  0.13511601411E+04  0.46999998093E+01 0.  1.
       -5    1    3    3    0  502 -0.76234652125E+03  0.47174000310E+03 -0.32787371369E+03  0.95458583224E+03  0.46999998093E+01 0. -1.
</event>
<event>
 5   0  0.9963173E-06  0.2200655E+04  0.7818609E-02  0.8518155E-01
       -2   -1    0    0    0  501  0.00000000000E+00  0.00000000000E+00  0.87238185526E+03  0.87238185526E+03  0.25500000920E-02 0.  1.
        2   -1    0    0  501    0  0.00000000000E+00  0.00000000000E+00 -0.13878338791E+04  0.13878338791E+04  0.25500000920E-02 0. -1.
    10030    2    1    2    0    0  0.00000000000E+00  0.00000000000E+00 -0.51545202388E+03  0.22602157344E+04  0.22006554426E+04 0.  0.
        4    1    3    3  502    0 -0.43718855515E+03  0.10071863818E+04 -0.18393985191E+03  0.11132806126E+04  0.12699999809E+01 0. -1.
       -4    1    3    3    0  502  0.43718855515E+03 -0.10071863818E+04 -0.33151217197E+03  0.11469351218E+04  0.12699999809E+01 0.  1.
</event>
<event>
 5   0  0.4462201E-06  0.2197143E+04  0.7818609E-02  0.8519618E-01
       -1   -1    0    0    0  501  0.00000000000E+00  0.00000000000E+00  0.80897075640E+03  0.80897075642E+03  0.50400001928E-02 0.  1.
        1   -1    0    0  501    0  0.00000000000E+00  0.00000000000E+00 -0.14918449998E+04  0.14918449998E+04  0.50400001928E-02 0. -1.
    10030    2    1    2    0    0  0.00000000000E+00  0.00000000000E+00 -0.68287424343E+03  0.23008157563E+04  0.21971426699E+04 0.  0.
        3    1    3    3  502    0 -0.36668097931E+03  0.70727462878E+03 -0.11335459355E+04  0.13855030636E+04  0.10100000352E+00 0. -1.
       -3    1    3    3    0  502  0.36668097931E+03 -0.70727462878E+03  0.45067169209E+03  0.91531269267E+03  0.10100000352E+00 0.  1.
</event>
<event>
 5   0  0.4630615E-06  0.2195736E+04  0.7818609E-02  0.8520205E-01
       -1   -1    0    0    0  501  0.00000000000E+00  0.00000000000E+00  0.75694907657E+03  0.75694907659E+03  0.50400001928E-02 0.  1.
        1   -1    0    0  501    0  0.00000000000E+00  0.00000000000E+00 -0.15923320803E+04  0.15923320803E+04  0.50400001928E-02 0. -1.
    10030    2    1    2    0    0  0.00000000000E+00  0.00000000000E+00 -0.83538300371E+03  0.23492811569E+04  0.21957361388E+04 0.  0.
        2    1    3    3  502    0 -0.62948273623E+03  0.13601117585E+03 -0.13690060006E+04  0.15129193584E+04  0.25500000920E-02 0. -1.
       -2    1    3    3    0  502  0.62948273623E+03 -0.13601117585E+03  0.53362299691E+03  0.83636179851E+03  0.25500000920E-02 0.  1.
</event>
<event>
 5   0  0.9963573E-06  0.2200346E+04  0.7818609E-02  0.8518284E-01
       -2   -1    0    0    0  501  0.00000000000E+00  0.00000000000E+00  0.12569829609E+04  0.12569829609E+04  0.25500000920E-02 0. -1.
        2   -1    0    0  501    0  0.00000000000E+00  0.00000000000E+00 -0.96292555296E+03  0.96292555297E+03  0.25500000920E-02 0.  1.
    10030    2    1    2    0    0  0.00000000000E+00  0.00000000000E+00  0.29405740798E+03  0.22199085139E+04  0.22003463480E+04 0.  0.
        2    1    3    3  502    0 -0.62914818753E+03  0.38785347368E+03  0.96921147824E+03  0.12188636710E+04  0.25500000920E-02 0. -1.
       -2    1    3    3    0  502  0.62914818753E+03 -0.38785347368E+03 -0.67515407026E+03  0.10010448429E+04  0.25500000920E-02 0.  1.
</event>
<event>
 5   0  0.1015876E-05  0.2259841E+04  0.7818609E-02  0.8493926E-01
       -2   -1    0    0    0  501  0.00000000000E+00  0.00000000000E+00  0.14948068522E+04  0.14948068522E+04  0.25500000920E-02 0. -1.
        2   -1    0    0  501    0  0.00000000000E+00  0.00000000000E+00 -0.85410408204E+03  0.85410408204E+03  0.25500000920E-02 0.  1.
    10030    2    1    2    0    0  0.00000000000E+00  0.00000000000E+00  0.64070277016E+03  0.23489109342E+04  0.22598412637E+04 0.  0.
        5    1    3    3  502    0 -0.47549008924E+03 -0.89206016278E+03 -0.20435860548E+03  0.10313324821E+04  0.46999998093E+01 0.  1.
       -5    1    3    3    0  502  0.47549008924E+03  0.89206016278E+03  0.84506137564E+03  0.13175784522E+04  0.46999998093E+01 0. -1.
</event>
<event>
 5   0  0.4309945E-06  0.2195388E+04  0.7818609E-02  0.8520350E-01
       -1   -1    0    0    0  501  0.00000000000E+00  0.00000000000E+00  0.75633421636E+03  0.75633421637E+03  0.50400001928E-02 0. -1.
        1   -1    0    0  501    0  0.00000000000E+00  0.00000000000E+00 -0.15931216539E+04  0.15931216539E+04  0.50400001928E-02 0.  1.
    10030    2    1    2    0    0  0.00000000000E+00  0.00000000000E+00 -0.83678743756E+03  0.23494558703E+04  0.21953882734E+04 0.  0.
        4    1    3    3  502    0  0.58464457900E+03 -0.46878903344E+03 -0.12767793267E+04  0.14804524658E+04  0.12699999809E+01 0.  1.
       -4    1    3    3    0  502 -0.58464457900E+03  0.46878903344E+03  0.43999188910E+03  0.86900340449E+03  0.12699999809E+01 0. -1.
</event>
<event>
 5   0  0.1015876E-05  0.2203823E+04  0.7818609E-02  0.8516838E-01
        2   -1    0    0  501    0  0.00000000000E+00  0.00000000000E+00  0.21551159838E+04  0.21551159838E+04  0.25500000920E-02 0.  1.
       -2   -1    0    0    0  501  0.00000000000E+00  0.00000000000E+00 -0.56340794989E+03  0.56340794990E+03  0.25500000920E-02 0. -1.
    10030    2    1    2    0    0  0.00000000000E+00  0.00000000000E+00  0.15917080339E+04  0.27185239337E+04  0.22038234759E+04 0.  0.
        5    1    3    3  502    0 -0.48591455593E+03 -0.97651989509E+03  0.60283878966E+03  0.12462506800E+04  0.46999998093E+01 0. -1.
       -5    1    3    3    0  502  0.48591455593E+03  0.97651989509E+03  0.98886924421E+03  0.14722732536E+04  0.46999998093E+01 0.  1.
</event>
<event>
 5   0  0.4462201E-06  0.2199432E+04  0.7818609E-02  0.8518665E-01
        1   -1    0    0  501    0  0.00000000000E+00  0.00000000000E+00  0.97308490759E+03  0.97308490760E+03  0.50400001928E-02 0.  1.
       -1   -1    0    0    0  501  0.00000000000E+00  0.00000000000E+00 -0.12428260619E+04  0.12428260620E+04  0.50400001928E-02 0. -1.
    10030    2    1    2    0    0  0.00000000000E+00  0.00000000000E+00 -0.26974115436E+03  0.22159109696E+04  0.21994320027E+04 0.  0.
        3    1    3    3  502    0 -0.20952255025E+03 -0.80948588268E+03  0.58476972316E+03  0.10203542192E+04  0.10100000352E+00 0.  1.
       -3    1    3    3    0  502  0.20952255025E+03  0.80948588268E+03 -0.85451087752E+03  0.11955567504E+04  0.10100000352E+00 0. -1.
</event>
<event>
 5   0  0.9963573E-06  0.2198047E+04  0.7818609E-02  0.8519241E-01
       -2   -1    0    0    0  501  0.00000000000E+00  0.00000000000E+00  0.11574191157E+04  0.11574191157E+04  0.25500000920E-02 0.  1.
        2   -1    0    0  501    0  0.00000000000E+00  0.00000000000E+00 -0.10435740347E+04  0.10435740347E+04  0.25500000920E-02 0. -1.
    10030    2    1    2    0    0  0.00000000000E+00  0.00000000000E+00  0.11384508101E+03  0.22009931504E+04  0.21980468934E+04 0.  0.
        2    1    3    3  502    0  0.10056068802E+03 -0.99488178756E+03 -0.39970439591E+03  0.10768778145E+04  0.25500000920E-02 0. -1.
       -2    1    3    3    0  502 -0.10056068802E+03  0.99488178756E+03  0.51354947691E+03  0.11241153359E+04  0.25500000920E-02 0.  1.
</event>
<event>
 5   0  0.1035928E-05  0.2201114E+04  0.7818609E-02  0.8517964E-01
        2   -1    0    0  501    0  0.00000000000E+00  0.00000000000E+00  0.18537397821E+04  0.18537397821E+04  0.25500000920E-02 0. -1.
       -2   -1    0    0    0  501  0.00000000000E+00  0.00000000000E+00 -0.65339596999E+03  0.65339597000E+03  0.25500000920E-02 0.  1.
    10030    2    1    2    0    0  0.00000000000E+00  0.00000000000E+00  0.12003438121E+04  0.25071357521E+04  0.22011143569E+04 0.  0.
        3    1    3    3  502    0  0.73603365604E+03 -0.72228563900E+03  0.16229810567E+03  0.10439266126E+04  0.10100000352E+00 0. -1.
       -3    1    3    3    0  502 -0.73603365604E+03  0.72228563900E+03  0.10380457064E+04  0.14632091395E+04  0.10100000352E+00 0.  1.
</event>
<event>
 5   0  0.1014015E-05  0.2198233E+04  0.7818609E-02  0.8519164E-01
       -2   -1    0    0    0  501  0.00000000000E+00  0.00000000000E+00  0.16565285701E+04  0.16565285701E+04  0.25500000920E-02 0.  1.
        2   -1    0    0  501    0  0.00000000000E+00  0.00000000000E+00 -0.72927058746E+03  0.72927058747E+03  0.25500000920E-02 0. -1.
    10030    2    1    2    0    0  0.00000000000E+00  0.00000000000E+00  0.92725798263E+03  0.23857991576E+04  0.21982334393E+04 0.  0.
        1    1    3    3  502    0  0.21376406650E+02  0.27776739499E+03  0.16175735932E+04  0.16413884385E+04  0.50400001928E-02 0.  1.
       -1    1    3    3    0  502 -0.21376406650E+02 -0.27776739499E+03 -0.69031561057E+03  0.74441071910E+03  0.50400001928E-02 0. -1.
</event>
<event>
 5   0  0.4408787E-06  0.2223889E+04  0.7818609E-02  0.8508550E-01
       -1   -1    0    0    0  501  0.00000000000E+00  0.00000000000E+00  0.74735446943E+03  0.74735446944E+03  0.50400001928E-02 0. -1.
        1   -1    0    0  501    0  0.00000000000E+00  0.00000000000E+00 -0.16543969120E+04  0.16543969120E+04  0.50400001928E-02 0.  1.
    10030    2    1    2    0    0  0.00000000000E+00  0.00000000000E+00 -0.90704244255E+03  0.24017513814E+04  0.22238893195E+04 0.  0.
        1    1    3    3  502    0 -0.47912863192E+03 -0.91082596806E+03  0.11645400044E+01  0.10291596311E+04  0.50400001928E-02 0. -1.
       -1    1    3    3    0  502  0.47912863192E+03  0.91082596806E+03 -0.90820698255E+03  0.13725917504E+04  0.50400001928E-02 0.  1.
</event>
<event>
 5   0  0.1035928E-05  0.2194160E+04  0.7818609E-02  0.8520863E-01
       -2   -1    0    0    0  501  0.00000000000E+00  0.00000000000E+00  0.63667007746E+03  0.63667007747E+03  0.25500000920E-02 0.  1.
        2   -1    0    0  501    0  0.00000000000E+00  0.00000000000E+00 -0.18904361008E+04  0.18904361008E+04  0.25500000920E-02 0. -1.
    10030    2    1    2    0    0  0.00000000000E+00  0.00000000000E+00 -0.12537660233E+04  0.25271061782E+04  0.21941596102E+04 0.  0.
        3    1    3    3  502    0  0.38108262138E+03  0.78147855713E+03  0.14371031079E+03  0.88124080886E+03  0.10100000352E+00 0.  1.
       -3    1    3    3    0  502 -0.38108262138E+03 -0.78147855713E+03 -0.13974763341E+04  0.16458653694E+04  0.10100000352E+00 0. -1.
</event>
<event>
 5   0  0.4309945E-06  0.2200942E+04  0.7818609E-02  0.8518036E-01
       -1   -1    0    0    0  501  0.00000000000E+00  0.00000000000E+00  0.12629210377E+04  0.12629210377E+04  0.50400001928E-02 0. -1.
        1   -1    0    0  501    0  0.00000000000E+00  0.00000000000E+00 -0.95891694011E+03  0.95891694012E+03  0.50400001928E-02 0.  1.
    10030    2    1    2    0    0  0.00000000000E+00  0.00000000000E+00  0.30400409759E+03  0.22218379778E+04  0.22009419593E+04 0.  0.
        4    1    3    3  502    0  0.10968723757E+04  0.22843725668E+02  0.65256483575E+02  0.10990499834E+04  0.12699999809E+01 0.  1.
       -4    1    3    3    0  502 -0.10968723757E+04 -0.22843725668E+02  0.23874761401E+03  0.11227879945E+04  0.12699999809E+01 0. -1.
</event>
<event>
 5   0  0.1015876E-05  0.2200230E+04  0.7818609E-02  0.8518332E-01
        2   -1    0    0  501    0  0.00000000000E+00  0.00000000000E+00  0.95023593461E+03  0.95023593461E+03  0.25500000920E-02 0.  1.
       -2   -1    0    0    0  501  0.00000000000E+00  0.00000000000E+00 -0.12736339636E+04  0.12736339636E+04  0.25500000920E-02 0. -1.
    10030    2    1    2    0    0  0.00000000000E+00  0.00000000000E+00 -0.32339802897E+03  0.22238698982E+04  0.22002297696E+04 0.  0.
        5    1    3    3  502    0 -0.73108078358E+03  0.73541186460E+03  0.20956343894E+03  0.10579454843E+04  0.46999998093E+01 0. -1.
       -5    1    3    3    0  502  0.73108078358E+03 -0.73541186460E+03 -0.53296146791E+03  0.11659244139E+04  0.46999998093E+01 0.  1.
</event>
<event>
 5   0  0.4309945E-06  0.2186889E+04  0.7818609E-02  0.8523905E-01
        1   -1    0    0  501    0  0.00000000000E+00  0.00000000000E+00  0.14611594414E+04  0.14611594414E+04  0.50400001928E-02 0. -1.
       -1   -1    0    0    0  501  0.00000000000E+00  0.00000000000E+00 -0.81826849113E+03  0.81826849115E+03  0.50400001928E-02 0.  1.
    10030    2    1    2    0    0  0.00000000000E+00  0.00000000000E+00  0.64289095030E+03  0.22794279326E+04  0.21868888691E+04 0.  0.
        4    1    3    3  502    0 -0.89387426187E+03 -0.33179483424E+03  0.87937161168E+03  0.12970717222E+04  0.12699999809E+01 0. -1.
       -4    1    3    3    0  502  0.89387426187E+03  0.33179483424E+03 -0.23648066139E+03  0.98235621044E+03  0.12699999809E+01 0.  1.
</event>
<event>
 5   0  0.4462201E-06  0.2202953E+04  0.7818609E-02  0.8517200E-01
       -1   -1    0    0    0  501  0.00000000000E+00  0.00000000000E+00  0.22100680038E+04  0.22100680038E+04  0.50400001928E-02 0. -1.
        1   -1    0    0  501    0  0.00000000000E+00  0.00000000000E+00 -0.54896515533E+03  0.54896515536E+03  0.50400001928E-02 0.  1.
    10030    2    1    2    0    0  0.00000000000E+00  0.00000000000E+00  0.16611028484E+04  0.27590331591E+04  0.22029528593E+04 0.  0.
        3    1    3    3  502    0 -0.49169306922E+03  0.19224890857E+03 -0.38018055633E+03  0.65058357094E+03  0.10100000352E+00 0.  1.
       -3    1    3    3    0  502  0.49169306922E+03 -0.19224890857E+03  0.20412834048E+04  0.21084495882E+04  0.10100000352E+00 0. -1.
</event>
<event>
 5   0  0.1014015E-05  0.2200533E+04  0.7818609E-02  0.8518206E-01
       -2   -1    0    0    0  501  0.00000000000E+00  0.00000000000E+00  0.79447681866E+03  0.79447681866E+03  0.25500000920E-02 0. -1.
        2   -1    0    0  501    0  0.00000000000E+00  0.00000000000E+00 -0.15237528902E+04  0.15237528902E+04  0.25500000920E-02 0.  1.
    10030    2    1    2    0    0  0.00000000000E+00  0.00000000000E+00 -0.72927607152E+03  0.23182297088E+04  0.22005329796E+04 0.  0.
        1    1    3    3  502    0  0.68682004139E+03  0.14392130013E+03  0.52812570310E+03  0.87826639933E+03  0.50400001928E-02 0. -1.
       -1    1    3    3    0  502 -0.68682004139E+03 -0.14392130013E+03 -0.12574017746E+04  0.14399633095E+04  0.50400001928E-02 0.  1.
</event>
<event>
 5   0  0.9963173E-06  0.2201423E+04  0.7818609E-02  0.8517836E-01
       -2   -1    0    0    0  501  0.00000000000E+00  0.00000000000E+00  0.17039411420E+04  0.17039411420E+04  0.25500000920E-02 0. -1.
        2   -1    0    0  501    0  0.00000000000E+00  0.00000000000E+00 -0.71103711199E+03  0.71103711200E+03  0.25500000920E-02 0.  1.
    10030    2    1    2    0    0  0.00000000000E+00  0.00000000000E+00  0.99290403002E+03  0.24149782540E+04  0.22014226206E+04 0.  0.
        4    1    3    3  502    0  0.34674703559E+03 -0.47775259087E+03  0.15155970974E+04  0.16265046017E+04  0.12699999809E+01 0. -1.
       -4    1    3    3    0  502 -0.34674703559E+03  0.47775259087E+03 -0.52269306740E+03  0.78847365231E+03  0.12699999809E+01 0.  1.
</event>
<event>
 5   0  0.1035928E-05  0.2198928E+04  0.7818609E-02  0.8518875E-01
        2   -1    0    0  501    0  0.00000000000E+00  0.00000000000E+00  0.77364844971E+03  0.77364844972E+03  0.25500000920E-02 0.  1.
       -2   -1    0    0    0  501  0.00000000000E+00  0.00000000000E+00 -0.15624936546E+04  0.15624936546E+04  0.25500000920E-02 0. -1.
    10030    2    1    2    0    0  0.00000000000E+00  0.00000000000E+00 -0.78884520487E+03  0.23361421043E+04  0.21989277328E+04 0.  0.
        3    1    3    3  502    0  0.80337554466E+03 -0.65771545299E+03 -0.77868115940E+03  0.12978236556E+04  0.10100000352E+00 0. -1.
       -3    1    3    3    0  502 -0.80337554466E+03  0.65771545299E+03 -0.10164045471E+02  0.10383184487E+04  0.10100000352E+00 0.  1.
</event>
<event>
 5   0  0.4309945E-06  0.2198859E+04  0.7818609E-02  0.8518903E-01
       -1   -1    0    0    0  501  0.00000000000E+00  0.00000000000E+00  0.25888055386E+04  0.25888055386E+04  0.50400001928E-02 0.  1.
        1   -1    0    0  501    0  0.00000000000E+00  0.00000000000E+00 -0.46691218656E+03  0.46691218659E+03  0.50400001928E-02 0. -1.
    10030    2    1    2    0    0  0.00000000000E+00  0.00000000000E+00  0.21218933521E+04  0.30557177252E+04  0.21988586627E+04 0.  0.
        4    1    3    3  502    0 -0.11307041917E+03  0.77226749271E+03  0.21369972754E+04  0.22750694425E+04  0.12699999809E+01 0.  1.
       -4    1    3    3    0  502  0.11307041917E+03 -0.77226749271E+03 -0.15103923339E+02  0.78064828277E+03  0.12699999809E+01 0. -1.
</event>
<event>
 5   0  0.4630615E-06  0.2201923E+04  0.7818609E-02  0.8517628E-01
       -1   -1    0    0    0  501  0.00000000000E+00  0.00000000000E+00  0.10889057305E+04  0.10889057305E+04  0.50400001928E-02 0. -1.
        1   -1    0    0  501    0  0.00000000000E+00  0.00000000000E+00 -0.11131509870E+04  0.11131509870E+04  0.50400001928E-02 0.  1.
    10030    2    1    2    0    0  0.00000000000E+00  0.00000000000E+00 -0.24245256500E+02  0.22020567175E+04  0.22019232400E+04 0.  0.
        2    1    3    3  502    0  0.73267668992E+03  0.27550433707E+03  0.76213274862E+03  0.10925035919E+04  0.25500000920E-02 0. -1.
       -2    1    3    3    0  502 -0.73267668992E+03 -0.27550433707E+03 -0.78637800512E+03  0.11095531257E+04  0.25500000920E-02 0.  1.
</event>
<event>
 5   0  0.1015876E-05  0.2204747E+04  0.7818609E-02  0.8516455E-01
       -2   -1    0    0    0  501  0.00000000000E+00  0.00000000000E+00  0.95752039332E+03  0.95752039333E+03  0.25500000920E-02 0.  1.
        2   -1    0    0  501    0  0.00000000000E+00  0.00000000000E+00 -0.12691397234E+04  0.12691397234E+04  0.25500000920E-02 0. -1.
    10030    2    1    2    0    0  0.00000000000E+00  0.00000000000E+00 -0.31161933005E+03  0.22266601167E+04  0.22047468491E+04 0.  0.
        5    1    3    3  502    0 -0.10790034498E+04  0.34528263833E+02  0.69486979358E+02  0.10817999704E+04  0.46999998093E+01 0.  1.
       -5    1    3    3    0  502  0.10790034498E+04 -0.34528263833E+02 -0.38110630941E+03  0.11448601463E+04  0.46999998093E+01 0. -1.
</event>
<event>
 5   0  0.4408787E-06  0.2198811E+04  0.7818609E-02  0.8518923E-01
       -1   -1    0    0    0  501  0.00000000000E+00  0.00000000000E+00  0.65532620339E+03  0.65532620341E+03  0.50400001928E-02 0.  1.
        1   -1    0    0  501    0  0.00000000000E+00  0.00000000000E+00 -0.18444133546E+04  0.18444133546E+04  0.50400001928E-02 0. -1.
    10030    2    1    2    0    0  0.00000000000E+00  0.00000000000E+00 -0.11890871512E+04  0.24997395580E+04  0.21988109525E+04 0.  0.
        1    1    3    3  502    0  0.19170801923E+02 -0.18172816376E+02 -0.18440525313E+04  0.18442417166E+04  0.50400001928E-02 0. -1.
       -1    1    3    3    0  502 -0.19170801923E+02  0.18172816376E+02  0.65496538013E+03  0.65549784141E+03  0.50400001928E-02 0.  1.
</event>
<event>
 5   0  0.1035928E-05  0.2191997E+04  0.7818609E-02  0.8521767E-01
        2   -1    0    0  501    0  0.00000000000E+00  0.00000000000E+00  0.21742152704E+04  0.21742152704E+04  0.25500000920E-02 0.  1.
       -2   -1    0    0    0  501  0.00000000000E+00  0.00000000000E+00 -0.55248101389E+03  0.55248101389E+03  0.25500000920E-02 0. -1.
    10030    2    1    2    0    0  0.00000000000E+00  0.00000000000E+00  0.16217342566E+04  0.27266962843E+04  0.21919969498E+04 0.  0.
        3    1    3    3  502    0  0.46687789298E+03  0.96619797921E+03  0.53355345798E+03  0.11984126187E+04  0.10100000352E+00 0.  1.
       -3    1    3    3    0  502 -0.46687789298E+03 -0.96619797921E+03  0.10881807986E+04  0.15282836656E+04  0.10100000352E+00 0. -1.
</event>
<event>
 5   0  0.4630615E-06  0.2201403E+04  0.7818609E-02  0.8517845E-01
        1   -1    0    0  501    0  0.00000000000E+00  0.00000000000E+00  0.14651746392E+04  0.14651746392E+04  0.50400001928E-02 0.  1.
       -1   -1    0    0    0  501  0.00000000000E+00  0.00000000000E+00 -0.82689350389E+03  0.82689350391E+03  0.50400001928E-02 0. -1.
    10030    2    1    2    0    0  0.00000000000E+00  0.00000000000E+00  0.63828113533E+03  0.22920681431E+04  0.22014026358E+04 0.  0.
        2    1    3    3  502    0  0.84377697173E+03  0.70626324086E+03  0.29013560629E+03  0.11379569471E+04  0.25500000920E-02 0.  1.
       -2    1    3    3    0  502 -0.84377697173E+03 -0.70626324086E+03  0.34814552904E+03  0.11541111960E+04  0.25500000920E-02 0. -1.
</event>
<event>
 5   0  0.4309945E-06  0.2200815E+04  0.7818609E-02  0.8518089E-01
        1   -1    0    0  501    0  0.00000000000E+00  0.00000000000E+00  0.14316543470E+04  0.14316543470E+04  0.50400001928E-02 0.  1.
       -1   -1    0    0    0  501  0.00000000000E+00  0.00000000000E+00 -0.84580227506E+03  0.84580227507E+03  0.50400001928E-02 0. -1.
    10030    2    1    2    0    0  0.00000000000E+00  0.00000000000E+00  0.58585207198E+03  0.22774566221E+04  0.22008148526E+04 0.  0.
        4    1    3    3  502    0 -0.48678781672E+03  0.97971277170E+03  0.41578455277E+03  0.11703323890E+04  0.12699999809E+01 0.  1.
       -4    1    3    3    0  502  0.48678781672E+03 -0.97971277170E+03  0.17006751921E+03  0.11071242331E+04  0.12699999809E+01 0. -1.
</event>
<event>
 5   0  0.3546750E-06  0.2201296E+04  0.7818609E-02  0.8517889E-01
       -3   -1    0    0    0  501  0.00000000000E+00  0.00000000000E+00  0.14067199918E+04  0.14067199955E+04  0.10100000352E+00 0.  1.
        3   -1    0    0  501    0  0.00000000000E+00  0.00000000000E+00 -0.86117082960E+03  0.86117083552E+03  0.10100000352E+00 0. -1.
    10030    2    1    2    0    0  0.00000000000E+00  0.00000000000E+00  0.54554916224E+03  0.22678908310E+04  0.22012961938E+04 0.  0.
        2    1    3    3  502    0  0.84077867388E+03 -0.54479877467E+03 -0.19676714780E+03  0.10209954916E+04  0.25500000920E-02 0. -1.
       -2    1    3    3    0  502 -0.84077867388E+03  0.54479877467E+03  0.74231631003E+03  0.12468953394E+04  0.25500000920E-02 0.  1.
</event>
<event>
 5   0  0.9963173E-06  0.2200547E+04  0.7818609E-02  0.8518200E-01
        2   -1    0    0  501    0  0.00000000000E+00  0.00000000000E+00  0.11633584075E+04  0.11633584075E+04  0.25500000920E-02 0.  1.
       -2   -1    0    0    0  501  0.00000000000E+00  0.00000000000E+00 -0.10406095705E+04  0.10406095705E+04  0.25500000920E-02 0. -1.
    10030    2    1    2    0    0  0.00000000000E+00  0.00000000000E+00  0.12274883703E+03  0.22039679780E+04  0.22005471072E+04 0.  0.
        4    1    3    3  502    0 -0.18932848790E+03 -0.82594487357E+03  0.76429881976E+03  0.11411329937E+04  0.12699999809E+01 0.  1.
       -4    1    3    3    0  502  0.18932848790E+03  0.82594487357E+03 -0.64154998273E+03  0.10628349843E+04  0.12699999809E+01 0. -1.
</event>
<event>
 5   0  0.4794967E-06  0.2182874E+04  0.7818609E-02  0.8525590E-01
       -1   -1    0    0    0  501  0.00000000000E+00  0.00000000000E+00  0.14330761999E+04  0.14330761999E+04  0.50400001928E-02 0.  1.
        1   -1    0    0  501    0  0.00000000000E+00  0.00000000000E+00 -0.83124289254E+03  0.83124289255E+03  0.50400001928E-02 0. -1.
    10030    2    1    2    0    0  0.00000000000E+00  0.00000000000E+00  0.60183330739E+03  0.22643190925E+04  0.21828737075E+04 0.  0.
        5    1    3    3  502    0 -0.79885615672E+03 -0.29274230735E+03  0.10100484114E+04  0.13206396560E+04  0.46999998093E+01 0.  1.
       -5    1    3    3    0  502  0.79885615672E+03  0.29274230735E+03 -0.40821510404E+03  0.94367943646E+03  0.46999998093E+01 0. -1.
</event>
<event>
 5   0  0.9963573E-06  0.2201688E+04  0.7818609E-02  0.8517726E-01
        2   -1    0    0  501    0  0.00000000000E+00  0.00000000000E+00  0.93173866468E+03  0.93173866468E+03  0.25500000920E-02 0.  1.
       -2   -1    0    0    0  501  0.00000000000E+00  0.00000000000E+00 -0.13006410332E+04  0.13006410332E+04  0.25500000920E-02 0. -1.
    10030    2    1    2    0    0  0.00000000000E+00  0.00000000000E+00 -0.36890236852E+03  0.22323796979E+04  0.22016880247E+04 0.  0.
        2    1    3    3  502    0 -0.11179970695E+03 -0.10094920165E+04 -0.61496902950E+03  0.11873332360E+04  0.25500000920E-02 0.  1.
       -2    1    3    3    0  502  0.11179970695E+03  0.10094920165E+04  0.24606666097E+03  0.10450464619E+04  0.25500000920E-02 0. -1.
</event>
<event>
 5   0  0.4309945E-06  0.2193643E+04  0.7818609E-02  0.8521079E-01
       -1   -1    0    0    0  501  0.00000000000E+00  0.00000000000E+00  0.84143104259E+03  0.84143104260E+03  0.50400001928E-02 0.  1.
        1   -1    0    0  501    0  0.00000000000E+00  0.00000000000E+00 -0.14297283375E+04  0.14297283375E+04  0.50400001928E-02 0. -1.
    10030    2    1    2    0    0  0.00000000000E+00  0.00000000000E+00 -0.58829729489E+03  0.22711593801E+04  0.21936433672E+04 0.  0.
        4    1    3    3  502    0  0.27794984392E+03  0.30540980533E+03 -0.13461673221E+04  0.14080835689E+04  0.12699999809E+01 0. -1.
       -4    1    3    3    0  502 -0.27794984392E+03 -0.30540980533E+03  0.75787002719E+03  0.86307581124E+03  0.12699999809E+01 0.  1.
</event>
<event>
 5   0  0.4408787E-06  0.2199992E+04  0.7818609E-02  0.8518432E-01
       -1   -1    0    0    0  501  0.00000000000E+00  0.00000000000E+00  0.10661319254E+04  0.10661319254E+04  0.50400001928E-02 0.  1.
        1   -1    0    0  501    0  0.00000000000E+00  0.00000000000E+00 -0.11349352830E+04  0.11349352830E+04  0.50400001928E-02 0. -1.
    10030    2    1    2    0    0  0.00000000000E+00  0.00000000000E+00 -0.68803357610E+02  0.22010672084E+04  0.21999915804E+04 0.  0.
        1    1    3    3  502    0 -0.54489071220E+03  0.56838325014E+03 -0.80290830007E+03  0.11245564217E+04  0.50400001928E-02 0. -1.
       -1    1    3    3    0  502  0.54489071220E+03 -0.56838325014E+03  0.73410494247E+03  0.10765107867E+04  0.50400001928E-02 0.  1.
</event>
<event>
 5   0  0.9963573E-06  0.2195007E+04  0.7818609E-02  0.8520509E-01
       -2   -1    0    0    0  501  0.00000000000E+00  0.00000000000E+00  0.66980776883E+03  0.66980776883E+03  0.25500000920E-02 0.  1.
        2   -1    0    0  501    0  0.00000000000E+00  0.00000000000E+00 -0.17982976140E+04  0.17982976140E+04  0.25500000920E-02 0. -1.
    10030    2    1    2    0    0  0.00000000000E+00  0.00000000000E+00 -0.11284898452E+04  0.24681053829E+04  0.21950067996E+04 0.  0.
        2    1    3    3  502    0  0.98131183434E+03 -0.39413030511E+03 -0.23411358650E+03  0.10831070053E+04  0.25500000920E-02 0.  1.
       -2    1    3    3    0  502 -0.98131183434E+03  0.39413030511E+03 -0.89437625869E+03  0.13849983775E+04  0.25500000920E-02 0. -1.
</event>
<event>
 5   0  0.9963173E-06  0.2200497E+04  0.7818609E-02  0.8518221E-01
        2   -1    0    0  501    0  0.00000000000E+00  0.00000000000E+00  0.23371875892E+04  0.23371875892E+04  0.25500000920E-02 0. -1.
       -2   -1    0    0    0  501  0.00000000000E+00  0.00000000000E+00 -0.51795025359E+03  0.51795025360E+03  0.25500000920E-02 0.  1.
    10030    2    1    2    0    0  0.00000000000E+00  0.00000000000E+00  0.18192373356E+04  0.28551378428E+04  0.22004971298E+04 0.  0.
        4    1    3    3  502    0  0.17195428553E+03 -0.78437466709E+03 -0.66296757505E+02  0.80573492393E+03  0.12699999809E+01 0.  1.
       -4    1    3    3    0  502 -0.17195428553E+03  0.78437466709E+03  0.18855340931E+04  0.20494029189E+04  0.12699999809E+01 0. -1.
</event>
<event>
 5   0  0.4630615E-06  0.2200753E+04  0.7818609E-02  0.8518115E-01
        1   -1    0    0  501    0  0.00000000000E+00  0.00000000000E+00  0.19182610403E+04  0.19182610403E+04  0.50400001928E-02 0.  1.
       -1   -1    0    0    0  501  0.00000000000E+00  0.00000000000E+00 -0.63121166864E+03  0.63121166866E+03  0.50400001928E-02 0. -1.
    10030    2    1    2    0    0  0.00000000000E+00  0.00000000000E+00  0.12870493717E+04  0.25494727090E+04  0.22007532821E+04 0.  0.
        2    1    3    3  502    0 -0.70878555062E+03  0.65415253139E+03  0.12571079585E+04  0.15844913728E+04  0.25500000920E-02 0.  1.
       -2    1    3    3    0  502  0.70878555062E+03 -0.65415253139E+03  0.29941413223E+02  0.96498133625E+03  0.25500000920E-02 0. -1.
</event>
<event>
 5   0  0.4408787E-06  0.2198345E+04  0.7818609E-02  0.8519117E-01
       -1   -1    0    0    0  501  0.00000000000E+00  0.00000000000E+00  0.21002731060E+04  0.21002731060E+04  0.50400001928E-02 0. -1.
        1   -1    0    0  501    0  0.00000000000E+00  0.00000000000E+00 -0.57524897348E+03  0.57524897350E+03  0.50400001928E-02 0.  1.
    10030    2    1    2    0    0  0.00000000000E+00  0.00000000000E+00  0.15250241326E+04  0.26755220795E+04  0.21983447849E+04 0.  0.
        1    1    3    3  502    0  0.18994196642E+03 -0.37393704383E+03 -0.47403324137E+03  0.63294105358E+03  0.50400001928E-02 0.  1.
       -1    1    3    3    0  502 -0.18994196642E+03  0.37393704383E+03  0.19990573739E+04  0.20425810260E+04  0.50400001928E-02 0. -1.
</event>
<event>
 5   0  0.4309945E-06  0.2200202E+04  0.7818609E-02  0.8518344E-01
        1   -1    0    0  501    0  0.00000000000E+00  0.00000000000E+00  0.26549389954E+04  0.26549389954E+04  0.50400001928E-02 0. -1.
       -1   -1    0    0    0  501  0.00000000000E+00  0.00000000000E+00 -0.45583806826E+03  0.45583806829E+03  0.50400001928E-02 0.  1.
    10030    2    1    2    0    0  0.00000000000E+00  0.00000000000E+00  0.21991009272E+04  0.31107770637E+04  0.22002020481E+04 0.  0.
        4    1    3    3  502    0 -0.52965149137E+03 -0.79453552236E+03  0.32721122597E+03  0.10093989290E+04  0.12699999809E+01 0.  1.
       -4    1    3    3    0  502  0.52965149137E+03  0.79453552236E+03  0.18718897012E+04  0.21013781347E+04  0.12699999809E+01 0. -1.
</event>
<event>
 5   0  0.9963173E-06  0.2200637E+04  0.7818609E-02  0.8518163E-01
        2   -1    0    0  501    0  0.00000000000E+00  0.00000000000E+00  0.19826963601E+04  0.19826963601E+04  0.25500000920E-02 0.  1.
       -2   -1    0    0    0  501  0.00000000000E+00  0.00000000000E+00 -0.61063368580E+03  0.61063368581E+03  0.25500000920E-02 0. -1.
    10030    2    1    2    0    0  0.00000000000E+00  0.00000000000E+00  0.13720626743E+04  0.25933300459E+04  0.22006373497E+04 0.  0.
        4    1    3    3  502    0  0.46848747059E+03 -0.11043157963E+03  0.18520512458E+04  0.19135754685E+04  0.12699999809E+01 0.  1.
       -4    1    3    3    0  502 -0.46848747059E+03  0.11043157963E+03 -0.47998857145E+03  0.67975457740E+03  0.12699999809E+01 0. -1.
</event>
<event>
 5   0  0.4462201E-06  0.2197676E+04  0.7818609E-02  0.8519396E-01
       -1   -1    0    0    0  501  0.00000000000E+00  0.00000000000E+00  0.58398427470E+03  0.58398427473E+03  0.50400001928E-02 0. -1.
        1   -1    0    0  501    0  0.00000000000E+00  0.00000000000E+00 -0.20675979519E+04  0.20675979519E+04  0.50400001928E-02 0.  1.
    10030    2    1    2    0    0  0.00000000000E+00  0.00000000000E+00 -0.14836136772E+04  0.26515822267E+04  0.21976757635E+04 0.  0.
        3    1    3    3  502    0 -0.47523061584E+03 -0.13113980071E+03 -0.19266769194E+04  0.19887497951E+04  0.10100000352E+00 0.  1.
       -3    1    3    3    0  502  0.47523061584E+03  0.13113980071E+03  0.44306324218E+03  0.66283243156E+03  0.10100000352E+00 0. -1.
</event>
<event>
 5   0  0.4408787E-06  0.2202208E+04  0.7818609E-02  0.8517510E-01
        1   -1    0    0  501    0  0.00000000000E+00  0.00000000000E+00  0.17984877981E+04  0.17984877981E+04  0.50400001928E-02 0.  1.
       -1   -1    0    0    0  501  0.00000000000E+00  0.00000000000E+00 -0.67413850168E+03  0.67413850170E+03  0.50400001928E-02 0. -1.
    10030    2    1    2    0    0  0.00000000000E+00  0.00000000000E+00  0.11243492964E+04  0.24726262998E+04  0.22022078644E+04 0.  0.
        1    1    3    3  502    0  0.26809343044E+03  0.34452810595E+02  0.17606589054E+04  0.17812862950E+04  0.50400001928E-02 0.  1.
       -1    1    3    3    0  502 -0.26809343044E+03 -0.34452810595E+02 -0.63630960903E+03  0.69134000475E+03  0.50400001928E-02 0. -1.
</event>
<event>
 5   0  0.4408787E-06  0.2202437E+04  0.7818609E-02  0.8517415E-01
        1   -1    0    0  501    0  0.00000000000E+00  0.00000000000E+00  0.16202066347E+04  0.16202066347E+04  0.50400001928E-02 0.  1.
       -1   -1    0    0    0  501  0.00000000000E+00  0.00000000000E+00 -0.74847361421E+03  0.74847361423E+03  0.50400001928E-02 0. -1.
    10030    2    1    2    0    0  0.00000000000E+00  0.00000000000E+00  0.87173302045E+03  0.23686802489E+04  0.22024367556E+04 0.  0.
        1    1    3    3  502    0 -0.95410787002E+03 -0.53484252551E+03  0.57318980901E+03  0.12348785009E+04  0.50400001928E-02 0.  1.
       -1    1    3    3    0  502  0.95410787002E+03  0.53484252551E+03  0.29854321144E+03  0.11338017480E+04  0.50400001928E-02 0. -1.
</event>
<event>
 5   0  0.9963173E-06  0.2226650E+04  0.7818609E-02  0.8507417E-01
       -2   -1    0    0    0  501  0.00000000000E+00  0.00000000000E+00  0.63235871449E+03  0.63235871449E+03  0.25500000920E-02 0. -1.
        2   -1    0    0  501    0  0.00000000000E+00  0.00000000000E+00 -0.19601104507E+04  0.19601104507E+04  0.25500000920E-02 0.  1.
    10030    2    1    2    0    0  0.00000000000E+00  0.00000000000E+00 -0.13277517363E+04  0.25924691652E+04  0.22266503317E+04 0.  0.
        4    1    3    3  502    0 -0.32662988174E+03  0.36834041921E+03 -0.18264947586E+04  0.18916782126E+04  0.12699999809E+01 0.  1.
       -4    1    3    3    0  502  0.32662988174E+03 -0.36834041921E+03  0.49874302232E+03  0.70079095262E+03  0.12699999809E+01 0. -1.
</event>
<event>
 5   0  0.1035928E-05  0.2188218E+04  0.7818609E-02  0.8523348E-01
        2   -1    0    0  501    0  0.00000000000E+00  0.00000000000E+00  0.18402268200E+04  0.18402268200E+04  0.25500000920E-02 0.  1.
       -2   -1    0    0    0  501  0.00000000000E+00  0.00000000000E+00 -0.65050391950E+03  0.65050391951E+03  0.25500000920E-02 0. -1.
    10030    2    1    2    0    0  0.00000000000E+00  0.00000000000E+00  0.11897229005E+04  0.24907307396E+04  0.21882182334E+04 0.  0.
        3    1    3    3  502    0 -0.68038494640E+03 -0.39675307613E+03 -0.26955984676E+03  0.83246573496E+03  0.10100000352E+00 0. -1.
       -3    1    3    3    0  502  0.68038494640E+03  0.39675307613E+03  0.14592827473E+04  0.16582650046E+04  0.10100000352E+00 0.  1.
</event>
<event>
 5   0  0.1015876E-05  0.2201759E+04  0.7818609E-02  0.8517696E-01
        2   -1    0    0  501    0  0.00000000000E+00  0.00000000000E+00  0.18018627572E+04  0.18018627572E+04  0.25500000920E-02 0. -1.
       -2   -1    0    0    0  501  0.00000000000E+00  0.00000000000E+00 -0.67260152723E+03  0.67260152723E+03  0.25500000920E-02 0.  1.
    10030    2    1    2    0    0  0.00000000000E+00  0.00000000000E+00  0.11292612300E+04  0.24744642845E+04  0.22017589717E+04 0.  0.
        5    1    3    3  502    0  0.47410697752E+03  0.96339791905E+03  0.83761609024E+03  0.13618134164E+04  0.46999998093E+01 0. -1.
       -5    1    3    3    0  502 -0.47410697752E+03 -0.96339791905E+03  0.29164513976E+03  0.11126508680E+04  0.46999998093E+01 0.  1.
</event>
<event>
 5   0  0.1035928E-05  0.2196745E+04  0.7818609E-02  0.8519784E-01
        2   -1    0    0  501    0  0.00000000000E+00  0.00000000000E+00  0.18707456577E+04  0.18707456577E+04  0.25500000920E-02 0.  1.
       -2   -1    0    0    0  501  0.00000000000E+00  0.00000000000E+00 -0.64488844121E+03  0.64488844122E+03  0.25500000920E-02 0. -1.
    10030    2    1    2    0    0  0.00000000000E+00  0.00000000000E+00  0.12258572165E+04  0.25156340990E+04  0.21967450932E+04 0.  0.
        3    1    3    3  502    0 -0.78717998169E+03 -0.69694383085E+03  0.24891905018E+03  0.10804368240E+04  0.10100000352E+00 0. -1.
       -3    1    3    3    0  502  0.78717998169E+03  0.69694383085E+03  0.97693816635E+03  0.14351972749E+04  0.10100000352E+00 0.  1.
</event>
<event>
 5   0  0.4794967E-06  0.2200002E+04  0.7818609E-02  0.8518427E-01
       -1   -1    0    0    0  501  0.00000000000E+00  0.00000000000E+00  0.93554995151E+03  0.93554995152E+03  0.50400001928E-02 0.  1.
        1   -1    0    0  501    0  0.00000000000E+00  0.00000000000E+00 -0.12933587510E+04  0.12933587510E+04  0.50400001928E-02 0. -1.
    10030    2    1    2    0    0  0.00000000000E+00  0.00000000000E+00 -0.35780879952E+03  0.22289087026E+04  0.22000015608E+04 0.  0.
        5    1    3    3  502    0 -0.64492578906E+03 -0.10812233482E+03 -0.10750376384E+04  0.12583114586E+04  0.46999998093E+01 0. -1.
       -5    1    3    3    0  502  0.64492578906E+03  0.10812233482E+03  0.71722883892E+03  0.97059724400E+03  0.46999998093E+01 0.  1.
</event>
<event>
 5   0  0.1015876E-05  0.2186475E+04  0.7818609E-02  0.8524079E-01
       -2   -1    0    0    0  501  0.00000000000E+00  0.00000000000E+00  0.17326962769E+04  0.17326962769E+04  0.25500000920E-02 0.  1.
        2   -1    0    0  501    0  0.00000000000E+00  0.00000000000E+00 -0.68977349151E+03  0.68977349151E+03  0.25500000920E-02 0. -1.
    10030    2    1    2    0    0  0.00000000000E+00  0.00000000000E+00  0.10429227854E+04  0.24224697684E+04  0.21864747523E+04 0.  0.
        5    1    3    3  502    0  0.84686873296E+03 -0.64794407019E+03  0.25434196538E+03  0.10962345070E+04  0.46999998093E+01 0. -1.
       -5    1    3    3    0  502 -0.84686873296E+03  0.64794407019E+03  0.78858082002E+03  0.13262352614E+04  0.46999998093E+01 0.  1.
</event>
<event>
 5   0  0.9963573E-06  0.2199456E+04  0.7818609E-02  0.8518655E-01
       -2   -1    0    0    0  501  0.00000000000E+00  0.00000000000E+00  0.16105005624E+04  0.16105005624E+04  0.25500000920E-02 0.  1.
        2   -1    0    0  501    0  0.00000000000E+00  0.00000000000E+00 -0.75094778653E+03  0.75094778654E+03  0.25500000920E-02 0. -1.
    10030    2    1    2    0    0  0.00000000000E+00  0.00000000000E+00  0.85955277586E+03  0.23614483489E+04  0.21994561442E+04 0.  0.
        2    1    3    3  502    0  0.24961823964E+03  0.72165295179E+03 -0.41990806691E+03  0.87144422257E+03  0.25500000920E-02 0. -1.
       -2    1    3    3    0  502 -0.24961823964E+03 -0.72165295179E+03  0.12794608428E+04  0.14900041264E+04  0.25500000920E-02 0.  1.
</event>
<event>
 5   0  0.1015876E-05  0.2201583E+04  0.7818609E-02  0.8517769E-01
        2   -1    0    0  501    0  0.00000000000E+00  0.00000000000E+00  0.12893821807E+04  0.12893821807E+04  0.25500000920E-02 0. -1.
       -2   -1    0    0    0  501  0.00000000000E+00  0.00000000000E+00 -0.93978514207E+03  0.93978514207E+03  0.25500000920E-02 0.  1.
    10030    2    1    2    0    0  0.00000000000E+00  0.00000000000E+00  0.34959703868E+03  0.22291673228E+04  0.22015832629E+04 0.  0.
        5    1    3    3  502    0 -0.68833774405E+02  0.84837547273E+03 -0.53197376137E+03  0.10037416022E+04  0.46999998093E+01 0.  1.
       -5    1    3    3    0  502  0.68833774405E+02 -0.84837547273E+03  0.88157080005E+03  0.12254257206E+04  0.46999998093E+01 0. -1.
</event>
<event>
 5   0  0.4408787E-06  0.2190252E+04  0.7818609E-02  0.8522496E-01
        1   -1    0    0  501    0  0.00000000000E+00  0.00000000000E+00  0.17282234703E+04  0.17282234703E+04  0.50400001928E-02 0. -1.
       -1   -1    0    0    0  501  0.00000000000E+00  0.00000000000E+00 -0.69395026868E+03  0.69395026870E+03  0.50400001928E-02 0.  1.
    10030    2    1    2    0    0  0.00000000000E+00  0.00000000000E+00  0.10342732017E+04  0.24221737390E+04  0.21902521696E+04 0.  0.
        1    1    3    3  502    0 -0.67509988187E+03 -0.54991269202E+01 -0.43643846357E+03  0.80390834266E+03  0.50400001928E-02 0.  1.
       -1    1    3    3    0  502  0.67509988187E+03  0.54991269202E+01  0.14707116652E+04  0.16182653964E+04  0.50400001928E-02 0. -1.
</event>
<event>
 5   0  0.9963573E-06  0.2188682E+04  0.7818609E-02  0.8523154E-01
       -2   -1    0    0    0  501  0.00000000000E+00  0.00000000000E+00  0.56312934986E+03  0.56312934987E+03  0.25500000920E-02 0.  1.
        2   -1    0    0  501    0  0.00000000000E+00  0.00000000000E+00 -0.21266551673E+04  0.21266551673E+04  0.25500000920E-02 0. -1.
    10030    2    1    2    0    0  0.00000000000E+00  0.00000000000E+00 -0.15635258175E+04  0.26897845172E+04  0.21886817418E+04 0.  0.
        2    1    3    3  502    0  0.47588000821E+03 -0.98517427002E+03 -0.81063195980E+03  0.13616733451E+04  0.25500000920E-02 0. -1.
       -2    1    3    3    0  502 -0.47588000821E+03  0.98517427002E+03 -0.75289385766E+03  0.13281111721E+04  0.25500000920E-02 0.  1.
</event>
<event>
 5   0  0.4794967E-06  0.2198676E+04  0.7818609E-02  0.8518979E-01
       -1   -1    0    0    0  501  0.00000000000E+00  0.00000000000E+00  0.99692032348E+03  0.99692032349E+03  0.50400001928E-02 0. -1.
        1   -1    0    0  501    0  0.00000000000E+00  0.00000000000E+00 -0.12122774403E+04  0.12122774403E+04  0.50400001928E-02 0.  1.
    10030    2    1    2    0    0  0.00000000000E+00  0.00000000000E+00 -0.21535711683E+03  0.22091977638E+04  0.21986759816E+04 0.  0.
        5    1    3    3  502    0 -0.21921904565E+03  0.10635519667E+04 -0.27973513759E+03  0.11213713092E+04  0.46999998093E+01 0.  1.
       -5    1    3    3    0  502  0.21921904565E+03 -0.10635519667E+04  0.64378020762E+02  0.10878264546E+04  0.46999998093E+01 0. -1.
</event>
<event>
 5   0  0.4462201E-06  0.2203790E+04  0.7818609E-02  0.8516852E-01
        1   -1    0    0  501    0  0.00000000000E+00  0.00000000000E+00  0.93991517103E+03  0.93991517104E+03  0.50400001928E-02 0. -1.
       -1   -1    0    0    0  501  0.00000000000E+00  0.00000000000E+00 -0.12917899285E+04  0.12917899285E+04  0.50400001928E-02 0.  1.
    10030    2    1    2    0    0  0.00000000000E+00  0.00000000000E+00 -0.35187475750E+03  0.22317050996E+04  0.22037903273E+04 0.  0.
        3    1    3    3  502    0  0.90815011246E+03 -0.83863859800E+02 -0.80215786898E+03  0.12145892436E+04  0.10100000352E+00 0.  1.
       -3    1    3    3    0  502 -0.90815011246E+03  0.83863859800E+02  0.45028311149E+03  0.10171158560E+04  0.10100000352E+00 0. -1.
</event>
<event>
 5   0  0.9963173E-06  0.2204204E+04  0.7818609E-02  0.8516680E-01
       -2   -1    0    0    0  501  0.00000000000E+00  0.00000000000E+00  0.78442926711E+03  0.78442926711E+03  0.25500000920E-02 0. -1.
        2   -1    0    0  501    0  0.00000000000E+00  0.00000000000E+00 -0.15484235874E+04  0.15484235874E+04  0.25500000920E-02 0.  1.
    10030    2    1    2    0    0  0.00000000000E+00  0.00000000000E+00 -0.76399432025E+03  0.23328528545E+04  0.22042039650E+04 0.  0.
        4    1    3    3  502    0 -0.50369219201E+03 -0.48726433782E+03  0.51823241455E+03  0.87160702590E+03  0.12699999809E+01 0. -1.
       -4    1    3    3    0  502  0.50369219201E+03  0.48726433782E+03 -0.12822267348E+04  0.14612458286E+04  0.12699999809E+01 0.  1.
</event>
<event>
 5   0  0.4462201E-06  0.2197593E+04  0.7818609E-02  0.8519430E-01
       -1   -1    0    0    0  501  0.00000000000E+00  0.00000000000E+00  0.98395075744E+03  0.98395075745E+03  0.50400001928E-02 0. -1.
        1   -1    0    0  501    0  0.00000000000E+00  0.00000000000E+00 -0.12270474789E+04  0.12270474789E+04  0.50400001928E-02 0.  1.
    10030    2    1    2    0    0  0.00000000000E+00  0.00000000000E+00 -0.24309672149E+03  0.22109982364E+04  0.21975934987E+04 0.  0.
        3    1    3    3  502    0  0.83915340522E+03  0.39131257860E+03 -0.71680777222E+03  0.11709472081E+04  0.10100000352E+00 0.  1.
       -3    1    3    3    0  502 -0.83915340522E+03 -0.39131257860E+03  0.47371105073E+03  0.10400510283E+04  0.10100000352E+00 0. -1.
</event>
<event>
 5   0  0.4309945E-06  0.2187861E+04  0.7818609E-02  0.8523497E-01
       -1   -1    0    0    0  501  0.00000000000E+00  0.00000000000E+00  0.20301915266E+04  0.20301915266E+04  0.50400001928E-02 0.  1.
        1   -1    0    0  501    0  0.00000000000E+00  0.00000000000E+00 -0.58944413131E+03  0.58944413133E+03  0.50400001928E-02 0. -1.
    10030    2    1    2    0    0  0.00000000000E+00  0.00000000000E+00  0.14407473953E+04  0.26196356579E+04  0.21878614954E+04 0.  0.
        4    1    3    3  502    0  0.77511695367E+03 -0.93858369705E+02  0.16377868668E+04  0.18143767854E+04  0.12699999809E+01 0.  1.
       -4    1    3    3    0  502 -0.77511695367E+03  0.93858369705E+02 -0.19703947158E+03  0.80525887247E+03  0.12699999809E+01 0. -1.
</event>
<event>
 5   0  0.4462201E-06  0.2206084E+04  0.7818609E-02  0.8515900E-01
        1   -1    0    0  501    0  0.00000000000E+00  0.00000000000E+00  0.21510280619E+04  0.21510280619E+04  0.50400001928E-02 0.  1.
       -1   -1    0    0    0  501  0.00000000000E+00  0.00000000000E+00 -0.56563740245E+03  0.56563740247E+03  0.50400001928E-02 0. -1.
    10030    2    1    2    0    0  0.00000000000E+00  0.00000000000E+00  0.15853906595E+04  0.27166654644E+04  0.22060842464E+04 0.  0.
        3    1    3    3  502    0 -0.54543726732E+03  0.67853544050E+03 -0.41410056998E+02  0.87156580912E+03  0.10100000352E+00 0. -1.
       -3    1    3    3    0  502  0.54543726732E+03 -0.67853544050E+03  0.16268007165E+04  0.18450996553E+04  0.10100000352E+00 0.  1.
</event>
<event>
 5   0  0.1015876E-05  0.2235207E+04  0.7818609E-02  0.8503915E-01
       -2   -1    0    0    0  501  0.00000000000E+00  0.00000000000E+00  0.11599529492E+04  0.11599529493E+04  0.25500000920E-02 0.  1.
        2   -1    0    0  501    0  0.00000000000E+00  0.00000000000E+00 -0.10768005968E+04  0.10768005968E+04  0.25500000920E-02 0. -1.
    10030    2    1    2    0    0  0.00000000000E+00  0.00000000000E+00  0.83152352469E+02  0.22367535460E+04  0.22352073980E+04 0.  0.
        5    1    3    3  502    0 -0.80597999629E+03  0.76425365573E+03 -0.82317919127E+02  0.11137709524E+04  0.46999998093E+01 0.  1.
       -5    1    3    3    0  502  0.80597999629E+03 -0.76425365573E+03  0.16547027160E+03  0.11229825936E+04  0.46999998093E+01 0. -1.
</event>
<event>
 5   0  0.4309945E-06  0.2199037E+04  0.7818609E-02  0.8518829E-01
        1   -1    0    0  501    0  0.00000000000E+00  0.00000000000E+00  0.17032607852E+04  0.17032607852E+04  0.50400001928E-02 0.  1.
       -1   -1    0    0    0  501  0.00000000000E+00  0.00000000000E+00 -0.70978035099E+03  0.70978035100E+03  0.50400001928E-02 0. -1.
    10030    2    1    2    0    0  0.00000000000E+00  0.00000000000E+00  0.99348043425E+03  0.24130411362E+04  0.21990370965E+04 0.  0.
        4    1    3    3  502    0  0.15058882274E+03  0.10292435958E+04  0.10581175537E+03  0.10455702337E+04  0.12699999809E+01 0. -1.
       -4    1    3    3    0  502 -0.15058882274E+03 -0.10292435958E+04  0.88766867889E+03  0.13674709026E+04  0.12699999809E+01 0.  1.
</event>
<event>
 5   0  0.4794967E-06  0.2191569E+04  0.7818609E-02  0.8521945E-01
       -1   -1    0    0    0  501  0.00000000000E+00  0.00000000000E+00  0.91538546981E+03  0.91538546983E+03  0.50400001928E-02 0. -1.
        1   -1    0    0  501    0  0.00000000000E+00  0.00000000000E+00 -0.13117359341E+04  0.13117359341E+04  0.50400001928E-02 0.  1.
    10030    2    1    2    0    0  0.00000000000E+00  0.00000000000E+00 -0.39635046424E+03  0.22271214039E+04  0.21915693138E+04 0.  0.
        5    1    3    3  502    0  0.83182970332E+03  0.46702696143E+03  0.34970623430E+03  0.10160567791E+04  0.46999998093E+01 0. -1.
       -5    1    3    3    0  502 -0.83182970332E+03 -0.46702696143E+03 -0.74605669854E+03  0.12110646248E+04  0.46999998093E+01 0.  1.
</event>
<event>
 5   0  0.1015876E-05  0.2201106E+04  0.7818609E-02  0.8517968E-01
        2   -1    0    0  501    0  0.00000000000E+00  0.00000000000E+00  0.11965359701E+04  0.11965359701E+04  0.25500000920E-02 0. -1.
       -2   -1    0    0    0  501  0.00000000000E+00  0.00000000000E+00 -0.10122699624E+04  0.10122699624E+04  0.25500000920E-02 0.  1.
    10030    2    1    2    0    0  0.00000000000E+00  0.00000000000E+00  0.18426600774E+03  0.22088059325E+04  0.22011064685E+04 0.  0.
        5    1    3    3  502    0  0.55967269479E+02  0.43029556163E+03 -0.92279433617E+03  0.10197343196E+04  0.46999998093E+01 0.  1.
       -5    1    3    3    0  502 -0.55967269479E+02 -0.43029556163E+03  0.11070603439E+04  0.11890716129E+04  0.46999998093E+01 0. -1.
</event>
<event>
 5   0  0.4794967E-06  0.2199626E+04  0.7818609E-02  0.8518584E-01
        1   -1    0    0  501    0  0.00000000000E+00  0.00000000000E+00  0.15063638254E+04  0.15063638254E+04  0.50400001928E-02 0. -1.
       -1   -1    0    0    0  501  0.00000000000E+00  0.00000000000E+00 -0.80298556307E+03  0.80298556309E+03  0.50400001928E-02 0.  1.
    10030    2    1    2    0    0  0.00000000000E+00  0.00000000000E+00  0.70337826231E+03  0.23093493885E+04  0.21996257905E+04 0.  0.
        5    1    3    3  502    0 -0.66046811888E+02 -0.10763293979E+04  0.57861727180E+03  0.12237921357E+04  0.46999998093E+01 0.  1.
       -5    1    3    3    0  502  0.66046811888E+02  0.10763293979E+04  0.12476099051E+03  0.10855572527E+04  0.46999998093E+01 0. -1.
</event>
<event>
 5   0  0.9963173E-06  0.2194165E+04  0.7818609E-02  0.8520861E-01
       -2   -1    0    0    0  501  0.00000000000E+00  0.00000000000E+00  0.19528337126E+04  0.19528337126E+04  0.25500000920E-02 0. -1.
        2   -1    0    0  501    0  0.00000000000E+00  0.00000000000E+00 -0.61632993781E+03  0.61632993782E+03  0.25500000920E-02 0.  1.
    10030    2    1    2    0    0  0.00000000000E+00  0.00000000000E+00  0.13365037748E+04  0.25691636504E+04  0.21941648804E+04 0.  0.
        4    1    3    3  502    0 -0.53015730359E+03 -0.33554667261E+03  0.17220228662E+04  0.18327636784E+04  0.12699999809E+01 0. -1.
       -4    1    3    3    0  502  0.53015730359E+03  0.33554667261E+03 -0.38551909145E+03  0.73639997204E+03  0.12699999809E+01 0.  1.
</event>
<event>
 5   0  0.4309945E-06  0.2198336E+04  0.7818609E-02  0.8519121E-01
       -1   -1    0    0    0  501  0.00000000000E+00  0.00000000000E+00  0.67645550383E+03  0.67645550385E+03  0.50400001928E-02 0.  1.
        1   -1    0    0  501    0  0.00000000000E+00  0.00000000000E+00 -0.17860303751E+04  0.17860303751E+04  0.50400001928E-02 0. -1.
    10030    2    1    2    0    0  0.00000000000E+00  0.00000000000E+00 -0.11095748713E+04  0.24624858789E+04  0.21983358044E+04 0.  0.
        4    1    3    3  502    0  0.23999618064E+03  0.10303847232E+04 -0.88873318742E+03  0.13817160113E+04  0.12699999809E+01 0. -1.
       -4    1    3    3    0  502 -0.23999618064E+03 -0.10303847232E+04 -0.22084168384E+03  0.10807698676E+04  0.12699999809E+01 0.  1.
</event>
<event>
 5   0  0.4630615E-06  0.2197974E+04  0.7818609E-02  0.8519272E-01
        1   -1    0    0  501    0  0.00000000000E+00  0.00000000000E+00  0.79940556680E+03  0.79940556682E+03  0.50400001928E-02 0.  1.
       -1   -1    0    0    0  501  0.00000000000E+00  0.00000000000E+00 -0.15108378748E+04  0.15108378749E+04  0.50400001928E-02 0. -1.
    10030    2    1    2    0    0  0.00000000000E+00  0.00000000000E+00 -0.71143230804E+03  0.23102434417E+04  0.21979738012E+04 0.  0.
        2    1    3    3  502    0  0.27910507636E+03  0.37698861036E+02 -0.14722622481E+04  0.14989586301E+04  0.25500000920E-02 0. -1.
       -2    1    3    3    0  502 -0.27910507636E+03 -0.37698861036E+02  0.76082994003E+03  0.81128481153E+03  0.25500000920E-02 0.  1.
</event>
<event>
 5   0  0.4462201E-06  0.2166036E+04  0.7818609E-02  0.8532699E-01
        1   -1    0    0  501    0  0.00000000000E+00  0.00000000000E+00  0.25734362642E+04  0.25734362642E+04  0.50400001928E-02 0.  1.
       -1   -1    0    0    0  501  0.00000000000E+00  0.00000000000E+00 -0.45578288448E+03  0.45578288450E+03  0.50400001928E-02 0. -1.
    10030    2    1    2    0    0  0.00000000000E+00  0.00000000000E+00  0.21176533798E+04  0.30292191487E+04  0.21660361987E+04 0.  0.
        3    1    3    3  502    0 -0.32880830730E+03 -0.10072598043E+04  0.13722952736E+04  0.17337478319E+04  0.10100000352E+00 0.  1.
       -3    1    3    3    0  502  0.32880830730E+03  0.10072598043E+04  0.74535810612E+03  0.12954713169E+04  0.10100000352E+00 0. -1.
</event>
<event>
 5   0  0.1035928E-05  0.2200664E+04  0.7818609E-02  0.8518152E-01
       -2   -1    0    0    0  501  0.00000000000E+00  0.00000000000E+00  0.53540697570E+03  0.53540697571E+03  0.25500000920E-02 0. -1.
        2   -1    0    0  501    0  0.00000000000E+00  0.00000000000E+00 -0.22613277004E+04  0.22613277004E+04  0.25500000920E-02 0.  1.
    10030    2    1    2    0    0  0.00000000000E+00  0.00000000000E+00 -0.17259207247E+04  0.27967346761E+04  0.22006641045E+04 0.  0.
        3    1    3    3  502    0  0.10433214488E+04  0.22532190454E+03 -0.12026413947E+04  0.16079912750E+04  0.10100000352E+00 0.  1.
       -3    1    3    3    0  502 -0.10433214488E+04 -0.22532190454E+03 -0.52327933003E+03  0.11887434011E+04  0.10100000352E+00 0. -1.
</event>
<event>
 5   0  0.4630615E-06  0.2210002E+04  0.7818609E-02  0.8514276E-01
       -1   -1    0    0    0  501  0.00000000000E+00  0.00000000000E+00  0.10664458448E+04  0.10664458448E+04  0.50400001928E-02 0.  1.
        1   -1    0    0  501    0  0.00000000000E+00  0.00000000000E+00 -0.11449503173E+04  0.11449503173E+04  0.50400001928E-02 0. -1.
    10030    2    1    2    0    0  0.00000000000E+00  0.00000000000E+00 -0.78504472485E+02  0.22113961621E+04  0.22100022701E+04 0.  0.
        2    1    3    3  502    0  0.10527744453E+04  0.16212772392E+03 -0.33339014576E+03  0.11161399647E+04  0.25500000920E-02 0. -1.
       -2    1    3    3    0  502 -0.10527744453E+04 -0.16212772392E+03  0.25488567327E+03  0.10952561974E+04  0.25500000920E-02 0.  1.
</event>
<event>
 5   0  0.4630615E-06  0.2195547E+04  0.7818609E-02  0.8520284E-01
       -1   -1    0    0    0  501  0.00000000000E+00  0.00000000000E+00  0.18480833698E+04  0.18480833698E+04  0.50400001928E-02 0.  1.
        1   -1    0    0  501    0  0.00000000000E+00  0.00000000000E+00 -0.65208435199E+03  0.65208435201E+03  0.50400001928E-02 0. -1.
    10030    2    1    2    0    0  0.00000000000E+00  0.00000000000E+00  0.11959990178E+04  0.25001677218E+04  0.21955466259E+04 0.  0.
        2    1    3    3  502    0  0.49031810360E+03  0.90123297763E+03  0.15334397834E+03  0.10373751001E+04  0.25500000920E-02 0.  1.
       -2    1    3    3    0  502 -0.49031810360E+03 -0.90123297763E+03  0.10426550395E+04  0.14627926217E+04  0.25500000920E-02 0. -1.
</event>
<event>
 5   0  0.1015876E-05  0.2199318E+04  0.7818609E-02  0.8518712E-01
       -2   -1    0    0    0  501  0.00000000000E+00  0.00000000000E+00  0.55457278987E+03  0.55457278987E+03  0.25500000920E-02 0. -1.
        2   -1    0    0  501    0  0.00000000000E+00  0.00000000000E+00 -0.21805080664E+04  0.21805080664E+04  0.25500000920E-02 0.  1.
    10030    2    1    2    0    0  0.00000000000E+00  0.00000000000E+00 -0.16259352765E+04  0.27350808563E+04  0.21993184778E+04 0.  0.
        5    1    3    3  502    0  0.64882977117E+03  0.29978537891E+03 -0.18522343403E+04  0.19853577730E+04  0.46999998093E+01 0.  1.
       -5    1    3    3    0  502 -0.64882977117E+03 -0.29978537891E+03  0.22629906376E+03  0.74972308330E+03  0.46999998093E+01 0. -1.
</event>
<event>
 5   0  0.9963173E-06  0.2196768E+04  0.7818609E-02  0.8519774E-01
       -2   -1    0    0    0  501  0.00000000000E+00  0.00000000000E+00  0.59003106371E+03  0.59003106371E+03  0.25500000920E-02 0. -1.
        2   -1    0    0  501    0  0.00000000000E+00  0.00000000000E+00 -0.20447187034E+04  0.20447187034E+04  0.25500000920E-02 0.  1.
    10030    2    1    2    0    0  0.00000000000E+00  0.00000000000E+00 -0.14546876397E+04  0.26347497671E+04  0.21967681275E+04 0.  0.
        4    1    3    3  502    0  0.18941179115E+03 -0.19349882666E+03 -0.20040604356E+04  0.20222706211E+04  0.12699999809E+01 0.  1.
       -4    1    3    3    0  502 -0.18941179115E+03  0.19349882666E+03  0.54937279589E+03  0.61247914602E+03  0.12699999809E+01 0. -1.
</event>
<event>
 5   0  0.4630615E-06  0.2202521E+04  0.7818609E-02  0.8517379E-01
       -1   -1    0    0    0  501  0.00000000000E+00  0.00000000000E+00  0.84915829438E+03  0.84915829439E+03  0.50400001928E-02 0. -1.
        1   -1    0    0  501    0  0.00000000000E+00  0.00000000000E+00 -0.14282085616E+04  0.14282085617E+04  0.50400001928E-02 0.  1.
    10030    2    1    2    0    0  0.00000000000E+00  0.00000000000E+00 -0.57905026726E+03  0.22773668560E+04  0.22025214153E+04 0.  0.
        2    1    3    3  502    0  0.31116279957E+03 -0.32956466819E+03 -0.13272946109E+04  0.14025498717E+04  0.25500000920E-02 0.  1.
       -2    1    3    3    0  502 -0.31116279957E+03  0.32956466819E+03  0.74824434364E+03  0.87481698438E+03  0.25500000920E-02 0. -1.
</event>
<event>
 5   0  0.4408787E-06  0.2200399E+04  0.7818609E-02  0.8518262E-01
       -1   -1    0    0    0  501  0.00000000000E+00  0.00000000000E+00  0.11888896448E+04  0.11888896448E+04  0.50400001928E-02 0.  1.
        1   -1    0    0  501    0  0.00000000000E+00  0.00000000000E+00 -0.10181253901E+04  0.10181253901E+04  0.50400001928E-02 0. -1.
    10030    2    1    2    0    0  0.00000000000E+00  0.00000000000E+00  0.17076425470E+03  0.22070150350E+04  0.22003988125E+04 0.  0.
        1    1    3    3  502    0 -0.65607381893E+03 -0.49371998311E+03 -0.64910824468E+03  0.10466775009E+04  0.50400001928E-02 0. -1.
       -1    1    3    3    0  502  0.65607381893E+03  0.49371998311E+03  0.81987249938E+03  0.11603375340E+04  0.50400001928E-02 0.  1.
</event>
<event>
 5   0  0.4462201E-06  0.2199021E+04  0.7818609E-02  0.8518836E-01
       -1   -1    0    0    0  501  0.00000000000E+00  0.00000000000E+00  0.99478274974E+03  0.99478274975E+03  0.50400001928E-02 0. -1.
        1   -1    0    0  501    0  0.00000000000E+00  0.00000000000E+00 -0.12152640557E+04  0.12152640557E+04  0.50400001928E-02 0.  1.
    10030    2    1    2    0    0  0.00000000000E+00  0.00000000000E+00 -0.22048130598E+03  0.22100468055E+04  0.21990213451E+04 0.  0.
        3    1    3    3  502    0 -0.54388862388E+03  0.93455049680E+03  0.90068059381E+02  0.10850399678E+04  0.10100000352E+00 0.  1.
       -3    1    3    3    0  502  0.54388862388E+03 -0.93455049680E+03 -0.31054936537E+03  0.11250068377E+04  0.10100000352E+00 0. -1.
</event>
<event>
 5   0  0.9963573E-06  0.2199748E+04  0.7818609E-02  0.8518533E-01
       -2   -1    0    0    0  501  0.00000000000E+00  0.00000000000E+00  0.51350868988E+03  0.51350868988E+03  0.25500000920E-02 0. -1.
        2   -1    0    0  501    0  0.00000000000E+00  0.00000000000E+00 -0.23557986258E+04  0.23557986258E+04  0.25500000920E-02 0.  1.
    10030    2    1    2    0    0  0.00000000000E+00  0.00000000000E+00 -0.18422899359E+04  0.28693073157E+04  0.21997482274E+04 0.  0.
        2    1    3    3  502    0  0.39607626856E+03  0.63296660033E+03 -0.19745477619E+04  0.21110097090E+04  0.25500000920E-02 0.  1.
       -2    1    3    3    0  502 -0.39607626856E+03 -0.63296660033E+03  0.13225782600E+03  0.75829760662E+03  0.25500000920E-02 0. -1.
</event>
<event>
 5   0  0.4408787E-06  0.2149361E+04  0.7818609E-02  0.8539806E-01
        1   -1    0    0  501    0  0.00000000000E+00  0.00000000000E+00  0.11014871570E+04  0.11014871570E+04  0.50400001928E-02 0. -1.
       -1   -1    0    0    0  501  0.00000000000E+00  0.00000000000E+00 -0.10485260398E+04  0.10485260399E+04  0.50400001928E-02 0.  1.
    10030    2    1    2    0    0  0.00000000000E+00  0.00000000000E+00  0.52961117161E+02  0.21500131969E+04  0.21493608042E+04 0.  0.
        1    1    3    3  502    0  0.87511228302E+03 -0.62377209127E+03  0.21495378669E+02  0.10748837989E+04  0.50400001928E-02 0. -1.
       -1    1    3    3    0  502 -0.87511228302E+03  0.62377209127E+03  0.31465738491E+02  0.10751293980E+04  0.50400001928E-02 0.  1.
</event>
<event>
 5   0  0.1015876E-05  0.2195039E+04  0.7818609E-02  0.8520496E-01
       -2   -1    0    0    0  501  0.00000000000E+00  0.00000000000E+00  0.13289276809E+04  0.13289276809E+04  0.25500000920E-02 0.  1.
        2   -1    0    0  501    0  0.00000000000E+00  0.00000000000E+00 -0.90640649388E+03  0.90640649388E+03  0.25500000920E-02 0. -1.
    10030    2    1    2    0    0  0.00000000000E+00  0.00000000000E+00  0.42252118697E+03  0.22353341747E+04  0.21950386601E+04 0.  0.
        5    1    3    3  502    0 -0.55564862974E+03  0.23980512472E+03 -0.72112050682E+03  0.94142911200E+03  0.46999998093E+01 0. -1.
       -5    1    3    3    0  502  0.55564862974E+03 -0.23980512472E+03  0.11436416938E+04  0.12939050627E+04  0.46999998093E+01 0.  1.
</event>
<event>
 5   0  0.4462201E-06  0.2213143E+04  0.7818609E-02  0.8512978E-01
        1   -1    0    0  501    0  0.00000000000E+00  0.00000000000E+00  0.18310543986E+04  0.18310543986E+04  0.50400001928E-02 0. -1.
       -1   -1    0    0    0  501  0.00000000000E+00  0.00000000000E+00 -0.66874035934E+03  0.66874035936E+03  0.50400001928E-02 0.  1.
    10030    2    1    2    0    0  0.00000000000E+00  0.00000000000E+00  0.11623140393E+04  0.24997947580E+04  0.22131425409E+04 0.  0.
        3    1    3    3  502    0  0.59059863480E+03 -0.58236848541E+03  0.14085200031E+04  0.16345912056E+04  0.10100000352E+00 0. -1.
       -3    1    3    3    0  502 -0.59059863480E+03  0.58236848541E+03 -0.24620596379E+03  0.86520355237E+03  0.10100000352E+00 0.  1.
</event>
<event>
 5   0  0.9963573E-06  0.2200211E+04  0.7818609E-02  0.8518340E-01
        2   -1    0    0  501    0  0.00000000000E+00  0.00000000000E+00  0.19381092942E+04  0.19381092942E+04  0.25500000920E-02 0. -1.
       -2   -1    0    0    0  501  0.00000000000E+00  0.00000000000E+00 -0.62443959293E+03  0.62443959294E+03  0.25500000920E-02 0.  1.
    10030    2    1    2    0    0  0.00000000000E+00  0.00000000000E+00  0.13136697013E+04  0.25625488872E+04  0.22002110615E+04 0.  0.
        2    1    3    3  502    0  0.10012371022E+04  0.21901959301E+03  0.19127196703E+03  0.10426074440E+04  0.25500000920E-02 0.  1.
       -2    1    3    3    0  502 -0.10012371022E+04 -0.21901959301E+03  0.11223977343E+04  0.15199414432E+04  0.25500000920E-02 0. -1.
</event>
<event>
 5   0  0.3546750E-06  0.2199998E+04  0.7818609E-02  0.8518429E-01
        3   -1    0    0  501    0  0.00000000000E+00  0.00000000000E+00  0.11289767118E+04  0.11289767163E+04  0.10100000352E+00 0. -1.
       -3   -1    0    0    0  501  0.00000000000E+00  0.00000000000E+00 -0.10717645867E+04  0.10717645914E+04  0.10100000352E+00 0.  1.
    10030    2    1    2    0    0  0.00000000000E+00  0.00000000000E+00  0.57212125084E+02  0.22007413077E+04  0.21999975173E+04 0.  0.
        3    1    3    3  502    0  0.52224529000E+03  0.35794530500E+03 -0.87121585380E+03  0.10769782070E+04  0.10100000352E+00 0.  1.
       -3    1    3    3    0  502 -0.52224529000E+03 -0.35794530500E+03  0.92842797889E+03  0.11237631007E+04  0.10100000352E+00 0. -1.
</event>
<event>
 5   0  0.1015876E-05  0.2196476E+04  0.7818609E-02  0.8519896E-01
        2   -1    0    0  501    0  0.00000000000E+00  0.00000000000E+00  0.83156666692E+03  0.83156666693E+03  0.25500000920E-02 0. -1.
       -2   -1    0    0    0  501  0.00000000000E+00  0.00000000000E+00 -0.14504271637E+04  0.14504271637E+04  0.25500000920E-02 0.  1.
    10030    2    1    2    0    0  0.00000000000E+00  0.00000000000E+00 -0.61886049681E+03  0.22819938307E+04  0.21964761616E+04 0.  0.
        5    1    3    3  502    0 -0.60455658141E+03  0.43200843060E+02  0.64205967106E+03  0.88295961639E+03  0.46999998093E+01 0. -1.
       -5    1    3    3    0  502  0.60455658141E+03 -0.43200843060E+02 -0.12609201679E+04  0.13990342143E+04  0.46999998093E+01 0.  1.
</event>
<event>
 5   0  0.4408787E-06  0.2217796E+04  0.7818609E-02  0.8511058E-01
        1   -1    0    0  501    0  0.00000000000E+00  0.00000000000E+00  0.93286579442E+03  0.93286579443E+03  0.50400001928E-02 0.  1.
       -1   -1    0    0    0  501  0.00000000000E+00  0.00000000000E+00 -0.13181470056E+04  0.13181470057E+04  0.50400001928E-02 0. -1.
    10030    2    1    2    0    0  0.00000000000E+00  0.00000000000E+00 -0.38528121123E+03  0.22510128001E+04  0.22177955303E+04 0.  0.
        1    1    3    3  502    0  0.55619256482E+03 -0.26784715983E+03  0.74233062170E+03  0.96547761348E+03  0.50400001928E-02 0.  1.
       -1    1    3    3    0  502 -0.55619256482E+03  0.26784715983E+03 -0.11276118329E+04  0.12855351866E+04  0.50400001928E-02 0. -1.
</event>
<event>
 5   0  0.4309945E-06  0.2200183E+04  0.7818609E-02  0.8518352E-01
       -1   -1    0    0    0  501  0.00000000000E+00  0.00000000000E+00  0.98495608049E+03  0.98495608051E+03  0.50400001928E-02 0.  1.
        1   -1    0    0  501    0  0.00000000000E+00  0.00000000000E+00 -0.12286855622E+04  0.12286855622E+04  0.50400001928E-02 0. -1.
    10030    2    1    2    0    0  0.00000000000E+00  0.00000000000E+00 -0.24372948173E+03  0.22136416427E+04  0.22001830065E+04 0.  0.
        4    1    3    3  502    0  0.26870502005E+03 -0.19009233279E+03 -0.11779820398E+04  0.12231029318E+04  0.12699999809E+01 0. -1.
       -4    1    3    3    0  502 -0.26870502005E+03  0.19009233279E+03  0.93425255805E+03  0.99053871096E+03  0.12699999809E+01 0.  1.
</event>
<event>
 5   0  0.1035928E-05  0.2156412E+04  0.7818609E-02  0.8536793E-01
       -2   -1    0    0    0  501  0.00000000000E+00  0.00000000000E+00  0.88780429865E+03  0.88780429866E+03  0.25500000920E-02 0.  1.
        2   -1    0    0  501    0  0.00000000000E+00  0.00000000000E+00 -0.13094420695E+04  0.13094420695E+04  0.25500000920E-02 0. -1.
    10030    2    1    2    0    0  0.00000000000E+00  0.00000000000E+00 -0.42163777081E+03  0.21972463681E+04  0.21564121110E+04 0.  0.
        3    1    3    3  502    0 -0.57735896845E+03  0.41084638526E+03  0.61721343502E+03  0.93972898503E+03  0.10100000352E+00 0.  1.
       -3    1    3    3    0  502  0.57735896845E+03 -0.41084638526E+03 -0.10388512058E+04  0.12575173831E+04  0.10100000352E+00 0. -1.
</event>
<event>
 5   0  0.4794967E-06  0.2199873E+04  0.7818609E-02  0.8518481E-01
        1   -1    0    0  501    0  0.00000000000E+00  0.00000000000E+00  0.80082789572E+03  0.80082789574E+03  0.50400001928E-02 0. -1.
       -1   -1    0    0    0  501  0.00000000000E+00  0.00000000000E+00 -0.15107626083E+04  0.15107626083E+04  0.50400001928E-02 0.  1.
    10030    2    1    2    0    0  0.00000000000E+00  0.00000000000E+00 -0.70993471261E+03  0.23115905041E+04  0.21998734878E+04 0.  0.
        5    1    3    3  502    0 -0.27042600556E+03  0.69682624196E+03  0.49294498292E+03  0.89538476766E+03  0.46999998093E+01 0. -1.
       -5    1    3    3    0  502  0.27042600556E+03 -0.69682624196E+03 -0.12028796955E+04  0.14162057364E+04  0.46999998093E+01 0.  1.
</event>
<event>
 5   0  0.1014015E-05  0.2207185E+04  0.7818609E-02  0.8515444E-01
       -2   -1    0    0    0  501  0.00000000000E+00  0.00000000000E+00  0.85123819252E+03  0.85123819253E+03  0.25500000920E-02 0.  1.
        2   -1    0    0  501    0  0.00000000000E+00  0.00000000000E+00 -0.14307586257E+04  0.14307586257E+04  0.25500000920E-02 0. -1.
    10030    2    1    2    0    0  0.00000000000E+00  0.00000000000E+00 -0.57952043320E+03  0.22819968183E+04  0.22071849823E+04 0.  0.
        1    1    3    3  502    0 -0.18300479072E+03  0.64074547551E+03 -0.11992766518E+04  0.13719730338E+04  0.50400001928E-02 0. -1.
       -1    1    3    3    0  502  0.18300479072E+03 -0.64074547551E+03  0.61975621860E+03  0.91002378449E+03  0.50400001928E-02 0.  1.
</event>
<event>
 5   0  0.4408787E-06  0.2197531E+04  0.7818609E-02  0.8519456E-01
       -1   -1    0    0    0  501  0.00000000000E+00  0.00000000000E+00  0.81698507771E+03  0.81698507773E+03  0.50400001928E-02 0. -1.
        1   -1    0    0  501    0  0.00000000000E+00  0.00000000000E+00 -0.14777331054E+04  0.14777331054E+04  0.50400001928E-02 0.  1.
    10030    2    1    2    0    0  0.00000000000E+00  0.00000000000E+00 -0.66074802770E+03  0.22947181832E+04  0.21975312476E+04 0.  0.
        1    1    3    3  502    0  0.75592951414E+03 -0.65260205602E+03 -0.80886068249E+03  0.12851359763E+04  0.50400001928E-02 0.  1.
       -1    1    3    3    0  502 -0.75592951414E+03  0.65260205602E+03  0.14811265479E+03  0.10095822069E+04  0.50400001928E-02 0. -1.
</event>
<event>
 5   0  0.9963573E-06  0.2196860E+04  0.7818609E-02  0.8519736E-01
       -2   -1    0    0    0  501  0.00000000000E+00  0.00000000000E+00  0.55761031455E+03  0.55761031455E+03  0.25500000920E-02 0.  1.
        2   -1    0    0  501    0  0.00000000000E+00  0.00000000000E+00 -0.21637851893E+04  0.21637851893E+04  0.25500000920E-02 0. -1.
    10030    2    1    2    0    0  0.00000000000E+00  0.00000000000E+00 -0.16061748747E+04  0.27213955038E+04  0.21968604325E+04 0.  0.
        2    1    3    3  502    0  0.41023169912E+03 -0.57431053226E+03 -0.18457326072E+04  0.19760697082E+04  0.25500000920E-02 0. -1.
       -2    1    3    3    0  502 -0.41023169912E+03  0.57431053226E+03  0.23955773247E+03  0.74532579562E+03  0.25500000920E-02 0.  1.
</event>
<event>
 5   0  0.4462201E-06  0.2203303E+04  0.7818609E-02  0.8517054E-01
        1   -1    0    0  501    0  0.00000000000E+00  0.00000000000E+00  0.90006044803E+03  0.90006044804E+03  0.50400001928E-02 0.  1.
       -1   -1    0    0    0  501  0.00000000000E+00  0.00000000000E+00 -0.13483942390E+04  0.13483942390E+04  0.50400001928E-02 0. -1.
    10030    2    1    2    0    0  0.00000000000E+00  0.00000000000E+00 -0.44833379093E+03  0.22484546870E+04  0.22033032681E+04 0.  0.
        3    1    3    3  502    0 -0.20857979257E+03  0.36557293356E+03 -0.12631101683E+04  0.13313889015E+04  0.10100000352E+00 0. -1.
       -3    1    3    3    0  502  0.20857979257E+03 -0.36557293356E+03  0.81477637736E+03  0.91706578550E+03  0.10100000352E+00 0.  1.
</event>
<event>
 5   0  0.9963173E-06  0.2200510E+04  0.7818609E-02  0.8518216E-01
       -2   -1    0    0    0  501  0.00000000000E+00  0.00000000000E+00  0.53324590179E+03  0.53324590179E+03  0.25500000920E-02 0. -1.
        2   -1    0    0  501    0  0.00000000000E+00  0.00000000000E+00 -0.22701751584E+04  0.22701751584E+04  0.25500000920E-02 0.  1.
    10030    2    1    2    0    0  0.00000000000E+00  0.00000000000E+00 -0.17369292566E+04  0.28034210602E+04  0.22005104858E+04 0.  0.
        4    1    3    3  502    0 -0.34404999574E+03 -0.10670499507E+03  0.45599366393E+03  0.58110944751E+03  0.12699999809E+01 0. -1.
       -4    1    3    3    0  502  0.34404999574E+03  0.10670499507E+03 -0.21929229206E+04  0.22223116127E+04  0.12699999809E+01 0.  1.
</event>
<event>
 5   0  0.1014015E-05  0.2206341E+04  0.7818609E-02  0.8515794E-01
       -2   -1    0    0    0  501  0.00000000000E+00  0.00000000000E+00  0.10258381766E+04  0.10258381766E+04  0.25500000920E-02 0. -1.
        2   -1    0    0  501    0  0.00000000000E+00  0.00000000000E+00 -0.11863320017E+04  0.11863320017E+04  0.25500000920E-02 0.  1.
    10030    2    1    2    0    0  0.00000000000E+00  0.00000000000E+00 -0.16049382512E+03  0.22121701784E+04  0.22063405517E+04 0.  0.
        1    1    3    3  502    0  0.26142408077E+02 -0.82925441420E+03  0.64874937807E+03  0.10531961187E+04  0.50400001928E-02 0. -1.
       -1    1    3    3    0  502 -0.26142408077E+02  0.82925441420E+03 -0.80924320319E+03  0.11589740596E+04  0.50400001928E-02 0.  1.
</event>
<event>
 5   0  0.4462201E-06  0.2202613E+04  0.7818609E-02  0.8517342E-01
       -1   -1    0    0    0  501  0.00000000000E+00  0.00000000000E+00  0.70627692837E+03  0.70627692839E+03  0.50400001928E-02 0.  1.
        1   -1    0    0  501    0  0.00000000000E+00  0.00000000000E+00 -0.17172803536E+04  0.17172803536E+04  0.50400001928E-02 0. -1.
    10030    2    1    2    0    0  0.00000000000E+00  0.00000000000E+00 -0.10110034252E+04  0.24235572820E+04  0.22026125336E+04 0.  0.
        3    1    3    3  502    0  0.17336107632E+03  0.62140282062E+03 -0.14876049165E+04  0.16214696809E+04  0.10100000352E+00 0. -1.
       -3    1    3    3    0  502 -0.17336107632E+03 -0.62140282062E+03  0.47660149124E+03  0.80208760114E+03  0.10100000352E+00 0.  1.
</event>
<event>
 5   0  0.4794967E-06  0.2202460E+04  0.7818609E-02  0.8517405E-01
        1   -1    0    0  501    0  0.00000000000E+00  0.00000000000E+00  0.16034899593E+04  0.16034899593E+04  0.50400001928E-02 0. -1.
       -1   -1    0    0    0  501  0.00000000000E+00  0.00000000000E+00 -0.75629273543E+03  0.75629273545E+03  0.50400001928E-02 0.  1.
    10030    2    1    2    0    0  0.00000000000E+00  0.00000000000E+00  0.84719722388E+03  0.23597826948E+04  0.22024602676E+04 0.  0.
        5    1    3    3  502    0  0.28732523136E+03 -0.10339684402E+04  0.15888984601E+03  0.10848569478E+04  0.46999998093E+01 0.  1.
       -5    1    3    3    0  502 -0.28732523136E+03  0.10339684402E+04  0.68830737787E+03  0.12749257470E+04  0.46999998093E+01 0. -1.
</event>
<event>
 5   0  0.4462201E-06  0.2203258E+04  0.7818609E-02  0.8517073E-01
        1   -1    0    0  501    0  0.00000000000E+00  0.00000000000E+00  0.13443546782E+04  0.13443546782E+04  0.50400001928E-02 0. -1.
       -1   -1    0    0    0  501  0.00000000000E+00  0.00000000000E+00 -0.90272766992E+03  0.90272766993E+03  0.50400001928E-02 0.  1.
    10030    2    1    2    0    0  0.00000000000E+00  0.00000000000E+00  0.44162700826E+03  0.22470823481E+04  0.22032577391E+04 0.  0.
        3    1    3    3  502    0  0.33349786500E+03 -0.53503898290E+03  0.11421642776E+04  0.13046174866E+04  0.10100000352E+00 0. -1.
       -3    1    3    3    0  502 -0.33349786500E+03  0.53503898290E+03 -0.70053726935E+03  0.94246486148E+03  0.10100000352E+00 0.  1.
</event>
<event>
 5   0  0.4794967E-06  0.2203394E+04  0.7818609E-02  0.8517017E-01
        1   -1    0    0  501    0  0.00000000000E+00  0.00000000000E+00  0.20618238385E+04  0.20618238385E+04  0.50400001928E-02 0. -1.
       -1   -1    0    0    0  501  0.00000000000E+00  0.00000000000E+00 -0.58867138427E+03  0.58867138429E+03  0.50400001928E-02 0.  1.
    10030    2    1    2    0    0  0.00000000000E+00  0.00000000000E+00  0.14731524543E+04  0.26504952228E+04  0.22033943752E+04 0.  0.
        5    1    3    3  502    0  0.36425398126E+03 -0.52511897006E+03  0.18160429176E+04  0.19252181341E+04  0.46999998093E+01 0. -1.
       -5    1    3    3    0  502 -0.36425398126E+03  0.52511897006E+03 -0.34289046329E+03  0.72527708870E+03  0.46999998093E+01 0.  1.
</event>
<event>
 5   0  0.9963573E-06  0.2196343E+04  0.7818609E-02  0.8519952E-01
        2   -1    0    0  501    0  0.00000000000E+00  0.00000000000E+00  0.15587446475E+04  0.15587446475E+04  0.25500000920E-02 0.  1.
       -2   -1    0    0    0  501  0.00000000000E+00  0.00000000000E+00 -0.77368725368E+03  0.77368725369E+03  0.25500000920E-02 0. -1.
    10030    2    1    2    0    0  0.00000000000E+00  0.00000000000E+00  0.78505739383E+03  0.23324319012E+04  0.21963432023E+04 0.  0.
        2    1    3    3  502    0 -0.63897393730E+03 -0.45793009286E+03  0.12068483594E+04  0.14403022687E+04  0.25500000920E-02 0.  1.
       -2    1    3    3    0  502  0.63897393730E+03  0.45793009286E+03 -0.42179096562E+03  0.89212963250E+03  0.25500000920E-02 0. -1.
</event>
<event>
 5   0  0.4462201E-06  0.2201758E+04  0.7818609E-02  0.8517697E-01
        1   -1    0    0  501    0  0.00000000000E+00  0.00000000000E+00  0.15455674146E+04  0.15455674147E+04  0.50400001928E-02 0. -1.
       -1   -1    0    0    0  501  0.00000000000E+00  0.00000000000E+00 -0.78413572233E+03  0.78413572234E+03  0.50400001928E-02 0.  1.
    10030    2    1    2    0    0  0.00000000000E+00  0.00000000000E+00  0.76143169232E+03  0.23297031370E+04  0.22017580440E+04 0.  0.
        3    1    3    3  502    0 -0.76462370822E+03  0.28646761248E+03 -0.40058353532E+03  0.90949452288E+03  0.10100000352E+00 0.  1.
       -3    1    3    3    0  502  0.76462370822E+03 -0.28646761248E+03  0.11620152276E+04  0.14202086141E+04  0.10100000352E+00 0. -1.
</event>
<event>
 5   0  0.1014015E-05  0.2200780E+04  0.7818609E-02  0.8518103E-01
       -2   -1    0    0    0  501  0.00000000000E+00  0.00000000000E+00  0.69304182161E+03  0.69304182162E+03  0.25500000920E-02 0. -1.
        2   -1    0    0  501    0  0.00000000000E+00  0.00000000000E+00 -0.17471651774E+04  0.17471651775E+04  0.25500000920E-02 0.  1.
    10030    2    1    2    0    0  0.00000000000E+00  0.00000000000E+00 -0.10541233558E+04  0.24402069991E+04  0.22007803500E+04 0.  0.
        1    1    3    3  502    0  0.43297309728E+03 -0.89935115738E+03 -0.13462070728E+02  0.99823816528E+03  0.50400001928E-02 0. -1.
       -1    1    3    3    0  502 -0.43297309728E+03  0.89935115738E+03 -0.10406612851E+04  0.14419688338E+04  0.50400001928E-02 0.  1.
</event>
<event>
 5   0  0.9963173E-06  0.2202398E+04  0.7818609E-02  0.8517431E-01
        2   -1    0    0  501    0  0.00000000000E+00  0.00000000000E+00  0.15457532418E+04  0.15457532418E+04  0.25500000920E-02 0.  1.
       -2   -1    0    0    0  501  0.00000000000E+00  0.00000000000E+00 -0.78449696987E+03  0.78449696987E+03  0.25500000920E-02 0. -1.
    10030    2    1    2    0    0  0.00000000000E+00  0.00000000000E+00  0.76125627190E+03  0.23302502116E+04  0.22023975430E+04 0.  0.
        4    1    3    3  502    0 -0.20119429376E+02 -0.44750906719E+03 -0.68373598046E+03  0.81741400803E+03  0.12699999809E+01 0. -1.
       -4    1    3    3    0  502  0.20119429376E+02  0.44750906719E+03  0.14449922524E+04  0.15128362036E+04  0.12699999809E+01 0.  1.
</event>
<event>
 5   0  0.4462201E-06  0.2189484E+04  0.7818609E-02  0.8522818E-01
        1   -1    0    0  501    0  0.00000000000E+00  0.00000000000E+00  0.20760003960E+04  0.20760003960E+04  0.50400001928E-02 0. -1.
       -1   -1    0    0    0  501  0.00000000000E+00  0.00000000000E+00 -0.57729264495E+03  0.57729264497E+03  0.50400001928E-02 0.  1.
    10030    2    1    2    0    0  0.00000000000E+00  0.00000000000E+00  0.14987077510E+04  0.26532930410E+04  0.21894837378E+04 0.  0.
        3    1    3    3  502    0 -0.92339462581E+03 -0.56189295861E+03  0.53918374924E+03  0.12079323067E+04  0.10100000352E+00 0. -1.
       -3    1    3    3    0  502  0.92339462581E+03  0.56189295861E+03  0.95952400179E+03  0.14453607343E+04  0.10100000352E+00 0.  1.
</event>
<event>
 5   0  0.1035928E-05  0.2203108E+04  0.7818609E-02  0.8517136E-01
       -2   -1    0    0    0  501  0.00000000000E+00  0.00000000000E+00  0.13273436548E+04  0.13273436548E+04  0.25500000920E-02 0. -1.
        2   -1    0    0  501    0  0.00000000000E+00  0.00000000000E+00 -0.91417271961E+03  0.91417271961E+03  0.25500000920E-02 0.  1.
    10030    2    1    2    0    0  0.00000000000E+00  0.00000000000E+00  0.41317093520E+03  0.22415163744E+04  0.22031081306E+04 0.  0.
        3    1    3    3  502    0  0.12542370277E+03 -0.21039410402E+03  0.12992848577E+04  0.13221716741E+04  0.10100000352E+00 0. -1.
       -3    1    3    3    0  502 -0.12542370277E+03  0.21039410402E+03 -0.88611392247E+03  0.91934470033E+03  0.10100000352E+00 0.  1.
</event>
<event>
 5   0  0.1035928E-05  0.2199951E+04  0.7818609E-02  0.8518449E-01
       -2   -1    0    0    0  501  0.00000000000E+00  0.00000000000E+00  0.48398381502E+03  0.48398381503E+03  0.25500000920E-02 0. -1.
        2   -1    0    0  501    0  0.00000000000E+00  0.00000000000E+00 -0.24999719797E+04  0.24999719797E+04  0.25500000920E-02 0.  1.
    10030    2    1    2    0    0  0.00000000000E+00  0.00000000000E+00 -0.20159881646E+04  0.29839557947E+04  0.21999508869E+04 0.  0.
        3    1    3    3  502    0  0.95703477507E+03  0.29429042597E+03 -0.16257379338E+04  0.19093313634E+04  0.10100000352E+00 0. -1.
       -3    1    3    3    0  502 -0.95703477507E+03 -0.29429042597E+03 -0.39025023082E+03  0.10746244313E+04  0.10100000352E+00 0.  1.
</event>
<event>
 5   0  0.4630615E-06  0.2202889E+04  0.7818609E-02  0.8517227E-01
       -1   -1    0    0    0  501  0.00000000000E+00  0.00000000000E+00  0.12709755559E+04  0.12709755559E+04  0.50400001928E-02 0. -1.
        1   -1    0    0  501    0  0.00000000000E+00  0.00000000000E+00 -0.95452626082E+03  0.95452626083E+03  0.50400001928E-02 0.  1.
    10030    2    1    2    0    0  0.00000000000E+00  0.00000000000E+00  0.31644929507E+03  0.22255018167E+04  0.22028885991E+04 0.  0.
        2    1    3    3  502    0  0.64274825434E+03  0.53522186163E+03  0.88223446010E+03  0.12156995526E+04  0.25500000920E-02 0. -1.
       -2    1    3    3    0  502 -0.64274825434E+03 -0.53522186163E+03 -0.56578516503E+03  0.10098022641E+04  0.25500000920E-02 0.  1.
</event>
<event>
 5   0  0.4794967E-06  0.2201611E+04  0.7818609E-02  0.8517758E-01
       -1   -1    0    0    0  501  0.00000000000E+00  0.00000000000E+00  0.18923790318E+04  0.18923790318E+04  0.50400001928E-02 0.  1.
        1   -1    0    0  501    0  0.00000000000E+00  0.00000000000E+00 -0.64034372852E+03  0.64034372854E+03  0.50400001928E-02 0. -1.
    10030    2    1    2    0    0  0.00000000000E+00  0.00000000000E+00  0.12520353033E+04  0.25327227604E+04  0.22016112691E+04 0.  0.
        5    1    3    3  502    0  0.29625409105E+03  0.15502319608E+03 -0.58050070875E+03  0.66992674275E+03  0.46999998093E+01 0. -1.
       -5    1    3    3    0  502 -0.29625409105E+03 -0.15502319608E+03  0.18325360121E+04  0.18627960176E+04  0.46999998093E+01 0.  1.
</event>
<event>
 5   0  0.4408787E-06  0.2193914E+04  0.7818609E-02  0.8520965E-01
        1   -1    0    0  501    0  0.00000000000E+00  0.00000000000E+00  0.10785408017E+04  0.10785408017E+04  0.50400001928E-02 0. -1.
       -1   -1    0    0    0  501  0.00000000000E+00  0.00000000000E+00 -0.11156880565E+04  0.11156880565E+04  0.50400001928E-02 0.  1.
    10030    2    1    2    0    0  0.00000000000E+00  0.00000000000E+00 -0.37147254781E+02  0.21942288583E+04  0.21939143930E+04 0.  0.
        1    1    3    3  502    0 -0.47612381210E+03 -0.91957390002E+03  0.34342444839E+03  0.10909859732E+04  0.50400001928E-02 0.  1.
       -1    1    3    3    0  502  0.47612381210E+03  0.91957390002E+03 -0.38057170317E+03  0.11032428850E+04  0.50400001928E-02 0. -1.
</event>
<event>
 5   0  0.1015876E-05  0.2196559E+04  0.7818609E-02  0.8519862E-01
        2   -1    0    0  501    0  0.00000000000E+00  0.00000000000E+00  0.11025998181E+04  0.11025998181E+04  0.25500000920E-02 0. -1.
       -2   -1    0    0    0  501  0.00000000000E+00  0.00000000000E+00 -0.10939762170E+04  0.10939762170E+04  0.25500000920E-02 0.  1.
    10030    2    1    2    0    0  0.00000000000E+00  0.00000000000E+00  0.86236010829E+01  0.21965760350E+04  0.21965591072E+04 0.  0.
        5    1    3    3  502    0 -0.58890673527E+03 -0.22931500640E+03 -0.89391523542E+03  0.10947616421E+04  0.46999998093E+01 0.  1.
       -5    1    3    3    0  502  0.58890673527E+03  0.22931500640E+03  0.90253883650E+03  0.11018143929E+04  0.46999998093E+01 0. -1.
</event>
<event>
 5   0  0.1035928E-05  0.2197541E+04  0.7818609E-02  0.8519452E-01
       -2   -1    0    0    0  501  0.00000000000E+00  0.00000000000E+00  0.99733328929E+03  0.99733328929E+03  0.25500000920E-02 0.  1.
        2   -1    0    0  501    0  0.00000000000E+00  0.00000000000E+00 -0.12105252103E+04  0.12105252103E+04  0.25500000920E-02 0. -1.
    10030    2    1    2    0    0  0.00000000000E+00  0.00000000000E+00 -0.21319192104E+03  0.22078584996E+04  0.21975414351E+04 0.  0.
        3    1    3    3  502    0  0.26725630461E+03  0.86774224021E+03  0.51509386113E+03  0.10438985697E+04  0.10100000352E+00 0.  1.
       -3    1    3    3    0  502 -0.26725630461E+03 -0.86774224021E+03 -0.72828578217E+03  0.11639599299E+04  0.10100000352E+00 0. -1.
</event>
<event>
 5   0  0.9963173E-06  0.2199997E+04  0.7818609E-02  0.8518429E-01
       -2   -1    0    0    0  501  0.00000000000E+00  0.00000000000E+00  0.49454495480E+03  0.49454495480E+03  0.25500000920E-02 0.  1.
        2   -1    0    0  501    0  0.00000000000E+00  0.00000000000E+00 -0.24466874943E+04  0.24466874943E+04  0.25500000920E-02 0. -1.
    10030    2    1    2    0    0  0.00000000000E+00  0.00000000000E+00 -0.19521425395E+04  0.29412324491E+04  0.21999972330E+04 0.  0.
        4    1    3    3  502    0 -0.27986336236E+03 -0.12015967345E+03 -0.23891917407E+04  0.24085266524E+04  0.12699999809E+01 0. -1.
       -4    1    3    3    0  502  0.27986336236E+03  0.12015967345E+03  0.43704920116E+03  0.53270579671E+03  0.12699999809E+01 0.  1.
</event>
<event>
 5   0  0.1035928E-05  0.2203054E+04  0.7818609E-02  0.8517158E-01
       -2   -1    0    0    0  501  0.00000000000E+00  0.00000000000E+00  0.79723959364E+03  0.79723959364E+03  0.25500000920E-02 0. -1.
        2   -1    0    0  501    0  0.00000000000E+00  0.00000000000E+00 -0.15219532970E+04  0.15219532970E+04  0.25500000920E-02 0.  1.
    10030    2    1    2    0    0  0.00000000000E+00  0.00000000000E+00 -0.72471370332E+03  0.23191928906E+04  0.22030537243E+04 0.  0.
        3    1    3    3  502    0  0.10412882077E+04  0.28236804600E+03 -0.12850054743E+03  0.10865197862E+04  0.10100000352E+00 0.  1.
       -3    1    3    3    0  502 -0.10412882077E+04 -0.28236804600E+03 -0.59621315588E+03  0.12326731044E+04  0.10100000352E+00 0. -1.
</event>
<event>
 5   0  0.4794967E-06  0.2200366E+04  0.7818609E-02  0.8518276E-01
        1   -1    0    0  501    0  0.00000000000E+00  0.00000000000E+00  0.97926582789E+03  0.97926582790E+03  0.50400001928E-02 0. -1.
       -1   -1    0    0    0  501  0.00000000000E+00  0.00000000000E+00 -0.12360305414E+04  0.12360305414E+04  0.50400001928E-02 0.  1.
    10030    2    1    2    0    0  0.00000000000E+00  0.00000000000E+00 -0.25676471355E+03  0.22152963693E+04  0.22003658527E+04 0.  0.
        5    1    3    3  502    0 -0.54892355920E+03  0.35731900336E+03  0.76157638557E+03  0.10044972001E+04  0.46999998093E+01 0. -1.
       -5    1    3    3    0  502  0.54892355920E+03 -0.35731900336E+03 -0.10183410991E+04  0.12107991692E+04  0.46999998093E+01 0.  1.
</event>
<event>
 5   0  0.4309945E-06  0.2191905E+04  0.7818609E-02  0.8521805E-01
        1   -1    0    0  501    0  0.00000000000E+00  0.00000000000E+00  0.86509157577E+03  0.86509157579E+03  0.50400001928E-02 0. -1.
       -1   -1    0    0    0  501  0.00000000000E+00  0.00000000000E+00 -0.13884210716E+04  0.13884210716E+04  0.50400001928E-02 0.  1.
    10030    2    1    2    0    0  0.00000000000E+00  0.00000000000E+00 -0.52332949586E+03  0.22535126474E+04  0.21919045351E+04 0.  0.
        4    1    3    3  502    0  0.76137131491E+03 -0.78386831246E+03 -0.34752215326E+03  0.11466948462E+04  0.12699999809E+01 0. -1.
       -4    1    3    3    0  502 -0.76137131491E+03  0.78386831246E+03 -0.17580734260E+03  0.11068178012E+04  0.12699999809E+01 0.  1.
</event>
<event>
 5   0  0.4794967E-06  0.2202409E+04  0.7818609E-02  0.8517426E-01
        1   -1    0    0  501    0  0.00000000000E+00  0.00000000000E+00  0.60442058018E+03  0.60442058020E+03  0.50400001928E-02 0.  1.
       -1   -1    0    0    0  501  0.00000000000E+00  0.00000000000E+00 -0.20063038037E+04  0.20063038037E+04  0.50400001928E-02 0. -1.
    10030    2    1    2    0    0  0.00000000000E+00  0.00000000000E+00 -0.14018832235E+04  0.26107243839E+04  0.22024089621E+04 0.  0.
        5    1    3    3  502    0 -0.65861340122E+03  0.85096786052E+03 -0.97821079653E+03  0.14542476970E+04  0.46999998093E+01 0. -1.
       -5    1    3    3    0  502  0.65861340122E+03 -0.85096786052E+03 -0.42367242701E+03  0.11564766869E+04  0.46999998093E+01 0.  1.
</event>
<event>
 5   0  0.4309945E-06  0.2202286E+04  0.7818609E-02  0.8517477E-01
       -1   -1    0    0    0  501  0.00000000000E+00  0.00000000000E+00  0.14190373790E+04  0.14190373790E+04  0.50400001928E-02 0.  1.
        1   -1    0    0  501    0  0.00000000000E+00  0.00000000000E+00 -0.85446358127E+03  0.85446358128E+03  0.50400001928E-02 0. -1.
    10030    2    1    2    0    0  0.00000000000E+00  0.00000000000E+00  0.56457379769E+03  0.22735009602E+04  0.22022858677E+04 0.  0.
        4    1    3    3  502    0  0.39078389483E+03 -0.57313424692E+03  0.11651125570E+04  0.13559807524E+04  0.12699999809E+01 0.  1.
       -4    1    3    3    0  502 -0.39078389483E+03  0.57313424692E+03 -0.60053875933E+03  0.91752020785E+03  0.12699999809E+01 0. -1.
</event>
<event>
 5   0  0.1035928E-05  0.2187712E+04  0.7818609E-02  0.8523560E-01
       -2   -1    0    0    0  501  0.00000000000E+00  0.00000000000E+00  0.17866792797E+04  0.17866792797E+04  0.25500000920E-02 0.  1.
        2   -1    0    0  501    0  0.00000000000E+00  0.00000000000E+00 -0.66968959994E+03  0.66968959995E+03  0.25500000920E-02 0. -1.
    10030    2    1    2    0    0  0.00000000000E+00  0.00000000000E+00  0.11169896798E+04  0.24563688797E+04  0.21877116191E+04 0.  0.
        3    1    3    3  502    0 -0.10309401143E+04 -0.13135939746E+03  0.17537760184E+03  0.10539687491E+04  0.10100000352E+00 0.  1.
       -3    1    3    3    0  502  0.10309401143E+04  0.13135939746E+03  0.94161207795E+03  0.14024001306E+04  0.10100000352E+00 0. -1.
</event>
<event>
 5   0  0.4462201E-06  0.2200170E+04  0.7818609E-02  0.8518357E-01
       -1   -1    0    0    0  501  0.00000000000E+00  0.00000000000E+00  0.99734097729E+03  0.99734097730E+03  0.50400001928E-02 0. -1.
        1   -1    0    0  501    0  0.00000000000E+00  0.00000000000E+00 -0.12134139312E+04  0.12134139312E+04  0.50400001928E-02 0.  1.
    10030    2    1    2    0    0  0.00000000000E+00  0.00000000000E+00 -0.21607295387E+03  0.22107549085E+04  0.22001703898E+04 0.  0.
        3    1    3    3  502    0 -0.10931744368E+04  0.41292207574E+02 -0.22457733182E+03  0.11167678289E+04  0.10100000352E+00 0.  1.
       -3    1    3    3    0  502  0.10931744368E+04 -0.41292207574E+02  0.85043779446E+01  0.10939870795E+04  0.10100000352E+00 0. -1.
</event>
<event>
 5   0  0.1015876E-05  0.2199788E+04  0.7818609E-02  0.8518516E-01
       -2   -1    0    0    0  501  0.00000000000E+00  0.00000000000E+00  0.54377844036E+03  0.54377844037E+03  0.25500000920E-02 0.  1.
        2   -1    0    0  501    0  0.00000000000E+00  0.00000000000E+00 -0.22247421594E+04  0.22247421594E+04  0.25500000920E-02 0. -1.
    10030    2    1    2    0    0  0.00000000000E+00  0.00000000000E+00 -0.16809637190E+04  0.27685205997E+04  0.21997880095E+04 0.  0.
        5    1    3    3  502    0  0.82481408574E+03 -0.68312873121E+03 -0.11557745519E+04  0.15756966854E+04  0.46999998093E+01 0. -1.
       -5    1    3    3    0  502 -0.82481408574E+03  0.68312873121E+03 -0.52518916705E+03  0.11928239143E+04  0.46999998093E+01 0.  1.
</event>
<event>
 5   0  0.1035928E-05  0.2199053E+04  0.7818609E-02  0.8518822E-01
       -2   -1    0    0    0  501  0.00000000000E+00  0.00000000000E+00  0.55838805830E+03  0.55838805830E+03  0.25500000920E-02 0.  1.
        2   -1    0    0  501    0  0.00000000000E+00  0.00000000000E+00 -0.21650872098E+04  0.21650872098E+04  0.25500000920E-02 0. -1.
    10030    2    1    2    0    0  0.00000000000E+00  0.00000000000E+00 -0.16066991515E+04  0.27234752681E+04  0.21990532900E+04 0.  0.
        3    1    3    3  502    0  0.73496382119E+02  0.10961552067E+04 -0.74795108492E+03  0.13290556012E+04  0.10100000352E+00 0. -1.
       -3    1    3    3    0  502 -0.73496382119E+02 -0.10961552067E+04 -0.85874806653E+03  0.13944196669E+04  0.10100000352E+00 0.  1.
</event>
<event>
 5   0  0.4462201E-06  0.2202575E+04  0.7818609E-02  0.8517357E-01
        1   -1    0    0  501    0  0.00000000000E+00  0.00000000000E+00  0.10877650871E+04  0.10877650871E+04  0.50400001928E-02 0. -1.
       -1   -1    0    0    0  501  0.00000000000E+00  0.00000000000E+00 -0.11149781564E+04  0.11149781564E+04  0.50400001928E-02 0.  1.
    10030    2    1    2    0    0  0.00000000000E+00  0.00000000000E+00 -0.27213069219E+02  0.22027432435E+04  0.22025751396E+04 0.  0.
        3    1    3    3  502    0 -0.36931794495E+03  0.79171349881E+03  0.65698792392E+03  0.10930869824E+04  0.10100000352E+00 0. -1.
       -3    1    3    3    0  502  0.36931794495E+03 -0.79171349881E+03 -0.68420099314E+03  0.11096562611E+04  0.10100000352E+00 0.  1.
</event>
<event>
 5   0  0.9963173E-06  0.2201010E+04  0.7818609E-02  0.8518008E-01
       -2   -1    0    0    0  501  0.00000000000E+00  0.00000000000E+00  0.10563965797E+04  0.10563965797E+04  0.25500000920E-02 0.  1.
        2   -1    0    0  501    0  0.00000000000E+00  0.00000000000E+00 -0.11464551992E+04  0.11464551992E+04  0.25500000920E-02 0. -1.
    10030    2    1    2    0    0  0.00000000000E+00  0.00000000000E+00 -0.90058619501E+02  0.22028517790E+04  0.22010100875E+04 0.  0.
        4    1    3    3  502    0 -0.87802028674E+03  0.66271817130E+03 -0.13463421331E+02  0.11001353894E+04  0.12699999809E+01 0.  1.
       -4    1    3    3    0  502  0.87802028674E+03 -0.66271817130E+03 -0.76595198170E+02  0.11027163895E+04  0.12699999809E+01 0. -1.
</event>
<event>
 5   0  0.3546750E-06  0.2201434E+04  0.7818609E-02  0.8517832E-01
       -4   -1    0    0    0  501  0.00000000000E+00  0.00000000000E+00  0.12685737162E+04  0.12685743519E+04  0.12699999809E+01 0. -1.
        4   -1    0    0  501    0  0.00000000000E+00  0.00000000000E+00 -0.95506962393E+03  0.95507046832E+03  0.12699999809E+01 0.  1.
    10030    2    1    2    0    0  0.00000000000E+00  0.00000000000E+00  0.31350409229E+03  0.22236448202E+04  0.22014339578E+04 0.  0.
        2    1    3    3  502    0  0.24760399148E+03 -0.23826454436E+03  0.12130080218E+04  0.12607403344E+04  0.25500000920E-02 0. -1.
       -2    1    3    3    0  502 -0.24760399148E+03  0.23826454436E+03 -0.89950392953E+03  0.96290448589E+03  0.25500000920E-02 0.  1.
</event>
<event>
 5   0  0.4630615E-06  0.2200318E+04  0.7818609E-02  0.8518296E-01
       -1   -1    0    0    0  501  0.00000000000E+00  0.00000000000E+00  0.53124464421E+03  0.53124464424E+03  0.50400001928E-02 0.  1.
        1   -1    0    0  501    0  0.00000000000E+00  0.00000000000E+00 -0.22783284418E+04  0.22783284418E+04  0.50400001928E-02 0. -1.
    10030    2    1    2    0    0  0.00000000000E+00  0.00000000000E+00 -0.17470837976E+04  0.28095730861E+04  0.22003179611E+04 0.  0.
        2    1    3    3  502    0  0.46009321075E+02 -0.75640959258E+03 -0.18919219674E+04  0.20380483458E+04  0.25500000920E-02 0. -1.
       -2    1    3    3    0  502 -0.46009321075E+02  0.75640959258E+03  0.14483816974E+03  0.77152474024E+03  0.25500000920E-02 0.  1.
</event>
<event>
 5   0  0.4309945E-06  0.2152302E+04  0.7818609E-02  0.8538547E-01
        1   -1    0    0  501    0  0.00000000000E+00  0.00000000000E+00  0.11651119080E+04  0.11651119080E+04  0.50400001928E-02 0.  1.
       -1   -1    0    0    0  501  0.00000000000E+00  0.00000000000E+00 -0.99398299479E+03  0.99398299480E+03  0.50400001928E-02 0. -1.
    10030    2    1    2    0    0  0.00000000000E+00  0.00000000000E+00  0.17112891320E+03  0.21590949028E+04  0.21523024170E+04 0.  0.
        4    1    3    3  502    0 -0.76353145924E+03 -0.34863071934E+02 -0.67439093017E+03  0.10193137214E+04  0.12699999809E+01 0. -1.
       -4    1    3    3    0  502  0.76353145924E+03  0.34863071934E+02  0.84551984337E+03  0.11397811814E+04  0.12699999809E+01 0.  1.
</event>
<event>
 5   0  0.4462201E-06  0.2197949E+04  0.7818609E-02  0.8519282E-01
       -1   -1    0    0    0  501  0.00000000000E+00  0.00000000000E+00  0.92735267098E+03  0.92735267099E+03  0.50400001928E-02 0. -1.
        1   -1    0    0  501    0  0.00000000000E+00  0.00000000000E+00 -0.13023579241E+04  0.13023579241E+04  0.50400001928E-02 0.  1.
    10030    2    1    2    0    0  0.00000000000E+00  0.00000000000E+00 -0.37500525308E+03  0.22297105951E+04  0.21979491345E+04 0.  0.
        3    1    3    3  502    0  0.11847435740E+03 -0.45760238019E+03  0.81895752101E+03  0.94558317621E+03  0.10100000352E+00 0. -1.
       -3    1    3    3    0  502 -0.11847435740E+03  0.45760238019E+03 -0.11939627741E+04  0.12841274188E+04  0.10100000352E+00 0.  1.
</event>
<event>
 5   0  0.4794967E-06  0.2200225E+04  0.7818609E-02  0.8518334E-01
        1   -1    0    0  501    0  0.00000000000E+00  0.00000000000E+00  0.10631944622E+04  0.10631944622E+04  0.50400001928E-02 0. -1.
       -1   -1    0    0    0  501  0.00000000000E+00  0.00000000000E+00 -0.11383124987E+04  0.11383124987E+04  0.50400001928E-02 0.  1.
    10030    2    1    2    0    0  0.00000000000E+00  0.00000000000E+00 -0.75118036489E+02  0.22015069609E+04  0.22002250292E+04 0.  0.
        5    1    3    3  502    0 -0.35762892129E+03 -0.57613801128E+03  0.82919738806E+03  0.10711787207E+04  0.46999998093E+01 0. -1.
       -5    1    3    3    0  502  0.35762892129E+03  0.57613801128E+03 -0.90431542455E+03  0.11303282401E+04  0.46999998093E+01 0.  1.
</event>
<event>
 5   0  0.1035928E-05  0.2201709E+04  0.7818609E-02  0.8517717E-01
        2   -1    0    0  501    0  0.00000000000E+00  0.00000000000E+00  0.13340358755E+04  0.13340358755E+04  0.25500000920E-02 0.  1.
       -2   -1    0    0    0  501  0.00000000000E+00  0.00000000000E+00 -0.90843197279E+03  0.90843197280E+03  0.25500000920E-02 0. -1.
    10030    2    1    2    0    0  0.00000000000E+00  0.00000000000E+00  0.42560390274E+03  0.22424678483E+04  0.22017091926E+04 0.  0.
        3    1    3    3  502    0  0.95879119604E+03 -0.47294268418E+03 -0.54594849049E+02  0.10704839783E+04  0.10100000352E+00 0.  1.
       -3    1    3    3    0  502 -0.95879119604E+03  0.47294268418E+03  0.48019875179E+03  0.11719838700E+04  0.10100000352E+00 0. -1.
</event>
<event>
 5   0  0.4408787E-06  0.2216855E+04  0.7818609E-02  0.8511445E-01
       -1   -1    0    0    0  501  0.00000000000E+00  0.00000000000E+00  0.46960307294E+03  0.46960307297E+03  0.50400001928E-02 0.  1.
        1   -1    0    0  501    0  0.00000000000E+00  0.00000000000E+00 -0.26162756352E+04  0.26162756352E+04  0.50400001928E-02 0. -1.
    10030    2    1    2    0    0  0.00000000000E+00  0.00000000000E+00 -0.21466725622E+04  0.30858787082E+04  0.22168545987E+04 0.  0.
        1    1    3    3  502    0 -0.93457959369E+03 -0.61837625702E+02 -0.18984436964E+04  0.21169202577E+04  0.50400001928E-02 0. -1.
       -1    1    3    3    0  502  0.93457959369E+03  0.61837625702E+02 -0.24822886582E+03  0.96895845048E+03  0.50400001928E-02 0.  1.
</event>
<event>
 5   0  0.1014015E-05  0.2197185E+04  0.7818609E-02  0.8519601E-01
        2   -1    0    0  501    0  0.00000000000E+00  0.00000000000E+00  0.19479429272E+04  0.19479429272E+04  0.25500000920E-02 0.  1.
       -2   -1    0    0    0  501  0.00000000000E+00  0.00000000000E+00 -0.61957963260E+03  0.61957963261E+03  0.25500000920E-02 0. -1.
    10030    2    1    2    0    0  0.00000000000E+00  0.00000000000E+00  0.13283632946E+04  0.25675225599E+04  0.21971852568E+04 0.  0.
        1    1    3    3  502    0  0.22169339100E+03 -0.10657316914E+04  0.49096092950E+03  0.11941417973E+04  0.50400001928E-02 0.  1.
       -1    1    3    3    0  502 -0.22169339100E+03  0.10657316914E+04  0.83740236514E+03  0.13733807625E+04  0.50400001928E-02 0. -1.
</event>
<event>
 5   0  0.4462201E-06  0.2205209E+04  0.7818609E-02  0.8516263E-01
        1   -1    0    0  501    0  0.00000000000E+00  0.00000000000E+00  0.13803175762E+04  0.13803175762E+04  0.50400001928E-02 0.  1.
       -1   -1    0    0    0  501  0.00000000000E+00  0.00000000000E+00 -0.88076618373E+03  0.88076618374E+03  0.50400001928E-02 0. -1.
    10030    2    1    2    0    0  0.00000000000E+00  0.00000000000E+00  0.49955139245E+03  0.22610837599E+04  0.22052093270E+04 0.  0.
        3    1    3    3  502    0 -0.57033131185E+03  0.84599649214E+03  0.67839762189E+03  0.12252392475E+04  0.10100000352E+00 0.  1.
       -3    1    3    3    0  502  0.57033131185E+03 -0.84599649214E+03 -0.17884622944E+03  0.10358445125E+04  0.10100000352E+00 0. -1.
</event>
<event>
 5   0  0.4630615E-06  0.2202264E+04  0.7818609E-02  0.8517487E-01
        1   -1    0    0  501    0  0.00000000000E+00  0.00000000000E+00  0.21635724998E+04  0.21635724998E+04  0.50400001928E-02 0.  1.
       -1   -1    0    0    0  501  0.00000000000E+00  0.00000000000E+00 -0.56041169343E+03  0.56041169345E+03  0.50400001928E-02 0. -1.
    10030    2    1    2    0    0  0.00000000000E+00  0.00000000000E+00  0.16031608064E+04  0.27239841932E+04  0.22022636795E+04 0.  0.
        2    1    3    3  502    0 -0.69910297942E+03  0.50058751655E+03  0.16524021578E+04  0.18627307182E+04  0.25500000920E-02 0.  1.
       -2    1    3    3    0  502  0.69910297942E+03 -0.50058751655E+03 -0.49241351415E+02  0.86125347503E+03  0.25500000920E-02 0. -1.
</event>
<event>
 5   0  0.4794967E-06  0.2199457E+04  0.7818609E-02  0.8518654E-01
        1   -1    0    0  501    0  0.00000000000E+00  0.00000000000E+00  0.18057470405E+04  0.18057470405E+04  0.50400001928E-02 0. -1.
       -1   -1    0    0    0  501  0.00000000000E+00  0.00000000000E+00 -0.66975214871E+03  0.66975214873E+03  0.50400001928E-02 0.  1.
    10030    2    1    2    0    0  0.00000000000E+00  0.00000000000E+00  0.11359948917E+04  0.24754991892E+04  0.21994571698E+04 0.  0.
        5    1    3    3  502    0 -0.83326455335E+03  0.19329099652E+03  0.13458910357E+04  0.15947212907E+04  0.46999998093E+01 0. -1.
       -5    1    3    3    0  502  0.83326455335E+03 -0.19329099652E+03 -0.20989614392E+03  0.88077789847E+03  0.46999998093E+01 0.  1.
</event>
<event>
 5   0  0.1015876E-05  0.2199327E+04  0.7818609E-02  0.8518708E-01
       -2   -1    0    0    0  501  0.00000000000E+00  0.00000000000E+00  0.62196951193E+03  0.62196951194E+03  0.25500000920E-02 0. -1.
        2   -1    0    0  501    0  0.00000000000E+00  0.00000000000E+00 -0.19442434513E+04  0.19442434513E+04  0.25500000920E-02 0.  1.
    10030    2    1    2    0    0  0.00000000000E+00  0.00000000000E+00 -0.13222739394E+04  0.25662129632E+04  0.21993273067E+04 0.  0.
        5    1    3    3  502    0  0.90453549599E+03 -0.56503326117E+03 -0.97377216085E+03  0.14441957488E+04  0.46999998093E+01 0.  1.
       -5    1    3    3    0  502 -0.90453549599E+03  0.56503326117E+03 -0.34850177850E+03  0.11220172144E+04  0.46999998093E+01 0. -1.
</event>
<event>
 5   0  0.1015876E-05  0.2199713E+04  0.7818609E-02  0.8518548E-01
       -2   -1    0    0    0  501  0.00000000000E+00  0.00000000000E+00  0.55834690922E+03  0.55834690922E+03  0.25500000920E-02 0.  1.
        2   -1    0    0  501    0  0.00000000000E+00  0.00000000000E+00 -0.21665459289E+04  0.21665459289E+04  0.25500000920E-02 0. -1.
    10030    2    1    2    0    0  0.00000000000E+00  0.00000000000E+00 -0.16081990197E+04  0.27248928381E+04  0.21997129113E+04 0.  0.
        5    1    3    3  502    0 -0.43950901977E+03 -0.69119778100E+03  0.10512862531E+03  0.82583089600E+03  0.46999998093E+01 0.  1.
       -5    1    3    3    0  502  0.43950901977E+03  0.69119778100E+03 -0.17133276450E+04  0.18990619421E+04  0.46999998093E+01 0. -1.
</event>
<event>
 5   0  0.1015876E-05  0.2199491E+04  0.7818609E-02  0.8518640E-01
        2   -1    0    0  501    0  0.00000000000E+00  0.00000000000E+00  0.11584764056E+04  0.11584764056E+04  0.25500000920E-02 0. -1.
       -2   -1    0    0    0  501  0.00000000000E+00  0.00000000000E+00 -0.10439920190E+04  0.10439920190E+04  0.25500000920E-02 0.  1.
    10030    2    1    2    0    0  0.00000000000E+00  0.00000000000E+00  0.11448438656E+03  0.22024684246E+04  0.21994909608E+04 0.  0.
        5    1    3    3  502    0  0.10161053881E+04 -0.26074944897E+03 -0.27329190418E+03  0.10840530382E+04  0.46999998093E+01 0.  1.
       -5    1    3    3    0  502 -0.10161053881E+04  0.26074944897E+03  0.38777629073E+03  0.11184153864E+04  0.46999998093E+01 0. -1.
</event>
<event>
 5   0  0.4309945E-06  0.2200027E+04  0.7818609E-02  0.8518417E-01
       -1   -1    0    0    0  501  0.00000000000E+00  0.00000000000E+00  0.57853847236E+03  0.57853847238E+03  0.50400001928E-02 0.  1.
        1   -1    0    0  501    0  0.00000000000E+00  0.00000000000E+00 -0.20915280119E+04  0.20915280119E+04  0.50400001928E-02 0. -1.
    10030    2    1    2    0    0  0.00000000000E+00  0.00000000000E+00 -0.15129895395E+04  0.26700664842E+04  0.22000267461E+04 0.  0.
        4    1    3    3  502    0  0.58514704093E+03 -0.59757425104E+02  0.37165306579E+03  0.69576980645E+03  0.12699999809E+01 0.  1.
       -4    1    3    3    0  502 -0.58514704093E+03  0.59757425104E+02 -0.18846426053E+04  0.19742966778E+04  0.12699999809E+01 0. -1.
</event>
<event>
 5   0  0.9963573E-06  0.2201248E+04  0.7818609E-02  0.8517909E-01
        2   -1    0    0  501    0  0.00000000000E+00  0.00000000000E+00  0.11575372622E+04  0.11575372622E+04  0.25500000920E-02 0.  1.
       -2   -1    0    0    0  501  0.00000000000E+00  0.00000000000E+00 -0.10465088222E+04  0.10465088222E+04  0.25500000920E-02 0. -1.
    10030    2    1    2    0    0  0.00000000000E+00  0.00000000000E+00  0.11102844000E+03  0.22040460845E+04  0.22012477889E+04 0.  0.
        2    1    3    3  502    0 -0.56072255561E+03 -0.80691063005E+02 -0.88932307056E+03  0.10544270273E+04  0.25500000920E-02 0. -1.
       -2    1    3    3    0  502  0.56072255561E+03  0.80691063005E+02  0.10003515106E+04  0.11496190572E+04  0.25500000920E-02 0.  1.
</event>
<event>
 5   0  0.1035928E-05  0.2195320E+04  0.7818609E-02  0.8520379E-01
       -2   -1    0    0    0  501  0.00000000000E+00  0.00000000000E+00  0.56634849973E+03  0.56634849974E+03  0.25500000920E-02 0. -1.
        2   -1    0    0  501    0  0.00000000000E+00  0.00000000000E+00 -0.21274132752E+04  0.21274132752E+04  0.25500000920E-02 0.  1.
    10030    2    1    2    0    0  0.00000000000E+00  0.00000000000E+00 -0.15610647755E+04  0.26937617750E+04  0.21953198553E+04 0.  0.
        3    1    3    3  502    0  0.46811454737E+03  0.80978217484E+03 -0.14853949918E+04  0.17553565712E+04  0.10100000352E+00 0.  1.
       -3    1    3    3    0  502 -0.46811454737E+03 -0.80978217484E+03 -0.75669783710E+02  0.93840520380E+03  0.10100000352E+00 0. -1.
</event>
<event>
 5   0  0.4408787E-06  0.2207062E+04  0.7818609E-02  0.8515494E-01
        1   -1    0    0  501    0  0.00000000000E+00  0.00000000000E+00  0.92338650010E+03  0.92338650012E+03  0.50400001928E-02 0.  1.
       -1   -1    0    0    0  501  0.00000000000E+00  0.00000000000E+00 -0.13188206501E+04  0.13188206502E+04  0.50400001928E-02 0. -1.
    10030    2    1    2    0    0  0.00000000000E+00  0.00000000000E+00 -0.39543415004E+03  0.22422071503E+04  0.22070624680E+04 0.  0.
        1    1    3    3  502    0 -0.23862273900E+03  0.61720658122E+03 -0.10948970426E+04  0.12793296328E+04  0.50400001928E-02 0. -1.
       -1    1    3    3    0  502  0.23862273900E+03 -0.61720658122E+03  0.69946289258E+03  0.96287751744E+03  0.50400001928E-02 0.  1.
</event>
<event>
 5   0  0.1035928E-05  0.2198315E+04  0.7818609E-02  0.8519130E-01
       -2   -1    0    0    0  501  0.00000000000E+00  0.00000000000E+00  0.14875755658E+04  0.14875755659E+04  0.25500000920E-02 0.  1.
        2   -1    0    0  501    0  0.00000000000E+00  0.00000000000E+00 -0.81215871571E+03  0.81215871571E+03  0.25500000920E-02 0. -1.
    10030    2    1    2    0    0  0.00000000000E+00  0.00000000000E+00  0.67541685014E+03  0.22997342816E+04  0.21983152286E+04 0.  0.
        3    1    3    3  502    0  0.73380427056E+03  0.69281936454E+03  0.79332398044E+03  0.12836784362E+04  0.10100000352E+00 0.  1.
       -3    1    3    3    0  502 -0.73380427056E+03 -0.69281936454E+03 -0.11790713030E+03  0.10160558454E+04  0.10100000352E+00 0. -1.
</event>
<event>
 5   0  0.4309945E-06  0.2205717E+04  0.7818609E-02  0.8516052E-01
        1   -1    0    0  501    0  0.00000000000E+00  0.00000000000E+00  0.13976896009E+04  0.13976896009E+04  0.50400001928E-02 0. -1.
       -1   -1    0    0    0  501  0.00000000000E+00  0.00000000000E+00 -0.87021964670E+03  0.87021964671E+03  0.50400001928E-02 0.  1.
    10030    2    1    2    0    0  0.00000000000E+00  0.00000000000E+00  0.52746995418E+03  0.22679092476E+04  0.22057170722E+04 0.  0.
        4    1    3    3  502    0  0.40476738719E+03 -0.97210491404E+03  0.60080565858E+03  0.12123504666E+04  0.12699999809E+01 0. -1.
       -4    1    3    3    0  502 -0.40476738719E+03  0.97210491404E+03 -0.73335704404E+02  0.10555587810E+04  0.12699999809E+01 0.  1.
</event>
<event>
 5   0  0.1015876E-05  0.2196897E+04  0.7818609E-02  0.8519721E-01
       -2   -1    0    0    0  501  0.00000000000E+00  0.00000000000E+00  0.80765441013E+03  0.80765441013E+03  0.25500000920E-02 0.  1.
        2   -1    0    0  501    0  0.00000000000E+00  0.00000000000E+00 -0.14939425050E+04  0.14939425050E+04  0.25500000920E-02 0. -1.
    10030    2    1    2    0    0  0.00000000000E+00  0.00000000000E+00 -0.68628809492E+03  0.23015969152E+04  0.21968971325E+04 0.  0.
        5    1    3    3  502    0 -0.12957179297E+03 -0.35528886024E+03  0.73728964984E+03  0.82863571097E+03  0.46999998093E+01 0.  1.
       -5    1    3    3    0  502  0.12957179297E+03  0.35528886024E+03 -0.14235777448E+04  0.14729612042E+04  0.46999998093E+01 0. -1.
</event>
<event>
 5   0  0.4462201E-06  0.2205520E+04  0.7818609E-02  0.8516134E-01
        1   -1    0    0  501    0  0.00000000000E+00  0.00000000000E+00  0.13916940095E+04  0.13916940095E+04  0.50400001928E-02 0. -1.
       -1   -1    0    0    0  501  0.00000000000E+00  0.00000000000E+00 -0.87381273102E+03  0.87381273104E+03  0.50400001928E-02 0.  1.
    10030    2    1    2    0    0  0.00000000000E+00  0.00000000000E+00  0.51788127851E+03  0.22655067406E+04  0.22055202953E+04 0.  0.
        3    1    3    3  502    0 -0.96350731217E+03 -0.42484778161E+03  0.59531939646E+03  0.12096475405E+04  0.10100000352E+00 0. -1.
       -3    1    3    3    0  502  0.96350731217E+03  0.42484778161E+03 -0.77438117950E+02  0.10558592001E+04  0.10100000352E+00 0.  1.
</event>
<event>
 5   0  0.9963573E-06  0.2187051E+04  0.7818609E-02  0.8523837E-01
       -2   -1    0    0    0  501  0.00000000000E+00  0.00000000000E+00  0.59737567912E+03  0.59737567913E+03  0.25500000920E-02 0.  1.
        2   -1    0    0  501    0  0.00000000000E+00  0.00000000000E+00 -0.20017522773E+04  0.20017522773E+04  0.25500000920E-02 0. -1.
    10030    2    1    2    0    0  0.00000000000E+00  0.00000000000E+00 -0.14043765982E+04  0.25991279565E+04  0.21870510978E+04 0.  0.
        2    1    3    3  502    0 -0.99926830526E+03 -0.42986099457E+03 -0.56942292614E+03  0.12278273858E+04  0.25500000920E-02 0.  1.
       -2    1    3    3    0  502  0.99926830526E+03  0.42986099457E+03 -0.83495367208E+03  0.13713005706E+04  0.25500000920E-02 0. -1.
</event>
<event>
 5   0  0.4794967E-06  0.2159266E+04  0.7818609E-02  0.8535576E-01
        1   -1    0    0  501    0  0.00000000000E+00  0.00000000000E+00  0.89214097955E+03  0.89214097956E+03  0.50400001928E-02 0. -1.
       -1   -1    0    0    0  501  0.00000000000E+00  0.00000000000E+00 -0.13065279138E+04  0.13065279138E+04  0.50400001928E-02 0.  1.
    10030    2    1    2    0    0  0.00000000000E+00  0.00000000000E+00 -0.41438693428E+03  0.21986688934E+04  0.21592657019E+04 0.  0.
        5    1    3    3  502    0  0.15932694258E+03  0.31341982174E+03 -0.12465891883E+04  0.12952311584E+04  0.46999998093E+01 0.  1.
       -5    1    3    3    0  502 -0.15932694258E+03 -0.31341982174E+03  0.83220225407E+03  0.90343773497E+03  0.46999998093E+01 0. -1.
</event>
<event>
 5   0  0.4630615E-06  0.2196196E+04  0.7818609E-02  0.8520013E-01
        1   -1    0    0  501    0  0.00000000000E+00  0.00000000000E+00  0.96084583447E+03  0.96084583448E+03  0.50400001928E-02 0.  1.
       -1   -1    0    0    0  501  0.00000000000E+00  0.00000000000E+00 -0.12549561713E+04  0.12549561713E+04  0.50400001928E-02 0. -1.
    10030    2    1    2    0    0  0.00000000000E+00  0.00000000000E+00 -0.29411033680E+03  0.22158020058E+04  0.21961961749E+04 0.  0.
        2    1    3    3  502    0  0.12748164079E+03  0.20370624341E+03  0.93399116641E+03  0.96441033864E+03  0.25500000920E-02 0.  1.
       -2    1    3    3    0  502 -0.12748164079E+03 -0.20370624341E+03 -0.12281015032E+04  0.12513916671E+04  0.25500000920E-02 0. -1.
</event>
<event>
 5   0  0.4794967E-06  0.2190157E+04  0.7818609E-02  0.8522536E-01
        1   -1    0    0  501    0  0.00000000000E+00  0.00000000000E+00  0.91744030589E+03  0.91744030591E+03  0.50400001928E-02 0.  1.
       -1   -1    0    0    0  501  0.00000000000E+00  0.00000000000E+00 -0.13071112824E+04  0.13071112824E+04  0.50400001928E-02 0. -1.
    10030    2    1    2    0    0  0.00000000000E+00  0.00000000000E+00 -0.38967097649E+03  0.22245515883E+04  0.21901566837E+04 0.  0.
        5    1    3    3  502    0  0.69917155997E+03 -0.51110924193E+03 -0.87550968376E+03  0.12315083531E+04  0.46999998093E+01 0. -1.
       -5    1    3    3    0  502 -0.69917155997E+03  0.51110924193E+03  0.48583870727E+03  0.99304323518E+03  0.46999998093E+01 0.  1.
</event>
<event>
 5   0  0.1015876E-05  0.2194876E+04  0.7818609E-02  0.8520564E-01
        2   -1    0    0  501    0  0.00000000000E+00  0.00000000000E+00  0.11620072064E+04  0.11620072064E+04  0.25500000920E-02 0. -1.
       -2   -1    0    0    0  501  0.00000000000E+00  0.00000000000E+00 -0.10364567013E+04  0.10364567013E+04  0.25500000920E-02 0.  1.
    10030    2    1    2    0    0  0.00000000000E+00  0.00000000000E+00  0.12555050507E+03  0.21984639077E+04  0.21948759929E+04 0.  0.
        5    1    3    3  502    0  0.70585679338E+02 -0.10660401098E+04  0.31403229605E+03  0.11135808129E+04  0.46999998093E+01 0. -1.
       -5    1    3    3    0  502 -0.70585679338E+02  0.10660401098E+04 -0.18848179098E+03  0.10848830948E+04  0.46999998093E+01 0.  1.
</event>
<event>
 5   0  0.4794967E-06  0.2201016E+04  0.7818609E-02  0.8518006E-01
        1   -1    0    0  501    0  0.00000000000E+00  0.00000000000E+00  0.10686759482E+04  0.10686759482E+04  0.50400001928E-02 0.  1.
       -1   -1    0    0    0  501  0.00000000000E+00  0.00000000000E+00 -0.11332877574E+04  0.11332877574E+04  0.50400001928E-02 0. -1.
    10030    2    1    2    0    0  0.00000000000E+00  0.00000000000E+00 -0.64611809188E+02  0.22019637056E+04  0.22010155554E+04 0.  0.
        5    1    3    3  502    0  0.11111419716E+03 -0.10900948842E+04 -0.13453630988E+03  0.11039815805E+04  0.46999998093E+01 0.  1.
       -5    1    3    3    0  502 -0.11111419716E+03  0.10900948842E+04  0.69924500696E+02  0.10979821252E+04  0.46999998093E+01 0. -1.
</event>
<event>
 5   0  0.1014015E-05  0.2203102E+04  0.7818609E-02  0.8517138E-01
        2   -1    0    0  501    0  0.00000000000E+00  0.00000000000E+00  0.10725718565E+04  0.10725718565E+04  0.25500000920E-02 0. -1.
       -2   -1    0    0    0  501  0.00000000000E+00  0.00000000000E+00 -0.11313134073E+04  0.11313134073E+04  0.25500000920E-02 0.  1.
    10030    2    1    2    0    0  0.00000000000E+00  0.00000000000E+00 -0.58741550783E+02  0.22038852637E+04  0.22031022868E+04 0.  0.
        1    1    3    3  502    0  0.81811568257E+03  0.70184904630E+03  0.19766707794E+03  0.10958912481E+04  0.50400001928E-02 0.  1.
       -1    1    3    3    0  502 -0.81811568257E+03 -0.70184904630E+03 -0.25640862872E+03  0.11079940157E+04  0.50400001928E-02 0. -1.
</event>
<event>
 5   0  0.1015876E-05  0.2194968E+04  0.7818609E-02  0.8520525E-01
        2   -1    0    0  501    0  0.00000000000E+00  0.00000000000E+00  0.11406590034E+04  0.11406590034E+04  0.25500000920E-02 0.  1.
       -2   -1    0    0    0  501  0.00000000000E+00  0.00000000000E+00 -0.10559432440E+04  0.10559432440E+04  0.25500000920E-02 0. -1.
    10030    2    1    2    0    0  0.00000000000E+00  0.00000000000E+00  0.84715759446E+02  0.21966022474E+04  0.21949680347E+04 0.  0.
        5    1    3    3  502    0  0.35369625679E+03  0.60968086674E+03 -0.79948021588E+03  0.10658341836E+04  0.46999998093E+01 0. -1.
       -5    1    3    3    0  502 -0.35369625679E+03 -0.60968086674E+03  0.88419597533E+03  0.11307680638E+04  0.46999998093E+01 0.  1.
</event>
<event>
 5   0  0.1015876E-05  0.2202879E+04  0.7818609E-02  0.8517231E-01
        2   -1    0    0  501    0  0.00000000000E+00  0.00000000000E+00  0.11137522202E+04  0.11137522202E+04  0.25500000920E-02 0. -1.
       -2   -1    0    0    0  501  0.00000000000E+00  0.00000000000E+00 -0.10892627041E+04  0.10892627041E+04  0.25500000920E-02 0.  1.
    10030    2    1    2    0    0  0.00000000000E+00  0.00000000000E+00  0.24489516149E+02  0.22030149243E+04  0.22028788029E+04 0.  0.
        5    1    3    3  502    0 -0.72888250661E+03  0.41126815237E+03  0.72834449407E+03  0.11094678876E+04  0.46999998093E+01 0. -1.
       -5    1    3    3    0  502  0.72888250661E+03 -0.41126815237E+03 -0.70385497792E+03  0.10935470367E+04  0.46999998093E+01 0.  1.
</event>
<event>
 5   0  0.4794967E-06  0.2201694E+04  0.7818609E-02  0.8517723E-01
        1   -1    0    0  501    0  0.00000000000E+00  0.00000000000E+00  0.10346345218E+04  0.10346345218E+04  0.50400001928E-02 0.  1.
       -1   -1    0    0    0  501  0.00000000000E+00  0.00000000000E+00 -0.11712973291E+04  0.11712973291E+04  0.50400001928E-02 0. -1.
    10030    2    1    2    0    0  0.00000000000E+00  0.00000000000E+00 -0.13666280735E+03  0.22059318509E+04  0.22016944856E+04 0.  0.
        5    1    3    3  502    0  0.86011282486E+03 -0.51085989445E+03  0.39197706979E+03  0.10744487035E+04  0.46999998093E+01 0.  1.
       -5    1    3    3    0  502 -0.86011282486E+03  0.51085989445E+03 -0.52863987714E+03  0.11314831474E+04  0.46999998093E+01 0. -1.
</event>
<event>
 5   0  0.4794967E-06  0.2199679E+04  0.7818609E-02  0.8518562E-01
        1   -1    0    0  501    0  0.00000000000E+00  0.00000000000E+00  0.16020871978E+04  0.16020871978E+04  0.50400001928E-02 0. -1.
       -1   -1    0    0    0  501  0.00000000000E+00  0.00000000000E+00 -0.75504427462E+03  0.75504427464E+03  0.50400001928E-02 0.  1.
    10030    2    1    2    0    0  0.00000000000E+00  0.00000000000E+00  0.84704292316E+03  0.23571314724E+04  0.21996788549E+04 0.  0.
        5    1    3    3  502    0  0.27359839691E+03  0.96516574013E+03 -0.59550343484E+02  0.10049722992E+04  0.46999998093E+01 0.  1.
       -5    1    3    3    0  502 -0.27359839691E+03 -0.96516574013E+03  0.90659326665E+03  0.13521591733E+04  0.46999998093E+01 0. -1.
</event>
<event>
 5   0  0.1015876E-05  0.2199257E+04  0.7818609E-02  0.8518738E-01
        2   -1    0    0  501    0  0.00000000000E+00  0.00000000000E+00  0.11413578624E+04  0.11413578624E+04  0.25500000920E-02 0. -1.
       -2   -1    0    0    0  501  0.00000000000E+00  0.00000000000E+00 -0.10594246190E+04  0.10594246190E+04  0.25500000920E-02 0.  1.
    10030    2    1    2    0    0  0.00000000000E+00  0.00000000000E+00  0.81933243412E+02  0.22007824814E+04  0.21992568004E+04 0.  0.
        5    1    3    3  502    0 -0.66399522640E+02  0.34493058950E+03 -0.10017612921E+04  0.10615713752E+04  0.46999998093E+01 0.  1.
       -5    1    3    3    0  502  0.66399522640E+02 -0.34493058950E+03  0.10836945355E+04  0.11392111062E+04  0.46999998093E+01 0. -1.
</event>
<event>
 5   0  0.4309945E-06  0.2199350E+04  0.7818609E-02  0.8518699E-01
        1   -1    0    0  501    0  0.00000000000E+00  0.00000000000E+00  0.10788061460E+04  0.10788061460E+04  0.50400001928E-02 0. -1.
       -1   -1    0    0    0  501  0.00000000000E+00  0.00000000000E+00 -0.11209470961E+04  0.11209470962E+04  0.50400001928E-02 0.  1.
    10030    2    1    2    0    0  0.00000000000E+00  0.00000000000E+00 -0.42140950139E+02  0.21997532422E+04  0.21993495554E+04 0.  0.
        4    1    3    3  502    0 -0.48327611969E+03 -0.98603196540E+03  0.37831413031E+02  0.10987482302E+04  0.12699999809E+01 0. -1.
       -4    1    3    3    0  502  0.48327611969E+03  0.98603196540E+03 -0.79972363170E+02  0.11010050120E+04  0.12699999809E+01 0.  1.
</event>
<event>
 5   0  0.1014015E-05  0.2267362E+04  0.7818609E-02  0.8490902E-01
       -2   -1    0    0    0  501  0.00000000000E+00  0.00000000000E+00  0.44444732744E+03  0.44444732744E+03  0.25500000920E-02 0. -1.
        2   -1    0    0  501    0  0.00000000000E+00  0.00000000000E+00 -0.28917553425E+04  0.28917553425E+04  0.25500000920E-02 0.  1.
    10030    2    1    2    0    0  0.00000000000E+00  0.00000000000E+00 -0.24473080151E+04  0.33362026699E+04  0.22673622856E+04 0.  0.
        1    1    3    3  502    0  0.80481405891E+03  0.57617702456E+03 -0.20369647685E+04  0.22647143531E+04  0.50400001928E-02 0.  1.
       -1    1    3    3    0  502 -0.80481405891E+03 -0.57617702456E+03 -0.41034324655E+03  0.10714883168E+04  0.50400001928E-02 0. -1.
</event>
<event>
 5   0  0.4794967E-06  0.2203981E+04  0.7818609E-02  0.8516773E-01
        1   -1    0    0  501    0  0.00000000000E+00  0.00000000000E+00  0.57259956637E+03  0.57259956639E+03  0.50400001928E-02 0. -1.
       -1   -1    0    0    0  501  0.00000000000E+00  0.00000000000E+00 -0.21208251064E+04  0.21208251064E+04  0.50400001928E-02 0.  1.
    10030    2    1    2    0    0  0.00000000000E+00  0.00000000000E+00 -0.15482255401E+04  0.26934246728E+04  0.22039814304E+04 0.  0.
        5    1    3    3  502    0  0.59117158503E+02 -0.41673235684E+03  0.47048298179E+03  0.63129788676E+03  0.46999998093E+01 0. -1.
       -5    1    3    3    0  502 -0.59117158503E+02  0.41673235684E+03 -0.20187085219E+04  0.20621267861E+04  0.46999998093E+01 0.  1.
</event>
<event>
 5   0  0.4408787E-06  0.2200031E+04  0.7818609E-02  0.8518415E-01
        1   -1    0    0  501    0  0.00000000000E+00  0.00000000000E+00  0.11479265430E+04  0.11479265430E+04  0.50400001928E-02 0. -1.
       -1   -1    0    0    0  501  0.00000000000E+00  0.00000000000E+00 -0.10541039351E+04  0.10541039351E+04  0.50400001928E-02 0.  1.
    10030    2    1    2    0    0  0.00000000000E+00  0.00000000000E+00  0.93822607879E+02  0.22020304781E+04  0.22000308054E+04 0.  0.
        1    1    3    3  502    0 -0.80827915372E+03 -0.60522150766E+03  0.48368578424E+03  0.11196250272E+04  0.50400001928E-02 0. -1.
       -1    1    3    3    0  502  0.80827915372E+03  0.60522150766E+03 -0.38986317636E+03  0.10824054508E+04  0.50400001928E-02 0.  1.
</event>
<event>
 5   0  0.4408787E-06  0.2202212E+04  0.7818609E-02  0.8517508E-01
        1   -1    0    0  501    0  0.00000000000E+00  0.00000000000E+00  0.12258539704E+04  0.12258539704E+04  0.50400001928E-02 0. -1.
       -1   -1    0    0    0  501  0.00000000000E+00  0.00000000000E+00 -0.98905282160E+03  0.98905282161E+03  0.50400001928E-02 0.  1.
    10030    2    1    2    0    0  0.00000000000E+00  0.00000000000E+00  0.23680114883E+03  0.22149067921E+04  0.22022119138E+04 0.  0.
        1    1    3    3  502    0  0.86501472040E+03  0.67217633588E+03  0.23022981843E+03  0.11194093364E+04  0.50400001928E-02 0. -1.
       -1    1    3    3    0  502 -0.86501472040E+03 -0.67217633588E+03  0.65713304041E+01  0.10954974557E+04  0.50400001928E-02 0.  1.
</event>
<event>
 5   0  0.4309945E-06  0.2169993E+04  0.7818609E-02  0.8531023E-01
        1   -1    0    0  501    0  0.00000000000E+00  0.00000000000E+00  0.17363245731E+04  0.17363245731E+04  0.50400001928E-02 0. -1.
       -1   -1    0    0    0  501  0.00000000000E+00  0.00000000000E+00 -0.67799363332E+03  0.67799363334E+03  0.50400001928E-02 0.  1.
    10030    2    1    2    0    0  0.00000000000E+00  0.00000000000E+00  0.10583309398E+04  0.24143182065E+04  0.21699926322E+04 0.  0.
        4    1    3    3  502    0  0.40337733403E+03  0.55925994784E+03  0.14611772575E+04  0.16157120887E+04  0.12699999809E+01 0. -1.
       -4    1    3    3    0  502 -0.40337733403E+03 -0.55925994784E+03 -0.40284631765E+03  0.79860611781E+03  0.12699999809E+01 0.  1.
</event>
<event>
 5   0  0.9963173E-06  0.2211898E+04  0.7818609E-02  0.8513492E-01
        2   -1    0    0  501    0  0.00000000000E+00  0.00000000000E+00  0.17592250966E+04  0.17592250966E+04  0.25500000920E-02 0.  1.
       -2   -1    0    0    0  501  0.00000000000E+00  0.00000000000E+00 -0.69526277597E+03  0.69526277597E+03  0.25500000920E-02 0. -1.
    10030    2    1    2    0    0  0.00000000000E+00  0.00000000000E+00  0.10639623207E+04  0.24544878726E+04  0.22118984825E+04 0.  0.
        4    1    3    3  502    0  0.86999732777E+03 -0.41903505737E+03 -0.66252284477E+02  0.96792391629E+03  0.12699999809E+01 0. -1.
       -4    1    3    3    0  502 -0.86999732777E+03  0.41903505737E+03  0.11302146052E+04  0.14865639563E+04  0.12699999809E+01 0.  1.
</event>
<event>
 5   0  0.1014015E-05  0.2202491E+04  0.7818609E-02  0.8517392E-01
        2   -1    0    0  501    0  0.00000000000E+00  0.00000000000E+00  0.14984863149E+04  0.14984863149E+04  0.25500000920E-02 0. -1.
       -2   -1    0    0    0  501  0.00000000000E+00  0.00000000000E+00 -0.80931125386E+03  0.80931125386E+03  0.25500000920E-02 0.  1.
    10030    2    1    2    0    0  0.00000000000E+00  0.00000000000E+00  0.68917506106E+03  0.23077975688E+04  0.22024911699E+04 0.  0.
        1    1    3    3  502    0  0.17438971847E+03  0.55145055351E+03  0.13265349907E+04  0.14471366792E+04  0.50400001928E-02 0. -1.
       -1    1    3    3    0  502 -0.17438971847E+03 -0.55145055351E+03 -0.63735992962E+03  0.86066088954E+03  0.50400001928E-02 0.  1.
</event>
<event>
 5   0  0.4309945E-06  0.2202944E+04  0.7818609E-02  0.8517204E-01
       -1   -1    0    0    0  501  0.00000000000E+00  0.00000000000E+00  0.11608917516E+04  0.11608917516E+04  0.50400001928E-02 0.  1.
        1   -1    0    0  501    0  0.00000000000E+00  0.00000000000E+00 -0.10450940511E+04  0.10450940512E+04  0.50400001928E-02 0. -1.
    10030    2    1    2    0    0  0.00000000000E+00  0.00000000000E+00  0.11579770049E+03  0.22059858028E+04  0.22029444511E+04 0.  0.
        4    1    3    3  502    0  0.86295101552E+02 -0.10167910810E+04  0.47311392131E+03  0.11247885768E+04  0.12699999809E+01 0.  1.
       -4    1    3    3    0  502 -0.86295101552E+02  0.10167910810E+04 -0.35731622082E+03  0.10811972260E+04  0.12699999809E+01 0. -1.
</event>
<event>
 5   0  0.1015876E-05  0.2203237E+04  0.7818609E-02  0.8517082E-01
       -2   -1    0    0    0  501  0.00000000000E+00  0.00000000000E+00  0.66219245527E+03  0.66219245527E+03  0.25500000920E-02 0.  1.
        2   -1    0    0  501    0  0.00000000000E+00  0.00000000000E+00 -0.18326443200E+04  0.18326443200E+04  0.25500000920E-02 0. -1.
    10030    2    1    2    0    0  0.00000000000E+00  0.00000000000E+00 -0.11704518647E+04  0.24948367753E+04  0.22032369295E+04 0.  0.
        5    1    3    3  502    0  0.38380360281E+03  0.10162040686E+04 -0.79268183498E+03  0.13447462571E+04  0.46999998093E+01 0.  1.
       -5    1    3    3    0  502 -0.38380360281E+03 -0.10162040686E+04 -0.37777002976E+03  0.11500905182E+04  0.46999998093E+01 0. -1.
</event>
<event>
 5   0  0.1035928E-05  0.2224336E+04  0.7818609E-02  0.8508367E-01
       -2   -1    0    0    0  501  0.00000000000E+00  0.00000000000E+00  0.79677814252E+03  0.79677814253E+03  0.25500000920E-02 0. -1.
        2   -1    0    0  501    0  0.00000000000E+00  0.00000000000E+00 -0.15523986151E+04  0.15523986151E+04  0.25500000920E-02 0.  1.
    10030    2    1    2    0    0  0.00000000000E+00  0.00000000000E+00 -0.75562047260E+03  0.23491767577E+04  0.22243356626E+04 0.  0.
        3    1    3    3  502    0  0.34693707606E+03 -0.38864589033E+03  0.65994021066E+03  0.84079251582E+03  0.10100000352E+00 0. -1.
       -3    1    3    3    0  502 -0.34693707606E+03  0.38864589033E+03 -0.14155606833E+04  0.15083842418E+04  0.10100000352E+00 0.  1.
</event>
<event>
 5   0  0.9963173E-06  0.2193059E+04  0.7818609E-02  0.8521323E-01
       -2   -1    0    0    0  501  0.00000000000E+00  0.00000000000E+00  0.82140189328E+03  0.82140189328E+03  0.25500000920E-02 0.  1.
        2   -1    0    0  501    0  0.00000000000E+00  0.00000000000E+00 -0.14638103898E+04  0.14638103898E+04  0.25500000920E-02 0. -1.
    10030    2    1    2    0    0  0.00000000000E+00  0.00000000000E+00 -0.64240849650E+03  0.22852122831E+04  0.21930587093E+04 0.  0.
        4    1    3    3  502    0 -0.29199768238E+03  0.47831713931E+03  0.66091054691E+03  0.86651849154E+03  0.12699999809E+01 0.  1.
       -4    1    3    3    0  502  0.29199768238E+03 -0.47831713931E+03 -0.13033190434E+04  0.14186937915E+04  0.12699999809E+01 0. -1.
</event>
<event>
 5   0  0.9963573E-06  0.2215564E+04  0.7818609E-02  0.8511978E-01
        2   -1    0    0  501    0  0.00000000000E+00  0.00000000000E+00  0.14020417508E+04  0.14020417508E+04  0.25500000920E-02 0. -1.
       -2   -1    0    0    0  501  0.00000000000E+00  0.00000000000E+00 -0.87528139156E+03  0.87528139156E+03  0.25500000920E-02 0.  1.
    10030    2    1    2    0    0  0.00000000000E+00  0.00000000000E+00  0.52676035925E+03  0.22773231424E+04  0.22155640859E+04 0.  0.
        2    1    3    3  502    0 -0.57208650969E+03 -0.10115571428E+03 -0.70613305612E+03  0.91440655403E+03  0.25500000920E-02 0.  1.
       -2    1    3    3    0  502  0.57208650969E+03  0.10115571428E+03  0.12328934154E+04  0.13629165883E+04  0.25500000920E-02 0. -1.
</event>
<event>
 5   0  0.9963573E-06  0.2198724E+04  0.7818609E-02  0.8518959E-01
        2   -1    0    0  501    0  0.00000000000E+00  0.00000000000E+00  0.90183483629E+03  0.90183483629E+03  0.25500000920E-02 0. -1.
       -2   -1    0    0    0  501  0.00000000000E+00  0.00000000000E+00 -0.13401535692E+04  0.13401535692E+04  0.25500000920E-02 0.  1.
    10030    2    1    2    0    0  0.00000000000E+00  0.00000000000E+00 -0.43831873294E+03  0.22419884055E+04  0.21987243344E+04 0.  0.
        2    1    3    3  502    0  0.70451347366E+03 -0.32639215407E+01 -0.10797130762E+04  0.12892362912E+04  0.25500000920E-02 0.  1.
       -2    1    3    3    0  502 -0.70451347366E+03  0.32639215407E+01  0.64139434323E+03  0.95275211430E+03  0.25500000920E-02 0. -1.
</event>
<event>
 5   0  0.9963573E-06  0.2202899E+04  0.7818609E-02  0.8517222E-01
        2   -1    0    0  501    0  0.00000000000E+00  0.00000000000E+00  0.70947832188E+03  0.70947832188E+03  0.25500000920E-02 0. -1.
       -2   -1    0    0    0  501  0.00000000000E+00  0.00000000000E+00 -0.17099760394E+04  0.17099760394E+04  0.25500000920E-02 0.  1.
    10030    2    1    2    0    0  0.00000000000E+00  0.00000000000E+00 -0.10004977175E+04  0.24194543613E+04  0.22028989363E+04 0.  0.
        2    1    3    3  502    0  0.26683983481E+03 -0.10686178428E+04 -0.49301842652E+03  0.12067372375E+04  0.25500000920E-02 0.  1.
       -2    1    3    3    0  502 -0.26683983481E+03  0.10686178428E+04 -0.50747929099E+03  0.12127171238E+04  0.25500000920E-02 0. -1.
</event>
<event>
 5   0  0.1035928E-05  0.2202883E+04  0.7818609E-02  0.8517229E-01
       -2   -1    0    0    0  501  0.00000000000E+00  0.00000000000E+00  0.11415491209E+04  0.11415491209E+04  0.25500000920E-02 0. -1.
        2   -1    0    0  501    0  0.00000000000E+00  0.00000000000E+00 -0.10627432074E+04  0.10627432074E+04  0.25500000920E-02 0.  1.
    10030    2    1    2    0    0  0.00000000000E+00  0.00000000000E+00  0.78805913586E+02  0.22042923283E+04  0.22028831781E+04 0.  0.
        3    1    3    3  502    0 -0.42008651646E+03 -0.77393253498E+03  0.70143732926E+03  0.11258146327E+04  0.10100000352E+00 0. -1.
       -3    1    3    3    0  502  0.42008651646E+03  0.77393253498E+03 -0.62263141568E+03  0.10784776956E+04  0.10100000352E+00 0.  1.
</event>
<event>
 5   0  0.9963173E-06  0.2196522E+04  0.7818609E-02  0.8519877E-01
        2   -1    0    0  501    0  0.00000000000E+00  0.00000000000E+00  0.17007655654E+04  0.17007655654E+04  0.25500000920E-02 0. -1.
       -2   -1    0    0    0  501  0.00000000000E+00  0.00000000000E+00 -0.70919657181E+03  0.70919657181E+03  0.25500000920E-02 0.  1.
    10030    2    1    2    0    0  0.00000000000E+00  0.00000000000E+00  0.99156899359E+03  0.24099621372E+04  0.21965218947E+04 0.  0.
        4    1    3    3  502    0  0.11456283701E+03 -0.86370562017E+03 -0.23781540953E+03  0.90314440919E+03  0.12699999809E+01 0.  1.
       -4    1    3    3    0  502 -0.11456283701E+03  0.86370562017E+03  0.12293844031E+04  0.15068177280E+04  0.12699999809E+01 0. -1.
</event>
<event>
 5   0  0.1014015E-05  0.2199779E+04  0.7818609E-02  0.8518520E-01
        2   -1    0    0  501    0  0.00000000000E+00  0.00000000000E+00  0.97468160074E+03  0.97468160074E+03  0.25500000920E-02 0.  1.
       -2   -1    0    0    0  501  0.00000000000E+00  0.00000000000E+00 -0.12411814603E+04  0.12411814603E+04  0.25500000920E-02 0. -1.
    10030    2    1    2    0    0  0.00000000000E+00  0.00000000000E+00 -0.26649985959E+03  0.22158630611E+04  0.21997788367E+04 0.  0.
        1    1    3    3  502    0  0.25482446893E+03  0.27314384611E+03 -0.11753253294E+04  0.12332610026E+04  0.50400001928E-02 0. -1.
       -1    1    3    3    0  502 -0.25482446893E+03 -0.27314384611E+03  0.90882546982E+03  0.98260205844E+03  0.50400001928E-02 0.  1.
</event>
<event>
 5   0  0.4408787E-06  0.2189423E+04  0.7818609E-02  0.8522844E-01
       -1   -1    0    0    0  501  0.00000000000E+00  0.00000000000E+00  0.16543115613E+04  0.16543115613E+04  0.50400001928E-02 0. -1.
        1   -1    0    0  501    0  0.00000000000E+00  0.00000000000E+00 -0.72440582759E+03  0.72440582761E+03  0.50400001928E-02 0.  1.
    10030    2    1    2    0    0  0.00000000000E+00  0.00000000000E+00  0.92990573366E+03  0.23787173889E+04  0.21894226962E+04 0.  0.
        1    1    3    3  502    0 -0.10349400836E+04  0.18208449352E+03  0.79829780206E+03  0.13196723534E+04  0.50400001928E-02 0. -1.
       -1    1    3    3    0  502  0.10349400836E+04 -0.18208449352E+03  0.13160793160E+03  0.10590450355E+04  0.50400001928E-02 0.  1.
</event>
<event>
 5   0  0.4462201E-06  0.2196006E+04  0.7818609E-02  0.8520093E-01
        1   -1    0    0  501    0  0.00000000000E+00  0.00000000000E+00  0.17834662065E+04  0.17834662065E+04  0.50400001928E-02 0. -1.
       -1   -1    0    0    0  501  0.00000000000E+00  0.00000000000E+00 -0.67599266584E+03  0.67599266586E+03  0.50400001928E-02 0.  1.
    10030    2    1    2    0    0  0.00000000000E+00  0.00000000000E+00  0.11074735406E+04  0.24594588724E+04  0.21960055331E+04 0.  0.
        3    1    3    3  502    0  0.26517854079E+03  0.76491578900E+03 -0.27700138003E+03  0.85565506923E+03  0.10100000352E+00 0. -1.
       -3    1    3    3    0  502 -0.26517854079E+03 -0.76491578900E+03  0.13844749207E+04  0.16038038031E+04  0.10100000352E+00 0.  1.
</event>
<event>
 5   0  0.4408787E-06  0.2200692E+04  0.7818609E-02  0.8518140E-01
        1   -1    0    0  501    0  0.00000000000E+00  0.00000000000E+00  0.73610901160E+03  0.73610901161E+03  0.50400001928E-02 0.  1.
       -1   -1    0    0    0  501  0.00000000000E+00  0.00000000000E+00 -0.16448122441E+04  0.16448122441E+04  0.50400001928E-02 0. -1.
    10030    2    1    2    0    0  0.00000000000E+00  0.00000000000E+00 -0.90870323253E+03  0.23809212557E+04  0.22006918142E+04 0.  0.
        1    1    3    3  502    0  0.10274097473E+04 -0.35957150896E+03 -0.28024133330E+03  0.11240096369E+04  0.50400001928E-02 0. -1.
       -1    1    3    3    0  502 -0.10274097473E+04  0.35957150896E+03 -0.62846189923E+03  0.12569116189E+04  0.50400001928E-02 0.  1.
</event>
<event>
 5   0  0.9963173E-06  0.2197714E+04  0.7818609E-02  0.8519380E-01
        2   -1    0    0  501    0  0.00000000000E+00  0.00000000000E+00  0.21824974861E+04  0.21824974861E+04  0.25500000920E-02 0.  1.
       -2   -1    0    0    0  501  0.00000000000E+00  0.00000000000E+00 -0.55325918460E+03  0.55325918461E+03  0.25500000920E-02 0. -1.
    10030    2    1    2    0    0  0.00000000000E+00  0.00000000000E+00  0.16292383015E+04  0.27357566707E+04  0.21977140665E+04 0.  0.
        4    1    3    3  502    0 -0.45582484522E+03 -0.56710870514E+03  0.18396856972E+04  0.19783411360E+04  0.12699999809E+01 0.  1.
       -4    1    3    3    0  502  0.45582484522E+03  0.56710870514E+03 -0.21044739571E+03  0.75741553471E+03  0.12699999809E+01 0. -1.
</event>
<event>
 5   0  0.9963573E-06  0.2201669E+04  0.7818609E-02  0.8517734E-01
       -2   -1    0    0    0  501  0.00000000000E+00  0.00000000000E+00  0.90011211189E+03  0.90011211189E+03  0.25500000920E-02 0. -1.
        2   -1    0    0  501    0  0.00000000000E+00  0.00000000000E+00 -0.13463177336E+04  0.13463177336E+04  0.25500000920E-02 0.  1.
    10030    2    1    2    0    0  0.00000000000E+00  0.00000000000E+00 -0.44620562175E+03  0.22464298455E+04  0.22016692744E+04 0.  0.
        2    1    3    3  502    0  0.55853972406E+03  0.92375046548E+03 -0.44325630833E+03  0.11669437436E+04  0.25500000920E-02 0.  1.
       -2    1    3    3    0  502 -0.55853972406E+03 -0.92375046548E+03 -0.29493134182E+01  0.10794861019E+04  0.25500000920E-02 0. -1.
</event>
<event>
 5   0  0.9963573E-06  0.2202387E+04  0.7818609E-02  0.8517435E-01
       -2   -1    0    0    0  501  0.00000000000E+00  0.00000000000E+00  0.72618354646E+03  0.72618354647E+03  0.25500000920E-02 0.  1.
        2   -1    0    0  501    0  0.00000000000E+00  0.00000000000E+00 -0.16698627846E+04  0.16698627846E+04  0.25500000920E-02 0. -1.
    10030    2    1    2    0    0  0.00000000000E+00  0.00000000000E+00 -0.94367923816E+03  0.23960463311E+04  0.22023867772E+04 0.  0.
        2    1    3    3  502    0  0.94073794368E+03  0.49473527941E+03 -0.78503548510E+03  0.13213748856E+04  0.25500000920E-02 0.  1.
       -2    1    3    3    0  502 -0.94073794368E+03 -0.49473527941E+03 -0.15864375306E+03  0.10746714455E+04  0.25500000920E-02 0. -1.
</event>
<event>
 5   0  0.1014015E-05  0.2199896E+04  0.7818609E-02  0.8518471E-01
        2   -1    0    0  501    0  0.00000000000E+00  0.00000000000E+00  0.14940052940E+04  0.14940052940E+04  0.25500000920E-02 0.  1.
       -2   -1    0    0    0  501  0.00000000000E+00  0.00000000000E+00 -0.80982712981E+03  0.80982712982E+03  0.25500000920E-02 0. -1.
    10030    2    1    2    0    0  0.00000000000E+00  0.00000000000E+00  0.68417816416E+03  0.23038324238E+04  0.21998963786E+04 0.  0.
        1    1    3    3  502    0  0.90734395394E+03  0.27759990563E+03  0.92474874059E+03  0.13249509393E+04  0.50400001928E-02 0.  1.
       -1    1    3    3    0  502 -0.90734395394E+03 -0.27759990563E+03 -0.24057057644E+03  0.97888148446E+03  0.50400001928E-02 0. -1.
</event>
<event>
 5   0  0.1015876E-05  0.2200896E+04  0.7818609E-02  0.8518055E-01
       -2   -1    0    0    0  501  0.00000000000E+00  0.00000000000E+00  0.92862503468E+03  0.92862503468E+03  0.25500000920E-02 0.  1.
        2   -1    0    0  501    0  0.00000000000E+00  0.00000000000E+00 -0.13040632482E+04  0.13040632482E+04  0.25500000920E-02 0. -1.
    10030    2    1    2    0    0  0.00000000000E+00  0.00000000000E+00 -0.37543821353E+03  0.22326882829E+04  0.22008959804E+04 0.  0.
        5    1    3    3  502    0 -0.34523038080E+03  0.33843261018E+03 -0.11905549992E+04  0.12849762424E+04  0.46999998093E+01 0. -1.
       -5    1    3    3    0  502  0.34523038080E+03 -0.33843261018E+03  0.81511678565E+03  0.94771204049E+03  0.46999998093E+01 0.  1.
</event>
<event>
 5   0  0.4630615E-06  0.2195947E+04  0.7818609E-02  0.8520117E-01
       -1   -1    0    0    0  501  0.00000000000E+00  0.00000000000E+00  0.13221286980E+04  0.13221286980E+04  0.50400001928E-02 0. -1.
        1   -1    0    0  501    0  0.00000000000E+00  0.00000000000E+00 -0.91182207374E+03  0.91182207375E+03  0.50400001928E-02 0.  1.
    10030    2    1    2    0    0  0.00000000000E+00  0.00000000000E+00  0.41030662428E+03  0.22339507718E+04  0.21959472955E+04 0.  0.
        2    1    3    3  502    0 -0.90782326626E+03  0.53196962297E+03  0.52428822803E+03  0.11755904510E+04  0.25500000920E-02 0. -1.
       -2    1    3    3    0  502  0.90782326626E+03 -0.53196962297E+03 -0.11398160375E+03  0.10583603207E+04  0.25500000920E-02 0.  1.
</event>
<event>
 5   0  0.4462201E-06  0.2214803E+04  0.7818609E-02  0.8512292E-01
        1   -1    0    0  501    0  0.00000000000E+00  0.00000000000E+00  0.13231330139E+04  0.13231330139E+04  0.50400001928E-02 0.  1.
       -1   -1    0    0    0  501  0.00000000000E+00  0.00000000000E+00 -0.92684445628E+03  0.92684445629E+03  0.50400001928E-02 0. -1.
    10030    2    1    2    0    0  0.00000000000E+00  0.00000000000E+00  0.39628855758E+03  0.22499774702E+04  0.22148033762E+04 0.  0.
        3    1    3    3  502    0  0.85698712446E+03  0.62905734498E+03 -0.11694015506E+03  0.10694929101E+04  0.10100000352E+00 0. -1.
       -3    1    3    3    0  502 -0.85698712446E+03 -0.62905734498E+03  0.51322871265E+03  0.11804845600E+04  0.10100000352E+00 0.  1.
</event>
<event>
 5   0  0.4408787E-06  0.2200106E+04  0.7818609E-02  0.8518384E-01
        1   -1    0    0  501    0  0.00000000000E+00  0.00000000000E+00  0.76530017265E+03  0.76530017266E+03  0.50400001928E-02 0. -1.
       -1   -1    0    0    0  501  0.00000000000E+00  0.00000000000E+00 -0.15812309706E+04  0.15812309706E+04  0.50400001928E-02 0.  1.
    10030    2    1    2    0    0  0.00000000000E+00  0.00000000000E+00 -0.81593079797E+03  0.23465311433E+04  0.22001057564E+04 0.  0.
        1    1    3    3  502    0 -0.18027594752E+03  0.14373516129E+02 -0.15652673472E+04  0.15756801336E+04  0.50400001928E-02 0.  1.
       -1    1    3    3    0  502  0.18027594752E+03 -0.14373516129E+02  0.74933654918E+03  0.77085100972E+03  0.50400001928E-02 0. -1.
</event>
<event>
 5   0  0.4630615E-06  0.2199607E+04  0.7818609E-02  0.8518592E-01
        1   -1    0    0  501    0  0.00000000000E+00  0.00000000000E+00  0.13894852913E+04  0.13894852913E+04  0.50400001928E-02 0.  1.
       -1   -1    0    0    0  501  0.00000000000E+00  0.00000000000E+00 -0.87051488727E+03  0.87051488728E+03  0.50400001928E-02 0. -1.
    10030    2    1    2    0    0  0.00000000000E+00  0.00000000000E+00  0.51897040407E+03  0.22600001786E+04  0.21996069029E+04 0.  0.
        2    1    3    3  502    0 -0.10296297252E+04  0.31868226408E+03  0.48428898743E+03  0.11816224354E+04  0.25500000920E-02 0. -1.
       -2    1    3    3    0  502  0.10296297252E+04 -0.31868226408E+03  0.34681416634E+02  0.10783777432E+04  0.25500000920E-02 0.  1.
</event>
<event>
 5   0  0.1035928E-05  0.2199431E+04  0.7818609E-02  0.8518665E-01
       -2   -1    0    0    0  501  0.00000000000E+00  0.00000000000E+00  0.13774781226E+04  0.13774781226E+04  0.25500000920E-02 0.  1.
        2   -1    0    0  501    0  0.00000000000E+00  0.00000000000E+00 -0.87796234366E+03  0.87796234367E+03  0.25500000920E-02 0. -1.
    10030    2    1    2    0    0  0.00000000000E+00  0.00000000000E+00  0.49951577896E+03  0.22554404663E+04  0.21994307635E+04 0.  0.
        3    1    3    3  502    0  0.25464581129E+03 -0.62159919184E+03 -0.64312990368E+03  0.92997103596E+03  0.10100000352E+00 0. -1.
       -3    1    3    3    0  502 -0.25464581129E+03  0.62159919184E+03  0.11426456826E+04  0.13254694303E+04  0.10100000352E+00 0.  1.
</event>
<event>
 5   0  0.4630615E-06  0.2174034E+04  0.7818609E-02  0.8529314E-01
       -1   -1    0    0    0  501  0.00000000000E+00  0.00000000000E+00  0.12982977403E+04  0.12982977403E+04  0.50400001928E-02 0. -1.
        1   -1    0    0  501    0  0.00000000000E+00  0.00000000000E+00 -0.91011929147E+03  0.91011929149E+03  0.50400001928E-02 0.  1.
    10030    2    1    2    0    0  0.00000000000E+00  0.00000000000E+00  0.38817844886E+03  0.22084170318E+04  0.21740338724E+04 0.  0.
        2    1    3    3  502    0 -0.43443278672E+03 -0.11555806970E+02 -0.81803224563E+03  0.92630563949E+03  0.25500000920E-02 0.  1.
       -2    1    3    3    0  502  0.43443278672E+03  0.11555806970E+02  0.12062106945E+04  0.12821113923E+04  0.25500000920E-02 0. -1.
</event>
<event>
 5   0  0.1015876E-05  0.2208387E+04  0.7818609E-02  0.8514945E-01
       -2   -1    0    0    0  501  0.00000000000E+00  0.00000000000E+00  0.16330373958E+04  0.16330373958E+04  0.25500000920E-02 0.  1.
        2   -1    0    0  501    0  0.00000000000E+00  0.00000000000E+00 -0.74661091810E+03  0.74661091811E+03  0.25500000920E-02 0. -1.
    10030    2    1    2    0    0  0.00000000000E+00  0.00000000000E+00  0.88642647767E+03  0.23796483139E+04  0.22083872390E+04 0.  0.
        5    1    3    3  502    0  0.10458213851E+04  0.34865927142E+03  0.37578405098E+03  0.11647065725E+04  0.46999998093E+01 0.  1.
       -5    1    3    3    0  502 -0.10458213851E+04 -0.34865927142E+03  0.51064242669E+03  0.12149417414E+04  0.46999998093E+01 0. -1.
</event>
<event>
 5   0  0.9963173E-06  0.2190805E+04  0.7818609E-02  0.8522265E-01
       -2   -1    0    0    0  501  0.00000000000E+00  0.00000000000E+00  0.10954028666E+04  0.10954028666E+04  0.25500000920E-02 0. -1.
        2   -1    0    0  501    0  0.00000000000E+00  0.00000000000E+00 -0.10954019805E+04  0.10954019805E+04  0.25500000920E-02 0.  1.
    10030    2    1    2    0    0  0.00000000000E+00  0.00000000000E+00  0.88610883915E-03  0.21908048472E+04  0.21908048472E+04 0.  0.
        4    1    3    3  502    0 -0.62796374251E+03 -0.14179005892E+03 -0.88626248293E+03  0.10954020651E+04  0.12699999809E+01 0.  1.
       -4    1    3    3    0  502  0.62796374251E+03  0.14179005892E+03  0.88626336904E+03  0.10954027820E+04  0.12699999809E+01 0. -1.
</event>
<event>
 5   0  0.4794967E-06  0.2198413E+04  0.7818609E-02  0.8519089E-01
        1   -1    0    0  501    0  0.00000000000E+00  0.00000000000E+00  0.13392477424E+04  0.13392477424E+04  0.50400001928E-02 0.  1.
       -1   -1    0    0    0  501  0.00000000000E+00  0.00000000000E+00 -0.90218944072E+03  0.90218944074E+03  0.50400001928E-02 0. -1.
    10030    2    1    2    0    0  0.00000000000E+00  0.00000000000E+00  0.43705830171E+03  0.22414371832E+04  0.21984132203E+04 0.  0.
        5    1    3    3  502    0 -0.74527116401E+02  0.12845571619E+03 -0.89190334584E+03  0.90419512851E+03  0.46999998093E+01 0. -1.
       -5    1    3    3    0  502  0.74527116401E+02 -0.12845571619E+03  0.13289616476E+04  0.13372420547E+04  0.46999998093E+01 0.  1.
</event>
<event>
 5   0  0.4462201E-06  0.2202409E+04  0.7818609E-02  0.8517426E-01
        1   -1    0    0  501    0  0.00000000000E+00  0.00000000000E+00  0.18699923499E+04  0.18699923499E+04  0.50400001928E-02 0.  1.
       -1   -1    0    0    0  501  0.00000000000E+00  0.00000000000E+00 -0.64847902438E+03  0.64847902440E+03  0.50400001928E-02 0. -1.
    10030    2    1    2    0    0  0.00000000000E+00  0.00000000000E+00  0.12215133255E+04  0.25184713743E+04  0.22024085132E+04 0.  0.
        3    1    3    3  502    0 -0.47310675712E+03 -0.99403866383E+03  0.58033128030E+03  0.12444787157E+04  0.10100000352E+00 0. -1.
       -3    1    3    3    0  502  0.47310675712E+03  0.99403866383E+03  0.64118204524E+03  0.12739926586E+04  0.10100000352E+00 0.  1.
</event>
<event>
 5   0  0.4309945E-06  0.2195440E+04  0.7818609E-02  0.8520329E-01
        1   -1    0    0  501    0  0.00000000000E+00  0.00000000000E+00  0.26330410117E+04  0.26330410117E+04  0.50400001928E-02 0.  1.
       -1   -1    0    0    0  501  0.00000000000E+00  0.00000000000E+00 -0.45764153960E+03  0.45764153963E+03  0.50400001928E-02 0. -1.
    10030    2    1    2    0    0  0.00000000000E+00  0.00000000000E+00  0.21753994721E+04  0.30906825514E+04  0.21954397669E+04 0.  0.
        4    1    3    3  502    0  0.42075187761E+03 -0.71365203769E+03  0.21015470588E+04  0.22589451137E+04  0.12699999809E+01 0.  1.
       -4    1    3    3    0  502 -0.42075187761E+03  0.71365203769E+03  0.73852413356E+02  0.83173743770E+03  0.12699999809E+01 0. -1.
</event>
<event>
 5   0  0.4794967E-06  0.2199991E+04  0.7818609E-02  0.8518432E-01
       -1   -1    0    0    0  501  0.00000000000E+00  0.00000000000E+00  0.13147642108E+04  0.13147642108E+04  0.50400001928E-02 0. -1.
        1   -1    0    0  501    0  0.00000000000E+00  0.00000000000E+00 -0.92030977375E+03  0.92030977377E+03  0.50400001928E-02 0.  1.
    10030    2    1    2    0    0  0.00000000000E+00  0.00000000000E+00  0.39445443706E+03  0.22350739846E+04  0.21999912304E+04 0.  0.
        5    1    3    3  502    0  0.30046118954E+03  0.74668742954E+01  0.12722292873E+04  0.13072574842E+04  0.46999998093E+01 0. -1.
       -5    1    3    3    0  502 -0.30046118954E+03 -0.74668742954E+01 -0.87777485024E+03  0.92781650036E+03  0.46999998093E+01 0.  1.
</event>
<event>
 5   0  0.9963573E-06  0.2207804E+04  0.7818609E-02  0.8515187E-01
       -2   -1    0    0    0  501  0.00000000000E+00  0.00000000000E+00  0.96215536272E+03  0.96215536272E+03  0.25500000920E-02 0.  1.
        2   -1    0    0  501    0  0.00000000000E+00  0.00000000000E+00 -0.12665306351E+04  0.12665306351E+04  0.25500000920E-02 0. -1.
    10030    2    1    2    0    0  0.00000000000E+00  0.00000000000E+00 -0.30437527241E+03  0.22286859979E+04  0.22078036531E+04 0.  0.
        2    1    3    3  502    0 -0.33981665373E+01 -0.70804915376E+03  0.70273133394E+03  0.99758532437E+03  0.25500000920E-02 0.  1.
       -2    1    3    3    0  502  0.33981665373E+01  0.70804915376E+03 -0.10071066064E+04  0.12311006735E+04  0.25500000920E-02 0. -1.
</event>
<event>
 5   0  0.4630615E-06  0.2189240E+04  0.7818609E-02  0.8522920E-01
       -1   -1    0    0    0  501  0.00000000000E+00  0.00000000000E+00  0.12014667467E+04  0.12014667467E+04  0.50400001928E-02 0.  1.
        1   -1    0    0  501    0  0.00000000000E+00  0.00000000000E+00 -0.99727535983E+03  0.99727535984E+03  0.50400001928E-02 0. -1.
    10030    2    1    2    0    0  0.00000000000E+00  0.00000000000E+00  0.20419138685E+03  0.21987421065E+04  0.21892402172E+04 0.  0.
        2    1    3    3  502    0  0.10634315797E+03  0.73725823327E+03  0.90765836682E+03  0.11741815365E+04  0.25500000920E-02 0.  1.
       -2    1    3    3    0  502 -0.10634315797E+03 -0.73725823327E+03 -0.70346697996E+03  0.10245605700E+04  0.25500000920E-02 0. -1.
</event>
<event>
 5   0  0.1015876E-05  0.2200201E+04  0.7818609E-02  0.8518344E-01
       -2   -1    0    0    0  501  0.00000000000E+00  0.00000000000E+00  0.13327988809E+04  0.13327988809E+04  0.25500000920E-02 0.  1.
        2   -1    0    0  501    0  0.00000000000E+00  0.00000000000E+00 -0.90803020339E+03  0.90803020339E+03  0.25500000920E-02 0. -1.
    10030    2    1    2    0    0  0.00000000000E+00  0.00000000000E+00  0.42476867752E+03  0.22408290843E+04  0.22002014807E+04 0.  0.
        5    1    3    3  502    0  0.13068110111E+03 -0.84008766239E+03 -0.49862904969E+03  0.98563575923E+03  0.46999998093E+01 0. -1.
       -5    1    3    3    0  502 -0.13068110111E+03  0.84008766239E+03  0.92339772721E+03  0.12551933251E+04  0.46999998093E+01 0.  1.
</event>
<event>
 5   0  0.4408787E-06  0.2199013E+04  0.7818609E-02  0.8518839E-01
       -1   -1    0    0    0  501  0.00000000000E+00  0.00000000000E+00  0.16105954370E+04  0.16105954370E+04  0.50400001928E-02 0. -1.
        1   -1    0    0  501    0  0.00000000000E+00  0.00000000000E+00 -0.75060088855E+03  0.75060088857E+03  0.50400001928E-02 0.  1.
    10030    2    1    2    0    0  0.00000000000E+00  0.00000000000E+00  0.85999454847E+03  0.23611963256E+04  0.21990128387E+04 0.  0.
        1    1    3    3  502    0  0.62156967930E+03 -0.33053845239E+03 -0.47686939180E+03  0.85029933058E+03  0.50400001928E-02 0.  1.
       -1    1    3    3    0  502 -0.62156967930E+03  0.33053845239E+03  0.13368639403E+04  0.15108969950E+04  0.50400001928E-02 0. -1.
</event>
<event>
 5   0  0.1035928E-05  0.2194250E+04  0.7818609E-02  0.8520825E-01
        2   -1    0    0  501    0  0.00000000000E+00  0.00000000000E+00  0.23580577667E+04  0.23580577667E+04  0.25500000920E-02 0.  1.
       -2   -1    0    0    0  501  0.00000000000E+00  0.00000000000E+00 -0.51045536454E+03  0.51045536454E+03  0.25500000920E-02 0. -1.
    10030    2    1    2    0    0  0.00000000000E+00  0.00000000000E+00  0.18476024021E+04  0.28685131312E+04  0.21942499738E+04 0.  0.
        3    1    3    3  502    0  0.87592972596E+03 -0.59288213026E+03  0.54284188278E+03  0.11888815858E+04  0.10100000352E+00 0. -1.
       -3    1    3    3    0  502 -0.87592972596E+03  0.59288213026E+03  0.13047605193E+04  0.16796315454E+04  0.10100000352E+00 0.  1.
</event>
<event>
 5   0  0.1015876E-05  0.2204845E+04  0.7818609E-02  0.8516414E-01
        2   -1    0    0  501    0  0.00000000000E+00  0.00000000000E+00  0.11461763529E+04  0.11461763529E+04  0.25500000920E-02 0.  1.
       -2   -1    0    0    0  501  0.00000000000E+00  0.00000000000E+00 -0.10603392644E+04  0.10603392644E+04  0.25500000920E-02 0. -1.
    10030    2    1    2    0    0  0.00000000000E+00  0.00000000000E+00  0.85837088519E+02  0.22065156173E+04  0.22048453832E+04 0.  0.
        5    1    3    3  502    0 -0.59931691961E+03  0.62933253059E+03 -0.63588245656E+03  0.10768513327E+04  0.46999998093E+01 0. -1.
       -5    1    3    3    0  502  0.59931691961E+03 -0.62933253059E+03  0.72171954508E+03  0.11296642846E+04  0.46999998093E+01 0.  1.
</event>
<event>
 5   0  0.1015876E-05  0.2198527E+04  0.7818609E-02  0.8519042E-01
       -2   -1    0    0    0  501  0.00000000000E+00  0.00000000000E+00  0.77744309403E+03  0.77744309404E+03  0.25500000920E-02 0. -1.
        2   -1    0    0  501    0  0.00000000000E+00  0.00000000000E+00 -0.15542999273E+04  0.15542999273E+04  0.25500000920E-02 0.  1.
    10030    2    1    2    0    0  0.00000000000E+00  0.00000000000E+00 -0.77685683323E+03  0.23317430213E+04  0.21985265470E+04 0.  0.
        5    1    3    3  502    0 -0.53993583157E+03  0.13864878208E+03 -0.13932552690E+04  0.15006453684E+04  0.46999998093E+01 0.  1.
       -5    1    3    3    0  502  0.53993583157E+03 -0.13864878208E+03  0.61639843581E+03  0.83109765290E+03  0.46999998093E+01 0. -1.
</event>
<event>
 5   0  0.1035928E-05  0.2203153E+04  0.7818609E-02  0.8517117E-01
       -2   -1    0    0    0  501  0.00000000000E+00  0.00000000000E+00  0.11786841206E+04  0.11786841206E+04  0.25500000920E-02 0.  1.
        2   -1    0    0  501    0  0.00000000000E+00  0.00000000000E+00 -0.10295134585E+04  0.10295134585E+04  0.25500000920E-02 0. -1.
    10030    2    1    2    0    0  0.00000000000E+00  0.00000000000E+00  0.14917066214E+03  0.22081975791E+04  0.22031533451E+04 0.  0.
        3    1    3    3  502    0  0.92406923149E+02 -0.65680458272E+03 -0.80693950140E+03  0.10445490264E+04  0.10100000352E+00 0. -1.
       -3    1    3    3    0  502 -0.92406923149E+02  0.65680458272E+03  0.95611016354E+03  0.11636485528E+04  0.10100000352E+00 0.  1.
</event>
<event>
 5   0  0.4408787E-06  0.2195845E+04  0.7818609E-02  0.8520159E-01
        1   -1    0    0  501    0  0.00000000000E+00  0.00000000000E+00  0.96784726365E+03  0.96784726367E+03  0.50400001928E-02 0. -1.
       -1   -1    0    0    0  501  0.00000000000E+00  0.00000000000E+00 -0.12454794074E+04  0.12454794074E+04  0.50400001928E-02 0.  1.
    10030    2    1    2    0    0  0.00000000000E+00  0.00000000000E+00 -0.27763214377E+03  0.22133266711E+04  0.21958450186E+04 0.  0.
        1    1    3    3  502    0 -0.25522307594E+03 -0.25495435270E+03  0.90640294284E+03  0.97555462957E+03  0.50400001928E-02 0. -1.
       -1    1    3    3    0  502  0.25522307594E+03  0.25495435270E+03 -0.11840350866E+04  0.12377720415E+04  0.50400001928E-02 0.  1.
</event>
<event>
 5   0  0.4309945E-06  0.2196889E+04  0.7818609E-02  0.8519724E-01
       -1   -1    0    0    0  501  0.00000000000E+00  0.00000000000E+00  0.10853442608E+04  0.10853442608E+04  0.50400001928E-02 0.  1.
        1   -1    0    0  501    0  0.00000000000E+00  0.00000000000E+00 -0.11117025363E+04  0.11117025363E+04  0.50400001928E-02 0. -1.
    10030    2    1    2    0    0  0.00000000000E+00  0.00000000000E+00 -0.26358275523E+02  0.21970467972E+04  0.21968886795E+04 0.  0.
        4    1    3    3  502    0  0.85992853953E+03  0.50241439363E+03  0.45019106241E+03  0.10929642819E+04  0.12699999809E+01 0.  1.
       -4    1    3    3    0  502 -0.85992853953E+03 -0.50241439363E+03 -0.47654933793E+03  0.11040825152E+04  0.12699999809E+01 0. -1.
</event>
<event>
 5   0  0.4794967E-06  0.2201464E+04  0.7818609E-02  0.8517819E-01
       -1   -1    0    0    0  501  0.00000000000E+00  0.00000000000E+00  0.13228414694E+04  0.13228414694E+04  0.50400001928E-02 0.  1.
        1   -1    0    0  501    0  0.00000000000E+00  0.00000000000E+00 -0.91591558154E+03  0.91591558156E+03  0.50400001928E-02 0. -1.
    10030    2    1    2    0    0  0.00000000000E+00  0.00000000000E+00  0.40692588789E+03  0.22387570510E+04  0.22014641617E+04 0.  0.
        5    1    3    3  502    0 -0.61944777485E+02 -0.72493469822E+03 -0.63649601044E+03  0.96670405680E+03  0.46999998093E+01 0. -1.
       -5    1    3    3    0  502  0.61944777485E+02  0.72493469822E+03  0.10434218983E+04  0.12720529942E+04  0.46999998093E+01 0.  1.
</event>
<event>
 5   0  0.9963573E-06  0.2198052E+04  0.7818609E-02  0.8519239E-01
        2   -1    0    0  501    0  0.00000000000E+00  0.00000000000E+00  0.15182519658E+04  0.15182519658E+04  0.25500000920E-02 0.  1.
       -2   -1    0    0    0  501  0.00000000000E+00  0.00000000000E+00 -0.79555831735E+03  0.79555831735E+03  0.25500000920E-02 0. -1.
    10030    2    1    2    0    0  0.00000000000E+00  0.00000000000E+00  0.72269364842E+03  0.23138102831E+04  0.21980518458E+04 0.  0.
        2    1    3    3  502    0 -0.12219649971E+03 -0.10128912687E+04  0.79149540690E+03  0.12912574049E+04  0.25500000920E-02 0.  1.
       -2    1    3    3    0  502  0.12219649971E+03  0.10128912687E+04 -0.68801758478E+02  0.10225528782E+04  0.25500000920E-02 0. -1.
</event>
<event>
 5   0  0.4462201E-06  0.2217060E+04  0.7818609E-02  0.8511361E-01
       -1   -1    0    0    0  501  0.00000000000E+00  0.00000000000E+00  0.12576216780E+04  0.12576216780E+04  0.50400001928E-02 0.  1.
        1   -1    0    0  501    0  0.00000000000E+00  0.00000000000E+00 -0.97711349912E+03  0.97711349913E+03  0.50400001928E-02 0. -1.
    10030    2    1    2    0    0  0.00000000000E+00  0.00000000000E+00  0.28050817890E+03  0.22347351772E+04  0.22170603225E+04 0.  0.
        3    1    3    3  502    0 -0.10012741124E+03 -0.10655699694E+04 -0.15079384808E+03  0.10808347019E+04  0.10100000352E+00 0.  1.
       -3    1    3    3    0  502  0.10012741124E+03  0.10655699694E+04  0.43130202698E+03  0.11539004752E+04  0.10100000352E+00 0. -1.
</event>
<event>
 5   0  0.4309945E-06  0.2189876E+04  0.7818609E-02  0.8522654E-01
       -1   -1    0    0    0  501  0.00000000000E+00  0.00000000000E+00  0.65277025549E+03  0.65277025551E+03  0.50400001928E-02 0. -1.
        1   -1    0    0  501    0  0.00000000000E+00  0.00000000000E+00 -0.18366180712E+04  0.18366180712E+04  0.50400001928E-02 0.  1.
    10030    2    1    2    0    0  0.00000000000E+00  0.00000000000E+00 -0.11838478157E+04  0.24893883267E+04  0.21898763870E+04 0.  0.
        4    1    3    3  502    0 -0.28802440446E+03 -0.18618862738E+03 -0.17739821460E+04  0.18068310740E+04  0.12699999809E+01 0.  1.
       -4    1    3    3    0  502  0.28802440446E+03  0.18618862738E+03  0.59013433033E+03  0.68255725274E+03  0.12699999809E+01 0. -1.
</event>
<event>
 5   0  0.9963173E-06  0.2211358E+04  0.7818609E-02  0.8513715E-01
        2   -1    0    0  501    0  0.00000000000E+00  0.00000000000E+00  0.13166156028E+04  0.13166156028E+04  0.25500000920E-02 0.  1.
       -2   -1    0    0    0  501  0.00000000000E+00  0.00000000000E+00 -0.92853686562E+03  0.92853686563E+03  0.25500000920E-02 0. -1.
    10030    2    1    2    0    0  0.00000000000E+00  0.00000000000E+00  0.38807873718E+03  0.22451524684E+04  0.22113580670E+04 0.  0.
        4    1    3    3  502    0 -0.34026739283E+03  0.99666127689E+03 -0.14786949744E+03  0.10634766573E+04  0.12699999809E+01 0.  1.
       -4    1    3    3    0  502  0.34026739283E+03 -0.99666127689E+03  0.53594823462E+03  0.11816758111E+04  0.12699999809E+01 0. -1.
</event>
<event>
 5   0  0.4309945E-06  0.2177556E+04  0.7818609E-02  0.8527828E-01
        1   -1    0    0  501    0  0.00000000000E+00  0.00000000000E+00  0.79616087719E+03  0.79616087721E+03  0.50400001928E-02 0.  1.
       -1   -1    0    0    0  501  0.00000000000E+00  0.00000000000E+00 -0.14889418158E+04  0.14889418158E+04  0.50400001928E-02 0. -1.
    10030    2    1    2    0    0  0.00000000000E+00  0.00000000000E+00 -0.69278093859E+03  0.22851026930E+04  0.21775557143E+04 0.  0.
        4    1    3    3  502    0  0.73137486712E+03 -0.80290562810E+03 -0.42678328144E+03  0.11669242589E+04  0.12699999809E+01 0. -1.
       -4    1    3    3    0  502 -0.73137486712E+03  0.80290562810E+03 -0.26599765715E+03  0.11181784341E+04  0.12699999809E+01 0.  1.
</event>
<event>
 5   0  0.4309945E-06  0.2199857E+04  0.7818609E-02  0.8518488E-01
        1   -1    0    0  501    0  0.00000000000E+00  0.00000000000E+00  0.87986574084E+03  0.87986574085E+03  0.50400001928E-02 0. -1.
       -1   -1    0    0    0  501  0.00000000000E+00  0.00000000000E+00 -0.13750310754E+04  0.13750310754E+04  0.50400001928E-02 0.  1.
    10030    2    1    2    0    0  0.00000000000E+00  0.00000000000E+00 -0.49516533459E+03  0.22548968163E+04  0.21998570280E+04 0.  0.
        4    1    3    3  502    0 -0.10389589797E+04  0.32679241902E+03 -0.90075867970E+02  0.10928606140E+04  0.12699999809E+01 0.  1.
       -4    1    3    3    0  502  0.10389589797E+04 -0.32679241902E+03 -0.40508946662E+03  0.11620362023E+04  0.12699999809E+01 0. -1.
</event>
<event>
 5   0  0.4408787E-06  0.2199827E+04  0.7818609E-02  0.8518500E-01
       -1   -1    0    0    0  501  0.00000000000E+00  0.00000000000E+00  0.98061065548E+03  0.98061065550E+03  0.50400001928E-02 0. -1.
        1   -1    0    0  501    0  0.00000000000E+00  0.00000000000E+00 -0.12337307851E+04  0.12337307851E+04  0.50400001928E-02 0.  1.
    10030    2    1    2    0    0  0.00000000000E+00  0.00000000000E+00 -0.25312012959E+03  0.22143414406E+04  0.21998268603E+04 0.  0.
        1    1    3    3  502    0 -0.32839129352E+03  0.84930629870E+03  0.49447710121E+03  0.10361803097E+04  0.50400001928E-02 0. -1.
       -1    1    3    3    0  502  0.32839129352E+03 -0.84930629870E+03 -0.74759723079E+03  0.11781611308E+04  0.50400001928E-02 0.  1.
</event>
<event>
 5   0  0.1014015E-05  0.2198602E+04  0.7818609E-02  0.8519010E-01
       -2   -1    0    0    0  501  0.00000000000E+00  0.00000000000E+00  0.78469191713E+03  0.78469191714E+03  0.25500000920E-02 0. -1.
        2   -1    0    0  501    0  0.00000000000E+00  0.00000000000E+00 -0.15400478971E+04  0.15400478971E+04  0.25500000920E-02 0.  1.
    10030    2    1    2    0    0  0.00000000000E+00  0.00000000000E+00 -0.75535598001E+03  0.23247398143E+04  0.21986024078E+04 0.  0.
        1    1    3    3  502    0 -0.61909396447E+03 -0.38549310371E+03 -0.12474141176E+04  0.14449651382E+04  0.50400001928E-02 0.  1.
       -1    1    3    3    0  502  0.61909396447E+03  0.38549310371E+03  0.49205813759E+03  0.87977467606E+03  0.50400001928E-02 0. -1.
</event>
<event>
 5   0  0.4462201E-06  0.2199973E+04  0.7818609E-02  0.8518439E-01
       -1   -1    0    0    0  501  0.00000000000E+00  0.00000000000E+00  0.59679575966E+03  0.59679575968E+03  0.50400001928E-02 0. -1.
        1   -1    0    0  501    0  0.00000000000E+00  0.00000000000E+00 -0.20274443078E+04  0.20274443078E+04  0.50400001928E-02 0.  1.
    10030    2    1    2    0    0  0.00000000000E+00  0.00000000000E+00 -0.14306485482E+04  0.26242400675E+04  0.21999728779E+04 0.  0.
        3    1    3    3  502    0  0.49558054638E+03  0.83823736786E+03 -0.13255794740E+04  0.16448109055E+04  0.10100000352E+00 0.  1.
       -3    1    3    3    0  502 -0.49558054638E+03 -0.83823736786E+03 -0.10506907417E+03  0.97942916200E+03  0.10100000352E+00 0. -1.
</event>
<event>
 5   0  0.9963573E-06  0.2200480E+04  0.7818609E-02  0.8518228E-01
       -2   -1    0    0    0  501  0.00000000000E+00  0.00000000000E+00  0.66854710321E+03  0.66854710321E+03  0.25500000920E-02 0. -1.
        2   -1    0    0  501    0  0.00000000000E+00  0.00000000000E+00 -0.18106849604E+04  0.18106849604E+04  0.25500000920E-02 0.  1.
    10030    2    1    2    0    0  0.00000000000E+00  0.00000000000E+00 -0.11421378572E+04  0.24792320636E+04  0.22004801159E+04 0.  0.
        2    1    3    3  502    0 -0.62318996904E+03 -0.90558237134E+03 -0.62249058523E+03  0.12633050691E+04  0.25500000920E-02 0. -1.
       -2    1    3    3    0  502  0.62318996904E+03  0.90558237134E+03 -0.51964727193E+03  0.12159269945E+04  0.25500000920E-02 0.  1.
</event>
<event>
 5   0  0.1035928E-05  0.2202852E+04  0.7818609E-02  0.8517242E-01
        2   -1    0    0  501    0  0.00000000000E+00  0.00000000000E+00  0.12181994784E+04  0.12181994784E+04  0.25500000920E-02 0. -1.
       -2   -1    0    0    0  501  0.00000000000E+00  0.00000000000E+00 -0.99584619356E+03  0.99584619356E+03  0.25500000920E-02 0.  1.
    10030    2    1    2    0    0  0.00000000000E+00  0.00000000000E+00  0.22235328484E+03  0.22140456720E+04  0.22028520727E+04 0.  0.
        3    1    3    3  502    0  0.70163962816E+03  0.21308258589E+02  0.96424572640E+03  0.11926952841E+04  0.10100000352E+00 0.  1.
       -3    1    3    3    0  502 -0.70163962816E+03 -0.21308258589E+02 -0.74189244156E+03  0.10213503878E+04  0.10100000352E+00 0. -1.
</event>
<event>
 5   0  0.3546750E-06  0.2197438E+04  0.7818609E-02  0.8519495E-01
        3   -1    0    0  501    0  0.00000000000E+00  0.00000000000E+00  0.15642845564E+04  0.15642845597E+04  0.10100000352E+00 0.  1.
       -3   -1    0    0    0  501  0.00000000000E+00  0.00000000000E+00 -0.77171616296E+03  0.77171616957E+03  0.10100000352E+00 0. -1.
    10030    2    1    2    0    0  0.00000000000E+00  0.00000000000E+00  0.79256839347E+03  0.23360007293E+04  0.21974382241E+04 0.  0.
        5    1    3    3  502    0 -0.13179622433E+03  0.50700036322E+03  0.14229688304E+04  0.15163383512E+04  0.46999998093E+01 0.  1.
       -5    1    3    3    0  502  0.13179622433E+03 -0.50700036322E+03 -0.63040043695E+03  0.81966237803E+03  0.46999998093E+01 0. -1.
</event>
<event>
 5   0  0.4794967E-06  0.2196773E+04  0.7818609E-02  0.8519772E-01
        1   -1    0    0  501    0  0.00000000000E+00  0.00000000000E+00  0.22710463363E+04  0.22710463363E+04  0.50400001928E-02 0. -1.
       -1   -1    0    0    0  501  0.00000000000E+00  0.00000000000E+00 -0.53123219811E+03  0.53123219813E+03  0.50400001928E-02 0.  1.
    10030    2    1    2    0    0  0.00000000000E+00  0.00000000000E+00  0.17398141382E+04  0.28022785344E+04  0.21967730309E+04 0.  0.
        5    1    3    3  502    0 -0.52776862128E+03  0.17367217351E+01  0.20986864565E+04  0.21640355049E+04  0.46999998093E+01 0. -1.
       -5    1    3    3    0  502  0.52776862128E+03 -0.17367217351E+01 -0.35887231835E+03  0.63824302949E+03  0.46999998093E+01 0.  1.
</event>
<event>
 5   0  0.9963173E-06  0.2201539E+04  0.7818609E-02  0.8517788E-01
        2   -1    0    0  501    0  0.00000000000E+00  0.00000000000E+00  0.75353085861E+03  0.75353085861E+03  0.25500000920E-02 0. -1.
       -2   -1    0    0    0  501  0.00000000000E+00  0.00000000000E+00 -0.16080216364E+04  0.16080216364E+04  0.25500000920E-02 0.  1.
    10030    2    1    2    0    0  0.00000000000E+00  0.00000000000E+00 -0.85449077782E+03  0.23615524950E+04  0.22015393927E+04 0.  0.
        4    1    3    3  502    0 -0.19198856269E+03 -0.10631801135E+04 -0.20101174471E+03  0.10989171472E+04  0.12699999809E+01 0.  1.
       -4    1    3    3    0  502  0.19198856269E+03  0.10631801135E+04 -0.65347903310E+03  0.12626353478E+04  0.12699999809E+01 0. -1.
</event>
<event>
 5   0  0.9963173E-06  0.2199877E+04  0.7818609E-02  0.8518479E-01
        2   -1    0    0  501    0  0.00000000000E+00  0.00000000000E+00  0.11482269381E+04  0.11482269381E+04  0.25500000920E-02 0. -1.
       -2   -1    0    0    0  501  0.00000000000E+00  0.00000000000E+00 -0.10536808427E+04  0.10536808427E+04  0.25500000920E-02 0.  1.
    10030    2    1    2    0    0  0.00000000000E+00  0.00000000000E+00  0.94546095433E+02  0.22019077808E+04  0.21998770218E+04 0.  0.
        4    1    3    3  502    0  0.99818205558E+03 -0.45449547839E+03 -0.36047768804E+02  0.10973762393E+04  0.12699999809E+01 0. -1.
       -4    1    3    3    0  502 -0.99818205558E+03  0.45449547839E+03  0.13059386424E+03  0.11045315415E+04  0.12699999809E+01 0.  1.
</event>
<event>
 5   0  0.9963573E-06  0.2203232E+04  0.7818609E-02  0.8517084E-01
        2   -1    0    0  501    0  0.00000000000E+00  0.00000000000E+00  0.13471373917E+04  0.13471373917E+04  0.25500000920E-02 0.  1.
       -2   -1    0    0    0  501  0.00000000000E+00  0.00000000000E+00 -0.90084202782E+03  0.90084202783E+03  0.25500000920E-02 0. -1.
    10030    2    1    2    0    0  0.00000000000E+00  0.00000000000E+00  0.44629536389E+03  0.22479794195E+04  0.22032321527E+04 0.  0.
        2    1    3    3  502    0 -0.87355718442E+03  0.26719459428E+02  0.90739600731E+03  0.12598347503E+04  0.25500000920E-02 0. -1.
       -2    1    3    3    0  502  0.87355718442E+03 -0.26719459428E+02 -0.46110064343E+03  0.98814466924E+03  0.25500000920E-02 0.  1.
</event>
<event>
 5   0  0.4794967E-06  0.2198635E+04  0.7818609E-02  0.8518997E-01
        1   -1    0    0  501    0  0.00000000000E+00  0.00000000000E+00  0.55672563147E+03  0.55672563149E+03  0.50400001928E-02 0.  1.
       -1   -1    0    0    0  501  0.00000000000E+00  0.00000000000E+00 -0.21707258992E+04  0.21707258992E+04  0.50400001928E-02 0. -1.
    10030    2    1    2    0    0  0.00000000000E+00  0.00000000000E+00 -0.16140002677E+04  0.27274515307E+04  0.21986348010E+04 0.  0.
        5    1    3    3  502    0 -0.66602467325E+03 -0.36291380412E+03 -0.17941157105E+04  0.19478625638E+04  0.46999998093E+01 0. -1.
       -5    1    3    3    0  502  0.66602467325E+03  0.36291380412E+03  0.18011544281E+03  0.77958896691E+03  0.46999998093E+01 0.  1.
</event>
<event>
 5   0  0.1035928E-05  0.2203915E+04  0.7818609E-02  0.8516800E-01
       -2   -1    0    0    0  501  0.00000000000E+00  0.00000000000E+00  0.45010124913E+03  0.45010124914E+03  0.25500000920E-02 0. -1.
        2   -1    0    0  501    0  0.00000000000E+00  0.00000000000E+00 -0.26978614428E+04  0.26978614428E+04  0.25500000920E-02 0.  1.
    10030    2    1    2    0    0  0.00000000000E+00  0.00000000000E+00 -0.22477601936E+04  0.31479626919E+04  0.22039154298E+04 0.  0.
        3    1    3    3  502    0  0.85231831776E+03  0.63783164039E+03 -0.71727653291E+03  0.12836515692E+04  0.10100000352E+00 0. -1.
       -3    1    3    3    0  502 -0.85231831776E+03 -0.63783164039E+03 -0.15304836607E+04  0.18643111227E+04  0.10100000352E+00 0.  1.
</event>
<event>
 5   0  0.3546750E-06  0.2199743E+04  0.7818609E-02  0.8518535E-01
       -3   -1    0    0    0  501  0.00000000000E+00  0.00000000000E+00  0.57325035477E+03  0.57325036367E+03  0.10100000352E+00 0.  1.
        3   -1    0    0  501    0  0.00000000000E+00  0.00000000000E+00 -0.21102767896E+04  0.21102767920E+04  0.10100000352E+00 0. -1.
    10030    2    1    2    0    0  0.00000000000E+00  0.00000000000E+00 -0.15370264348E+04  0.26835271557E+04  0.21997426518E+04 0.  0.
        2    1    3    3  502    0  0.68946147774E+02 -0.35235714400E+03  0.49974695687E+03  0.61535042791E+03  0.25500000920E-02 0.  1.
       -2    1    3    3    0  502 -0.68946147774E+02  0.35235714400E+03 -0.20367733917E+04  0.20681767278E+04  0.25500000920E-02 0. -1.
</event>
<event>
 5   0  0.4462201E-06  0.2209855E+04  0.7818609E-02  0.8514338E-01
        1   -1    0    0  501    0  0.00000000000E+00  0.00000000000E+00  0.10271597262E+04  0.10271597262E+04  0.50400001928E-02 0. -1.
       -1   -1    0    0    0  501  0.00000000000E+00  0.00000000000E+00 -0.11885829028E+04  0.11885829028E+04  0.50400001928E-02 0.  1.
    10030    2    1    2    0    0  0.00000000000E+00  0.00000000000E+00 -0.16142317665E+03  0.22157426290E+04  0.22098547364E+04 0.  0.
        3    1    3    3  502    0 -0.66122531646E+03  0.34783519134E+03 -0.89691749339E+03  0.11673342450E+04  0.10100000352E+00 0.  1.
       -3    1    3    3    0  502  0.66122531646E+03 -0.34783519134E+03  0.73549431674E+03  0.10484083840E+04  0.10100000352E+00 0. -1.
</event>
<event>
 5   0  0.3546750E-06  0.2218786E+04  0.7818609E-02  0.8510650E-01
       -3   -1    0    0    0  501  0.00000000000E+00  0.00000000000E+00  0.87519061990E+03  0.87519062573E+03  0.10100000352E+00 0.  1.
        3   -1    0    0  501    0  0.00000000000E+00  0.00000000000E+00 -0.14062678948E+04  0.14062678985E+04  0.10100000352E+00 0. -1.
    10030    2    1    2    0    0  0.00000000000E+00  0.00000000000E+00 -0.53107727495E+03  0.22814585242E+04  0.22187856872E+04 0.  0.
        4    1    3    3  502    0 -0.20849119993E+03  0.20672256320E+03  0.83451596120E+03  0.88465886136E+03  0.12699999809E+01 0.  1.
       -4    1    3    3    0  502  0.20849119993E+03 -0.20672256320E+03 -0.13655932362E+04  0.13967996628E+04  0.12699999809E+01 0. -1.
</event>
<event>
 5   0  0.9963173E-06  0.2198806E+04  0.7818609E-02  0.8518925E-01
        2   -1    0    0  501    0  0.00000000000E+00  0.00000000000E+00  0.84391043888E+03  0.84391043889E+03  0.25500000920E-02 0.  1.
       -2   -1    0    0    0  501  0.00000000000E+00  0.00000000000E+00 -0.14322461633E+04  0.14322461633E+04  0.25500000920E-02 0. -1.
    10030    2    1    2    0    0  0.00000000000E+00  0.00000000000E+00 -0.58833572446E+03  0.22761566022E+04  0.21988064838E+04 0.  0.
        4    1    3    3  502    0 -0.62279472218E+03 -0.90348950394E+03 -0.22457704276E+03  0.11200906261E+04  0.12699999809E+01 0. -1.
       -4    1    3    3    0  502  0.62279472218E+03  0.90348950394E+03 -0.36375868170E+03  0.11560659761E+04  0.12699999809E+01 0.  1.
</event>
<event>
 5   0  0.4309945E-06  0.2198581E+04  0.7818609E-02  0.8519019E-01
        1   -1    0    0  501    0  0.00000000000E+00  0.00000000000E+00  0.15837998368E+04  0.15837998368E+04  0.50400001928E-02 0. -1.
       -1   -1    0    0    0  501  0.00000000000E+00  0.00000000000E+00 -0.76300033227E+03  0.76300033228E+03  0.50400001928E-02 0.  1.
    10030    2    1    2    0    0  0.00000000000E+00  0.00000000000E+00  0.82079950456E+03  0.23468001691E+04  0.21985811805E+04 0.  0.
        4    1    3    3  502    0  0.19914858695E+03  0.87694747041E+03 -0.26447478188E+03  0.93736094899E+03  0.12699999809E+01 0.  1.
       -4    1    3    3    0  502 -0.19914858695E+03 -0.87694747041E+03  0.10852742864E+04  0.14094392201E+04  0.12699999809E+01 0. -1.
</event>
<event>
 5   0  0.4462201E-06  0.2196881E+04  0.7818609E-02  0.8519727E-01
        1   -1    0    0  501    0  0.00000000000E+00  0.00000000000E+00  0.71143552158E+03  0.71143552160E+03  0.50400001928E-02 0.  1.
       -1   -1    0    0    0  501  0.00000000000E+00  0.00000000000E+00 -0.16959681617E+04  0.16959681617E+04  0.50400001928E-02 0. -1.
    10030    2    1    2    0    0  0.00000000000E+00  0.00000000000E+00 -0.98453264013E+03  0.24074036833E+04  0.21968814203E+04 0.  0.
        3    1    3    3  502    0  0.59549524540E+03 -0.12823386579E+03 -0.14939233265E+04  0.16133398363E+04  0.10100000352E+00 0. -1.
       -3    1    3    3    0  502 -0.59549524540E+03  0.12823386579E+03  0.50939068637E+03  0.79406384705E+03  0.10100000352E+00 0.  1.
</event>
<event>
 5   0  0.9963573E-06  0.2189405E+04  0.7818609E-02  0.8522851E-01
        2   -1    0    0  501    0  0.00000000000E+00  0.00000000000E+00  0.91399774848E+03  0.91399774849E+03  0.25500000920E-02 0. -1.
       -2   -1    0    0    0  501  0.00000000000E+00  0.00000000000E+00 -0.13111342199E+04  0.13111342199E+04  0.25500000920E-02 0.  1.
    10030    2    1    2    0    0  0.00000000000E+00  0.00000000000E+00 -0.39713647141E+03  0.22251319684E+04  0.21894051475E+04 0.  0.
        2    1    3    3  502    0 -0.95486376782E+03 -0.46915824973E+03  0.63514645134E+02  0.10657900302E+04  0.25500000920E-02 0.  1.
       -2    1    3    3    0  502  0.95486376782E+03  0.46915824973E+03 -0.46065111654E+03  0.11593419381E+04  0.25500000920E-02 0. -1.
</event>
<event>
 5   0  0.4462201E-06  0.2201207E+04  0.7818609E-02  0.8517926E-01
        1   -1    0    0  501    0  0.00000000000E+00  0.00000000000E+00  0.12690558290E+04  0.12690558290E+04  0.50400001928E-02 0.  1.
       -1   -1    0    0    0  501  0.00000000000E+00  0.00000000000E+00 -0.95451129008E+03  0.95451129010E+03  0.50400001928E-02 0. -1.
    10030    2    1    2    0    0  0.00000000000E+00  0.00000000000E+00  0.31454453893E+03  0.22235671191E+04  0.22012070476E+04 0.  0.
        3    1    3    3  502    0 -0.51791850787E+02  0.11236347305E+03 -0.94746396525E+03  0.95550820066E+03  0.10100000352E+00 0. -1.
       -3    1    3    3    0  502  0.51791850787E+02 -0.11236347305E+03  0.12620085042E+04  0.12680589185E+04  0.10100000352E+00 0.  1.
</event>
<event>
 5   0  0.9963173E-06  0.2171203E+04  0.7818609E-02  0.8530511E-01
       -2   -1    0    0    0  501  0.00000000000E+00  0.00000000000E+00  0.57315671756E+03  0.57315671757E+03  0.25500000920E-02 0.  1.
        2   -1    0    0  501    0  0.00000000000E+00  0.00000000000E+00 -0.20562101021E+04  0.20562101021E+04  0.25500000920E-02 0. -1.
    10030    2    1    2    0    0  0.00000000000E+00  0.00000000000E+00 -0.14830533846E+04  0.26293668197E+04  0.21712030147E+04 0.  0.
        4    1    3    3  502    0  0.47456695743E+03  0.90092445847E+03 -0.28574218381E+03  0.10576052598E+04  0.12699999809E+01 0. -1.
       -4    1    3    3    0  502 -0.47456695743E+03 -0.90092445847E+03 -0.11973112007E+04  0.15717615599E+04  0.12699999809E+01 0.  1.
</event>
<event>
 5   0  0.1014015E-05  0.2203645E+04  0.7818609E-02  0.8516912E-01
        2   -1    0    0  501    0  0.00000000000E+00  0.00000000000E+00  0.11816585471E+04  0.11816585471E+04  0.25500000920E-02 0. -1.
       -2   -1    0    0    0  501  0.00000000000E+00  0.00000000000E+00 -0.10273805071E+04  0.10273805071E+04  0.25500000920E-02 0.  1.
    10030    2    1    2    0    0  0.00000000000E+00  0.00000000000E+00  0.15427804001E+03  0.22090390542E+04  0.22036451233E+04 0.  0.
        1    1    3    3  502    0  0.91530627429E+03 -0.28651783079E+03  0.62080859139E+03  0.11424891029E+04  0.50400001928E-02 0. -1.
       -1    1    3    3    0  502 -0.91530627429E+03  0.28651783079E+03 -0.46653055139E+03  0.10665499513E+04  0.50400001928E-02 0.  1.
</event>
<event>
 5   0  0.1014015E-05  0.2197954E+04  0.7818609E-02  0.8519280E-01
        2   -1    0    0  501    0  0.00000000000E+00  0.00000000000E+00  0.17429856137E+04  0.17429856137E+04  0.25500000920E-02 0.  1.
       -2   -1    0    0    0  501  0.00000000000E+00  0.00000000000E+00 -0.69292079769E+03  0.69292079769E+03  0.25500000920E-02 0. -1.
    10030    2    1    2    0    0  0.00000000000E+00  0.00000000000E+00  0.10500648160E+04  0.24359064114E+04  0.21979544871E+04 0.  0.
        1    1    3    3  502    0 -0.10554774409E+04 -0.29423399963E+03  0.61870965403E+03  0.12583353729E+04  0.50400001928E-02 0. -1.
       -1    1    3    3    0  502  0.10554774409E+04  0.29423399963E+03  0.43135516199E+03  0.11775710385E+04  0.50400001928E-02 0.  1.
</event>
<event>
 5   0  0.1035928E-05  0.2197778E+04  0.7818609E-02  0.8519353E-01
       -2   -1    0    0    0  501  0.00000000000E+00  0.00000000000E+00  0.10481509839E+04  0.10481509839E+04  0.25500000920E-02 0. -1.
        2   -1    0    0  501    0  0.00000000000E+00  0.00000000000E+00 -0.11520832348E+04  0.11520832348E+04  0.25500000920E-02 0.  1.
    10030    2    1    2    0    0  0.00000000000E+00  0.00000000000E+00 -0.10393225084E+03  0.22002342187E+04  0.21977781290E+04 0.  0.
        3    1    3    3  502    0  0.74470835375E+03 -0.60239331601E+03 -0.59116706828E+03  0.11255872921E+04  0.10100000352E+00 0.  1.
       -3    1    3    3    0  502 -0.74470835375E+03  0.60239331601E+03  0.48723481744E+03  0.10746469266E+04  0.10100000352E+00 0. -1.
</event>
<event>
 5   0  0.1015876E-05  0.2207264E+04  0.7818609E-02  0.8515411E-01
        2   -1    0    0  501    0  0.00000000000E+00  0.00000000000E+00  0.18338168950E+04  0.18338168950E+04  0.25500000920E-02 0. -1.
       -2   -1    0    0    0  501  0.00000000000E+00  0.00000000000E+00 -0.66419023056E+03  0.66419023056E+03  0.25500000920E-02 0.  1.
    10030    2    1    2    0    0  0.00000000000E+00  0.00000000000E+00  0.11696266644E+04  0.24980071255E+04  0.22072637054E+04 0.  0.
        5    1    3    3  502    0 -0.44021684753E+03  0.87908415108E+03  0.17369001936E+02  0.98331255954E+03  0.46999998093E+01 0. -1.
       -5    1    3    3    0  502  0.44021684753E+03 -0.87908415108E+03  0.11522576625E+04  0.15146945660E+04  0.46999998093E+01 0.  1.
</event>
<event>
 5   0  0.4462201E-06  0.2177255E+04  0.7818609E-02  0.8527955E-01
        1   -1    0    0  501    0  0.00000000000E+00  0.00000000000E+00  0.14442667030E+04  0.14442667030E+04  0.50400001928E-02 0.  1.
       -1   -1    0    0    0  501  0.00000000000E+00  0.00000000000E+00 -0.82056130698E+03  0.82056130700E+03  0.50400001928E-02 0. -1.
    10030    2    1    2    0    0  0.00000000000E+00  0.00000000000E+00  0.62370539602E+03  0.22648280100E+04  0.21772545772E+04 0.  0.
        3    1    3    3  502    0 -0.40585374179E+03  0.29101290081E+02  0.13621911413E+04  0.14216641167E+04  0.10100000352E+00 0.  1.
       -3    1    3    3    0  502  0.40585374179E+03 -0.29101290081E+02 -0.73848574533E+03  0.84316389336E+03  0.10100000352E+00 0. -1.
</event>
<event>
 5   0  0.4309945E-06  0.2212870E+04  0.7818609E-02  0.8513091E-01
       -1   -1    0    0    0  501  0.00000000000E+00  0.00000000000E+00  0.63454239664E+03  0.63454239666E+03  0.50400001928E-02 0.  1.
        1   -1    0    0  501    0  0.00000000000E+00  0.00000000000E+00 -0.19292611208E+04  0.19292611208E+04  0.50400001928E-02 0. -1.
    10030    2    1    2    0    0  0.00000000000E+00  0.00000000000E+00 -0.12947187241E+04  0.25638035175E+04  0.22128696079E+04 0.  0.
        4    1    3    3  502    0  0.10734354450E+04 -0.24766613157E+03 -0.76661060142E+03  0.13421235391E+04  0.12699999809E+01 0. -1.
       -4    1    3    3    0  502 -0.10734354450E+04  0.24766613157E+03 -0.52810812273E+03  0.12216799783E+04  0.12699999809E+01 0.  1.
</event>
<event>
 5   0  0.9963173E-06  0.2205414E+04  0.7818609E-02  0.8516178E-01
       -2   -1    0    0    0  501  0.00000000000E+00  0.00000000000E+00  0.90639932713E+03  0.90639932713E+03  0.25500000920E-02 0.  1.
        2   -1    0    0  501    0  0.00000000000E+00  0.00000000000E+00 -0.13415304995E+04  0.13415304995E+04  0.25500000920E-02 0. -1.
    10030    2    1    2    0    0  0.00000000000E+00  0.00000000000E+00 -0.43513117233E+03  0.22479298266E+04  0.22054136501E+04 0.  0.
        4    1    3    3  502    0 -0.10777894952E+03 -0.41096314993E+02 -0.13353635547E+04  0.13403367656E+04  0.12699999809E+01 0. -1.
       -4    1    3    3    0  502  0.10777894952E+03  0.41096314993E+02  0.90023238241E+03  0.90759306097E+03  0.12699999809E+01 0.  1.
</event>
<event>
 5   0  0.4462201E-06  0.2193685E+04  0.7818609E-02  0.8521061E-01
       -1   -1    0    0    0  501  0.00000000000E+00  0.00000000000E+00  0.12146703768E+04  0.12146703768E+04  0.50400001928E-02 0.  1.
        1   -1    0    0  501    0  0.00000000000E+00  0.00000000000E+00 -0.99044429161E+03  0.99044429163E+03  0.50400001928E-02 0. -1.
    10030    2    1    2    0    0  0.00000000000E+00  0.00000000000E+00  0.22422608515E+03  0.22051146684E+04  0.21936848825E+04 0.  0.
        3    1    3    3  502    0  0.10797133565E+04 -0.26945479618E+02 -0.80080276623E+02  0.10830142437E+04  0.10100000352E+00 0. -1.
       -3    1    3    3    0  502 -0.10797133565E+04  0.26945479618E+02  0.30430636178E+03  0.11221004247E+04  0.10100000352E+00 0.  1.
</event>
<event>
 5   0  0.4630615E-06  0.2198803E+04  0.7818609E-02  0.8518927E-01
        1   -1    0    0  501    0  0.00000000000E+00  0.00000000000E+00  0.11918688734E+04  0.11918688734E+04  0.50400001928E-02 0.  1.
       -1   -1    0    0    0  501  0.00000000000E+00  0.00000000000E+00 -0.10141076889E+04  0.10141076889E+04  0.50400001928E-02 0. -1.
    10030    2    1    2    0    0  0.00000000000E+00  0.00000000000E+00  0.17776118445E+03  0.22059765623E+04  0.21988027548E+04 0.  0.
        2    1    3    3  502    0 -0.78690394299E+02  0.36095390481E+03 -0.94997032979E+03  0.10192759818E+04  0.25500000920E-02 0. -1.
       -2    1    3    3    0  502  0.78690394299E+02 -0.36095390481E+03  0.11277315142E+04  0.11867005805E+04  0.25500000920E-02 0.  1.
</event>
<event>
 5   0  0.4462201E-06  0.2193632E+04  0.7818609E-02  0.8521083E-01
       -1   -1    0    0    0  501  0.00000000000E+00  0.00000000000E+00  0.72125448708E+03  0.72125448710E+03  0.50400001928E-02 0.  1.
        1   -1    0    0  501    0  0.00000000000E+00  0.00000000000E+00 -0.16679346602E+04  0.16679346602E+04  0.50400001928E-02 0. -1.
    10030    2    1    2    0    0  0.00000000000E+00  0.00000000000E+00 -0.94668017313E+03  0.23891891473E+04  0.21936320182E+04 0.  0.
        3    1    3    3  502    0  0.23385727041E+03 -0.94727582326E+03  0.72305099904E+02  0.97839089629E+03  0.10100000352E+00 0.  1.
       -3    1    3    3    0  502 -0.23385727041E+03  0.94727582326E+03 -0.10189852730E+04  0.14107982510E+04  0.10100000352E+00 0. -1.
</event>
<event>
 5   0  0.4462201E-06  0.2196828E+04  0.7818609E-02  0.8519749E-01
       -1   -1    0    0    0  501  0.00000000000E+00  0.00000000000E+00  0.79903295180E+03  0.79903295182E+03  0.50400001928E-02 0. -1.
        1   -1    0    0  501    0  0.00000000000E+00  0.00000000000E+00 -0.15099673264E+04  0.15099673265E+04  0.50400001928E-02 0.  1.
    10030    2    1    2    0    0  0.00000000000E+00  0.00000000000E+00 -0.71093437464E+03  0.23090002783E+04  0.21968283046E+04 0.  0.
        3    1    3    3  502    0  0.29506296200E+03 -0.45576237551E+03  0.64813477851E+03  0.84549405426E+03  0.10100000352E+00 0. -1.
       -3    1    3    3    0  502 -0.29506296200E+03  0.45576237551E+03 -0.13590691531E+04  0.14635062240E+04  0.10100000352E+00 0.  1.
</event>
<event>
 5   0  0.4794967E-06  0.2131642E+04  0.7818609E-02  0.8547432E-01
        1   -1    0    0  501    0  0.00000000000E+00  0.00000000000E+00  0.15270537140E+04  0.15270537140E+04  0.50400001928E-02 0. -1.
       -1   -1    0    0    0  501  0.00000000000E+00  0.00000000000E+00 -0.74389915567E+03  0.74389915569E+03  0.50400001928E-02 0.  1.
    10030    2    1    2    0    0  0.00000000000E+00  0.00000000000E+00  0.78315455830E+03  0.22709528697E+04  0.21316415914E+04 0.  0.
        5    1    3    3  502    0 -0.24074074922E+02  0.39192014322E+03 -0.66402183629E+03  0.77144542828E+03  0.46999998093E+01 0.  1.
       -5    1    3    3    0  502  0.24074074922E+02 -0.39192014322E+03  0.14471763946E+04  0.14995074414E+04  0.46999998093E+01 0. -1.
</event>
<event>
 5   0  0.4630615E-06  0.2198659E+04  0.7818609E-02  0.8518986E-01
       -1   -1    0    0    0  501  0.00000000000E+00  0.00000000000E+00  0.12142197381E+04  0.12142197381E+04  0.50400001928E-02 0.  1.
        1   -1    0    0  501    0  0.00000000000E+00  0.00000000000E+00 -0.99531061339E+03  0.99531061340E+03  0.50400001928E-02 0. -1.
    10030    2    1    2    0    0  0.00000000000E+00  0.00000000000E+00  0.21890912474E+03  0.22095303516E+04  0.21986594028E+04 0.  0.
        2    1    3    3  502    0  0.94074807545E+03  0.53537643946E+03  0.30247431346E+03  0.11238885993E+04  0.25500000920E-02 0.  1.
       -2    1    3    3    0  502 -0.94074807545E+03 -0.53537643946E+03 -0.83565188715E+02  0.10856417522E+04  0.25500000920E-02 0. -1.
</event>
<event>
 5   0  0.4630615E-06  0.2199802E+04  0.7818609E-02  0.8518510E-01
        1   -1    0    0  501    0  0.00000000000E+00  0.00000000000E+00  0.14007728285E+04  0.14007728285E+04  0.50400001928E-02 0.  1.
       -1   -1    0    0    0  501  0.00000000000E+00  0.00000000000E+00 -0.86365377358E+03  0.86365377359E+03  0.50400001928E-02 0. -1.
    10030    2    1    2    0    0  0.00000000000E+00  0.00000000000E+00  0.53711905493E+03  0.22644266021E+04  0.21998024814E+04 0.  0.
        2    1    3    3  502    0 -0.37928401581E+03 -0.64390712909E+03 -0.56218679679E+03  0.93516134973E+03  0.25500000920E-02 0. -1.
       -2    1    3    3    0  502  0.37928401581E+03  0.64390712909E+03  0.10993058517E+04  0.13292652524E+04  0.25500000920E-02 0.  1.
</event>
<event>
 5   0  0.1015876E-05  0.2176164E+04  0.7818609E-02  0.8528415E-01
        2   -1    0    0  501    0  0.00000000000E+00  0.00000000000E+00  0.19950454059E+04  0.19950454059E+04  0.25500000920E-02 0.  1.
       -2   -1    0    0    0  501  0.00000000000E+00  0.00000000000E+00 -0.59343133205E+03  0.59343133206E+03  0.25500000920E-02 0. -1.
    10030    2    1    2    0    0  0.00000000000E+00  0.00000000000E+00  0.14016140739E+04  0.25884767380E+04  0.21761640129E+04 0.  0.
        5    1    3    3  502    0  0.11941139980E+03 -0.10627449624E+04  0.93933734854E+03  0.14233982864E+04  0.46999998093E+01 0.  1.
       -5    1    3    3    0  502 -0.11941139980E+03  0.10627449624E+04  0.46227672534E+03  0.11650784516E+04  0.46999998093E+01 0. -1.
</event>
<event>
 5   0  0.4462201E-06  0.2177477E+04  0.7818609E-02  0.8527862E-01
       -1   -1    0    0    0  501  0.00000000000E+00  0.00000000000E+00  0.76006770280E+03  0.76006770282E+03  0.50400001928E-02 0. -1.
        1   -1    0    0  501    0  0.00000000000E+00  0.00000000000E+00 -0.15595339257E+04  0.15595339257E+04  0.50400001928E-02 0.  1.
    10030    2    1    2    0    0  0.00000000000E+00  0.00000000000E+00 -0.79946622290E+03  0.23196016285E+04  0.21774768595E+04 0.  0.
        3    1    3    3  502    0  0.61058576143E+03  0.11583684917E+02  0.56043085432E+03  0.82887387852E+03  0.10100000352E+00 0. -1.
       -3    1    3    3    0  502 -0.61058576143E+03 -0.11583684917E+02 -0.13598970772E+04  0.14907277500E+04  0.10100000352E+00 0.  1.
</event>
<event>
 5   0  0.1015876E-05  0.2195071E+04  0.7818609E-02  0.8520483E-01
        2   -1    0    0  501    0  0.00000000000E+00  0.00000000000E+00  0.12492329694E+04  0.12492329694E+04  0.25500000920E-02 0.  1.
       -2   -1    0    0    0  501  0.00000000000E+00  0.00000000000E+00 -0.96425885680E+03  0.96425885681E+03  0.25500000920E-02 0. -1.
    10030    2    1    2    0    0  0.00000000000E+00  0.00000000000E+00  0.28497411255E+03  0.22134918262E+04  0.21950708006E+04 0.  0.
        5    1    3    3  502    0  0.99977479696E+03 -0.21337054017E+03  0.54519447314E+03  0.11585921351E+04  0.46999998093E+01 0. -1.
       -5    1    3    3    0  502 -0.99977479696E+03  0.21337054017E+03 -0.26022036059E+03  0.10548996910E+04  0.46999998093E+01 0.  1.
</event>
<event>
 5   0  0.4462201E-06  0.2200569E+04  0.7818609E-02  0.8518191E-01
        1   -1    0    0  501    0  0.00000000000E+00  0.00000000000E+00  0.12326821072E+04  0.12326821072E+04  0.50400001928E-02 0.  1.
       -1   -1    0    0    0  501  0.00000000000E+00  0.00000000000E+00 -0.98210757947E+03  0.98210757948E+03  0.50400001928E-02 0. -1.
    10030    2    1    2    0    0  0.00000000000E+00  0.00000000000E+00  0.25057452771E+03  0.22147896867E+04  0.22005694177E+04 0.  0.
        3    1    3    3  502    0  0.34045482126E+03  0.97116398430E+03 -0.26653226623E+03  0.10630655807E+04  0.10100000352E+00 0. -1.
       -3    1    3    3    0  502 -0.34045482126E+03 -0.97116398430E+03  0.51710679394E+03  0.11517241060E+04  0.10100000352E+00 0.  1.
</event>
<event>
 5   0  0.9963173E-06  0.2198783E+04  0.7818609E-02  0.8518935E-01
        2   -1    0    0  501    0  0.00000000000E+00  0.00000000000E+00  0.89469592174E+03  0.89469592175E+03  0.25500000920E-02 0.  1.
       -2   -1    0    0    0  501  0.00000000000E+00  0.00000000000E+00 -0.13509189509E+04  0.13509189509E+04  0.25500000920E-02 0. -1.
    10030    2    1    2    0    0  0.00000000000E+00  0.00000000000E+00 -0.45622302914E+03  0.22456148726E+04  0.21987830052E+04 0.  0.
        4    1    3    3  502    0  0.50331630908E+03  0.22070043090E+03 -0.12005598299E+04  0.13203717300E+04  0.12699999809E+01 0. -1.
       -4    1    3    3    0  502 -0.50331630908E+03 -0.22070043090E+03  0.74433680077E+03  0.92524314267E+03  0.12699999809E+01 0.  1.
</event>
<event>
 5   0  0.4309945E-06  0.2190109E+04  0.7818609E-02  0.8522556E-01
        1   -1    0    0  501    0  0.00000000000E+00  0.00000000000E+00  0.14445314826E+04  0.14445314826E+04  0.50400001928E-02 0. -1.
       -1   -1    0    0    0  501  0.00000000000E+00  0.00000000000E+00 -0.83012718658E+03  0.83012718660E+03  0.50400001928E-02 0.  1.
    10030    2    1    2    0    0  0.00000000000E+00  0.00000000000E+00  0.61440429603E+03  0.22746586692E+04  0.21901094544E+04 0.  0.
        4    1    3    3  502    0  0.40362299684E+03  0.10145306914E+04  0.22055985592E+03  0.11139265282E+04  0.12699999809E+01 0.  1.
       -4    1    3    3    0  502 -0.40362299684E+03 -0.10145306914E+04  0.39384444011E+03  0.11607321410E+04  0.12699999809E+01 0. -1.
</event>
<event>
 5   0  0.9963173E-06  0.2197681E+04  0.7818609E-02  0.8519394E-01
        2   -1    0    0  501    0  0.00000000000E+00  0.00000000000E+00  0.15239317190E+04  0.15239317190E+04  0.25500000920E-02 0.  1.
       -2   -1    0    0    0  501  0.00000000000E+00  0.00000000000E+00 -0.79232602195E+03  0.79232602195E+03  0.25500000920E-02 0. -1.
    10030    2    1    2    0    0  0.00000000000E+00  0.00000000000E+00  0.73160569707E+03  0.23162577410E+04  0.21976812841E+04 0.  0.
        4    1    3    3  502    0  0.30269353913E+03 -0.53532936031E+03 -0.59396114648E+03  0.85498091153E+03  0.12699999809E+01 0. -1.
       -4    1    3    3    0  502 -0.30269353913E+03  0.53532936031E+03  0.13255668436E+04  0.14612768294E+04  0.12699999809E+01 0.  1.
</event>
<event>
 5   0  0.9963573E-06  0.2199477E+04  0.7818609E-02  0.8518646E-01
       -2   -1    0    0    0  501  0.00000000000E+00  0.00000000000E+00  0.10805426503E+04  0.10805426503E+04  0.25500000920E-02 0. -1.
        2   -1    0    0  501    0  0.00000000000E+00  0.00000000000E+00 -0.11192754840E+04  0.11192754840E+04  0.25500000920E-02 0.  1.
    10030    2    1    2    0    0  0.00000000000E+00  0.00000000000E+00 -0.38732833708E+02  0.21998181343E+04  0.21994771178E+04 0.  0.
        2    1    3    3  502    0 -0.64163335953E+03 -0.89253860157E+03 -0.52633783670E+02  0.11004948153E+04  0.25500000920E-02 0.  1.
       -2    1    3    3    0  502  0.64163335953E+03  0.89253860157E+03  0.13900949963E+02  0.10993233190E+04  0.25500000920E-02 0. -1.
</event>
<event>
 5   0  0.4408787E-06  0.2199161E+04  0.7818609E-02  0.8518778E-01
       -1   -1    0    0    0  501  0.00000000000E+00  0.00000000000E+00  0.88632572328E+03  0.88632572330E+03  0.50400001928E-02 0. -1.
        1   -1    0    0  501    0  0.00000000000E+00  0.00000000000E+00 -0.13641450884E+04  0.13641450884E+04  0.50400001928E-02 0.  1.
    10030    2    1    2    0    0  0.00000000000E+00  0.00000000000E+00 -0.47781936508E+03  0.22504708117E+04  0.21991606418E+04 0.  0.
        1    1    3    3  502    0  0.47463415331E+03  0.72819111748E+03 -0.92807401292E+03  0.12715585934E+04  0.50400001928E-02 0.  1.
       -1    1    3    3    0  502 -0.47463415331E+03 -0.72819111748E+03  0.45025464784E+03  0.97891221823E+03  0.50400001928E-02 0. -1.
</event>
<event>
 5   0  0.3546750E-06  0.2194060E+04  0.7818609E-02  0.8520905E-01
        3   -1    0    0  501    0  0.00000000000E+00  0.00000000000E+00  0.56301458936E+03  0.56301459842E+03  0.10100000352E+00 0. -1.
       -3   -1    0    0    0  501  0.00000000000E+00  0.00000000000E+00 -0.21375545023E+04  0.21375545046E+04  0.10100000352E+00 0.  1.
    10030    2    1    2    0    0  0.00000000000E+00  0.00000000000E+00 -0.15745399129E+04  0.27005691031E+04  0.21940596034E+04 0.  0.
        1    1    3    3  502    0 -0.86188997690E+03 -0.56770971527E+03 -0.12450515882E+04  0.16171895716E+04  0.50400001928E-02 0.  1.
       -1    1    3    3    0  502  0.86188997690E+03  0.56770971527E+03 -0.32948832466E+03  0.10833795315E+04  0.50400001928E-02 0. -1.
</event>
<event>
 5   0  0.4408787E-06  0.2202759E+04  0.7818609E-02  0.8517280E-01
        1   -1    0    0  501    0  0.00000000000E+00  0.00000000000E+00  0.12619645335E+04  0.12619645335E+04  0.50400001928E-02 0. -1.
       -1   -1    0    0    0  501  0.00000000000E+00  0.00000000000E+00 -0.96122931805E+03  0.96122931806E+03  0.50400001928E-02 0.  1.
    10030    2    1    2    0    0  0.00000000000E+00  0.00000000000E+00  0.30073521546E+03  0.22231938516E+04  0.22027594585E+04 0.  0.
        1    1    3    3  502    0  0.90849162979E+03  0.42861611497E+03 -0.30545073841E+03  0.10499376024E+04  0.50400001928E-02 0.  1.
       -1    1    3    3    0  502 -0.90849162979E+03 -0.42861611497E+03  0.60618595387E+03  0.11732562491E+04  0.50400001928E-02 0. -1.
</event>
<event>
 5   0  0.1015876E-05  0.2190319E+04  0.7818609E-02  0.8522468E-01
       -2   -1    0    0    0  501  0.00000000000E+00  0.00000000000E+00  0.94474152997E+03  0.94474152997E+03  0.25500000920E-02 0. -1.
        2   -1    0    0  501    0  0.00000000000E+00  0.00000000000E+00 -0.12695268079E+04  0.12695268080E+04  0.25500000920E-02 0.  1.
    10030    2    1    2    0    0  0.00000000000E+00  0.00000000000E+00 -0.32478527798E+03  0.22142683379E+04  0.21903193364E+04 0.  0.
        5    1    3    3  502    0  0.31950031530E+03 -0.87383512322E+03 -0.74636288822E+03  0.11927899752E+04  0.46999998093E+01 0.  1.
       -5    1    3    3    0  502 -0.31950031530E+03  0.87383512322E+03  0.42157761024E+03  0.10214783627E+04  0.46999998093E+01 0. -1.
</event>
<event>
 5   0  0.1035928E-05  0.2199584E+04  0.7818609E-02  0.8518601E-01
       -2   -1    0    0    0  501  0.00000000000E+00  0.00000000000E+00  0.13602118380E+04  0.13602118380E+04  0.25500000920E-02 0.  1.
        2   -1    0    0  501    0  0.00000000000E+00  0.00000000000E+00 -0.88923104573E+03  0.88923104574E+03  0.25500000920E-02 0. -1.
    10030    2    1    2    0    0  0.00000000000E+00  0.00000000000E+00  0.47098079227E+03  0.22494428837E+04  0.21995841381E+04 0.  0.
        3    1    3    3  502    0 -0.16601391880E+03 -0.26182292466E+03 -0.84362028408E+03  0.89878087375E+03  0.10100000352E+00 0. -1.
       -3    1    3    3    0  502  0.16601391880E+03  0.26182292466E+03  0.13146010763E+04  0.13506620100E+04  0.10100000352E+00 0.  1.
</event>
<event>
 5   0  0.1015876E-05  0.2200284E+04  0.7818609E-02  0.8518310E-01
        2   -1    0    0  501    0  0.00000000000E+00  0.00000000000E+00  0.16203093437E+04  0.16203093437E+04  0.25500000920E-02 0. -1.
       -2   -1    0    0    0  501  0.00000000000E+00  0.00000000000E+00 -0.74696348109E+03  0.74696348110E+03  0.25500000920E-02 0.  1.
    10030    2    1    2    0    0  0.00000000000E+00  0.00000000000E+00  0.87334586263E+03  0.23672728248E+04  0.22002835343E+04 0.  0.
        5    1    3    3  502    0  0.10893001749E+04 -0.75446752262E+02  0.29223541739E+03  0.11303498187E+04  0.46999998093E+01 0.  1.
       -5    1    3    3    0  502 -0.10893001749E+04  0.75446752262E+02  0.58111044525E+03  0.12369230061E+04  0.46999998093E+01 0. -1.
</event>
<event>
 5   0  0.4630615E-06  0.2195104E+04  0.7818609E-02  0.8520469E-01
       -1   -1    0    0    0  501  0.00000000000E+00  0.00000000000E+00  0.11089478750E+04  0.11089478750E+04  0.50400001928E-02 0. -1.
        1   -1    0    0  501    0  0.00000000000E+00  0.00000000000E+00 -0.10862735509E+04  0.10862735509E+04  0.50400001928E-02 0.  1.
    10030    2    1    2    0    0  0.00000000000E+00  0.00000000000E+00  0.22674324115E+02  0.21952214259E+04  0.21951043219E+04 0.  0.
        2    1    3    3  502    0 -0.80484115274E+03 -0.48341536188E+03  0.57984004995E+03  0.11034827487E+04  0.25500000920E-02 0. -1.
       -2    1    3    3    0  502  0.80484115274E+03  0.48341536188E+03 -0.55716572583E+03  0.10917386772E+04  0.25500000920E-02 0.  1.
</event>
<event>
 5   0  0.9963173E-06  0.2201751E+04  0.7818609E-02  0.8517700E-01
       -2   -1    0    0    0  501  0.00000000000E+00  0.00000000000E+00  0.89461606427E+03  0.89461606427E+03  0.25500000920E-02 0.  1.
        2   -1    0    0  501    0  0.00000000000E+00  0.00000000000E+00 -0.13546888194E+04  0.13546888194E+04  0.25500000920E-02 0. -1.
    10030    2    1    2    0    0  0.00000000000E+00  0.00000000000E+00 -0.46007275510E+03  0.22493048836E+04  0.22017505580E+04 0.  0.
        4    1    3    3  502    0  0.44163050074E+03  0.92724485227E+03  0.17488823976E+03  0.10418291724E+04  0.12699999809E+01 0.  1.
       -4    1    3    3    0  502 -0.44163050074E+03 -0.92724485227E+03 -0.63496099486E+03  0.12074757112E+04  0.12699999809E+01 0. -1.
</event>
<event>
 5   0  0.4408787E-06  0.2198123E+04  0.7818609E-02  0.8519210E-01
        1   -1    0    0  501    0  0.00000000000E+00  0.00000000000E+00  0.18212209607E+04  0.18212209607E+04  0.50400001928E-02 0.  1.
       -1   -1    0    0    0  501  0.00000000000E+00  0.00000000000E+00 -0.66325627943E+03  0.66325627945E+03  0.50400001928E-02 0. -1.
    10030    2    1    2    0    0  0.00000000000E+00  0.00000000000E+00  0.11579646813E+04  0.24844772402E+04  0.21981230525E+04 0.  0.
        1    1    3    3  502    0 -0.15497948288E+02 -0.35405501663E+03 -0.59690332528E+03  0.69418205174E+03  0.50400001928E-02 0. -1.
       -1    1    3    3    0  502  0.15497948288E+02  0.35405501663E+03  0.17548680066E+04  0.17902951884E+04  0.50400001928E-02 0.  1.
</event>
<event>
 5   0  0.1035928E-05  0.2198297E+04  0.7818609E-02  0.8519137E-01
       -2   -1    0    0    0  501  0.00000000000E+00  0.00000000000E+00  0.60087674332E+03  0.60087674332E+03  0.25500000920E-02 0. -1.
        2   -1    0    0  501    0  0.00000000000E+00  0.00000000000E+00 -0.20106077679E+04  0.20106077679E+04  0.25500000920E-02 0.  1.
    10030    2    1    2    0    0  0.00000000000E+00  0.00000000000E+00 -0.14097310245E+04  0.26114845112E+04  0.21982970206E+04 0.  0.
        3    1    3    3  502    0 -0.33274708586E+03 -0.12830008860E+03 -0.19399681883E+04  0.19724751248E+04  0.10100000352E+00 0.  1.
       -3    1    3    3    0  502  0.33274708586E+03  0.12830008860E+03  0.53023716378E+03  0.63900938643E+03  0.10100000352E+00 0. -1.
</event>
<event>
 5   0  0.4408787E-06  0.2196325E+04  0.7818609E-02  0.8519959E-01
       -1   -1    0    0    0  501  0.00000000000E+00  0.00000000000E+00  0.89920916785E+03  0.89920916786E+03  0.50400001928E-02 0. -1.
        1   -1    0    0  501    0  0.00000000000E+00  0.00000000000E+00 -0.13411350857E+04  0.13411350857E+04  0.50400001928E-02 0.  1.
    10030    2    1    2    0    0  0.00000000000E+00  0.00000000000E+00 -0.44192591783E+03  0.22403442536E+04  0.21963250801E+04 0.  0.
        1    1    3    3  502    0  0.13866458940E+03  0.47956657435E+03 -0.12187024093E+04  0.13169842558E+04  0.50400001928E-02 0.  1.
       -1    1    3    3    0  502 -0.13866458940E+03 -0.47956657435E+03  0.77677649151E+03  0.92335999771E+03  0.50400001928E-02 0. -1.
</event>
<event>
 5   0  0.1015876E-05  0.2190408E+04  0.7818609E-02  0.8522431E-01
        2   -1    0    0  501    0  0.00000000000E+00  0.00000000000E+00  0.20492399957E+04  0.20492399957E+04  0.25500000920E-02 0. -1.
       -2   -1    0    0    0  501  0.00000000000E+00  0.00000000000E+00 -0.58532544247E+03  0.58532544247E+03  0.25500000920E-02 0.  1.
    10030    2    1    2    0    0  0.00000000000E+00  0.00000000000E+00  0.14639145532E+04  0.26345654382E+04  0.21904084616E+04 0.  0.
        5    1    3    3  502    0  0.87818561504E+03  0.60804633714E+03  0.10229188587E+04  0.14789575396E+04  0.46999998093E+01 0.  1.
       -5    1    3    3    0  502 -0.87818561504E+03 -0.60804633714E+03  0.44099569455E+03  0.11556078985E+04  0.46999998093E+01 0. -1.
</event>
<event>
 5   0  0.3546750E-06  0.2197154E+04  0.7818609E-02  0.8519614E-01
       -3   -1    0    0    0  501  0.00000000000E+00  0.00000000000E+00  0.13953952266E+04  0.13953952303E+04  0.10100000352E+00 0.  1.
        3   -1    0    0  501    0  0.00000000000E+00  0.00000000000E+00 -0.86489569009E+03  0.86489569598E+03  0.10100000352E+00 0. -1.
    10030    2    1    2    0    0  0.00000000000E+00  0.00000000000E+00  0.53049953656E+03  0.22602909263E+04  0.21971539120E+04 0.  0.
        3    1    3    3  502    0 -0.29734859184E+03  0.10448345701E+04  0.96914340418E+02  0.10906364489E+04  0.10100000352E+00 0.  1.
       -3    1    3    3    0  502  0.29734859184E+03 -0.10448345701E+04  0.43358519614E+03  0.11696544774E+04  0.10100000352E+00 0. -1.
</event>
<event>
 5   0  0.4309945E-06  0.2204261E+04  0.7818609E-02  0.8516657E-01
       -1   -1    0    0    0  501  0.00000000000E+00  0.00000000000E+00  0.14412825101E+04  0.14412825101E+04  0.50400001928E-02 0.  1.
        1   -1    0    0  501    0  0.00000000000E+00  0.00000000000E+00 -0.84278537417E+03  0.84278537419E+03  0.50400001928E-02 0. -1.
    10030    2    1    2    0    0  0.00000000000E+00  0.00000000000E+00  0.59849713595E+03  0.22840678843E+04  0.22042611638E+04 0.  0.
        4    1    3    3  502    0  0.55534893628E+02 -0.51143397302E+03 -0.71074176677E+03  0.87738492413E+03  0.12699999809E+01 0. -1.
       -4    1    3    3    0  502 -0.55534893628E+02  0.51143397302E+03  0.13092389027E+04  0.14066829602E+04  0.12699999809E+01 0.  1.
</event>
<event>
 5   0  0.9963573E-06  0.2190584E+04  0.7818609E-02  0.8522357E-01
       -2   -1    0    0    0  501  0.00000000000E+00  0.00000000000E+00  0.13669055759E+04  0.13669055759E+04  0.25500000920E-02 0. -1.
        2   -1    0    0  501    0  0.00000000000E+00  0.00000000000E+00 -0.87765018539E+03  0.87765018539E+03  0.25500000920E-02 0.  1.
    10030    2    1    2    0    0  0.00000000000E+00  0.00000000000E+00  0.48925539047E+03  0.22445557613E+04  0.21905843349E+04 0.  0.
        2    1    3    3  502    0 -0.71359011660E+03 -0.19221594395E+03 -0.58368740626E+03  0.94172650587E+03  0.25500000920E-02 0.  1.
       -2    1    3    3    0  502  0.71359011660E+03  0.19221594395E+03  0.10729427967E+04  0.13028292554E+04  0.25500000920E-02 0. -1.
</event>
<event>
 5   0  0.1035928E-05  0.2201687E+04  0.7818609E-02  0.8517726E-01
        2   -1    0    0  501    0  0.00000000000E+00  0.00000000000E+00  0.97585956856E+03  0.97585956857E+03  0.25500000920E-02 0.  1.
       -2   -1    0    0    0  501  0.00000000000E+00  0.00000000000E+00 -0.12418343474E+04  0.12418343474E+04  0.25500000920E-02 0. -1.
    10030    2    1    2    0    0  0.00000000000E+00  0.00000000000E+00 -0.26597477884E+03  0.22176939160E+04  0.22016865631E+04 0.  0.
        3    1    3    3  502    0  0.61570135830E+03 -0.87442537944E+03 -0.39593710986E+03  0.11403833180E+04  0.10100000352E+00 0. -1.
       -3    1    3    3    0  502 -0.61570135830E+03  0.87442537944E+03  0.12996233102E+03  0.10773105980E+04  0.10100000352E+00 0.  1.
</event>
<event>
 5   0  0.4794967E-06  0.2199059E+04  0.7818609E-02  0.8518820E-01
        1   -1    0    0  501    0  0.00000000000E+00  0.00000000000E+00  0.10679602059E+04  0.10679602059E+04  0.50400001928E-02 0.  1.
       -1   -1    0    0    0  501  0.00000000000E+00  0.00000000000E+00 -0.11320322962E+04  0.11320322962E+04  0.50400001928E-02 0. -1.
    10030    2    1    2    0    0  0.00000000000E+00  0.00000000000E+00 -0.64072090291E+02  0.21999925022E+04  0.21990592936E+04 0.  0.
        5    1    3    3  502    0  0.13737501786E+03  0.50046013794E+03 -0.10017827948E+04  0.11282389388E+04  0.46999998093E+01 0. -1.
       -5    1    3    3    0  502 -0.13737501786E+03 -0.50046013794E+03  0.93771070448E+03  0.10717535633E+04  0.46999998093E+01 0.  1.
</event>
<event>
 5   0  0.3546750E-06  0.2202022E+04  0.7818609E-02  0.8517587E-01
        4   -1    0    0  501    0  0.00000000000E+00  0.00000000000E+00  0.10601652927E+04  0.10601660533E+04  0.12699999809E+01 0.  1.
       -4   -1    0    0    0  501  0.00000000000E+00  0.00000000000E+00 -0.11434293555E+04  0.11434300608E+04  0.12699999809E+01 0. -1.
    10030    2    1    2    0    0  0.00000000000E+00  0.00000000000E+00 -0.83264062856E+02  0.22035961141E+04  0.22020224636E+04 0.  0.
        1    1    3    3  502    0 -0.60978726143E+03  0.53967110036E+03  0.69993757831E+03  0.10737774510E+04  0.50400001928E-02 0.  1.
       -1    1    3    3    0  502  0.60978726143E+03 -0.53967110036E+03 -0.78320164117E+03  0.11298186631E+04  0.50400001928E-02 0. -1.
</event>
<event>
 5   0  0.9963173E-06  0.2216670E+04  0.7818609E-02  0.8511521E-01
        2   -1    0    0  501    0  0.00000000000E+00  0.00000000000E+00  0.15236567692E+04  0.15236567692E+04  0.25500000920E-02 0. -1.
       -2   -1    0    0    0  501  0.00000000000E+00  0.00000000000E+00 -0.80622290752E+03  0.80622290753E+03  0.25500000920E-02 0.  1.
    10030    2    1    2    0    0  0.00000000000E+00  0.00000000000E+00  0.71743386171E+03  0.23298796768E+04  0.22166704677E+04 0.  0.
        4    1    3    3  502    0  0.38858544857E+02  0.33438717962E+03 -0.75118725399E+03  0.82316989489E+03  0.12699999809E+01 0.  1.
       -4    1    3    3    0  502 -0.38858544857E+02 -0.33438717962E+03  0.14686211157E+04  0.15067097819E+04  0.12699999809E+01 0. -1.
</event>
<event>
 5   0  0.9963573E-06  0.2201855E+04  0.7818609E-02  0.8517656E-01
        2   -1    0    0  501    0  0.00000000000E+00  0.00000000000E+00  0.71315752741E+03  0.71315752741E+03  0.25500000920E-02 0.  1.
       -2   -1    0    0    0  501  0.00000000000E+00  0.00000000000E+00 -0.16995422289E+04  0.16995422289E+04  0.25500000920E-02 0. -1.
    10030    2    1    2    0    0  0.00000000000E+00  0.00000000000E+00 -0.98638470154E+03  0.24126997564E+04  0.22018549759E+04 0.  0.
        2    1    3    3  502    0  0.45303007532E+03 -0.32712635091E+03 -0.15326001697E+04  0.16312912612E+04  0.25500000920E-02 0. -1.
       -2    1    3    3    0  502 -0.45303007532E+03  0.32712635091E+03  0.54621546820E+03  0.78140849516E+03  0.25500000920E-02 0.  1.
</event>
<event>
 5   0  0.4630615E-06  0.2254472E+04  0.7818609E-02  0.8496091E-01
       -1   -1    0    0    0  501  0.00000000000E+00  0.00000000000E+00  0.14724450054E+04  0.14724450054E+04  0.50400001928E-02 0.  1.
        1   -1    0    0  501    0  0.00000000000E+00  0.00000000000E+00 -0.86296027155E+03  0.86296027157E+03  0.50400001928E-02 0. -1.
    10030    2    1    2    0    0  0.00000000000E+00  0.00000000000E+00  0.60948473389E+03  0.23354052770E+04  0.22544724809E+04 0.  0.
        2    1    3    3  502    0  0.68475080152E+02 -0.72234216275E+03  0.11983781452E+04  0.14009201318E+04  0.25500000920E-02 0.  1.
       -2    1    3    3    0  502 -0.68475080152E+02  0.72234216275E+03 -0.58889341135E+03  0.93448514521E+03  0.25500000920E-02 0. -1.
</event>
<event>
 5   0  0.9963573E-06  0.2196283E+04  0.7818609E-02  0.8519977E-01
       -2   -1    0    0    0  501  0.00000000000E+00  0.00000000000E+00  0.75773011028E+03  0.75773011028E+03  0.25500000920E-02 0.  1.
        2   -1    0    0  501    0  0.00000000000E+00  0.00000000000E+00 -0.15914827417E+04  0.15914827417E+04  0.25500000920E-02 0. -1.
    10030    2    1    2    0    0  0.00000000000E+00  0.00000000000E+00 -0.83375263141E+03  0.23492128520E+04  0.21962826716E+04 0.  0.
        2    1    3    3  502    0  0.67721483060E+03  0.78775117090E+03 -0.36077692618E+02  0.10394582406E+04  0.25500000920E-02 0.  1.
       -2    1    3    3    0  502 -0.67721483060E+03 -0.78775117090E+03 -0.79767493879E+03  0.13097546114E+04  0.25500000920E-02 0. -1.
</event>
<event>
 5   0  0.1015876E-05  0.2198654E+04  0.7818609E-02  0.8518989E-01
        2   -1    0    0  501    0  0.00000000000E+00  0.00000000000E+00  0.22500774963E+04  0.22500774964E+04  0.25500000920E-02 0. -1.
       -2   -1    0    0    0  501  0.00000000000E+00  0.00000000000E+00 -0.53710120073E+03  0.53710120073E+03  0.25500000920E-02 0.  1.
    10030    2    1    2    0    0  0.00000000000E+00  0.00000000000E+00  0.17129762956E+04  0.27871786971E+04  0.21986535198E+04 0.  0.
        5    1    3    3  502    0 -0.88211220064E+03  0.20571868903E+03  0.66801621086E+02  0.90825473305E+03  0.46999998093E+01 0.  1.
       -5    1    3    3    0  502  0.88211220064E+03 -0.20571868903E+03  0.16461746745E+04  0.18789239640E+04  0.46999998093E+01 0. -1.
</event>
<event>
 5   0  0.9963173E-06  0.2200397E+04  0.7818609E-02  0.8518263E-01
        2   -1    0    0  501    0  0.00000000000E+00  0.00000000000E+00  0.25914388699E+04  0.25914388699E+04  0.25500000920E-02 0. -1.
       -2   -1    0    0    0  501  0.00000000000E+00  0.00000000000E+00 -0.46709061254E+03  0.46709061255E+03  0.25500000920E-02 0.  1.
    10030    2    1    2    0    0  0.00000000000E+00  0.00000000000E+00  0.21243482573E+04  0.30585294824E+04  0.22003970270E+04 0.  0.
        4    1    3    3  502    0  0.10086270914E+04  0.34163072940E+03  0.67798589056E+03  0.12624209462E+04  0.12699999809E+01 0.  1.
       -4    1    3    3    0  502 -0.10086270914E+04 -0.34163072940E+03  0.14463623667E+04  0.17961085362E+04  0.12699999809E+01 0. -1.
</event>
<event>
 5   0  0.9963573E-06  0.2201365E+04  0.7818609E-02  0.8517860E-01
       -2   -1    0    0    0  501  0.00000000000E+00  0.00000000000E+00  0.10807236155E+04  0.10807236155E+04  0.25500000920E-02 0. -1.
        2   -1    0    0  501    0  0.00000000000E+00  0.00000000000E+00 -0.11210104580E+04  0.11210104580E+04  0.25500000920E-02 0.  1.
    10030    2    1    2    0    0  0.00000000000E+00  0.00000000000E+00 -0.40286842564E+02  0.22017340735E+04  0.22013654628E+04 0.  0.
        2    1    3    3  502    0  0.22986616325E+03  0.70966827646E+03  0.78933440078E+03  0.10860553908E+04  0.25500000920E-02 0. -1.
       -2    1    3    3    0  502 -0.22986616325E+03 -0.70966827646E+03 -0.82962124334E+03  0.11156786827E+04  0.25500000920E-02 0.  1.
</event>
<event>
 5   0  0.1015876E-05  0.2196940E+04  0.7818609E-02  0.8519703E-01
       -2   -1    0    0    0  501  0.00000000000E+00  0.00000000000E+00  0.58984985142E+03  0.58984985142E+03  0.25500000920E-02 0. -1.
        2   -1    0    0  501    0  0.00000000000E+00  0.00000000000E+00 -0.20456660426E+04  0.20456660426E+04  0.25500000920E-02 0.  1.
    10030    2    1    2    0    0  0.00000000000E+00  0.00000000000E+00 -0.14558161912E+04  0.26355158940E+04  0.21969395179E+04 0.  0.
        5    1    3    3  502    0 -0.24411272028E+03  0.10153123579E+04 -0.11367754301E+04  0.15436096245E+04  0.46999998093E+01 0.  1.
       -5    1    3    3    0  502  0.24411272028E+03 -0.10153123579E+04 -0.31904076108E+03  0.10919062696E+04  0.46999998093E+01 0. -1.
</event>
<event>
 5   0  0.4408787E-06  0.2202196E+04  0.7818609E-02  0.8517515E-01
        1   -1    0    0  501    0  0.00000000000E+00  0.00000000000E+00  0.16680973551E+04  0.16680973551E+04  0.50400001928E-02 0. -1.
       -1   -1    0    0    0  501  0.00000000000E+00  0.00000000000E+00 -0.72682599274E+03  0.72682599275E+03  0.50400001928E-02 0.  1.
    10030    2    1    2    0    0  0.00000000000E+00  0.00000000000E+00  0.94127136238E+03  0.23949233479E+04  0.22021957371E+04 0.  0.
        1    1    3    3  502    0  0.49439277861E+03 -0.12300340685E+03 -0.59093962737E+03  0.78023310675E+03  0.50400001928E-02 0.  1.
       -1    1    3    3    0  502 -0.49439277861E+03  0.12300340685E+03  0.15322109898E+04  0.16146902411E+04  0.50400001928E-02 0. -1.
</event>
<event>
 5   0  0.1035928E-05  0.2204867E+04  0.7818609E-02  0.8516405E-01
        2   -1    0    0  501    0  0.00000000000E+00  0.00000000000E+00  0.12343025778E+04  0.12343025778E+04  0.25500000920E-02 0. -1.
       -2   -1    0    0    0  501  0.00000000000E+00  0.00000000000E+00 -0.98465307260E+03  0.98465307261E+03  0.25500000920E-02 0.  1.
    10030    2    1    2    0    0  0.00000000000E+00  0.00000000000E+00  0.24964950522E+03  0.22189556504E+04  0.22048671849E+04 0.  0.
        3    1    3    3  502    0  0.99955036117E+03 -0.33506314524E+03 -0.19971303873E+03  0.10729648381E+04  0.10100000352E+00 0.  1.
       -3    1    3    3    0  502 -0.99955036117E+03  0.33506314524E+03  0.44936254395E+03  0.11459908123E+04  0.10100000352E+00 0. -1.
</event>
<event>
 5   0  0.4408787E-06  0.2199841E+04  0.7818609E-02  0.8518494E-01
       -1   -1    0    0    0  501  0.00000000000E+00  0.00000000000E+00  0.64448567183E+03  0.64448567185E+03  0.50400001928E-02 0. -1.
        1   -1    0    0  501    0  0.00000000000E+00  0.00000000000E+00 -0.18771951990E+04  0.18771951990E+04  0.50400001928E-02 0.  1.
    10030    2    1    2    0    0  0.00000000000E+00  0.00000000000E+00 -0.12327095272E+04  0.25216808709E+04  0.21998412752E+04 0.  0.
        1    1    3    3  502    0 -0.29554271179E+03  0.37900899747E+03 -0.17504587525E+04  0.18152407991E+04  0.50400001928E-02 0.  1.
       -1    1    3    3    0  502  0.29554271179E+03 -0.37900899747E+03  0.51774922529E+03  0.70644007175E+03  0.50400001928E-02 0. -1.
</event>
<event>
 5   0  0.9963573E-06  0.2199597E+04  0.7818609E-02  0.8518596E-01
        2   -1    0    0  501    0  0.00000000000E+00  0.00000000000E+00  0.14853022689E+04  0.14853022689E+04  0.25500000920E-02 0.  1.
       -2   -1    0    0    0  501  0.00000000000E+00  0.00000000000E+00 -0.81435021203E+03  0.81435021204E+03  0.25500000920E-02 0. -1.
    10030    2    1    2    0    0  0.00000000000E+00  0.00000000000E+00  0.67095205687E+03  0.22996524809E+04  0.21995965245E+04 0.  0.
        2    1    3    3  502    0 -0.20958648084E+03 -0.89419270559E+03  0.96801731254E+03  0.13343779843E+04  0.25500000920E-02 0.  1.
       -2    1    3    3    0  502  0.20958648084E+03  0.89419270559E+03 -0.29706525567E+03  0.96527449661E+03  0.25500000920E-02 0. -1.
</event>
<event>
 5   0  0.1015876E-05  0.2205448E+04  0.7818609E-02  0.8516164E-01
        2   -1    0    0  501    0  0.00000000000E+00  0.00000000000E+00  0.20636641137E+04  0.20636641137E+04  0.25500000920E-02 0. -1.
       -2   -1    0    0    0  501  0.00000000000E+00  0.00000000000E+00 -0.58924346965E+03  0.58924346965E+03  0.25500000920E-02 0.  1.
    10030    2    1    2    0    0  0.00000000000E+00  0.00000000000E+00  0.14744206441E+04  0.26529075834E+04  0.22054483468E+04 0.  0.
        5    1    3    3  502    0 -0.68797402916E+03 -0.32896447634E+03 -0.22092053797E+03  0.79394827639E+03  0.46999998093E+01 0. -1.
       -5    1    3    3    0  502  0.68797402916E+03  0.32896447634E+03  0.16953411820E+04  0.18589593070E+04  0.46999998093E+01 0.  1.
</event>
<event>
 5   0  0.4408787E-06  0.2200120E+04  0.7818609E-02  0.8518378E-01
        1   -1    0    0  501    0  0.00000000000E+00  0.00000000000E+00  0.22147864079E+04  0.22147864079E+04  0.50400001928E-02 0. -1.
       -1   -1    0    0    0  501  0.00000000000E+00  0.00000000000E+00 -0.54638750937E+03  0.54638750940E+03  0.50400001928E-02 0.  1.
    10030    2    1    2    0    0  0.00000000000E+00  0.00000000000E+00  0.16683988985E+04  0.27611739173E+04  0.22001196597E+04 0.  0.
        1    1    3    3  502    0 -0.31546672454E+03 -0.83114704278E+03  0.21046424203E+02  0.88925115295E+03  0.50400001928E-02 0.  1.
       -1    1    3    3    0  502  0.31546672454E+03  0.83114704278E+03  0.16473524743E+04  0.18719227643E+04  0.50400001928E-02 0. -1.
</event>
<event>
 5   0  0.4309945E-06  0.2207490E+04  0.7818609E-02  0.8515317E-01
        1   -1    0    0  501    0  0.00000000000E+00  0.00000000000E+00  0.23246430076E+04  0.23246430076E+04  0.50400001928E-02 0.  1.
       -1   -1    0    0    0  501  0.00000000000E+00  0.00000000000E+00 -0.52406006354E+03  0.52406006357E+03  0.50400001928E-02 0. -1.
    10030    2    1    2    0    0  0.00000000000E+00  0.00000000000E+00  0.18005829441E+04  0.28487030712E+04  0.22074895808E+04 0.  0.
        4    1    3    3  502    0  0.11672490604E+02  0.34240726469E+03 -0.45370311421E+03  0.56853065942E+03  0.12699999809E+01 0. -1.
       -4    1    3    3    0  502 -0.11672490604E+02 -0.34240726469E+03  0.22542860583E+04  0.22801724118E+04  0.12699999809E+01 0.  1.
</event>
<event>
 5   0  0.4462201E-06  0.2206379E+04  0.7818609E-02  0.8515778E-01
       -1   -1    0    0    0  501  0.00000000000E+00  0.00000000000E+00  0.79579600426E+03  0.79579600427E+03  0.50400001928E-02 0. -1.
        1   -1    0    0  501    0  0.00000000000E+00  0.00000000000E+00 -0.15293208283E+04  0.15293208283E+04  0.50400001928E-02 0.  1.
    10030    2    1    2    0    0  0.00000000000E+00  0.00000000000E+00 -0.73352482405E+03  0.23251168326E+04  0.22063793005E+04 0.  0.
        3    1    3    3  502    0 -0.19332521642E+03  0.10713489787E+04 -0.17865081312E+03  0.11032132146E+04  0.10100000352E+00 0. -1.
       -3    1    3    3    0  502  0.19332521642E+03 -0.10713489787E+04 -0.55487401093E+03  0.12219036180E+04  0.10100000352E+00 0.  1.
</event>
<event>
 5   0  0.3546750E-06  0.2175344E+04  0.7818609E-02  0.8528761E-01
       -3   -1    0    0    0  501  0.00000000000E+00  0.00000000000E+00  0.81437102395E+03  0.81437103021E+03  0.10100000352E+00 0. -1.
        3   -1    0    0  501    0  0.00000000000E+00  0.00000000000E+00 -0.14526921922E+04  0.14526921957E+04  0.10100000352E+00 0.  1.
    10030    2    1    2    0    0  0.00000000000E+00  0.00000000000E+00 -0.63832116825E+03  0.22670632259E+04  0.21753440547E+04 0.  0.
        3    1    3    3  502    0  0.43915164764E+03 -0.27259017532E+03 -0.13165225368E+04  0.14143518563E+04  0.10100000352E+00 0.  1.
       -3    1    3    3    0  502 -0.43915164764E+03  0.27259017532E+03  0.67820136858E+03  0.85271136960E+03  0.10100000352E+00 0. -1.
</event>
<event>
 5   0  0.3546750E-06  0.2198474E+04  0.7818609E-02  0.8519064E-01
        3   -1    0    0  501    0  0.00000000000E+00  0.00000000000E+00  0.15734829396E+04  0.15734829428E+04  0.10100000352E+00 0. -1.
       -3   -1    0    0    0  501  0.00000000000E+00  0.00000000000E+00 -0.76792812706E+03  0.76792813371E+03  0.10100000352E+00 0.  1.
    10030    2    1    2    0    0  0.00000000000E+00  0.00000000000E+00  0.80555481254E+03  0.23414110766E+04  0.21984738510E+04 0.  0.
        2    1    3    3  502    0 -0.10739588001E+03  0.43817748781E+03  0.14703408095E+04  0.15379972308E+04  0.25500000920E-02 0. -1.
       -2    1    3    3    0  502  0.10739588001E+03 -0.43817748781E+03 -0.66478599693E+03  0.80341384578E+03  0.25500000920E-02 0.  1.
</event>
<event>
 5   0  0.4462201E-06  0.2196513E+04  0.7818609E-02  0.8519881E-01
       -1   -1    0    0    0  501  0.00000000000E+00  0.00000000000E+00  0.96162374116E+03  0.96162374117E+03  0.50400001928E-02 0.  1.
        1   -1    0    0  501    0  0.00000000000E+00  0.00000000000E+00 -0.12543028093E+04  0.12543028093E+04  0.50400001928E-02 0. -1.
    10030    2    1    2    0    0  0.00000000000E+00  0.00000000000E+00 -0.29267906816E+03  0.22159265505E+04  0.21965130185E+04 0.  0.
        3    1    3    3  502    0 -0.48433570951E+03  0.86620139221E+03  0.32822366048E+03  0.10452830779E+04  0.10100000352E+00 0.  1.
       -3    1    3    3    0  502  0.48433570951E+03 -0.86620139221E+03 -0.62090272865E+03  0.11706434726E+04  0.10100000352E+00 0. -1.
</event>
<event>
 5   0  0.1015876E-05  0.2199578E+04  0.7818609E-02  0.8518604E-01
        2   -1    0    0  501    0  0.00000000000E+00  0.00000000000E+00  0.11203440556E+04  0.11203440556E+04  0.25500000920E-02 0.  1.
       -2   -1    0    0    0  501  0.00000000000E+00  0.00000000000E+00 -0.10796111001E+04  0.10796111001E+04  0.25500000920E-02 0. -1.
    10030    2    1    2    0    0  0.00000000000E+00  0.00000000000E+00  0.40732955458E+02  0.21999551557E+04  0.21995780307E+04 0.  0.
        5    1    3    3  502    0 -0.70576504307E+03 -0.73026873505E+03  0.44247801474E+03  0.11077931237E+04  0.46999998093E+01 0.  1.
       -5    1    3    3    0  502  0.70576504307E+03  0.73026873505E+03 -0.40174505928E+03  0.10921620320E+04  0.46999998093E+01 0. -1.
</event>
<event>
 5   0  0.3546750E-06  0.2188751E+04  0.7818609E-02  0.8523125E-01
       -3   -1    0    0    0  501  0.00000000000E+00  0.00000000000E+00  0.90949803556E+03  0.90949804117E+03  0.10100000352E+00 0. -1.
        3   -1    0    0  501    0  0.00000000000E+00  0.00000000000E+00 -0.13168336582E+04  0.13168336621E+04  0.10100000352E+00 0.  1.
    10030    2    1    2    0    0  0.00000000000E+00  0.00000000000E+00 -0.40733562268E+03  0.22263317033E+04  0.21887509094E+04 0.  0.
        2    1    3    3  502    0 -0.60400013862E+03  0.33358836597E+03 -0.10676998321E+04  0.12712514687E+04  0.25500000920E-02 0.  1.
       -2    1    3    3    0  502  0.60400013862E+03 -0.33358836597E+03  0.66036420939E+03  0.95508023455E+03  0.25500000920E-02 0. -1.
</event>
<event>
 5   0  0.1015876E-05  0.2197243E+04  0.7818609E-02  0.8519576E-01
       -2   -1    0    0    0  501  0.00000000000E+00  0.00000000000E+00  0.32963179789E+04  0.32963179789E+04  0.25500000920E-02 0.  1.
        2   -1    0    0  501    0  0.00000000000E+00  0.00000000000E+00 -0.36615680836E+03  0.36615680837E+03  0.25500000920E-02 0. -1.
    10030    2    1    2    0    0  0.00000000000E+00  0.00000000000E+00  0.29301611705E+04  0.36624747872E+04  0.21972430639E+04 0.  0.
        5    1    3    3  502    0  0.77360129174E+02 -0.27705147907E+03 -0.30225617592E+03  0.41728047825E+03  0.46999998093E+01 0. -1.
       -5    1    3    3    0  502 -0.77360129174E+02  0.27705147907E+03  0.32324173464E+04  0.32451943090E+04  0.46999998093E+01 0.  1.
</event>
<event>
 5   0  0.4309945E-06  0.2180705E+04  0.7818609E-02  0.8526502E-01
       -1   -1    0    0    0  501  0.00000000000E+00  0.00000000000E+00  0.14117065160E+04  0.14117065160E+04  0.50400001928E-02 0. -1.
        1   -1    0    0  501    0  0.00000000000E+00  0.00000000000E+00 -0.84214961774E+03  0.84214961775E+03  0.50400001928E-02 0.  1.
    10030    2    1    2    0    0  0.00000000000E+00  0.00000000000E+00  0.56955689827E+03  0.22538561338E+04  0.21807045676E+04 0.  0.
        4    1    3    3  502    0 -0.83345842027E+03 -0.58575989988E+02 -0.43928037402E+03  0.94395600788E+03  0.12699999809E+01 0.  1.
       -4    1    3    3    0  502  0.83345842027E+03  0.58575989988E+02  0.10088372723E+04  0.13099001259E+04  0.12699999809E+01 0. -1.
</event>
<event>
 5   0  0.4794967E-06  0.2200144E+04  0.7818609E-02  0.8518368E-01
       -1   -1    0    0    0  501  0.00000000000E+00  0.00000000000E+00  0.74857479156E+03  0.74857479158E+03  0.50400001928E-02 0. -1.
        1   -1    0    0  501    0  0.00000000000E+00  0.00000000000E+00 -0.16166169718E+04  0.16166169718E+04  0.50400001928E-02 0.  1.
    10030    2    1    2    0    0  0.00000000000E+00  0.00000000000E+00 -0.86804218020E+03  0.23651917633E+04  0.22001442795E+04 0.  0.
        5    1    3    3  502    0  0.35301931087E+03  0.95271622729E+03  0.19332414636E+02  0.10162119247E+04  0.46999998093E+01 0. -1.
       -5    1    3    3    0  502 -0.35301931087E+03 -0.95271622729E+03 -0.88737459484E+03  0.13489798387E+04  0.46999998093E+01 0.  1.
</event>
<event>
 5   0  0.1035928E-05  0.2199576E+04  0.7818609E-02  0.8518604E-01
       -2   -1    0    0    0  501  0.00000000000E+00  0.00000000000E+00  0.13463277929E+04  0.13463277929E+04  0.25500000920E-02 0. -1.
        2   -1    0    0  501    0  0.00000000000E+00  0.00000000000E+00 -0.89839500798E+03  0.89839500798E+03  0.25500000920E-02 0.  1.
    10030    2    1    2    0    0  0.00000000000E+00  0.00000000000E+00  0.44793278491E+03  0.22447228009E+04  0.21995764758E+04 0.  0.
        3    1    3    3  502    0  0.17737501552E+02  0.70935872796E+03  0.10814684039E+04  0.12934752965E+04  0.10100000352E+00 0. -1.
       -3    1    3    3    0  502 -0.17737501552E+02 -0.70935872796E+03 -0.63353561896E+03  0.95124750438E+03  0.10100000352E+00 0.  1.
</event>
<event>
 5   0  0.1015876E-05  0.2198633E+04  0.7818609E-02  0.8518997E-01
       -2   -1    0    0    0  501  0.00000000000E+00  0.00000000000E+00  0.13056695888E+04  0.13056695888E+04  0.25500000920E-02 0.  1.
        2   -1    0    0  501    0  0.00000000000E+00  0.00000000000E+00 -0.92557638318E+03  0.92557638318E+03  0.25500000920E-02 0. -1.
    10030    2    1    2    0    0  0.00000000000E+00  0.00000000000E+00  0.38009320561E+03  0.22312459720E+04  0.21986331532E+04 0.  0.
        5    1    3    3  502    0  0.28372043736E+03 -0.19445710493E+02  0.12676826236E+04  0.12991985015E+04  0.46999998093E+01 0.  1.
       -5    1    3    3    0  502 -0.28372043736E+03  0.19445710493E+02 -0.88758941799E+03  0.93204747044E+03  0.46999998093E+01 0. -1.
</event>
<event>
 5   0  0.3546750E-06  0.2195348E+04  0.7818609E-02  0.8520367E-01
        3   -1    0    0  501    0  0.00000000000E+00  0.00000000000E+00  0.71091085129E+03  0.71091085846E+03  0.10100000352E+00 0. -1.
       -3   -1    0    0    0  501  0.00000000000E+00  0.00000000000E+00 -0.16948506621E+04  0.16948506651E+04  0.10100000352E+00 0.  1.
    10030    2    1    2    0    0  0.00000000000E+00  0.00000000000E+00 -0.98393981080E+03  0.24057615236E+04  0.21953475709E+04 0.  0.
        4    1    3    3  502    0  0.31392584035E+03 -0.10390790270E+04 -0.67086970740E+03  0.12760495425E+04  0.12699999809E+01 0.  1.
       -4    1    3    3    0  502 -0.31392584035E+03  0.10390790270E+04 -0.31307010339E+03  0.11297119811E+04  0.12699999809E+01 0. -1.
</event>
<event>
 5   0  0.9963173E-06  0.2202523E+04  0.7818609E-02  0.8517379E-01
       -2   -1    0    0    0  501  0.00000000000E+00  0.00000000000E+00  0.11756079585E+04  0.11756079585E+04  0.25500000920E-02 0.  1.
        2   -1    0    0  501    0  0.00000000000E+00  0.00000000000E+00 -0.10316170565E+04  0.10316170565E+04  0.25500000920E-02 0. -1.
    10030    2    1    2    0    0  0.00000000000E+00  0.00000000000E+00  0.14399090206E+03  0.22072250150E+04  0.22025233000E+04 0.  0.
        4    1    3    3  502    0 -0.14964141637E+02 -0.50797627882E+03  0.10510722181E+04  0.11674837240E+04  0.12699999809E+01 0.  1.
       -4    1    3    3    0  502  0.14964141637E+02  0.50797627882E+03 -0.90708131601E+03  0.10397412910E+04  0.12699999809E+01 0. -1.
</event>
<event>
 5   0  0.4408787E-06  0.2200820E+04  0.7818609E-02  0.8518087E-01
       -1   -1    0    0    0  501  0.00000000000E+00  0.00000000000E+00  0.11095548376E+04  0.11095548376E+04  0.50400001928E-02 0.  1.
        1   -1    0    0  501    0  0.00000000000E+00  0.00000000000E+00 -0.10913407975E+04  0.10913407975E+04  0.50400001928E-02 0. -1.
    10030    2    1    2    0    0  0.00000000000E+00  0.00000000000E+00  0.18214040097E+02  0.22008956351E+04  0.22008202665E+04 0.  0.
        1    1    3    3  502    0  0.41065433858E+03 -0.98449381805E+03  0.27937059558E+03  0.11026844486E+04  0.50400001928E-02 0.  1.
       -1    1    3    3    0  502 -0.41065433858E+03  0.98449381805E+03 -0.26115655549E+03  0.10982111865E+04  0.50400001928E-02 0. -1.
</event>
<event>
 5   0  0.4309945E-06  0.2196456E+04  0.7818609E-02  0.8519905E-01
       -1   -1    0    0    0  501  0.00000000000E+00  0.00000000000E+00  0.90375246774E+03  0.90375246776E+03  0.50400001928E-02 0. -1.
        1   -1    0    0  501    0  0.00000000000E+00  0.00000000000E+00 -0.13345521267E+04  0.13345521268E+04  0.50400001928E-02 0.  1.
    10030    2    1    2    0    0  0.00000000000E+00  0.00000000000E+00 -0.43079965900E+03  0.22383045945E+04  0.21964560345E+04 0.  0.
        4    1    3    3  502    0 -0.28779423277E+03 -0.35454465715E+03 -0.12332166155E+04  0.13150483899E+04  0.12699999809E+01 0.  1.
       -4    1    3    3    0  502  0.28779423277E+03  0.35454465715E+03  0.80241695647E+03  0.92325620456E+03  0.12699999809E+01 0. -1.
</event>
<event>
 5   0  0.4309945E-06  0.2202422E+04  0.7818609E-02  0.8517421E-01
       -1   -1    0    0    0  501  0.00000000000E+00  0.00000000000E+00  0.10005512747E+04  0.10005512747E+04  0.50400001928E-02 0. -1.
        1   -1    0    0  501    0  0.00000000000E+00  0.00000000000E+00 -0.12119971328E+04  0.12119971328E+04  0.50400001928E-02 0.  1.
    10030    2    1    2    0    0  0.00000000000E+00  0.00000000000E+00 -0.21144585810E+03  0.22125484075E+04  0.22024216455E+04 0.  0.
        4    1    3    3  502    0  0.74052325438E+03  0.32540406631E+02  0.71241104356E+03  0.10280878738E+04  0.12699999809E+01 0. -1.
       -4    1    3    3    0  502 -0.74052325438E+03 -0.32540406631E+02 -0.92385690166E+03  0.11844605337E+04  0.12699999809E+01 0.  1.
</event>
<event>
 5   0  0.4309945E-06  0.2202053E+04  0.7818609E-02  0.8517574E-01
        1   -1    0    0  501    0  0.00000000000E+00  0.00000000000E+00  0.12671776496E+04  0.12671776496E+04  0.50400001928E-02 0. -1.
       -1   -1    0    0    0  501  0.00000000000E+00  0.00000000000E+00 -0.95666133874E+03  0.95666133876E+03  0.50400001928E-02 0.  1.
    10030    2    1    2    0    0  0.00000000000E+00  0.00000000000E+00  0.31051631084E+03  0.22238389883E+04  0.22020534659E+04 0.  0.
        4    1    3    3  502    0 -0.65252153125E+03 -0.67098375999E+03 -0.43035343212E+03  0.10301501077E+04  0.12699999809E+01 0.  1.
       -4    1    3    3    0  502  0.65252153125E+03  0.67098375999E+03  0.74086974296E+03  0.11936888807E+04  0.12699999809E+01 0. -1.
</event>
<event>
 5   0  0.4408787E-06  0.2199479E+04  0.7818609E-02  0.8518645E-01
       -1   -1    0    0    0  501  0.00000000000E+00  0.00000000000E+00  0.10935963112E+04  0.10935963112E+04  0.50400001928E-02 0. -1.
        1   -1    0    0  501    0  0.00000000000E+00  0.00000000000E+00 -0.11059175232E+04  0.11059175232E+04  0.50400001928E-02 0.  1.
    10030    2    1    2    0    0  0.00000000000E+00  0.00000000000E+00 -0.12321211973E+02  0.21995138344E+04  0.21994793237E+04 0.  0.
        1    1    3    3  502    0 -0.81655963639E+03  0.15220659051E+03  0.71460783116E+03  0.10957193246E+04  0.50400001928E-02 0. -1.
       -1    1    3    3    0  502  0.81655963639E+03 -0.15220659051E+03 -0.72692904313E+03  0.11037945097E+04  0.50400001928E-02 0.  1.
</event>
<event>
 5   0  0.4794967E-06  0.2199585E+04  0.7818609E-02  0.8518601E-01
       -1   -1    0    0    0  501  0.00000000000E+00  0.00000000000E+00  0.40820400929E+03  0.40820400932E+03  0.50400001928E-02 0. -1.
        1   -1    0    0  501    0  0.00000000000E+00  0.00000000000E+00 -0.29630855671E+04  0.29630855671E+04  0.50400001928E-02 0.  1.
    10030    2    1    2    0    0  0.00000000000E+00  0.00000000000E+00 -0.25548815578E+04  0.33712895764E+04  0.21995848776E+04 0.  0.
        5    1    3    3  502    0  0.12747452692E+02  0.51531125612E+03 -0.27664532667E+04  0.28140707090E+04  0.46999998093E+01 0.  1.
       -5    1    3    3    0  502 -0.12747452692E+02 -0.51531125612E+03  0.21157170890E+03  0.55721886745E+03  0.46999998093E+01 0. -1.
</event>
<event>
 5   0  0.9963173E-06  0.2199825E+04  0.7818609E-02  0.8518501E-01
        2   -1    0    0  501    0  0.00000000000E+00  0.00000000000E+00  0.12347308457E+04  0.12347308457E+04  0.25500000920E-02 0.  1.
       -2   -1    0    0    0  501  0.00000000000E+00  0.00000000000E+00 -0.97981491265E+03  0.97981491265E+03  0.25500000920E-02 0. -1.
    10030    2    1    2    0    0  0.00000000000E+00  0.00000000000E+00  0.25491593309E+03  0.22145457584E+04  0.21998251710E+04 0.  0.
        4    1    3    3  502    0  0.22799374698E+03  0.10106161623E+04 -0.24444603379E+03  0.10644630818E+04  0.12699999809E+01 0. -1.
       -4    1    3    3    0  502 -0.22799374698E+03 -0.10106161623E+04  0.49936196688E+03  0.11500826766E+04  0.12699999809E+01 0.  1.
</event>
<event>
 5   0  0.4794967E-06  0.2207538E+04  0.7818609E-02  0.8515297E-01
       -1   -1    0    0    0  501  0.00000000000E+00  0.00000000000E+00  0.86719439795E+03  0.86719439796E+03  0.50400001928E-02 0. -1.
        1   -1    0    0  501    0  0.00000000000E+00  0.00000000000E+00 -0.14048826804E+04  0.14048826804E+04  0.50400001928E-02 0.  1.
    10030    2    1    2    0    0  0.00000000000E+00  0.00000000000E+00 -0.53768828249E+03  0.22720770784E+04  0.22075383487E+04 0.  0.
        5    1    3    3  502    0  0.89623993054E+03 -0.60886904497E+03 -0.48551418419E+03  0.11873136233E+04  0.46999998093E+01 0.  1.
       -5    1    3    3    0  502 -0.89623993054E+03  0.60886904497E+03 -0.52174098300E+02  0.10847634551E+04  0.46999998093E+01 0. -1.
</event>
<event>
 5   0  0.9963173E-06  0.2200970E+04  0.7818609E-02  0.8518024E-01
       -2   -1    0    0    0  501  0.00000000000E+00  0.00000000000E+00  0.43089705743E+03  0.43089705743E+03  0.25500000920E-02 0.  1.
        2   -1    0    0  501    0  0.00000000000E+00  0.00000000000E+00 -0.28105725178E+04  0.28105725179E+04  0.25500000920E-02 0. -1.
    10030    2    1    2    0    0  0.00000000000E+00  0.00000000000E+00 -0.23796754604E+04  0.32414695753E+04  0.22009701748E+04 0.  0.
        4    1    3    3  502    0 -0.75014241978E+03  0.44077005580E+03 -0.19742786512E+03  0.89217221817E+03  0.12699999809E+01 0.  1.
       -4    1    3    3    0  502  0.75014241978E+03 -0.44077005580E+03 -0.21822475953E+04  0.23492973571E+04  0.12699999809E+01 0. -1.
</event>
<event>
 5   0  0.4408787E-06  0.2200754E+04  0.7818609E-02  0.8518114E-01
        1   -1    0    0  501    0  0.00000000000E+00  0.00000000000E+00  0.12864567226E+04  0.12864567226E+04  0.50400001928E-02 0.  1.
       -1   -1    0    0    0  501  0.00000000000E+00  0.00000000000E+00 -0.94121255222E+03  0.94121255223E+03  0.50400001928E-02 0. -1.
    10030    2    1    2    0    0  0.00000000000E+00  0.00000000000E+00  0.34524417035E+03  0.22276692748E+04  0.22007537029E+04 0.  0.
        1    1    3    3  502    0 -0.42776367528E+03  0.42276123764E+02 -0.85271269906E+03  0.95492825893E+03  0.50400001928E-02 0. -1.
       -1    1    3    3    0  502  0.42776367528E+03 -0.42276123764E+02  0.11979568694E+04  0.12727410159E+04  0.50400001928E-02 0.  1.
</event>
<event>
 5   0  0.1014015E-05  0.2202577E+04  0.7818609E-02  0.8517356E-01
       -2   -1    0    0    0  501  0.00000000000E+00  0.00000000000E+00  0.10532170607E+04  0.10532170607E+04  0.25500000920E-02 0.  1.
        2   -1    0    0  501    0  0.00000000000E+00  0.00000000000E+00 -0.11515540894E+04  0.11515540894E+04  0.25500000920E-02 0. -1.
    10030    2    1    2    0    0  0.00000000000E+00  0.00000000000E+00 -0.98337028731E+02  0.22047711501E+04  0.22025770481E+04 0.  0.
        1    1    3    3  502    0  0.48586011187E+03 -0.80942893623E+03 -0.61683233093E+03  0.11277044718E+04  0.50400001928E-02 0. -1.
       -1    1    3    3    0  502 -0.48586011187E+03  0.80942893623E+03  0.51849530220E+03  0.10770666783E+04  0.50400001928E-02 0.  1.
</event>
<event>
 5   0  0.4462201E-06  0.2208723E+04  0.7818609E-02  0.8514806E-01
       -1   -1    0    0    0  501  0.00000000000E+00  0.00000000000E+00  0.47805480520E+03  0.47805480522E+03  0.50400001928E-02 0. -1.
        1   -1    0    0  501    0  0.00000000000E+00  0.00000000000E+00 -0.25512019831E+04  0.25512019831E+04  0.50400001928E-02 0.  1.
    10030    2    1    2    0    0  0.00000000000E+00  0.00000000000E+00 -0.20731471779E+04  0.30292567883E+04  0.22087230402E+04 0.  0.
        3    1    3    3  502    0 -0.39034500926E+03 -0.10051141588E+04 -0.70916002647E+03  0.12905547845E+04  0.10100000352E+00 0. -1.
       -3    1    3    3    0  502  0.39034500926E+03  0.10051141588E+04 -0.13639871515E+04  0.17387020038E+04  0.10100000352E+00 0.  1.
</event>
<event>
 5   0  0.9963573E-06  0.2201193E+04  0.7818609E-02  0.8517932E-01
       -2   -1    0    0    0  501  0.00000000000E+00  0.00000000000E+00  0.11343837589E+04  0.11343837589E+04  0.25500000920E-02 0.  1.
        2   -1    0    0  501    0  0.00000000000E+00  0.00000000000E+00 -0.10678158602E+04  0.10678158602E+04  0.25500000920E-02 0. -1.
    10030    2    1    2    0    0  0.00000000000E+00  0.00000000000E+00  0.66567898741E+02  0.22021996191E+04  0.22011932848E+04 0.  0.
        2    1    3    3  502    0 -0.33698579268E+03 -0.25053913635E+03  0.10510905337E+04  0.11318659785E+04  0.25500000920E-02 0.  1.
       -2    1    3    3    0  502  0.33698579268E+03  0.25053913635E+03 -0.98452263498E+03  0.10703336406E+04  0.25500000920E-02 0. -1.
</event>
<event>
 5   0  0.4408787E-06  0.2199196E+04  0.7818609E-02  0.8518763E-01
        1   -1    0    0  501    0  0.00000000000E+00  0.00000000000E+00  0.12902837207E+04  0.12902837207E+04  0.50400001928E-02 0. -1.
       -1   -1    0    0    0  501  0.00000000000E+00  0.00000000000E+00 -0.93709287630E+03  0.93709287632E+03  0.50400001928E-02 0.  1.
    10030    2    1    2    0    0  0.00000000000E+00  0.00000000000E+00  0.35319084439E+03  0.22273765970E+04  0.21991959286E+04 0.  0.
        1    1    3    3  502    0 -0.79804980471E+02 -0.64359786732E+03  0.10759655603E+04  0.12562997002E+04  0.50400001928E-02 0. -1.
       -1    1    3    3    0  502  0.79804980471E+02  0.64359786732E+03 -0.72277471586E+03  0.97107689687E+03  0.50400001928E-02 0.  1.
</event>
<event>
 5   0  0.4462201E-06  0.2201217E+04  0.7818609E-02  0.8517922E-01
        1   -1    0    0  501    0  0.00000000000E+00  0.00000000000E+00  0.16101926684E+04  0.16101926684E+04  0.50400001928E-02 0. -1.
       -1   -1    0    0    0  501  0.00000000000E+00  0.00000000000E+00 -0.75229422666E+03  0.75229422667E+03  0.50400001928E-02 0.  1.
    10030    2    1    2    0    0  0.00000000000E+00  0.00000000000E+00  0.85789844172E+03  0.23624868951E+04  0.22012166166E+04 0.  0.
        3    1    3    3  502    0 -0.24393603083E+03 -0.77329262471E+02  0.15778202418E+04  0.15984371516E+04  0.10100000352E+00 0. -1.
       -3    1    3    3    0  502  0.24393603083E+03  0.77329262471E+02 -0.71992180011E+03  0.76404974343E+03  0.10100000352E+00 0.  1.
</event>
<event>
 5   0  0.4408787E-06  0.2200246E+04  0.7818609E-02  0.8518326E-01
        1   -1    0    0  501    0  0.00000000000E+00  0.00000000000E+00  0.87407648855E+03  0.87407648856E+03  0.50400001928E-02 0. -1.
       -1   -1    0    0    0  501  0.00000000000E+00  0.00000000000E+00 -0.13846272686E+04  0.13846272686E+04  0.50400001928E-02 0.  1.
    10030    2    1    2    0    0  0.00000000000E+00  0.00000000000E+00 -0.51055078004E+03  0.22587037572E+04  0.22002455689E+04 0.  0.
        1    1    3    3  502    0 -0.14324438820E+03  0.53696801023E+03  0.71937953365E+03  0.90904373504E+03  0.50400001928E-02 0. -1.
       -1    1    3    3    0  502  0.14324438820E+03 -0.53696801023E+03 -0.12299303137E+04  0.13496600221E+04  0.50400001928E-02 0.  1.
</event>
<event>
 5   0  0.1015876E-05  0.2201168E+04  0.7818609E-02  0.8517942E-01
       -2   -1    0    0    0  501  0.00000000000E+00  0.00000000000E+00  0.43368907866E+03  0.43368907866E+03  0.25500000920E-02 0. -1.
        2   -1    0    0  501    0  0.00000000000E+00  0.00000000000E+00 -0.27929810596E+04  0.27929810596E+04  0.25500000920E-02 0.  1.
    10030    2    1    2    0    0  0.00000000000E+00  0.00000000000E+00 -0.23592919809E+04  0.32266701382E+04  0.22011682193E+04 0.  0.
        5    1    3    3  502    0  0.10735897831E+04  0.18968588851E+03 -0.14004439120E+04  0.17747791410E+04  0.46999998093E+01 0. -1.
       -5    1    3    3    0  502 -0.10735897831E+04 -0.18968588851E+03 -0.95884806892E+03  0.14518909973E+04  0.46999998093E+01 0.  1.
</event>
<event>
 5   0  0.1035928E-05  0.2187329E+04  0.7818609E-02  0.8523721E-01
        2   -1    0    0  501    0  0.00000000000E+00  0.00000000000E+00  0.13778678577E+04  0.13778678577E+04  0.25500000920E-02 0.  1.
       -2   -1    0    0    0  501  0.00000000000E+00  0.00000000000E+00 -0.86808160468E+03  0.86808160468E+03  0.25500000920E-02 0. -1.
    10030    2    1    2    0    0  0.00000000000E+00  0.00000000000E+00  0.50978625300E+03  0.22459494624E+04  0.21873287279E+04 0.  0.
        3    1    3    3  502    0 -0.92170487945E+03  0.49931323187E+03  0.57509699905E+03  0.11956546980E+04  0.10100000352E+00 0.  1.
       -3    1    3    3    0  502  0.92170487945E+03 -0.49931323187E+03 -0.65310746046E+02  0.10502947644E+04  0.10100000352E+00 0. -1.
</event>
<event>
 5   0  0.1014015E-05  0.2205401E+04  0.7818609E-02  0.8516183E-01
       -2   -1    0    0    0  501  0.00000000000E+00  0.00000000000E+00  0.75738634077E+03  0.75738634077E+03  0.25500000920E-02 0. -1.
        2   -1    0    0  501    0  0.00000000000E+00  0.00000000000E+00 -0.16054531779E+04  0.16054531779E+04  0.25500000920E-02 0.  1.
    10030    2    1    2    0    0  0.00000000000E+00  0.00000000000E+00 -0.84806683710E+03  0.23628395186E+04  0.22054009229E+04 0.  0.
        1    1    3    3  502    0  0.55670352765E+03  0.93988950891E+03 -0.58523082030E+03  0.12392764904E+04  0.50400001928E-02 0. -1.
       -1    1    3    3    0  502 -0.55670352765E+03 -0.93988950891E+03 -0.26283601680E+03  0.11235630282E+04  0.50400001928E-02 0.  1.
</event>
<event>
 5   0  0.4630615E-06  0.2177848E+04  0.7818609E-02  0.8527705E-01
        1   -1    0    0  501    0  0.00000000000E+00  0.00000000000E+00  0.11020808634E+04  0.11020808634E+04  0.50400001928E-02 0.  1.
       -1   -1    0    0    0  501  0.00000000000E+00  0.00000000000E+00 -0.10759242996E+04  0.10759242996E+04  0.50400001928E-02 0. -1.
    10030    2    1    2    0    0  0.00000000000E+00  0.00000000000E+00  0.26156563796E+02  0.21780051630E+04  0.21778480948E+04 0.  0.
        2    1    3    3  502    0 -0.58198530423E+03  0.18549735181E+03 -0.88845188388E+03  0.10781757333E+04  0.25500000920E-02 0. -1.
       -2    1    3    3    0  502  0.58198530423E+03 -0.18549735181E+03  0.91460844767E+03  0.10998294297E+04  0.25500000920E-02 0.  1.
</event>
<event>
 5   0  0.4408787E-06  0.2201293E+04  0.7818609E-02  0.8517890E-01
       -1   -1    0    0    0  501  0.00000000000E+00  0.00000000000E+00  0.13920248200E+04  0.13920248200E+04  0.50400001928E-02 0. -1.
        1   -1    0    0  501    0  0.00000000000E+00  0.00000000000E+00 -0.87025913933E+03  0.87025913935E+03  0.50400001928E-02 0.  1.
    10030    2    1    2    0    0  0.00000000000E+00  0.00000000000E+00  0.52176568063E+03  0.22622839593E+04  0.22012926400E+04 0.  0.
        1    1    3    3  502    0  0.30279323340E+03 -0.91311003125E+03  0.81045983836E+03  0.12578945985E+04  0.50400001928E-02 0. -1.
       -1    1    3    3    0  502 -0.30279323340E+03  0.91311003125E+03 -0.28869415773E+03  0.10043893608E+04  0.50400001928E-02 0.  1.
</event>
<event>
 5   0  0.1015876E-05  0.2197440E+04  0.7818609E-02  0.8519494E-01
        2   -1    0    0  501    0  0.00000000000E+00  0.00000000000E+00  0.12304350342E+04  0.12304350342E+04  0.25500000920E-02 0.  1.
       -2   -1    0    0    0  501  0.00000000000E+00  0.00000000000E+00 -0.98110475405E+03  0.98110475405E+03  0.25500000920E-02 0. -1.
    10030    2    1    2    0    0  0.00000000000E+00  0.00000000000E+00  0.24933028018E+03  0.22115397883E+04  0.21974400211E+04 0.  0.
        5    1    3    3  502    0 -0.46110353005E+03  0.19549395177E+03 -0.85953050808E+03  0.99481110515E+03  0.46999998093E+01 0. -1.
       -5    1    3    3    0  502  0.46110353005E+03 -0.19549395177E+03  0.11088607883E+04  0.12167286831E+04  0.46999998093E+01 0.  1.
</event>
<event>
 5   0  0.4462201E-06  0.2196778E+04  0.7818609E-02  0.8519770E-01
       -1   -1    0    0    0  501  0.00000000000E+00  0.00000000000E+00  0.67117128142E+03  0.67117128144E+03  0.50400001928E-02 0.  1.
        1   -1    0    0  501    0  0.00000000000E+00  0.00000000000E+00 -0.17975423847E+04  0.17975423847E+04  0.50400001928E-02 0. -1.
    10030    2    1    2    0    0  0.00000000000E+00  0.00000000000E+00 -0.11263711033E+04  0.24687136662E+04  0.21967783919E+04 0.  0.
        3    1    3    3  502    0  0.15235452047E+03  0.44634785856E+03 -0.16779588231E+04  0.17429813921E+04  0.10100000352E+00 0. -1.
       -3    1    3    3    0  502 -0.15235452047E+03 -0.44634785856E+03  0.55158771986E+03  0.72573227408E+03  0.10100000352E+00 0.  1.
</event>
<event>
 5   0  0.4309945E-06  0.2202441E+04  0.7818609E-02  0.8517413E-01
        1   -1    0    0  501    0  0.00000000000E+00  0.00000000000E+00  0.20995823252E+04  0.20995823252E+04  0.50400001928E-02 0. -1.
       -1   -1    0    0    0  501  0.00000000000E+00  0.00000000000E+00 -0.57758474543E+03  0.57758474545E+03  0.50400001928E-02 0.  1.
    10030    2    1    2    0    0  0.00000000000E+00  0.00000000000E+00  0.15219975798E+04  0.26771670707E+04  0.22024411210E+04 0.  0.
        4    1    3    3  502    0 -0.55958671199E+03  0.37964915459E+03  0.18174848722E+04  0.19392069622E+04  0.12699999809E+01 0. -1.
       -4    1    3    3    0  502  0.55958671199E+03 -0.37964915459E+03 -0.29548729238E+03  0.73796010846E+03  0.12699999809E+01 0.  1.
</event>
<event>
 5   0  0.1015876E-05  0.2204102E+04  0.7818609E-02  0.8516723E-01
       -2   -1    0    0    0  501  0.00000000000E+00  0.00000000000E+00  0.49715067085E+03  0.49715067086E+03  0.25500000920E-02 0. -1.
        2   -1    0    0  501    0  0.00000000000E+00  0.00000000000E+00 -0.24429533367E+04  0.24429533367E+04  0.25500000920E-02 0.  1.
    10030    2    1    2    0    0  0.00000000000E+00  0.00000000000E+00 -0.19458026659E+04  0.29401040076E+04  0.22041015314E+04 0.  0.
        5    1    3    3  502    0 -0.46254046844E+03  0.29293780616E+03 -0.22486918010E+04  0.23143882883E+04  0.46999998093E+01 0.  1.
       -5    1    3    3    0  502  0.46254046844E+03 -0.29293780616E+03  0.30288913510E+03  0.62571571930E+03  0.46999998093E+01 0. -1.
</event>
<event>
 5   0  0.4794967E-06  0.2197045E+04  0.7818609E-02  0.8519659E-01
        1   -1    0    0  501    0  0.00000000000E+00  0.00000000000E+00  0.11251270277E+04  0.11251270277E+04  0.50400001928E-02 0. -1.
       -1   -1    0    0    0  501  0.00000000000E+00  0.00000000000E+00 -0.10725470776E+04  0.10725470776E+04  0.50400001928E-02 0.  1.
    10030    2    1    2    0    0  0.00000000000E+00  0.00000000000E+00  0.52579950025E+02  0.21976741053E+04  0.21970450205E+04 0.  0.
        5    1    3    3  502    0 -0.10248219045E+03  0.10867189621E+04 -0.97312851857E+02  0.10958798214E+04  0.46999998093E+01 0.  1.
       -5    1    3    3    0  502  0.10248219045E+03 -0.10867189621E+04  0.14989280188E+03  0.11017942839E+04  0.46999998093E+01 0. -1.
</event>
<event>
 5   0  0.1015876E-05  0.2197864E+04  0.7818609E-02  0.8519318E-01
       -2   -1    0    0    0  501  0.00000000000E+00  0.00000000000E+00  0.47845013699E+03  0.47845013700E+03  0.25500000920E-02 0. -1.
        2   -1    0    0  501    0  0.00000000000E+00  0.00000000000E+00 -0.25240897743E+04  0.25240897743E+04  0.25500000920E-02 0.  1.
    10030    2    1    2    0    0  0.00000000000E+00  0.00000000000E+00 -0.20456396373E+04  0.30025399113E+04  0.21978635975E+04 0.  0.
        5    1    3    3  502    0 -0.66145212731E+03  0.84317377667E+03 -0.13551209110E+04  0.17276677076E+04  0.46999998093E+01 0.  1.
       -5    1    3    3    0  502  0.66145212731E+03 -0.84317377667E+03 -0.69051872628E+03  0.12748722037E+04  0.46999998093E+01 0. -1.
</event>
<event>
 5   0  0.9963173E-06  0.2194235E+04  0.7818609E-02  0.8520831E-01
       -2   -1    0    0    0  501  0.00000000000E+00  0.00000000000E+00  0.12914567859E+04  0.12914567859E+04  0.25500000920E-02 0.  1.
        2   -1    0    0  501    0  0.00000000000E+00  0.00000000000E+00 -0.93202283979E+03  0.93202283980E+03  0.25500000920E-02 0. -1.
    10030    2    1    2    0    0  0.00000000000E+00  0.00000000000E+00  0.35943394611E+03  0.22234796257E+04  0.21942353758E+04 0.  0.
        4    1    3    3  502    0  0.68751291790E+02  0.47070395366E+03 -0.82208278559E+03  0.94979506809E+03  0.12699999809E+01 0. -1.
       -4    1    3    3    0  502 -0.68751291790E+02 -0.47070395366E+03  0.11815167317E+04  0.12736845576E+04  0.12699999809E+01 0.  1.
</event>
<event>
 5   0  0.1014015E-05  0.2201293E+04  0.7818609E-02  0.8517890E-01
       -2   -1    0    0    0  501  0.00000000000E+00  0.00000000000E+00  0.75087949634E+03  0.75087949635E+03  0.25500000920E-02 0.  1.
        2   -1    0    0  501    0  0.00000000000E+00  0.00000000000E+00 -0.16133381382E+04  0.16133381382E+04  0.25500000920E-02 0. -1.
    10030    2    1    2    0    0  0.00000000000E+00  0.00000000000E+00 -0.86245864184E+03  0.23642176345E+04  0.22012928280E+04 0.  0.
        1    1    3    3  502    0 -0.20634533913E+03  0.15785284341E+03 -0.15799348593E+04  0.16011527344E+04  0.50400001928E-02 0. -1.
       -1    1    3    3    0  502  0.20634533913E+03 -0.15785284341E+03  0.71747621748E+03  0.76306490014E+03  0.50400001928E-02 0.  1.
</event>
<event>
 5   0  0.1014015E-05  0.2198845E+04  0.7818609E-02  0.8518909E-01
       -2   -1    0    0    0  501  0.00000000000E+00  0.00000000000E+00  0.92859773007E+03  0.92859773008E+03  0.25500000920E-02 0. -1.
        2   -1    0    0  501    0  0.00000000000E+00  0.00000000000E+00 -0.13016723036E+04  0.13016723036E+04  0.25500000920E-02 0.  1.
    10030    2    1    2    0    0  0.00000000000E+00  0.00000000000E+00 -0.37307457354E+03  0.22302700337E+04  0.21988451027E+04 0.  0.
        1    1    3    3  502    0 -0.56085635995E+03  0.94432372266E+03 -0.13661191553E+03  0.11067836126E+04  0.50400001928E-02 0. -1.
       -1    1    3    3    0  502  0.56085635995E+03 -0.94432372266E+03 -0.23646265801E+03  0.11234864211E+04  0.50400001928E-02 0.  1.
</event>
<event>
 5   0  0.4630615E-06  0.2196595E+04  0.7818609E-02  0.8519847E-01
        1   -1    0    0  501    0  0.00000000000E+00  0.00000000000E+00  0.20731860904E+04  0.20731860904E+04  0.50400001928E-02 0. -1.
       -1   -1    0    0    0  501  0.00000000000E+00  0.00000000000E+00 -0.58183731358E+03  0.58183731360E+03  0.50400001928E-02 0.  1.
    10030    2    1    2    0    0  0.00000000000E+00  0.00000000000E+00  0.14913487768E+04  0.26550234040E+04  0.21965946603E+04 0.  0.
        2    1    3    3  502    0  0.80868064976E+03 -0.27631208135E+03 -0.88192021123E+02  0.85912198912E+03  0.25500000920E-02 0.  1.
       -2    1    3    3    0  502 -0.80868064976E+03  0.27631208135E+03  0.15795407979E+04  0.17959014149E+04  0.25500000920E-02 0. -1.
</event>
<event>
 5   0  0.1014015E-05  0.2198046E+04  0.7818609E-02  0.8519242E-01
        2   -1    0    0  501    0  0.00000000000E+00  0.00000000000E+00  0.17135591550E+04  0.17135591550E+04  0.25500000920E-02 0.  1.
       -2   -1    0    0    0  501  0.00000000000E+00  0.00000000000E+00 -0.70487863024E+03  0.70487863024E+03  0.25500000920E-02 0. -1.
    10030    2    1    2    0    0  0.00000000000E+00  0.00000000000E+00  0.10086805247E+04  0.24184377852E+04  0.21980457047E+04 0.  0.
        1    1    3    3  502    0  0.91961904196E+03 -0.20478427935E+03  0.11269549187E+04  0.14688986256E+04  0.50400001928E-02 0.  1.
       -1    1    3    3    0  502 -0.91961904196E+03  0.20478427935E+03 -0.11827439396E+03  0.94953915964E+03  0.50400001928E-02 0. -1.
</event>
<event>
 5   0  0.4794967E-06  0.2199852E+04  0.7818609E-02  0.8518490E-01
        1   -1    0    0  501    0  0.00000000000E+00  0.00000000000E+00  0.11074677968E+04  0.11074677968E+04  0.50400001928E-02 0.  1.
       -1   -1    0    0    0  501  0.00000000000E+00  0.00000000000E+00 -0.10924358243E+04  0.10924358243E+04  0.50400001928E-02 0. -1.
    10030    2    1    2    0    0  0.00000000000E+00  0.00000000000E+00  0.15031972566E+02  0.21999036211E+04  0.21998522637E+04 0.  0.
        5    1    3    3  502    0  0.42267226609E+03 -0.76032271828E+03  0.68063862001E+03  0.11045512670E+04  0.46999998093E+01 0.  1.
       -5    1    3    3    0  502 -0.42267226609E+03  0.76032271828E+03 -0.66560664745E+03  0.10953523541E+04  0.46999998093E+01 0. -1.
</event>
<event>
 5   0  0.4462201E-06  0.2205428E+04  0.7818609E-02  0.8516172E-01
        1   -1    0    0  501    0  0.00000000000E+00  0.00000000000E+00  0.68826048452E+03  0.68826048454E+03  0.50400001928E-02 0.  1.
       -1   -1    0    0    0  501  0.00000000000E+00  0.00000000000E+00 -0.17667411061E+04  0.17667411061E+04  0.50400001928E-02 0. -1.
    10030    2    1    2    0    0  0.00000000000E+00  0.00000000000E+00 -0.10784806216E+04  0.24550015906E+04  0.22054279310E+04 0.  0.
        3    1    3    3  502    0  0.95594375882E+03 -0.39054542630E+03 -0.96982577321E+03  0.14166567123E+04  0.10100000352E+00 0.  1.
       -3    1    3    3    0  502 -0.95594375882E+03  0.39054542630E+03 -0.10865484837E+03  0.10383448783E+04  0.10100000352E+00 0. -1.
</event>
<event>
 5   0  0.9963173E-06  0.2204356E+04  0.7818609E-02  0.8516617E-01
       -2   -1    0    0    0  501  0.00000000000E+00  0.00000000000E+00  0.19544405362E+04  0.19544405362E+04  0.25500000920E-02 0. -1.
        2   -1    0    0  501    0  0.00000000000E+00  0.00000000000E+00 -0.62155722230E+03  0.62155722231E+03  0.25500000920E-02 0.  1.
    10030    2    1    2    0    0  0.00000000000E+00  0.00000000000E+00  0.13328833139E+04  0.25759977585E+04  0.22043562605E+04 0.  0.
        4    1    3    3  502    0 -0.53038390447E+03 -0.88435699283E+02 -0.45788135668E+03  0.70624705927E+03  0.12699999809E+01 0.  1.
       -4    1    3    3    0  502  0.53038390447E+03  0.88435699283E+02  0.17907646705E+04  0.18697506992E+04  0.12699999809E+01 0. -1.
</event>
<event>
 5   0  0.4309945E-06  0.2197860E+04  0.7818609E-02  0.8519319E-01
       -1   -1    0    0    0  501  0.00000000000E+00  0.00000000000E+00  0.10120976076E+04  0.10120976076E+04  0.50400001928E-02 0.  1.
        1   -1    0    0  501    0  0.00000000000E+00  0.00000000000E+00 -0.11932122009E+04  0.11932122009E+04  0.50400001928E-02 0. -1.
    10030    2    1    2    0    0  0.00000000000E+00  0.00000000000E+00 -0.18111459324E+03  0.22053098085E+04  0.21978600628E+04 0.  0.
        4    1    3    3  502    0 -0.18873898018E+03  0.58777302104E+02  0.99411024852E+03  0.10135748482E+04  0.12699999809E+01 0.  1.
       -4    1    3    3    0  502  0.18873898018E+03 -0.58777302104E+02 -0.11752248418E+04  0.11917349602E+04  0.12699999809E+01 0. -1.
</event>
<event>
 5   0  0.1035928E-05  0.2198780E+04  0.7818609E-02  0.8518936E-01
        2   -1    0    0  501    0  0.00000000000E+00  0.00000000000E+00  0.10765086028E+04  0.10765086028E+04  0.25500000920E-02 0. -1.
       -2   -1    0    0    0  501  0.00000000000E+00  0.00000000000E+00 -0.11227581812E+04  0.11227581812E+04  0.25500000920E-02 0.  1.
    10030    2    1    2    0    0  0.00000000000E+00  0.00000000000E+00 -0.46249578454E+02  0.21992667840E+04  0.21987804264E+04 0.  0.
        3    1    3    3  502    0 -0.10981537953E+04 -0.52062439783E+02 -0.25689518906E+02  0.10996873271E+04  0.10100000352E+00 0.  1.
       -3    1    3    3    0  502  0.10981537953E+04  0.52062439783E+02 -0.20560059548E+02  0.10995794569E+04  0.10100000352E+00 0. -1.
</event>
<event>
 5   0  0.1035928E-05  0.2198035E+04  0.7818609E-02  0.8519246E-01
       -2   -1    0    0    0  501  0.00000000000E+00  0.00000000000E+00  0.89935515152E+03  0.89935515152E+03  0.25500000920E-02 0.  1.
        2   -1    0    0  501    0  0.00000000000E+00  0.00000000000E+00 -0.13430061811E+04  0.13430061811E+04  0.25500000920E-02 0. -1.
    10030    2    1    2    0    0  0.00000000000E+00  0.00000000000E+00 -0.44365102957E+03  0.22423613326E+04  0.21980350566E+04 0.  0.
        3    1    3    3  502    0  0.82419934398E+03  0.48246227244E+03 -0.77663573773E+03  0.12309498293E+04  0.10100000352E+00 0. -1.
       -3    1    3    3    0  502 -0.82419934398E+03 -0.48246227244E+03  0.33298470816E+03  0.10114115033E+04  0.10100000352E+00 0.  1.
</event>
<event>
 5   0  0.1035928E-05  0.2205227E+04  0.7818609E-02  0.8516256E-01
       -2   -1    0    0    0  501  0.00000000000E+00  0.00000000000E+00  0.51903771594E+03  0.51903771595E+03  0.25500000920E-02 0.  1.
        2   -1    0    0  501    0  0.00000000000E+00  0.00000000000E+00 -0.23423280733E+04  0.23423280733E+04  0.25500000920E-02 0. -1.
    10030    2    1    2    0    0  0.00000000000E+00  0.00000000000E+00 -0.18232903574E+04  0.28613657893E+04  0.22052270751E+04 0.  0.
        3    1    3    3  502    0  0.46284281487E+02  0.23365062056E+03  0.48525656179E+03  0.54056339884E+03  0.10100000352E+00 0.  1.
       -3    1    3    3    0  502 -0.46284281487E+02 -0.23365062056E+03 -0.23085469192E+04  0.23208023904E+04  0.10100000352E+00 0. -1.
</event>
<event>
 5   0  0.4630615E-06  0.2196450E+04  0.7818609E-02  0.8519907E-01
        1   -1    0    0  501    0  0.00000000000E+00  0.00000000000E+00  0.17697290444E+04  0.17697290444E+04  0.50400001928E-02 0.  1.
       -1   -1    0    0    0  501  0.00000000000E+00  0.00000000000E+00 -0.68151596990E+03  0.68151596992E+03  0.50400001928E-02 0. -1.
    10030    2    1    2    0    0  0.00000000000E+00  0.00000000000E+00  0.10882130745E+04  0.24512450143E+04  0.21964504148E+04 0.  0.
        2    1    3    3  502    0  0.77887090424E+02 -0.68379422262E+03 -0.41101048455E+03  0.80160498761E+03  0.25500000920E-02 0. -1.
       -2    1    3    3    0  502 -0.77887090424E+02  0.68379422262E+03  0.14992235590E+04  0.16496400267E+04  0.25500000920E-02 0.  1.
</event>
<event>
 5   0  0.1015876E-05  0.2201633E+04  0.7818609E-02  0.8517749E-01
        2   -1    0    0  501    0  0.00000000000E+00  0.00000000000E+00  0.13058241625E+04  0.13058241625E+04  0.25500000920E-02 0.  1.
       -2   -1    0    0    0  501  0.00000000000E+00  0.00000000000E+00 -0.92799419473E+03  0.92799419473E+03  0.25500000920E-02 0. -1.
    10030    2    1    2    0    0  0.00000000000E+00  0.00000000000E+00  0.37782996773E+03  0.22338183572E+04  0.22016332502E+04 0.  0.
        5    1    3    3  502    0 -0.96836167781E+03  0.67886459621E+01 -0.34219187233E+03  0.10270773059E+04  0.46999998093E+01 0. -1.
       -5    1    3    3    0  502  0.96836167781E+03 -0.67886459621E+01  0.72002184006E+03  0.12067410513E+04  0.46999998093E+01 0.  1.
</event>
<event>
 5   0  0.1015876E-05  0.2209654E+04  0.7818609E-02  0.8514420E-01
       -2   -1    0    0    0  501  0.00000000000E+00  0.00000000000E+00  0.16166385351E+04  0.16166385352E+04  0.25500000920E-02 0. -1.
        2   -1    0    0  501    0  0.00000000000E+00  0.00000000000E+00 -0.75505013994E+03  0.75505013994E+03  0.25500000920E-02 0.  1.
    10030    2    1    2    0    0  0.00000000000E+00  0.00000000000E+00  0.86158839521E+03  0.23716886751E+04  0.22096544094E+04 0.  0.
        5    1    3    3  502    0 -0.45103702534E+03 -0.84266648633E+02  0.15095234519E+04  0.15777257075E+04  0.46999998093E+01 0. -1.
       -5    1    3    3    0  502  0.45103702534E+03  0.84266648633E+02 -0.64793505665E+03  0.79396296761E+03  0.46999998093E+01 0.  1.
</event>
<event>
 5   0  0.9963173E-06  0.2200261E+04  0.7818609E-02  0.8518319E-01
        2   -1    0    0  501    0  0.00000000000E+00  0.00000000000E+00  0.21448066606E+04  0.21448066606E+04  0.25500000920E-02 0. -1.
       -2   -1    0    0    0  501  0.00000000000E+00  0.00000000000E+00 -0.56428728510E+03  0.56428728511E+03  0.25500000920E-02 0.  1.
    10030    2    1    2    0    0  0.00000000000E+00  0.00000000000E+00  0.15805193755E+04  0.27090939457E+04  0.22002610096E+04 0.  0.
        4    1    3    3  502    0  0.68104561637E+02  0.55331788916E+03  0.19580025225E+04  0.20358227842E+04  0.12699999809E+01 0. -1.
       -4    1    3    3    0  502 -0.68104561637E+02 -0.55331788916E+03 -0.37748314697E+03  0.67327116152E+03  0.12699999809E+01 0.  1.
</event>
<event>
 5   0  0.9963173E-06  0.2202243E+04  0.7818609E-02  0.8517495E-01
        2   -1    0    0  501    0  0.00000000000E+00  0.00000000000E+00  0.20246529814E+04  0.20246529814E+04  0.25500000920E-02 0. -1.
       -2   -1    0    0    0  501  0.00000000000E+00  0.00000000000E+00 -0.59885279433E+03  0.59885279433E+03  0.25500000920E-02 0.  1.
    10030    2    1    2    0    0  0.00000000000E+00  0.00000000000E+00  0.14258001871E+04  0.26235057757E+04  0.22022434883E+04 0.  0.
        4    1    3    3  502    0  0.72861086979E+02  0.10454517072E+04  0.11154592631E+04  0.15305322573E+04  0.12699999809E+01 0. -1.
       -4    1    3    3    0  502 -0.72861086979E+02 -0.10454517072E+04  0.31034092393E+03  0.10929735184E+04  0.12699999809E+01 0.  1.
</event>
<event>
 5   0  0.4630615E-06  0.2203347E+04  0.7818609E-02  0.8517037E-01
        1   -1    0    0  501    0  0.00000000000E+00  0.00000000000E+00  0.94287587467E+03  0.94287587469E+03  0.50400001928E-02 0. -1.
       -1   -1    0    0    0  501  0.00000000000E+00  0.00000000000E+00 -0.12872150304E+04  0.12872150304E+04  0.50400001928E-02 0.  1.
    10030    2    1    2    0    0  0.00000000000E+00  0.00000000000E+00 -0.34433915577E+03  0.22300909051E+04  0.22033465435E+04 0.  0.
        2    1    3    3  502    0 -0.76329817469E+03  0.47903841645E+03  0.46922742417E+03  0.10160099820E+04  0.25500000920E-02 0. -1.
       -2    1    3    3    0  502  0.76329817469E+03 -0.47903841645E+03 -0.81356657994E+03  0.12140809231E+04  0.25500000920E-02 0.  1.
</event>
<event>
 5   0  0.1035928E-05  0.2199553E+04  0.7818609E-02  0.8518614E-01
        2   -1    0    0  501    0  0.00000000000E+00  0.00000000000E+00  0.17289086500E+04  0.17289086500E+04  0.25500000920E-02 0. -1.
       -2   -1    0    0    0  501  0.00000000000E+00  0.00000000000E+00 -0.69957892877E+03  0.69957892877E+03  0.25500000920E-02 0.  1.
    10030    2    1    2    0    0  0.00000000000E+00  0.00000000000E+00  0.10293297213E+04  0.24284875788E+04  0.21995527376E+04 0.  0.
        3    1    3    3  502    0  0.39306631606E+03 -0.20226320800E+03 -0.59717221677E+03  0.74298465719E+03  0.10100000352E+00 0.  1.
       -3    1    3    3    0  502 -0.39306631606E+03  0.20226320800E+03  0.16265019380E+04  0.16855029216E+04  0.10100000352E+00 0. -1.
</event>
<event>
 5   0  0.4309945E-06  0.2197693E+04  0.7818609E-02  0.8519389E-01
        1   -1    0    0  501    0  0.00000000000E+00  0.00000000000E+00  0.19858755693E+04  0.19858755693E+04  0.50400001928E-02 0. -1.
       -1   -1    0    0    0  501  0.00000000000E+00  0.00000000000E+00 -0.60802582952E+03  0.60802582954E+03  0.50400001928E-02 0.  1.
    10030    2    1    2    0    0  0.00000000000E+00  0.00000000000E+00  0.13778497397E+04  0.25939013988E+04  0.21976930089E+04 0.  0.
        4    1    3    3  502    0  0.15735689349E+03  0.56343411262E+03  0.17868063088E+04  0.18801323329E+04  0.12699999809E+01 0. -1.
       -4    1    3    3    0  502 -0.15735689349E+03 -0.56343411262E+03 -0.40895656904E+03  0.71376906591E+03  0.12699999809E+01 0.  1.
</event>
<event>
 5   0  0.1014015E-05  0.2185686E+04  0.7818609E-02  0.8524410E-01
       -2   -1    0    0    0  501  0.00000000000E+00  0.00000000000E+00  0.62361072017E+03  0.62361072018E+03  0.25500000920E-02 0. -1.
        2   -1    0    0  501    0  0.00000000000E+00  0.00000000000E+00 -0.19151460801E+04  0.19151460801E+04  0.25500000920E-02 0.  1.
    10030    2    1    2    0    0  0.00000000000E+00  0.00000000000E+00 -0.12915353599E+04  0.25387568003E+04  0.21856858203E+04 0.  0.
        1    1    3    3  502    0  0.47942396099E+03 -0.15993722603E+03 -0.17712483311E+04  0.18419413403E+04  0.50400001928E-02 0.  1.
       -1    1    3    3    0  502 -0.47942396099E+03  0.15993722603E+03  0.47971297113E+03  0.69681546003E+03  0.50400001928E-02 0. -1.
</event>
<event>
 5   0  0.9963573E-06  0.2209588E+04  0.7818609E-02  0.8514448E-01
       -2   -1    0    0    0  501  0.00000000000E+00  0.00000000000E+00  0.11909895701E+04  0.11909895701E+04  0.25500000920E-02 0.  1.
        2   -1    0    0  501    0  0.00000000000E+00  0.00000000000E+00 -0.10248362726E+04  0.10248362726E+04  0.25500000920E-02 0. -1.
    10030    2    1    2    0    0  0.00000000000E+00  0.00000000000E+00  0.16615329753E+03  0.22158258426E+04  0.22095875739E+04 0.  0.
        2    1    3    3  502    0  0.28497939807E+03 -0.10466028749E+04 -0.12722588024E+03  0.10921434245E+04  0.25500000920E-02 0.  1.
       -2    1    3    3    0  502 -0.28497939807E+03  0.10466028749E+04  0.29337917777E+03  0.11236824182E+04  0.25500000920E-02 0. -1.
</event>
<event>
 5   0  0.4309945E-06  0.2203607E+04  0.7818609E-02  0.8516928E-01
       -1   -1    0    0    0  501  0.00000000000E+00  0.00000000000E+00  0.60779068001E+03  0.60779068004E+03  0.50400001928E-02 0. -1.
        1   -1    0    0  501    0  0.00000000000E+00  0.00000000000E+00 -0.19973507747E+04  0.19973507747E+04  0.50400001928E-02 0.  1.
    10030    2    1    2    0    0  0.00000000000E+00  0.00000000000E+00 -0.13895600947E+04  0.26051414547E+04  0.22036072115E+04 0.  0.
        4    1    3    3  502    0  0.73858216752E+03  0.61300257564E+03 -0.55186779397E+02  0.96141716722E+03  0.12699999809E+01 0. -1.
       -4    1    3    3    0  502 -0.73858216752E+03 -0.61300257564E+03 -0.13343733153E+04  0.16437242875E+04  0.12699999809E+01 0.  1.
</event>
<event>
 5   0  0.4630615E-06  0.2189667E+04  0.7818609E-02  0.8522741E-01
       -1   -1    0    0    0  501  0.00000000000E+00  0.00000000000E+00  0.93488473108E+03  0.93488473109E+03  0.50400001928E-02 0. -1.
        1   -1    0    0  501    0  0.00000000000E+00  0.00000000000E+00 -0.12821482077E+04  0.12821482077E+04  0.50400001928E-02 0.  1.
    10030    2    1    2    0    0  0.00000000000E+00  0.00000000000E+00 -0.34726347657E+03  0.22170329388E+04  0.21896673559E+04 0.  0.
        2    1    3    3  502    0  0.74055749105E+03 -0.80211839251E+03 -0.89884848052E+02  0.10953988310E+04  0.25500000920E-02 0.  1.
       -2    1    3    3    0  502 -0.74055749105E+03  0.80211839251E+03 -0.25737862852E+03  0.11216341077E+04  0.25500000920E-02 0. -1.
</event>
<event>
 5   0  0.9963173E-06  0.2197010E+04  0.7818609E-02  0.8519674E-01
       -2   -1    0    0    0  501  0.00000000000E+00  0.00000000000E+00  0.94507898831E+03  0.94507898832E+03  0.25500000920E-02 0.  1.
        2   -1    0    0  501    0  0.00000000000E+00  0.00000000000E+00 -0.12768384616E+04  0.12768384616E+04  0.25500000920E-02 0. -1.
    10030    2    1    2    0    0  0.00000000000E+00  0.00000000000E+00 -0.33175947325E+03  0.22219174499E+04  0.21970099695E+04 0.  0.
        4    1    3    3  502    0  0.92552365206E+03  0.43535776030E+03 -0.57114857601E+03  0.11714703235E+04  0.12699999809E+01 0. -1.
       -4    1    3    3    0  502 -0.92552365206E+03 -0.43535776030E+03  0.23938910275E+03  0.10504471264E+04  0.12699999809E+01 0.  1.
</event>
<event>
 5   0  0.9963173E-06  0.2211461E+04  0.7818609E-02  0.8513673E-01
       -2   -1    0    0    0  501  0.00000000000E+00  0.00000000000E+00  0.17007077544E+04  0.17007077544E+04  0.25500000920E-02 0. -1.
        2   -1    0    0  501    0  0.00000000000E+00  0.00000000000E+00 -0.71890081783E+03  0.71890081784E+03  0.25500000920E-02 0.  1.
    10030    2    1    2    0    0  0.00000000000E+00  0.00000000000E+00  0.98180693660E+03  0.24196085723E+04  0.22114612324E+04 0.  0.
        4    1    3    3  502    0  0.15017976646E+03  0.37223683644E+03 -0.63637384300E+03  0.75238786912E+03  0.12699999809E+01 0.  1.
       -4    1    3    3    0  502 -0.15017976646E+03 -0.37223683644E+03  0.16181807796E+04  0.16672207031E+04  0.12699999809E+01 0. -1.
</event>
<event>
 5   0  0.4309945E-06  0.2197582E+04  0.7818609E-02  0.8519435E-01
        1   -1    0    0  501    0  0.00000000000E+00  0.00000000000E+00  0.12727526833E+04  0.12727526834E+04  0.50400001928E-02 0. -1.
       -1   -1    0    0    0  501  0.00000000000E+00  0.00000000000E+00 -0.94860684757E+03  0.94860684758E+03  0.50400001928E-02 0.  1.
    10030    2    1    2    0    0  0.00000000000E+00  0.00000000000E+00  0.32414583578E+03  0.22213595309E+04  0.21975822266E+04 0.  0.
        4    1    3    3  502    0 -0.39978829856E+03  0.14282943069E+03  0.11865023956E+04  0.12601668452E+04  0.12699999809E+01 0. -1.
       -4    1    3    3    0  502  0.39978829856E+03 -0.14282943069E+03 -0.86235655985E+03  0.96119268576E+03  0.12699999809E+01 0.  1.
</event>
<event>
 5   0  0.4630615E-06  0.2199230E+04  0.7818609E-02  0.8518749E-01
        1   -1    0    0  501    0  0.00000000000E+00  0.00000000000E+00  0.59708395275E+03  0.59708395277E+03  0.50400001928E-02 0.  1.
       -1   -1    0    0    0  501  0.00000000000E+00  0.00000000000E+00 -0.20250969081E+04  0.20250969081E+04  0.50400001928E-02 0. -1.
    10030    2    1    2    0    0  0.00000000000E+00  0.00000000000E+00 -0.14280129554E+04  0.26221808609E+04  0.21992297439E+04 0.  0.
        2    1    3    3  502    0 -0.48854246606E+02 -0.33250256828E+03  0.53434983035E+03  0.63124831606E+03  0.25500000920E-02 0.  1.
       -2    1    3    3    0  502  0.48854246606E+02  0.33250256828E+03 -0.19623627857E+04  0.19909325448E+04  0.25500000920E-02 0. -1.
</event>
<event>
 5   0  0.1015876E-05  0.2200089E+04  0.7818609E-02  0.8518391E-01
        2   -1    0    0  501    0  0.00000000000E+00  0.00000000000E+00  0.14663213629E+04  0.14663213629E+04  0.25500000920E-02 0.  1.
       -2   -1    0    0    0  501  0.00000000000E+00  0.00000000000E+00 -0.82526124925E+03  0.82526124925E+03  0.25500000920E-02 0. -1.
    10030    2    1    2    0    0  0.00000000000E+00  0.00000000000E+00  0.64106011361E+03  0.22915826121E+04  0.22000892707E+04 0.  0.
        5    1    3    3  502    0 -0.57858321282E+03  0.26407629109E+03  0.12553972082E+04  0.14073162623E+04  0.46999998093E+01 0.  1.
       -5    1    3    3    0  502  0.57858321282E+03 -0.26407629109E+03 -0.61433709459E+03  0.88426634984E+03  0.46999998093E+01 0. -1.
</event>
<event>
 5   0  0.1015876E-05  0.2193132E+04  0.7818609E-02  0.8521292E-01
       -2   -1    0    0    0  501  0.00000000000E+00  0.00000000000E+00  0.10271991028E+04  0.10271991028E+04  0.25500000920E-02 0.  1.
        2   -1    0    0  501    0  0.00000000000E+00  0.00000000000E+00 -0.11706171478E+04  0.11706171478E+04  0.25500000920E-02 0. -1.
    10030    2    1    2    0    0  0.00000000000E+00  0.00000000000E+00 -0.14341804499E+03  0.21978162506E+04  0.21931319011E+04 0.  0.
        5    1    3    3  502    0 -0.79772049933E+03 -0.44527547440E+03  0.53605691754E+03  0.10592484845E+04  0.46999998093E+01 0.  1.
       -5    1    3    3    0  502  0.79772049933E+03  0.44527547440E+03 -0.67947496253E+03  0.11385677660E+04  0.46999998093E+01 0. -1.
</event>
<event>
 5   0  0.4794967E-06  0.2200227E+04  0.7818609E-02  0.8518334E-01
        1   -1    0    0  501    0  0.00000000000E+00  0.00000000000E+00  0.14686867396E+04  0.14686867396E+04  0.50400001928E-02 0.  1.
       -1   -1    0    0    0  501  0.00000000000E+00  0.00000000000E+00 -0.82403513553E+03  0.82403513554E+03  0.50400001928E-02 0. -1.
    10030    2    1    2    0    0  0.00000000000E+00  0.00000000000E+00  0.64465160411E+03  0.22927218752E+04  0.22002267852E+04 0.  0.
        5    1    3    3  502    0  0.22504000271E+03 -0.46822707354E+03 -0.68815526719E+03  0.86224089266E+03  0.46999998093E+01 0. -1.
       -5    1    3    3    0  502 -0.22504000271E+03  0.46822707354E+03  0.13328068713E+04  0.14304809825E+04  0.46999998093E+01 0.  1.
</event>
<event>
 5   0  0.9963573E-06  0.2193675E+04  0.7818609E-02  0.8521065E-01
        2   -1    0    0  501    0  0.00000000000E+00  0.00000000000E+00  0.13151586764E+04  0.13151586764E+04  0.25500000920E-02 0. -1.
       -2   -1    0    0    0  501  0.00000000000E+00  0.00000000000E+00 -0.91475857967E+03  0.91475857967E+03  0.25500000920E-02 0.  1.
    10030    2    1    2    0    0  0.00000000000E+00  0.00000000000E+00  0.40040009670E+03  0.22299172560E+04  0.21936751654E+04 0.  0.
        2    1    3    3  502    0 -0.80499757204E+03  0.26648518915E+03  0.90740752466E+03  0.12419435828E+04  0.25500000920E-02 0. -1.
       -2    1    3    3    0  502  0.80499757204E+03 -0.26648518915E+03 -0.50700742796E+03  0.98797367325E+03  0.25500000920E-02 0.  1.
</event>
<event>
 5   0  0.4309945E-06  0.2200408E+04  0.7818609E-02  0.8518258E-01
        1   -1    0    0  501    0  0.00000000000E+00  0.00000000000E+00  0.15537212069E+04  0.15537212069E+04  0.50400001928E-02 0.  1.
       -1   -1    0    0    0  501  0.00000000000E+00  0.00000000000E+00 -0.77906441015E+03  0.77906441017E+03  0.50400001928E-02 0. -1.
    10030    2    1    2    0    0  0.00000000000E+00  0.00000000000E+00  0.77465679673E+03  0.23327856171E+04  0.22004080491E+04 0.  0.
        4    1    3    3  502    0 -0.18831973020E+03 -0.19088390753E+03 -0.74389128001E+03  0.79074448232E+03  0.12699999809E+01 0. -1.
       -4    1    3    3    0  502  0.18831973020E+03  0.19088390753E+03  0.15185480767E+04  0.15420411347E+04  0.12699999809E+01 0.  1.
</event>
<event>
 5   0  0.1035928E-05  0.2199068E+04  0.7818609E-02  0.8518816E-01
       -2   -1    0    0    0  501  0.00000000000E+00  0.00000000000E+00  0.11807799233E+04  0.11807799233E+04  0.25500000920E-02 0.  1.
        2   -1    0    0  501    0  0.00000000000E+00  0.00000000000E+00 -0.10238787844E+04  0.10238787844E+04  0.25500000920E-02 0. -1.
    10030    2    1    2    0    0  0.00000000000E+00  0.00000000000E+00  0.15690113892E+03  0.22046587078E+04  0.21990684506E+04 0.  0.
        3    1    3    3  502    0 -0.58241496860E+03  0.42139118040E+03 -0.75564866221E+03  0.10429681843E+04  0.10100000352E+00 0. -1.
       -3    1    3    3    0  502  0.58241496860E+03 -0.42139118040E+03  0.91254980112E+03  0.11616905235E+04  0.10100000352E+00 0.  1.
</event>
<event>
 5   0  0.3546750E-06  0.2199672E+04  0.7818609E-02  0.8518565E-01
       -4   -1    0    0    0  501  0.00000000000E+00  0.00000000000E+00  0.58990883586E+03  0.58991020294E+03  0.12699999809E+01 0. -1.
        4   -1    0    0  501    0  0.00000000000E+00  0.00000000000E+00 -0.20505491836E+04  0.20505495769E+04  0.12699999809E+01 0.  1.
    10030    2    1    2    0    0  0.00000000000E+00  0.00000000000E+00 -0.14606403478E+04  0.26404597798E+04  0.21996721627E+04 0.  0.
        4    1    3    3  502    0 -0.79605305628E+03 -0.13484357792E+02 -0.16411571320E+04  0.18240835072E+04  0.12699999809E+01 0.  1.
       -4    1    3    3    0  502  0.79605305628E+03  0.13484357792E+02  0.18051678423E+03  0.81637627269E+03  0.12699999809E+01 0. -1.
</event>
<event>
 5   0  0.9963573E-06  0.2201625E+04  0.7818609E-02  0.8517752E-01
       -2   -1    0    0    0  501  0.00000000000E+00  0.00000000000E+00  0.54499763509E+03  0.54499763509E+03  0.25500000920E-02 0. -1.
        2   -1    0    0  501    0  0.00000000000E+00  0.00000000000E+00 -0.22234737526E+04  0.22234737526E+04  0.25500000920E-02 0.  1.
    10030    2    1    2    0    0  0.00000000000E+00  0.00000000000E+00 -0.16784761175E+04  0.27684713876E+04  0.22016247971E+04 0.  0.
        2    1    3    3  502    0 -0.91864720510E+03  0.53777833937E+03 -0.48654208829E+03  0.11704022528E+04  0.25500000920E-02 0. -1.
       -2    1    3    3    0  502  0.91864720510E+03 -0.53777833937E+03 -0.11919340292E+04  0.15980691348E+04  0.25500000920E-02 0.  1.
</event>
<event>
 5   0  0.4462201E-06  0.2199871E+04  0.7818609E-02  0.8518482E-01
       -1   -1    0    0    0  501  0.00000000000E+00  0.00000000000E+00  0.10166941775E+04  0.10166941776E+04  0.50400001928E-02 0. -1.
        1   -1    0    0  501    0  0.00000000000E+00  0.00000000000E+00 -0.11899920699E+04  0.11899920700E+04  0.50400001928E-02 0.  1.
    10030    2    1    2    0    0  0.00000000000E+00  0.00000000000E+00 -0.17329789240E+03  0.22066862475E+04  0.21998709134E+04 0.  0.
        3    1    3    3  502    0  0.96475634039E+03 -0.52156585795E+03 -0.22916903856E+01  0.10967182877E+04  0.10100000352E+00 0. -1.
       -3    1    3    3    0  502 -0.96475634039E+03  0.52156585795E+03 -0.17100620202E+03  0.11099679598E+04  0.10100000352E+00 0.  1.
</event>
<event>
 5   0  0.9963573E-06  0.2199206E+04  0.7818609E-02  0.8518759E-01
        2   -1    0    0  501    0  0.00000000000E+00  0.00000000000E+00  0.22604190298E+04  0.22604190298E+04  0.25500000920E-02 0. -1.
       -2   -1    0    0    0  501  0.00000000000E+00  0.00000000000E+00 -0.53491278856E+03  0.53491278857E+03  0.25500000920E-02 0.  1.
    10030    2    1    2    0    0  0.00000000000E+00  0.00000000000E+00  0.17255062412E+04  0.27953318183E+04  0.21992062628E+04 0.  0.
        2    1    3    3  502    0 -0.10323878742E+04  0.35231119037E+03  0.68672499255E+03  0.12890070260E+04  0.25500000920E-02 0.  1.
       -2    1    3    3    0  502  0.10323878742E+04 -0.35231119037E+03  0.10387812486E+04  0.15063247924E+04  0.25500000920E-02 0. -1.
</event>
<event>
 5   0  0.4794967E-06  0.2203380E+04  0.7818609E-02  0.8517023E-01
       -1   -1    0    0    0  501  0.00000000000E+00  0.00000000000E+00  0.14403482295E+04  0.14403482295E+04  0.50400001928E-02 0.  1.
        1   -1    0    0  501    0  0.00000000000E+00  0.00000000000E+00 -0.84265791734E+03  0.84265791736E+03  0.50400001928E-02 0. -1.
    10030    2    1    2    0    0  0.00000000000E+00  0.00000000000E+00  0.59769031218E+03  0.22830061469E+04  0.22033799848E+04 0.  0.
        5    1    3    3  502    0 -0.10369875562E+04 -0.35093817324E+03  0.17111004970E+03  0.11080620616E+04  0.46999998093E+01 0. -1.
       -5    1    3    3    0  502  0.10369875562E+04  0.35093817324E+03  0.42658026249E+03  0.11749440853E+04  0.46999998093E+01 0.  1.
</event>
<event>
 5   0  0.4309945E-06  0.2190406E+04  0.7818609E-02  0.8522432E-01
        1   -1    0    0  501    0  0.00000000000E+00  0.00000000000E+00  0.14429859881E+04  0.14429859881E+04  0.50400001928E-02 0. -1.
       -1   -1    0    0    0  501  0.00000000000E+00  0.00000000000E+00 -0.83124098790E+03  0.83124098792E+03  0.50400001928E-02 0.  1.
    10030    2    1    2    0    0  0.00000000000E+00  0.00000000000E+00  0.61174500016E+03  0.22742269760E+04  0.21904055317E+04 0.  0.
        4    1    3    3  502    0  0.10194628875E+04 -0.72640420562E+02  0.71448885719E+03  0.12470273251E+04  0.12699999809E+01 0. -1.
       -4    1    3    3    0  502 -0.10194628875E+04  0.72640420562E+02 -0.10274385703E+03  0.10271996509E+04  0.12699999809E+01 0.  1.
</event>
<event>
 5   0  0.1035928E-05  0.2203018E+04  0.7818609E-02  0.8517173E-01
       -2   -1    0    0    0  501  0.00000000000E+00  0.00000000000E+00  0.51982038483E+03  0.51982038484E+03  0.25500000920E-02 0.  1.
        2   -1    0    0  501    0  0.00000000000E+00  0.00000000000E+00 -0.23341189547E+04  0.23341189547E+04  0.25500000920E-02 0. -1.
    10030    2    1    2    0    0  0.00000000000E+00  0.00000000000E+00 -0.18142985699E+04  0.28539393395E+04  0.22030184868E+04 0.  0.
        3    1    3    3  502    0  0.37281213189E+02  0.55657125756E+03  0.32331399202E+03  0.64474289545E+03  0.10100000352E+00 0.  1.
       -3    1    3    3    0  502 -0.37281213189E+02 -0.55657125756E+03 -0.21376125619E+04  0.22091964441E+04  0.10100000352E+00 0. -1.
</event>
<event>
 5   0  0.4462201E-06  0.2203535E+04  0.7818609E-02  0.8516958E-01
        1   -1    0    0  501    0  0.00000000000E+00  0.00000000000E+00  0.95819424152E+03  0.95819424153E+03  0.50400001928E-02 0. -1.
       -1   -1    0    0    0  501  0.00000000000E+00  0.00000000000E+00 -0.12668532879E+04  0.12668532879E+04  0.50400001928E-02 0.  1.
    10030    2    1    2    0    0  0.00000000000E+00  0.00000000000E+00 -0.30865904638E+03  0.22250475294E+04  0.22035349104E+04 0.  0.
        3    1    3    3  502    0 -0.10246501372E+04 -0.18255920375E+03 -0.51932175249E+03  0.11631555611E+04  0.10100000352E+00 0.  1.
       -3    1    3    3    0  502  0.10246501372E+04  0.18255920375E+03  0.21066270611E+03  0.10618919683E+04  0.10100000352E+00 0. -1.
</event>
<event>
 5   0  0.4630615E-06  0.2201760E+04  0.7818609E-02  0.8517696E-01
        1   -1    0    0  501    0  0.00000000000E+00  0.00000000000E+00  0.19637826316E+04  0.19637826316E+04  0.50400001928E-02 0.  1.
       -1   -1    0    0    0  501  0.00000000000E+00  0.00000000000E+00 -0.61714416448E+03  0.61714416450E+03  0.50400001928E-02 0. -1.
    10030    2    1    2    0    0  0.00000000000E+00  0.00000000000E+00  0.13466384671E+04  0.25809267961E+04  0.22017601971E+04 0.  0.
        2    1    3    3  502    0 -0.61143302130E+03  0.84489840941E+03  0.26015308401E+03  0.10748875704E+04  0.25500000920E-02 0. -1.
       -2    1    3    3    0  502  0.61143302130E+03 -0.84489840941E+03  0.10864853831E+04  0.15060392257E+04  0.25500000920E-02 0.  1.
</event>
<event>
 5   0  0.4630615E-06  0.2197897E+04  0.7818609E-02  0.8519304E-01
        1   -1    0    0  501    0  0.00000000000E+00  0.00000000000E+00  0.10745915272E+04  0.10745915273E+04  0.50400001928E-02 0.  1.
       -1   -1    0    0    0  501  0.00000000000E+00  0.00000000000E+00 -0.11238578332E+04  0.11238578332E+04  0.50400001928E-02 0. -1.
    10030    2    1    2    0    0  0.00000000000E+00  0.00000000000E+00 -0.49266305956E+02  0.21984493605E+04  0.21978972728E+04 0.  0.
        2    1    3    3  502    0  0.10734852692E+04 -0.19466015215E+03  0.10740344212E+03  0.10962657968E+04  0.25500000920E-02 0.  1.
       -2    1    3    3    0  502 -0.10734852692E+04  0.19466015215E+03 -0.15666974808E+03  0.11021835636E+04  0.25500000920E-02 0. -1.
</event>
<event>
 5   0  0.9963173E-06  0.2197933E+04  0.7818609E-02  0.8519289E-01
        2   -1    0    0  501    0  0.00000000000E+00  0.00000000000E+00  0.16623641418E+04  0.16623641418E+04  0.25500000920E-02 0. -1.
       -2   -1    0    0    0  501  0.00000000000E+00  0.00000000000E+00 -0.72651159500E+03  0.72651159500E+03  0.25500000920E-02 0.  1.
    10030    2    1    2    0    0  0.00000000000E+00  0.00000000000E+00  0.93585254683E+03  0.23888757368E+04  0.21979325050E+04 0.  0.
        4    1    3    3  502    0  0.56914777177E+03  0.71045144092E+03  0.11370866143E+04  0.14565843667E+04  0.12699999809E+01 0. -1.
       -4    1    3    3    0  502 -0.56914777177E+03 -0.71045144092E+03 -0.20123406745E+03  0.93229137013E+03  0.12699999809E+01 0.  1.
</event>
<event>
 5   0  0.4408787E-06  0.2200892E+04  0.7818609E-02  0.8518057E-01
        1   -1    0    0  501    0  0.00000000000E+00  0.00000000000E+00  0.87283924955E+03  0.87283924956E+03  0.50400001928E-02 0. -1.
       -1   -1    0    0    0  501  0.00000000000E+00  0.00000000000E+00 -0.13874047498E+04  0.13874047498E+04  0.50400001928E-02 0.  1.
    10030    2    1    2    0    0  0.00000000000E+00  0.00000000000E+00 -0.51456550023E+03  0.22602439993E+04  0.22008919289E+04 0.  0.
        1    1    3    3  502    0 -0.77214761515E+02 -0.10971336950E+04 -0.22001563013E+03  0.11216377943E+04  0.50400001928E-02 0. -1.
       -1    1    3    3    0  502  0.77214761515E+02  0.10971336950E+04 -0.29454987010E+03  0.11386062050E+04  0.50400001928E-02 0.  1.
</event>
<event>
 5   0  0.4408787E-06  0.2200450E+04  0.7818609E-02  0.8518241E-01
        1   -1    0    0  501    0  0.00000000000E+00  0.00000000000E+00  0.20103016438E+04  0.20103016438E+04  0.50400001928E-02 0.  1.
       -1   -1    0    0    0  501  0.00000000000E+00  0.00000000000E+00 -0.60214607643E+03  0.60214607645E+03  0.50400001928E-02 0. -1.
    10030    2    1    2    0    0  0.00000000000E+00  0.00000000000E+00  0.14081555674E+04  0.26124477202E+04  0.22004501787E+04 0.  0.
        1    1    3    3  502    0 -0.10725139883E+04 -0.21483721128E+03  0.56333196636E+03  0.12303593731E+04  0.50400001928E-02 0. -1.
       -1    1    3    3    0  502  0.10725139883E+04  0.21483721128E+03  0.84482360101E+03  0.13820883472E+04  0.50400001928E-02 0.  1.
</event>
<event>
 5   0  0.1015876E-05  0.2200637E+04  0.7818609E-02  0.8518163E-01
       -2   -1    0    0    0  501  0.00000000000E+00  0.00000000000E+00  0.85718290792E+03  0.85718290792E+03  0.25500000920E-02 0.  1.
        2   -1    0    0  501    0  0.00000000000E+00  0.00000000000E+00 -0.14124178562E+04  0.14124178562E+04  0.25500000920E-02 0. -1.
    10030    2    1    2    0    0  0.00000000000E+00  0.00000000000E+00 -0.55523494826E+03  0.22696007641E+04  0.22006366762E+04 0.  0.
        5    1    3    3  502    0 -0.14648604505E+03  0.10794675974E+04 -0.11794346425E+03  0.10957377451E+04  0.46999998093E+01 0. -1.
       -5    1    3    3    0  502  0.14648604505E+03 -0.10794675974E+04 -0.43729148402E+03  0.11738630190E+04  0.46999998093E+01 0.  1.
</event>
<event>
 5   0  0.1014015E-05  0.2205058E+04  0.7818609E-02  0.8516326E-01
       -2   -1    0    0    0  501  0.00000000000E+00  0.00000000000E+00  0.10995930260E+04  0.10995930260E+04  0.25500000920E-02 0. -1.
        2   -1    0    0  501    0  0.00000000000E+00  0.00000000000E+00 -0.11054724339E+04  0.11054724339E+04  0.25500000920E-02 0.  1.
    10030    2    1    2    0    0  0.00000000000E+00  0.00000000000E+00 -0.58794078462E+01  0.22050654599E+04  0.22050576217E+04 0.  0.
        1    1    3    3  502    0 -0.75194637684E+03 -0.28249434553E+03  0.75227379212E+03  0.11005190899E+04  0.50400001928E-02 0. -1.
       -1    1    3    3    0  502  0.75194637684E+03  0.28249434553E+03 -0.75815319997E+03  0.11045463700E+04  0.50400001928E-02 0.  1.
</event>
<event>
 5   0  0.1014015E-05  0.2200135E+04  0.7818609E-02  0.8518372E-01
       -2   -1    0    0    0  501  0.00000000000E+00  0.00000000000E+00  0.11857714739E+04  0.11857714740E+04  0.25500000920E-02 0.  1.
        2   -1    0    0  501    0  0.00000000000E+00  0.00000000000E+00 -0.10205579948E+04  0.10205579948E+04  0.25500000920E-02 0. -1.
    10030    2    1    2    0    0  0.00000000000E+00  0.00000000000E+00  0.16521347918E+03  0.22063294687E+04  0.22001350483E+04 0.  0.
        1    1    3    3  502    0 -0.77459889812E+03 -0.64131668141E+03 -0.36458377223E+03  0.10696783936E+04  0.50400001928E-02 0. -1.
       -1    1    3    3    0  502  0.77459889812E+03  0.64131668141E+03  0.52979725141E+03  0.11366510751E+04  0.50400001928E-02 0.  1.
</event>
<event>
 5   0  0.4462201E-06  0.2201723E+04  0.7818609E-02  0.8517711E-01
        1   -1    0    0  501    0  0.00000000000E+00  0.00000000000E+00  0.16930148283E+04  0.16930148283E+04  0.50400001928E-02 0.  1.
       -1   -1    0    0    0  501  0.00000000000E+00  0.00000000000E+00 -0.71582102479E+03  0.71582102480E+03  0.50400001928E-02 0. -1.
    10030    2    1    2    0    0  0.00000000000E+00  0.00000000000E+00  0.97719380354E+03  0.24088358531E+04  0.22017226069E+04 0.  0.
        3    1    3    3  502    0 -0.15522611036E+03 -0.84343341471E+03 -0.26656459453E+03  0.89807113507E+03  0.10100000352E+00 0. -1.
       -3    1    3    3    0  502  0.15522611036E+03  0.84343341471E+03  0.12437583981E+04  0.15107647181E+04  0.10100000352E+00 0.  1.
</event>
<event>
 5   0  0.1015876E-05  0.2196194E+04  0.7818609E-02  0.8520014E-01
       -2   -1    0    0    0  501  0.00000000000E+00  0.00000000000E+00  0.10057634801E+04  0.10057634801E+04  0.25500000920E-02 0.  1.
        2   -1    0    0  501    0  0.00000000000E+00  0.00000000000E+00 -0.11989075538E+04  0.11989075538E+04  0.25500000920E-02 0. -1.
    10030    2    1    2    0    0  0.00000000000E+00  0.00000000000E+00 -0.19314407374E+03  0.22046710339E+04  0.21961943754E+04 0.  0.
        5    1    3    3  502    0  0.36894298154E+02  0.20083533018E+03  0.98652667625E+03  0.10074487541E+04  0.46999998093E+01 0.  1.
       -5    1    3    3    0  502 -0.36894298154E+02 -0.20083533018E+03 -0.11796707500E+04  0.11972222799E+04  0.46999998093E+01 0. -1.
</event>
<event>
 5   0  0.9963573E-06  0.2209530E+04  0.7818609E-02  0.8514472E-01
        2   -1    0    0  501    0  0.00000000000E+00  0.00000000000E+00  0.17476355142E+04  0.17476355142E+04  0.25500000920E-02 0. -1.
       -2   -1    0    0    0  501  0.00000000000E+00  0.00000000000E+00 -0.69837517449E+03  0.69837517449E+03  0.25500000920E-02 0.  1.
    10030    2    1    2    0    0  0.00000000000E+00  0.00000000000E+00  0.10492603397E+04  0.24460106887E+04  0.22095295945E+04 0.  0.
        2    1    3    3  502    0  0.46059302683E+03 -0.33072842785E+03 -0.52499217163E+03  0.77275093635E+03  0.25500000920E-02 0.  1.
       -2    1    3    3    0  502 -0.46059302683E+03  0.33072842785E+03  0.15742525114E+04  0.16732597524E+04  0.25500000920E-02 0. -1.
</event>
<event>
 5   0  0.4794967E-06  0.2198631E+04  0.7818609E-02  0.8518998E-01
        1   -1    0    0  501    0  0.00000000000E+00  0.00000000000E+00  0.57190202154E+03  0.57190202156E+03  0.50400001928E-02 0.  1.
       -1   -1    0    0    0  501  0.00000000000E+00  0.00000000000E+00 -0.21131143827E+04  0.21131143827E+04  0.50400001928E-02 0. -1.
    10030    2    1    2    0    0  0.00000000000E+00  0.00000000000E+00 -0.15412123611E+04  0.26850164042E+04  0.21986308351E+04 0.  0.
        5    1    3    3  502    0 -0.17833509867E+03 -0.41172986026E+03  0.45497236395E+03  0.63902020876E+03  0.46999998093E+01 0.  1.
       -5    1    3    3    0  502  0.17833509867E+03  0.41172986026E+03 -0.19961847251E+04  0.20459961955E+04  0.46999998093E+01 0. -1.
</event>
<event>
 5   0  0.1014015E-05  0.2205088E+04  0.7818609E-02  0.8516313E-01
       -2   -1    0    0    0  501  0.00000000000E+00  0.00000000000E+00  0.69450303605E+03  0.69450303606E+03  0.25500000920E-02 0.  1.
        2   -1    0    0  501    0  0.00000000000E+00  0.00000000000E+00 -0.17503216188E+04  0.17503216188E+04  0.25500000920E-02 0. -1.
    10030    2    1    2    0    0  0.00000000000E+00  0.00000000000E+00 -0.10558185827E+04  0.24448246549E+04  0.22050883686E+04 0.  0.
        1    1    3    3  502    0  0.77800857010E+03  0.47711873116E+03 -0.12137615218E+04  0.15186035199E+04  0.50400001928E-02 0. -1.
       -1    1    3    3    0  502 -0.77800857010E+03 -0.47711873116E+03  0.15794293909E+03  0.92622113494E+03  0.50400001928E-02 0.  1.
</event>
<event>
 5   0  0.9963173E-06  0.2199925E+04  0.7818609E-02  0.8518459E-01
       -2   -1    0    0    0  501  0.00000000000E+00  0.00000000000E+00  0.83486455513E+03  0.83486455513E+03  0.25500000920E-02 0. -1.
        2   -1    0    0  501    0  0.00000000000E+00  0.00000000000E+00 -0.14492376329E+04  0.14492376329E+04  0.25500000920E-02 0.  1.
    10030    2    1    2    0    0  0.00000000000E+00  0.00000000000E+00 -0.61437307775E+03  0.22841021880E+04  0.21999246639E+04 0.  0.
        4    1    3    3  502    0  0.99681177255E+03 -0.15675081898E+03 -0.76178841702E+03  0.12643289660E+04  0.12699999809E+01 0. -1.
       -4    1    3    3    0  502 -0.99681177255E+03  0.15675081898E+03  0.14741533926E+03  0.10197732220E+04  0.12699999809E+01 0.  1.
</event>
<event>
 5   0  0.1014015E-05  0.2199948E+04  0.7818609E-02  0.8518450E-01
       -2   -1    0    0    0  501  0.00000000000E+00  0.00000000000E+00  0.62028870354E+03  0.62028870354E+03  0.25500000920E-02 0. -1.
        2   -1    0    0  501    0  0.00000000000E+00  0.00000000000E+00 -0.19506116719E+04  0.19506116719E+04  0.25500000920E-02 0.  1.
    10030    2    1    2    0    0  0.00000000000E+00  0.00000000000E+00 -0.13303229684E+04  0.25709003755E+04  0.21999476222E+04 0.  0.
        1    1    3    3  502    0 -0.14259162422E+03  0.59133052630E+03 -0.17361790139E+04  0.18396526115E+04  0.50400001928E-02 0.  1.
       -1    1    3    3    0  502  0.14259162422E+03 -0.59133052630E+03  0.40585604551E+03  0.73124776398E+03  0.50400001928E-02 0. -1.
</event>
<event>
 5   0  0.9963573E-06  0.2195228E+04  0.7818609E-02  0.8520417E-01
        2   -1    0    0  501    0  0.00000000000E+00  0.00000000000E+00  0.18030493755E+04  0.18030493756E+04  0.25500000920E-02 0.  1.
       -2   -1    0    0    0  501  0.00000000000E+00  0.00000000000E+00 -0.66817726654E+03  0.66817726655E+03  0.25500000920E-02 0. -1.
    10030    2    1    2    0    0  0.00000000000E+00  0.00000000000E+00  0.11348721090E+04  0.24712266421E+04  0.21952281004E+04 0.  0.
        2    1    3    3  502    0  0.11917804273E+02 -0.10279544288E+04  0.13447121526E+03  0.10367810036E+04  0.25500000920E-02 0. -1.
       -2    1    3    3    0  502 -0.11917804273E+02  0.10279544288E+04  0.10004008937E+04  0.14344456385E+04  0.25500000920E-02 0.  1.
</event>
<event>
 5   0  0.4630615E-06  0.2185597E+04  0.7818609E-02  0.8524447E-01
        1   -1    0    0  501    0  0.00000000000E+00  0.00000000000E+00  0.20046586976E+04  0.20046586976E+04  0.50400001928E-02 0. -1.
       -1   -1    0    0    0  501  0.00000000000E+00  0.00000000000E+00 -0.59571643893E+03  0.59571643895E+03  0.50400001928E-02 0.  1.
    10030    2    1    2    0    0  0.00000000000E+00  0.00000000000E+00  0.14089422587E+04  0.26003751365E+04  0.21855966148E+04 0.  0.
        2    1    3    3  502    0 -0.34424268162E+02  0.95827988627E+03  0.13280814928E+04  0.16380738146E+04  0.25500000920E-02 0. -1.
       -2    1    3    3    0  502  0.34424268162E+02 -0.95827988627E+03  0.80860765851E+02  0.96230132190E+03  0.25500000920E-02 0.  1.
</event>
<event>
 5   0  0.4630615E-06  0.2201297E+04  0.7818609E-02  0.8517888E-01
       -1   -1    0    0    0  501  0.00000000000E+00  0.00000000000E+00  0.70938342959E+03  0.70938342961E+03  0.50400001928E-02 0. -1.
        1   -1    0    0  501    0  0.00000000000E+00  0.00000000000E+00 -0.17077186482E+04  0.17077186482E+04  0.50400001928E-02 0.  1.
    10030    2    1    2    0    0  0.00000000000E+00  0.00000000000E+00 -0.99833521858E+03  0.24171020778E+04  0.22012971734E+04 0.  0.
        2    1    3    3  502    0 -0.21628498648E+03 -0.10209914675E+04 -0.88304763964E+03  0.13671049359E+04  0.25500000920E-02 0.  1.
       -2    1    3    3    0  502  0.21628498648E+03  0.10209914675E+04 -0.11528757894E+03  0.10499971418E+04  0.25500000920E-02 0. -1.
</event>
<event>
 5   0  0.1014015E-05  0.2200927E+04  0.7818609E-02  0.8518043E-01
        2   -1    0    0  501    0  0.00000000000E+00  0.00000000000E+00  0.18503547402E+04  0.18503547402E+04  0.25500000920E-02 0. -1.
       -2   -1    0    0    0  501  0.00000000000E+00  0.00000000000E+00 -0.65447967220E+03  0.65447967221E+03  0.25500000920E-02 0.  1.
    10030    2    1    2    0    0  0.00000000000E+00  0.00000000000E+00  0.11958750680E+04  0.25048344124E+04  0.22009266810E+04 0.  0.
        1    1    3    3  502    0  0.61064264390E+03 -0.80415945745E+03  0.99953376525E+02  0.10146662254E+04  0.50400001928E-02 0.  1.
       -1    1    3    3    0  502 -0.61064264390E+03  0.80415945745E+03  0.10959216914E+04  0.14901681869E+04  0.50400001928E-02 0. -1.
</event>
<event>
 5   0  0.4408787E-06  0.2204669E+04  0.7818609E-02  0.8516487E-01
       -1   -1    0    0    0  501  0.00000000000E+00  0.00000000000E+00  0.78774056964E+03  0.78774056966E+03  0.50400001928E-02 0.  1.
        1   -1    0    0  501    0  0.00000000000E+00  0.00000000000E+00 -0.15425653320E+04  0.15425653320E+04  0.50400001928E-02 0. -1.
    10030    2    1    2    0    0  0.00000000000E+00  0.00000000000E+00 -0.75482476235E+03  0.23303059017E+04  0.22046689487E+04 0.  0.
        1    1    3    3  502    0 -0.60632424778E+03 -0.12281193672E+03 -0.13417814273E+04  0.14775280925E+04  0.50400001928E-02 0. -1.
       -1    1    3    3    0  502  0.60632424778E+03  0.12281193672E+03  0.58695666499E+03  0.85277780919E+03  0.50400001928E-02 0.  1.
</event>
<event>
 5   0  0.4794967E-06  0.2197276E+04  0.7818609E-02  0.8519563E-01
        1   -1    0    0  501    0  0.00000000000E+00  0.00000000000E+00  0.17874735637E+04  0.17874735637E+04  0.50400001928E-02 0. -1.
       -1   -1    0    0    0  501  0.00000000000E+00  0.00000000000E+00 -0.67525804951E+03  0.67525804953E+03  0.50400001928E-02 0.  1.
    10030    2    1    2    0    0  0.00000000000E+00  0.00000000000E+00  0.11122155141E+04  0.24627316132E+04  0.21972764161E+04 0.  0.
        5    1    3    3  502    0 -0.91212892440E+03  0.59928655206E+03  0.69725999270E+03  0.12951127880E+04  0.46999998093E+01 0. -1.
       -5    1    3    3    0  502  0.91212892440E+03 -0.59928655206E+03  0.41495552144E+03  0.11676188252E+04  0.46999998093E+01 0.  1.
</event>
<event>
 5   0  0.1014015E-05  0.2200646E+04  0.7818609E-02  0.8518159E-01
       -2   -1    0    0    0  501  0.00000000000E+00  0.00000000000E+00  0.48283077270E+03  0.48283077270E+03  0.25500000920E-02 0. -1.
        2   -1    0    0  501    0  0.00000000000E+00  0.00000000000E+00 -0.25075262882E+04  0.25075262882E+04  0.25500000920E-02 0.  1.
    10030    2    1    2    0    0  0.00000000000E+00  0.00000000000E+00 -0.20246955155E+04  0.29903570609E+04  0.22006461372E+04 0.  0.
        1    1    3    3  502    0 -0.41894495729E+03 -0.87816481134E+03 -0.17105694517E+04  0.19679268691E+04  0.50400001928E-02 0. -1.
       -1    1    3    3    0  502  0.41894495729E+03  0.87816481134E+03 -0.31412606384E+03  0.10224301918E+04  0.50400001928E-02 0.  1.
</event>
<event>
 5   0  0.4309945E-06  0.2199559E+04  0.7818609E-02  0.8518612E-01
        1   -1    0    0  501    0  0.00000000000E+00  0.00000000000E+00  0.94590680095E+03  0.94590680097E+03  0.50400001928E-02 0. -1.
       -1   -1    0    0    0  501  0.00000000000E+00  0.00000000000E+00 -0.12786834710E+04  0.12786834710E+04  0.50400001928E-02 0.  1.
    10030    2    1    2    0    0  0.00000000000E+00  0.00000000000E+00 -0.33277667005E+03  0.22245902720E+04  0.21995594027E+04 0.  0.
        4    1    3    3  502    0  0.73964940520E+03 -0.81385868113E+03 -0.15813562585E+03  0.11110606124E+04  0.12699999809E+01 0. -1.
       -4    1    3    3    0  502 -0.73964940520E+03  0.81385868113E+03 -0.17464104420E+03  0.11135296595E+04  0.12699999809E+01 0.  1.
</event>
<event>
 5   0  0.9963573E-06  0.2199818E+04  0.7818609E-02  0.8518504E-01
        2   -1    0    0  501    0  0.00000000000E+00  0.00000000000E+00  0.19111031773E+04  0.19111031773E+04  0.25500000920E-02 0. -1.
       -2   -1    0    0    0  501  0.00000000000E+00  0.00000000000E+00 -0.63303752426E+03  0.63303752426E+03  0.25500000920E-02 0.  1.
    10030    2    1    2    0    0  0.00000000000E+00  0.00000000000E+00  0.12780656531E+04  0.25441407016E+04  0.21998181961E+04 0.  0.
        2    1    3    3  502    0 -0.89420816826E+03  0.63918217176E+03  0.68583883660E+03  0.12955836548E+04  0.25500000920E-02 0.  1.
       -2    1    3    3    0  502  0.89420816826E+03 -0.63918217176E+03  0.59222681647E+03  0.12485570468E+04  0.25500000920E-02 0. -1.
</event>
<event>
 5   0  0.4309945E-06  0.2193390E+04  0.7818609E-02  0.8521184E-01
       -1   -1    0    0    0  501  0.00000000000E+00  0.00000000000E+00  0.97232462190E+03  0.97232462191E+03  0.50400001928E-02 0. -1.
        1   -1    0    0  501    0  0.00000000000E+00  0.00000000000E+00 -0.12369738345E+04  0.12369738345E+04  0.50400001928E-02 0.  1.
    10030    2    1    2    0    0  0.00000000000E+00  0.00000000000E+00 -0.26464921259E+03  0.22092984564E+04  0.21933901759E+04 0.  0.
        4    1    3    3  502    0 -0.62456245638E+03  0.89271718304E+03 -0.60508014949E+01  0.10895230406E+04  0.12699999809E+01 0. -1.
       -4    1    3    3    0  502  0.62456245638E+03 -0.89271718304E+03 -0.25859841110E+03  0.11197754158E+04  0.12699999809E+01 0.  1.
</event>
<event>
 5   0  0.4408787E-06  0.2204565E+04  0.7818609E-02  0.8516531E-01
       -1   -1    0    0    0  501  0.00000000000E+00  0.00000000000E+00  0.77133982018E+03  0.77133982019E+03  0.50400001928E-02 0. -1.
        1   -1    0    0  501    0  0.00000000000E+00  0.00000000000E+00 -0.15752154994E+04  0.15752154994E+04  0.50400001928E-02 0.  1.
    10030    2    1    2    0    0  0.00000000000E+00  0.00000000000E+00 -0.80387567920E+03  0.23465553196E+04  0.22045647553E+04 0.  0.
        1    1    3    3  502    0 -0.39557274588E+03  0.62106253172E+03 -0.12750310331E+04  0.14723792314E+04  0.50400001928E-02 0.  1.
       -1    1    3    3    0  502  0.39557274588E+03 -0.62106253172E+03  0.47115535392E+03  0.87417608818E+03  0.50400001928E-02 0. -1.
</event>
<event>
 5   0  0.1015876E-05  0.2199978E+04  0.7818609E-02  0.8518437E-01
        2   -1    0    0  501    0  0.00000000000E+00  0.00000000000E+00  0.17124051636E+04  0.17124051636E+04  0.25500000920E-02 0. -1.
       -2   -1    0    0    0  501  0.00000000000E+00  0.00000000000E+00 -0.70659427706E+03  0.70659427706E+03  0.25500000920E-02 0.  1.
    10030    2    1    2    0    0  0.00000000000E+00  0.00000000000E+00  0.10058108865E+04  0.24189994406E+04  0.21999778986E+04 0.  0.
        5    1    3    3  502    0 -0.10294501056E+04 -0.29754938919E+03  0.77591983361E+03  0.13230180789E+04  0.46999998093E+01 0. -1.
       -5    1    3    3    0  502  0.10294501056E+04  0.29754938919E+03  0.22989105288E+03  0.10959813617E+04  0.46999998093E+01 0.  1.
</event>
<event>
 5   0  0.4462201E-06  0.2201434E+04  0.7818609E-02  0.8517831E-01
       -1   -1    0    0    0  501  0.00000000000E+00  0.00000000000E+00  0.13646683876E+04  0.13646683876E+04  0.50400001928E-02 0. -1.
        1   -1    0    0  501    0  0.00000000000E+00  0.00000000000E+00 -0.88781886339E+03  0.88781886341E+03  0.50400001928E-02 0.  1.
    10030    2    1    2    0    0  0.00000000000E+00  0.00000000000E+00  0.47684952423E+03  0.22524872510E+04  0.22014343841E+04 0.  0.
        3    1    3    3  502    0  0.51916992739E+03 -0.70252679977E+03  0.92365476696E+03  0.12713062010E+04  0.10100000352E+00 0. -1.
       -3    1    3    3    0  502 -0.51916992739E+03  0.70252679977E+03 -0.44680524273E+03  0.98118105007E+03  0.10100000352E+00 0.  1.
</event>
<event>
 5   0  0.4462201E-06  0.2201855E+04  0.7818609E-02  0.8517656E-01
        1   -1    0    0  501    0  0.00000000000E+00  0.00000000000E+00  0.11746386387E+04  0.11746386387E+04  0.50400001928E-02 0. -1.
       -1   -1    0    0    0  501  0.00000000000E+00  0.00000000000E+00 -0.10318417275E+04  0.10318417275E+04  0.50400001928E-02 0.  1.
    10030    2    1    2    0    0  0.00000000000E+00  0.00000000000E+00  0.14279691123E+03  0.22064803662E+04  0.22018548200E+04 0.  0.
        3    1    3    3  502    0 -0.59111014895E+03  0.91707445539E+03  0.21869154160E+03  0.11127725578E+04  0.10100000352E+00 0. -1.
       -3    1    3    3    0  502  0.59111014895E+03 -0.91707445539E+03 -0.75894630376E+02  0.10937078084E+04  0.10100000352E+00 0.  1.
</event>
<event>
 5   0  0.9963573E-06  0.2198925E+04  0.7818609E-02  0.8518876E-01
        2   -1    0    0  501    0  0.00000000000E+00  0.00000000000E+00  0.14784034087E+04  0.14784034087E+04  0.25500000920E-02 0.  1.
       -2   -1    0    0    0  501  0.00000000000E+00  0.00000000000E+00 -0.81765091288E+03  0.81765091289E+03  0.25500000920E-02 0. -1.
    10030    2    1    2    0    0  0.00000000000E+00  0.00000000000E+00  0.66075249577E+03  0.22960543215E+04  0.21989250980E+04 0.  0.
        2    1    3    3  502    0  0.15809378744E+03 -0.85142027427E+03 -0.37697386441E+03  0.94446779909E+03  0.25500000920E-02 0. -1.
       -2    1    3    3    0  502 -0.15809378744E+03  0.85142027427E+03  0.10377263602E+04  0.13515865225E+04  0.25500000920E-02 0.  1.
</event>
<event>
 5   0  0.9963173E-06  0.2202804E+04  0.7818609E-02  0.8517262E-01
       -2   -1    0    0    0  501  0.00000000000E+00  0.00000000000E+00  0.12182975067E+04  0.12182975067E+04  0.25500000920E-02 0.  1.
        2   -1    0    0  501    0  0.00000000000E+00  0.00000000000E+00 -0.99572267740E+03  0.99572267740E+03  0.25500000920E-02 0. -1.
    10030    2    1    2    0    0  0.00000000000E+00  0.00000000000E+00  0.22257482927E+03  0.22140201841E+04  0.22028040814E+04 0.  0.
        4    1    3    3  502    0 -0.84148593712E+03  0.72434858278E+02  0.82180940077E+03  0.11784386684E+04  0.12699999809E+01 0.  1.
       -4    1    3    3    0  502  0.84148593712E+03 -0.72434858278E+02 -0.59923457149E+03  0.10355815157E+04  0.12699999809E+01 0. -1.
</event>
<event>
 5   0  0.4462201E-06  0.2208047E+04  0.7818609E-02  0.8515086E-01
       -1   -1    0    0    0  501  0.00000000000E+00  0.00000000000E+00  0.11838638834E+04  0.11838638834E+04  0.50400001928E-02 0. -1.
        1   -1    0    0  501    0  0.00000000000E+00  0.00000000000E+00 -0.10295678528E+04  0.10295678528E+04  0.50400001928E-02 0.  1.
    10030    2    1    2    0    0  0.00000000000E+00  0.00000000000E+00  0.15429603057E+03  0.22134317362E+04  0.22080472789E+04 0.  0.
        3    1    3    3  502    0 -0.53456362331E+03  0.66994425267E+02 -0.88885208235E+03  0.10393770032E+04  0.10100000352E+00 0.  1.
       -3    1    3    3    0  502  0.53456362331E+03 -0.66994425267E+02  0.10431481129E+04  0.11740547330E+04  0.10100000352E+00 0. -1.
</event>
<event>
 5   0  0.9963573E-06  0.2202925E+04  0.7818609E-02  0.8517212E-01
       -2   -1    0    0    0  501  0.00000000000E+00  0.00000000000E+00  0.87263186761E+03  0.87263186762E+03  0.25500000920E-02 0.  1.
        2   -1    0    0  501    0  0.00000000000E+00  0.00000000000E+00 -0.13902996606E+04  0.13902996606E+04  0.25500000920E-02 0. -1.
    10030    2    1    2    0    0  0.00000000000E+00  0.00000000000E+00 -0.51766779301E+03  0.22629315282E+04  0.22029251366E+04 0.  0.
        2    1    3    3  502    0 -0.99484437089E+03  0.25738338747E+03 -0.66619391938E+03  0.12246533667E+04  0.25500000920E-02 0. -1.
       -2    1    3    3    0  502  0.99484437089E+03 -0.25738338747E+03  0.14852612636E+03  0.10382781615E+04  0.25500000920E-02 0.  1.
</event>
<event>
 5   0  0.9963173E-06  0.2196693E+04  0.7818609E-02  0.8519806E-01
        2   -1    0    0  501    0  0.00000000000E+00  0.00000000000E+00  0.19743157339E+04  0.19743157339E+04  0.25500000920E-02 0.  1.
       -2   -1    0    0    0  501  0.00000000000E+00  0.00000000000E+00 -0.61102917186E+03  0.61102917186E+03  0.25500000920E-02 0. -1.
    10030    2    1    2    0    0  0.00000000000E+00  0.00000000000E+00  0.13632865621E+04  0.25853449058E+04  0.21966925209E+04 0.  0.
        4    1    3    3  502    0 -0.10690579767E+03 -0.41234517315E+03  0.18731352815E+04  0.19209619432E+04  0.12699999809E+01 0.  1.
       -4    1    3    3    0  502  0.10690579767E+03  0.41234517315E+03 -0.50984871944E+03  0.66438296262E+03  0.12699999809E+01 0. -1.
</event>
<event>
 5   0  0.1035928E-05  0.2201917E+04  0.7818609E-02  0.8517631E-01
       -2   -1    0    0    0  501  0.00000000000E+00  0.00000000000E+00  0.11841431915E+04  0.11841431915E+04  0.25500000920E-02 0.  1.
        2   -1    0    0  501    0  0.00000000000E+00  0.00000000000E+00 -0.10236172436E+04  0.10236172436E+04  0.25500000920E-02 0. -1.
    10030    2    1    2    0    0  0.00000000000E+00  0.00000000000E+00  0.16052594790E+03  0.22077604352E+04  0.22019167921E+04 0.  0.
        3    1    3    3  502    0 -0.33933275546E+03  0.45079519008E+03 -0.86762755749E+03  0.10349592316E+04  0.10100000352E+00 0. -1.
       -3    1    3    3    0  502  0.33933275546E+03 -0.45079519008E+03  0.10281535054E+04  0.11728012036E+04  0.10100000352E+00 0.  1.
</event>
<event>
 5   0  0.4462201E-06  0.2195013E+04  0.7818609E-02  0.8520507E-01
       -1   -1    0    0    0  501  0.00000000000E+00  0.00000000000E+00  0.13811804540E+04  0.13811804540E+04  0.50400001928E-02 0. -1.
        1   -1    0    0  501    0  0.00000000000E+00  0.00000000000E+00 -0.87209506570E+03  0.87209506571E+03  0.50400001928E-02 0.  1.
    10030    2    1    2    0    0  0.00000000000E+00  0.00000000000E+00  0.50908538827E+03  0.22532755197E+04  0.21950131287E+04 0.  0.
        3    1    3    3  502    0  0.50084459418E+03 -0.93204251135E+03 -0.44694343797E+02  0.10590307574E+04  0.10100000352E+00 0. -1.
       -3    1    3    3    0  502 -0.50084459418E+03  0.93204251135E+03  0.55377973206E+03  0.11942447623E+04  0.10100000352E+00 0.  1.
</event>
<event>
 5   0  0.9963573E-06  0.2203845E+04  0.7818609E-02  0.8516829E-01
       -2   -1    0    0    0  501  0.00000000000E+00  0.00000000000E+00  0.11188380209E+04  0.11188380209E+04  0.25500000920E-02 0.  1.
        2   -1    0    0  501    0  0.00000000000E+00  0.00000000000E+00 -0.10852630485E+04  0.10852630485E+04  0.25500000920E-02 0. -1.
    10030    2    1    2    0    0  0.00000000000E+00  0.00000000000E+00  0.33574972370E+02  0.22041010694E+04  0.22038453315E+04 0.  0.
        2    1    3    3  502    0 -0.92993737428E+03  0.53725591470E+03  0.26340507737E+03  0.11058072494E+04  0.25500000920E-02 0.  1.
       -2    1    3    3    0  502  0.92993737428E+03 -0.53725591470E+03 -0.22983010500E+03  0.10982938200E+04  0.25500000920E-02 0. -1.
</event>
<event>
 5   0  0.3546750E-06  0.2206982E+04  0.7818609E-02  0.8515527E-01
       -3   -1    0    0    0  501  0.00000000000E+00  0.00000000000E+00  0.94404988062E+03  0.94404988602E+03  0.10100000352E+00 0. -1.
        3   -1    0    0  501    0  0.00000000000E+00  0.00000000000E+00 -0.12898607518E+04  0.12898607558E+04  0.10100000352E+00 0.  1.
    10030    2    1    2    0    0  0.00000000000E+00  0.00000000000E+00 -0.34581087123E+03  0.22339106418E+04  0.22069824641E+04 0.  0.
        2    1    3    3  502    0  0.10258136816E+04 -0.37691150820E+03 -0.32753357959E+03  0.11408918617E+04  0.25500000920E-02 0.  1.
       -2    1    3    3    0  502 -0.10258136816E+04  0.37691150820E+03 -0.18277291637E+02  0.10930187801E+04  0.25500000920E-02 0. -1.
</event>
<event>
 5   0  0.4309945E-06  0.2203329E+04  0.7818609E-02  0.8517044E-01
        1   -1    0    0  501    0  0.00000000000E+00  0.00000000000E+00  0.22239549488E+04  0.22239549489E+04  0.50400001928E-02 0.  1.
       -1   -1    0    0    0  501  0.00000000000E+00  0.00000000000E+00 -0.54572359443E+03  0.54572359446E+03  0.50400001928E-02 0. -1.
    10030    2    1    2    0    0  0.00000000000E+00  0.00000000000E+00  0.16782313544E+04  0.27696785433E+04  0.22033290164E+04 0.  0.
        4    1    3    3  502    0  0.10957715150E+04 -0.17928178004E+02  0.98036634969E+03  0.14704272934E+04  0.12699999809E+01 0.  1.
       -4    1    3    3    0  502 -0.10957715150E+04  0.17928178004E+02  0.69786500472E+03  0.12992512499E+04  0.12699999809E+01 0. -1.
</event>
<event>
 5   0  0.9963573E-06  0.2194747E+04  0.7818609E-02  0.8520618E-01
        2   -1    0    0  501    0  0.00000000000E+00  0.00000000000E+00  0.97552323732E+03  0.97552323732E+03  0.25500000920E-02 0. -1.
       -2   -1    0    0    0  501  0.00000000000E+00  0.00000000000E+00 -0.12344436951E+04  0.12344436951E+04  0.25500000920E-02 0.  1.
    10030    2    1    2    0    0  0.00000000000E+00  0.00000000000E+00 -0.25892045782E+03  0.22099669325E+04  0.21947469191E+04 0.  0.
        2    1    3    3  502    0 -0.20112998879E+02  0.33311407571E+03  0.92318830972E+03  0.98165481478E+03  0.25500000920E-02 0. -1.
       -2    1    3    3    0  502  0.20112998879E+02 -0.33311407571E+03 -0.11821087675E+04  0.12283121177E+04  0.25500000920E-02 0.  1.
</event>
<event>
 5   0  0.4794967E-06  0.2200878E+04  0.7818609E-02  0.8518063E-01
        1   -1    0    0  501    0  0.00000000000E+00  0.00000000000E+00  0.10640264407E+04  0.10640264407E+04  0.50400001928E-02 0.  1.
       -1   -1    0    0    0  501  0.00000000000E+00  0.00000000000E+00 -0.11380980641E+04  0.11380980642E+04  0.50400001928E-02 0. -1.
    10030    2    1    2    0    0  0.00000000000E+00  0.00000000000E+00 -0.74071623441E+02  0.22021245049E+04  0.22008783995E+04 0.  0.
        5    1    3    3  502    0  0.10882482700E+04  0.15292683494E+03  0.20210465548E+02  0.10991366916E+04  0.46999998093E+01 0.  1.
       -5    1    3    3    0  502 -0.10882482700E+04 -0.15292683494E+03 -0.94282088989E+02  0.11029878133E+04  0.46999998093E+01 0. -1.
</event>
<event>
 5   0  0.4462201E-06  0.2199508E+04  0.7818609E-02  0.8518633E-01
        1   -1    0    0  501    0  0.00000000000E+00  0.00000000000E+00  0.12769450126E+04  0.12769450126E+04  0.50400001928E-02 0. -1.
       -1   -1    0    0    0  501  0.00000000000E+00  0.00000000000E+00 -0.94715018031E+03  0.94715018032E+03  0.50400001928E-02 0.  1.
    10030    2    1    2    0    0  0.00000000000E+00  0.00000000000E+00  0.32979483230E+03  0.22240951929E+04  0.21995078531E+04 0.  0.
        3    1    3    3  502    0 -0.55909048344E+02 -0.96699325551E+03 -0.36174794159E+03  0.10339552028E+04  0.10100000352E+00 0.  1.
       -3    1    3    3    0  502  0.55909048344E+02  0.96699325551E+03  0.69154277389E+03  0.11901399902E+04  0.10100000352E+00 0. -1.
</event>
<event>
 5   0  0.4462201E-06  0.2202016E+04  0.7818609E-02  0.8517589E-01
       -1   -1    0    0    0  501  0.00000000000E+00  0.00000000000E+00  0.13388886061E+04  0.13388886061E+04  0.50400001928E-02 0.  1.
        1   -1    0    0  501    0  0.00000000000E+00  0.00000000000E+00 -0.90539204168E+03  0.90539204170E+03  0.50400001928E-02 0. -1.
    10030    2    1    2    0    0  0.00000000000E+00  0.00000000000E+00  0.43349656445E+03  0.22442806478E+04  0.22020164293E+04 0.  0.
        3    1    3    3  502    0  0.54108184133E+03 -0.49550201249E+03  0.10534354849E+04  0.12837515860E+04  0.10100000352E+00 0.  1.
       -3    1    3    3    0  502 -0.54108184133E+03  0.49550201249E+03 -0.61993892046E+03  0.96052906187E+03  0.10100000352E+00 0. -1.
</event>
<event>
 5   0  0.4630615E-06  0.2195021E+04  0.7818609E-02  0.8520503E-01
        1   -1    0    0  501    0  0.00000000000E+00  0.00000000000E+00  0.90308245208E+03  0.90308245210E+03  0.50400001928E-02 0. -1.
       -1   -1    0    0    0  501  0.00000000000E+00  0.00000000000E+00 -0.13337974974E+04  0.13337974975E+04  0.50400001928E-02 0.  1.
    10030    2    1    2    0    0  0.00000000000E+00  0.00000000000E+00 -0.43071504536E+03  0.22368799496E+04  0.21950208333E+04 0.  0.
        2    1    3    3  502    0  0.17249951855E+03 -0.92905996265E+03  0.35351783472E+03  0.10089020555E+04  0.25500000920E-02 0. -1.
       -2    1    3    3    0  502 -0.17249951855E+03  0.92905996265E+03 -0.78423288008E+03  0.12279778941E+04  0.25500000920E-02 0.  1.
</event>
<event>
 5   0  0.1015876E-05  0.2223619E+04  0.7818609E-02  0.8508661E-01
       -2   -1    0    0    0  501  0.00000000000E+00  0.00000000000E+00  0.15581649178E+04  0.15581649178E+04  0.25500000920E-02 0.  1.
        2   -1    0    0  501    0  0.00000000000E+00  0.00000000000E+00 -0.79331789641E+03  0.79331789641E+03  0.25500000920E-02 0. -1.
    10030    2    1    2    0    0  0.00000000000E+00  0.00000000000E+00  0.76484702135E+03  0.23514828142E+04  0.22236187756E+04 0.  0.
        5    1    3    3  502    0  0.38973796709E+03 -0.70545395817E+03  0.11923194167E+04  0.14391694311E+04  0.46999998093E+01 0. -1.
       -5    1    3    3    0  502 -0.38973796709E+03  0.70545395817E+03 -0.42747239534E+03  0.91231338303E+03  0.46999998093E+01 0.  1.
</event>
<event>
 5   0  0.4309945E-06  0.2202196E+04  0.7818609E-02  0.8517515E-01
       -1   -1    0    0    0  501  0.00000000000E+00  0.00000000000E+00  0.11856081308E+04  0.11856081309E+04  0.50400001928E-02 0. -1.
        1   -1    0    0  501    0  0.00000000000E+00  0.00000000000E+00 -0.10226117381E+04  0.10226117381E+04  0.50400001928E-02 0.  1.
    10030    2    1    2    0    0  0.00000000000E+00  0.00000000000E+00  0.16299639278E+03  0.22082198689E+04  0.22021959871E+04 0.  0.
        4    1    3    3  502    0  0.47083708793E+03  0.51844209835E+03  0.93349609736E+03  0.11669988644E+04  0.12699999809E+01 0. -1.
       -4    1    3    3    0  502 -0.47083708793E+03 -0.51844209835E+03 -0.77049970458E+03  0.10412210046E+04  0.12699999809E+01 0.  1.
</event>
<event>
 5   0  0.4462201E-06  0.2208443E+04  0.7818609E-02  0.8514922E-01
       -1   -1    0    0    0  501  0.00000000000E+00  0.00000000000E+00  0.86413927451E+03  0.86413927452E+03  0.50400001928E-02 0. -1.
        1   -1    0    0  501    0  0.00000000000E+00  0.00000000000E+00 -0.14110047981E+04  0.14110047981E+04  0.50400001928E-02 0.  1.
    10030    2    1    2    0    0  0.00000000000E+00  0.00000000000E+00 -0.54686552354E+03  0.22751440726E+04  0.22084425848E+04 0.  0.
        3    1    3    3  502    0 -0.96127497224E+03  0.35319413610E+03  0.15196619606E+03  0.10353209188E+04  0.10100000352E+00 0. -1.
       -3    1    3    3    0  502  0.96127497224E+03 -0.35319413610E+03 -0.69883171960E+03  0.12398231537E+04  0.10100000352E+00 0.  1.
</event>
<event>
 5   0  0.9963573E-06  0.2204471E+04  0.7818609E-02  0.8516570E-01
       -2   -1    0    0    0  501  0.00000000000E+00  0.00000000000E+00  0.69096433547E+03  0.69096433547E+03  0.25500000920E-02 0. -1.
        2   -1    0    0  501    0  0.00000000000E+00  0.00000000000E+00 -0.17583004754E+04  0.17583004754E+04  0.25500000920E-02 0.  1.
    10030    2    1    2    0    0  0.00000000000E+00  0.00000000000E+00 -0.10673361399E+04  0.24492648109E+04  0.22044708386E+04 0.  0.
        2    1    3    3  502    0  0.10138018489E+04  0.42813408371E+03 -0.46490944207E+03  0.11946688963E+04  0.25500000920E-02 0.  1.
       -2    1    3    3    0  502 -0.10138018489E+04 -0.42813408371E+03 -0.60242669786E+03  0.12545959146E+04  0.25500000920E-02 0. -1.
</event>
<event>
 5   0  0.4630615E-06  0.2199632E+04  0.7818609E-02  0.8518581E-01
       -1   -1    0    0    0  501  0.00000000000E+00  0.00000000000E+00  0.10196862314E+04  0.10196862314E+04  0.50400001928E-02 0. -1.
        1   -1    0    0  501    0  0.00000000000E+00  0.00000000000E+00 -0.11862423976E+04  0.11862423976E+04  0.50400001928E-02 0.  1.
    10030    2    1    2    0    0  0.00000000000E+00  0.00000000000E+00 -0.16655616617E+03  0.22059286291E+04  0.21996318237E+04 0.  0.
        2    1    3    3  502    0 -0.90688509878E+03  0.10224693019E+03 -0.69879399721E+03  0.11494381530E+04  0.25500000920E-02 0.  1.
       -2    1    3    3    0  502  0.90688509878E+03 -0.10224693019E+03  0.53223783104E+03  0.10564904760E+04  0.25500000920E-02 0. -1.
</event>
<event>
 5   0  0.1015876E-05  0.2200355E+04  0.7818609E-02  0.8518281E-01
        2   -1    0    0  501    0  0.00000000000E+00  0.00000000000E+00  0.20194996029E+04  0.20194996029E+04  0.25500000920E-02 0.  1.
       -2   -1    0    0    0  501  0.00000000000E+00  0.00000000000E+00 -0.59935143343E+03  0.59935143343E+03  0.25500000920E-02 0. -1.
    10030    2    1    2    0    0  0.00000000000E+00  0.00000000000E+00  0.14201481695E+04  0.26188510363E+04  0.22003545004E+04 0.  0.
        5    1    3    3  502    0  0.21218847489E+03  0.84922745823E+03  0.15032805270E+04  0.17395647897E+04  0.46999998093E+01 0.  1.
       -5    1    3    3    0  502 -0.21218847489E+03 -0.84922745823E+03 -0.83132357512E+02  0.87928624665E+03  0.46999998093E+01 0. -1.
</event>
<event>
 5   0  0.4408787E-06  0.2195074E+04  0.7818609E-02  0.8520481E-01
        1   -1    0    0  501    0  0.00000000000E+00  0.00000000000E+00  0.16719628777E+04  0.16719628777E+04  0.50400001928E-02 0.  1.
       -1   -1    0    0    0  501  0.00000000000E+00  0.00000000000E+00 -0.72046304824E+03  0.72046304826E+03  0.50400001928E-02 0. -1.
    10030    2    1    2    0    0  0.00000000000E+00  0.00000000000E+00  0.95149982949E+03  0.23924259260E+04  0.21950740046E+04 0.  0.
        1    1    3    3  502    0  0.81700118278E+02  0.24851478309E+03  0.16374866878E+04  0.16582512353E+04  0.50400001928E-02 0.  1.
       -1    1    3    3    0  502 -0.81700118278E+02 -0.24851478309E+03 -0.68598685827E+03  0.73417469071E+03  0.50400001928E-02 0. -1.
</event>
<event>
 5   0  0.1035928E-05  0.2196425E+04  0.7818609E-02  0.8519918E-01
        2   -1    0    0  501    0  0.00000000000E+00  0.00000000000E+00  0.93216446575E+03  0.93216446575E+03  0.25500000920E-02 0. -1.
       -2   -1    0    0    0  501  0.00000000000E+00  0.00000000000E+00 -0.12938389299E+04  0.12938389299E+04  0.25500000920E-02 0.  1.
    10030    2    1    2    0    0  0.00000000000E+00  0.00000000000E+00 -0.36167446413E+03  0.22260033956E+04  0.21964249815E+04 0.  0.
        3    1    3    3  502    0  0.30974568340E+03  0.99930081268E+03 -0.51928981001E+03  0.11679924741E+04  0.10100000352E+00 0.  1.
       -3    1    3    3    0  502 -0.30974568340E+03 -0.99930081268E+03  0.15761534589E+03  0.10580109215E+04  0.10100000352E+00 0. -1.
</event>
<event>
 5   0  0.1015876E-05  0.2197334E+04  0.7818609E-02  0.8519539E-01
       -2   -1    0    0    0  501  0.00000000000E+00  0.00000000000E+00  0.73052034260E+03  0.73052034261E+03  0.25500000920E-02 0. -1.
        2   -1    0    0  501    0  0.00000000000E+00  0.00000000000E+00 -0.16523414214E+04  0.16523414214E+04  0.25500000920E-02 0.  1.
    10030    2    1    2    0    0  0.00000000000E+00  0.00000000000E+00 -0.92182107879E+03  0.23828617640E+04  0.21973338584E+04 0.  0.
        5    1    3    3  502    0  0.14775379354E+03  0.10609029145E+04 -0.19594297862E+03  0.10889269573E+04  0.46999998093E+01 0.  1.
       -5    1    3    3    0  502 -0.14775379354E+03 -0.10609029145E+04 -0.72587810018E+03  0.12939348067E+04  0.46999998093E+01 0. -1.
</event>
<event>
 5   0  0.4408787E-06  0.2199378E+04  0.7818609E-02  0.8518687E-01
        1   -1    0    0  501    0  0.00000000000E+00  0.00000000000E+00  0.14904541552E+04  0.14904541552E+04  0.50400001928E-02 0. -1.
       -1   -1    0    0    0  501  0.00000000000E+00  0.00000000000E+00 -0.81137429577E+03  0.81137429578E+03  0.50400001928E-02 0.  1.
    10030    2    1    2    0    0  0.00000000000E+00  0.00000000000E+00  0.67907985944E+03  0.23018284510E+04  0.21993782672E+04 0.  0.
        1    1    3    3  502    0  0.31788744678E+03  0.32813686837E+03  0.13864300329E+04  0.14597652104E+04  0.50400001928E-02 0. -1.
       -1    1    3    3    0  502 -0.31788744678E+03 -0.32813686837E+03 -0.70735017350E+03  0.84206324061E+03  0.50400001928E-02 0.  1.
</event>
<event>
 5   0  0.9963573E-06  0.2212483E+04  0.7818609E-02  0.8513250E-01
        2   -1    0    0  501    0  0.00000000000E+00  0.00000000000E+00  0.21602820181E+04  0.21602820181E+04  0.25500000920E-02 0.  1.
       -2   -1    0    0    0  501  0.00000000000E+00  0.00000000000E+00 -0.56648615107E+03  0.56648615108E+03  0.25500000920E-02 0. -1.
    10030    2    1    2    0    0  0.00000000000E+00  0.00000000000E+00  0.15937958670E+04  0.27267681692E+04  0.22124826288E+04 0.  0.
        2    1    3    3  502    0 -0.17658830508E+03  0.10920265529E+04  0.80679010768E+03  0.13691660599E+04  0.25500000920E-02 0. -1.
       -2    1    3    3    0  502  0.17658830508E+03 -0.10920265529E+04  0.78700575935E+03  0.13576021093E+04  0.25500000920E-02 0.  1.
</event>
<event>
 5   0  0.1015876E-05  0.2199480E+04  0.7818609E-02  0.8518645E-01
       -2   -1    0    0    0  501  0.00000000000E+00  0.00000000000E+00  0.10630946728E+04  0.10630946728E+04  0.25500000920E-02 0.  1.
        2   -1    0    0  501    0  0.00000000000E+00  0.00000000000E+00 -0.11376481514E+04  0.11376481514E+04  0.25500000920E-02 0. -1.
    10030    2    1    2    0    0  0.00000000000E+00  0.00000000000E+00 -0.74553478566E+02  0.22007428242E+04  0.21994796559E+04 0.  0.
        5    1    3    3  502    0 -0.31932025707E+03  0.34461150365E+03 -0.10321732254E+04  0.11340750293E+04  0.46999998093E+01 0. -1.
       -5    1    3    3    0  502  0.31932025707E+03 -0.34461150365E+03  0.95761974680E+03  0.10666677948E+04  0.46999998093E+01 0.  1.
</event>
<event>
 5   0  0.4630615E-06  0.2200337E+04  0.7818609E-02  0.8518288E-01
        1   -1    0    0  501    0  0.00000000000E+00  0.00000000000E+00  0.17692081595E+04  0.17692081595E+04  0.50400001928E-02 0. -1.
       -1   -1    0    0    0  501  0.00000000000E+00  0.00000000000E+00 -0.68413122559E+03  0.68413122561E+03  0.50400001928E-02 0.  1.
    10030    2    1    2    0    0  0.00000000000E+00  0.00000000000E+00  0.10850769339E+04  0.24533393851E+04  0.22003368347E+04 0.  0.
        2    1    3    3  502    0 -0.33954970032E+03 -0.51359439623E+03  0.15591303978E+04  0.16762937691E+04  0.25500000920E-02 0. -1.
       -2    1    3    3    0  502  0.33954970032E+03  0.51359439623E+03 -0.47405346388E+03  0.77704561607E+03  0.25500000920E-02 0.  1.
</event>
<event>
 5   0  0.1015876E-05  0.2201482E+04  0.7818609E-02  0.8517812E-01
       -2   -1    0    0    0  501  0.00000000000E+00  0.00000000000E+00  0.88806386133E+03  0.88806386133E+03  0.25500000920E-02 0. -1.
        2   -1    0    0  501    0  0.00000000000E+00  0.00000000000E+00 -0.13643505904E+04  0.13643505904E+04  0.25500000920E-02 0.  1.
    10030    2    1    2    0    0  0.00000000000E+00  0.00000000000E+00 -0.47628672903E+03  0.22524144517E+04  0.22014817315E+04 0.  0.
        5    1    3    3  502    0  0.17340074618E+03  0.50011811590E+03  0.74928719030E+03  0.91740903210E+03  0.46999998093E+01 0. -1.
       -5    1    3    3    0  502 -0.17340074618E+03 -0.50011811590E+03 -0.12255739193E+04  0.13350054196E+04  0.46999998093E+01 0.  1.
</event>
<event>
 5   0  0.4309945E-06  0.2197635E+04  0.7818609E-02  0.8519413E-01
       -1   -1    0    0    0  501  0.00000000000E+00  0.00000000000E+00  0.12454360150E+04  0.12454360150E+04  0.50400001928E-02 0. -1.
        1   -1    0    0  501    0  0.00000000000E+00  0.00000000000E+00 -0.96945967452E+03  0.96945967453E+03  0.50400001928E-02 0.  1.
    10030    2    1    2    0    0  0.00000000000E+00  0.00000000000E+00  0.27597634049E+03  0.22148956895E+04  0.21976350869E+04 0.  0.
        4    1    3    3  502    0  0.55616398441E+03  0.70135830937E+03  0.78031358739E+03  0.11874816896E+04  0.12699999809E+01 0. -1.
       -4    1    3    3    0  502 -0.55616398441E+03 -0.70135830937E+03 -0.50433724690E+03  0.10274139999E+04  0.12699999809E+01 0.  1.
</event>
<event>
 5   0  0.4794967E-06  0.2200545E+04  0.7818609E-02  0.8518201E-01
       -1   -1    0    0    0  501  0.00000000000E+00  0.00000000000E+00  0.13380556662E+04  0.13380556662E+04  0.50400001928E-02 0. -1.
        1   -1    0    0  501    0  0.00000000000E+00  0.00000000000E+00 -0.90474556434E+03  0.90474556435E+03  0.50400001928E-02 0.  1.
    10030    2    1    2    0    0  0.00000000000E+00  0.00000000000E+00  0.43331010188E+03  0.22428012306E+04  0.22005453223E+04 0.  0.
        5    1    3    3  502    0 -0.10748195013E+04  0.26171364681E+02  0.45493041678E+03  0.11674355120E+04  0.46999998093E+01 0.  1.
       -5    1    3    3    0  502  0.10748195013E+04 -0.26171364681E+02 -0.21620314905E+02  0.10753657186E+04  0.46999998093E+01 0. -1.
</event>
<event>
 5   0  0.4794967E-06  0.2200412E+04  0.7818609E-02  0.8518257E-01
       -1   -1    0    0    0  501  0.00000000000E+00  0.00000000000E+00  0.73310362301E+03  0.73310362303E+03  0.50400001928E-02 0. -1.
        1   -1    0    0  501    0  0.00000000000E+00  0.00000000000E+00 -0.16511355891E+04  0.16511355891E+04  0.50400001928E-02 0.  1.
    10030    2    1    2    0    0  0.00000000000E+00  0.00000000000E+00 -0.91803196610E+03  0.23842392122E+04  0.22004122182E+04 0.  0.
        5    1    3    3  502    0 -0.32778807540E+03 -0.82423565245E+03  0.24622088944E+03  0.92057386968E+03  0.46999998093E+01 0. -1.
       -5    1    3    3    0  502  0.32778807540E+03  0.82423565245E+03 -0.11642528555E+04  0.14636653425E+04  0.46999998093E+01 0.  1.
</event>
<event>
 5   0  0.3546750E-06  0.2199642E+04  0.7818609E-02  0.8518577E-01
       -3   -1    0    0    0  501  0.00000000000E+00  0.00000000000E+00  0.93832552444E+03  0.93832552988E+03  0.10100000352E+00 0.  1.
        3   -1    0    0  501    0  0.00000000000E+00  0.00000000000E+00 -0.12891113798E+04  0.12891113837E+04  0.10100000352E+00 0. -1.
    10030    2    1    2    0    0  0.00000000000E+00  0.00000000000E+00 -0.35078585533E+03  0.22274369136E+04  0.21996418999E+04 0.  0.
        4    1    3    3  502    0 -0.90115368988E+03  0.21385148426E+03 -0.77601002619E+03  0.12083060886E+04  0.12699999809E+01 0. -1.
       -4    1    3    3    0  502  0.90115368988E+03 -0.21385148426E+03  0.42522417086E+03  0.10191308250E+04  0.12699999809E+01 0.  1.
</event>
<event>
 5   0  0.1035928E-05  0.2197168E+04  0.7818609E-02  0.8519608E-01
       -2   -1    0    0    0  501  0.00000000000E+00  0.00000000000E+00  0.14890654214E+04  0.14890654214E+04  0.25500000920E-02 0. -1.
        2   -1    0    0  501    0  0.00000000000E+00  0.00000000000E+00 -0.81049956927E+03  0.81049956927E+03  0.25500000920E-02 0.  1.
    10030    2    1    2    0    0  0.00000000000E+00  0.00000000000E+00  0.67856585213E+03  0.22995649907E+04  0.21971680706E+04 0.  0.
        3    1    3    3  502    0 -0.74692556309E+03 -0.51297925317E+03 -0.31082700395E+03  0.95794516939E+03  0.10100000352E+00 0.  1.
       -3    1    3    3    0  502  0.74692556309E+03  0.51297925317E+03  0.98939285609E+03  0.13416198213E+04  0.10100000352E+00 0. -1.
</event>
<event>
 5   0  0.4794967E-06  0.2200690E+04  0.7818609E-02  0.8518141E-01
        1   -1    0    0  501    0  0.00000000000E+00  0.00000000000E+00  0.80592099250E+03  0.80592099251E+03  0.50400001928E-02 0.  1.
       -1   -1    0    0    0  501  0.00000000000E+00  0.00000000000E+00 -0.15023302294E+04  0.15023302295E+04  0.50400001928E-02 0. -1.
    10030    2    1    2    0    0  0.00000000000E+00  0.00000000000E+00 -0.69640923695E+03  0.23082512220E+04  0.22006903186E+04 0.  0.
        5    1    3    3  502    0  0.98204518753E+03  0.45783082128E+03 -0.54918296498E+03  0.12147616352E+04  0.46999998093E+01 0. -1.
       -5    1    3    3    0  502 -0.98204518753E+03 -0.45783082128E+03 -0.14722627197E+03  0.10934895868E+04  0.46999998093E+01 0.  1.
</event>
<event>
 5   0  0.4794967E-06  0.2195747E+04  0.7818609E-02  0.8520200E-01
       -1   -1    0    0    0  501  0.00000000000E+00  0.00000000000E+00  0.10212481068E+04  0.10212481068E+04  0.50400001928E-02 0.  1.
        1   -1    0    0  501    0  0.00000000000E+00  0.00000000000E+00 -0.11802483438E+04  0.11802483438E+04  0.50400001928E-02 0. -1.
    10030    2    1    2    0    0  0.00000000000E+00  0.00000000000E+00 -0.15900023696E+03  0.22014964506E+04  0.21957471500E+04 0.  0.
        5    1    3    3  502    0  0.33425991946E+03 -0.60672730366E+03 -0.93346768092E+03  0.11624249292E+04  0.46999998093E+01 0. -1.
       -5    1    3    3    0  502 -0.33425991946E+03  0.60672730366E+03  0.77446744396E+03  0.10390715214E+04  0.46999998093E+01 0.  1.
</event>
<event>
 5   0  0.1035928E-05  0.2202501E+04  0.7818609E-02  0.8517388E-01
        2   -1    0    0  501    0  0.00000000000E+00  0.00000000000E+00  0.61577685749E+03  0.61577685749E+03  0.25500000920E-02 0. -1.
       -2   -1    0    0    0  501  0.00000000000E+00  0.00000000000E+00 -0.19694673838E+04  0.19694673838E+04  0.25500000920E-02 0.  1.
    10030    2    1    2    0    0  0.00000000000E+00  0.00000000000E+00 -0.13536905264E+04  0.25852442413E+04  0.22025007937E+04 0.  0.
        3    1    3    3  502    0  0.85763333051E+03  0.67338826385E+03 -0.85779635287E+03  0.13873720758E+04  0.10100000352E+00 0. -1.
       -3    1    3    3    0  502 -0.85763333051E+03 -0.67338826385E+03 -0.49589417349E+03  0.11978721655E+04  0.10100000352E+00 0.  1.
</event>
<event>
 5   0  0.1014015E-05  0.2198052E+04  0.7818609E-02  0.8519239E-01
        2   -1    0    0  501    0  0.00000000000E+00  0.00000000000E+00  0.10739439937E+04  0.10739439937E+04  0.25500000920E-02 0. -1.
       -2   -1    0    0    0  501  0.00000000000E+00  0.00000000000E+00 -0.11246936370E+04  0.11246936370E+04  0.25500000920E-02 0.  1.
    10030    2    1    2    0    0  0.00000000000E+00  0.00000000000E+00 -0.50749643326E+02  0.21986376306E+04  0.21980518430E+04 0.  0.
        1    1    3    3  502    0  0.86181890803E+03  0.57177791305E+03  0.34647169676E+03  0.10907357374E+04  0.50400001928E-02 0. -1.
       -1    1    3    3    0  502 -0.86181890803E+03 -0.57177791305E+03 -0.39722134009E+03  0.11079018933E+04  0.50400001928E-02 0.  1.
</event>
<event>
 5   0  0.9963173E-06  0.2200835E+04  0.7818609E-02  0.8518081E-01
       -2   -1    0    0    0  501  0.00000000000E+00  0.00000000000E+00  0.84949444672E+03  0.84949444673E+03  0.25500000920E-02 0. -1.
        2   -1    0    0  501    0  0.00000000000E+00  0.00000000000E+00 -0.14254576645E+04  0.14254576645E+04  0.25500000920E-02 0.  1.
    10030    2    1    2    0    0  0.00000000000E+00  0.00000000000E+00 -0.57596321773E+03  0.22749521112E+04  0.22008347235E+04 0.  0.
        4    1    3    3  502    0  0.20474588959E+03  0.25159083957E+02  0.82932844888E+03  0.85459999288E+03  0.12699999809E+01 0. -1.
       -4    1    3    3    0  502 -0.20474588959E+03 -0.25159083957E+02 -0.14052916666E+04  0.14203521183E+04  0.12699999809E+01 0.  1.
</event>
<event>
 5   0  0.4630615E-06  0.2200466E+04  0.7818609E-02  0.8518234E-01
        1   -1    0    0  501    0  0.00000000000E+00  0.00000000000E+00  0.11696780574E+04  0.11696780575E+04  0.50400001928E-02 0.  1.
       -1   -1    0    0    0  501  0.00000000000E+00  0.00000000000E+00 -0.10349110354E+04  0.10349110354E+04  0.50400001928E-02 0. -1.
    10030    2    1    2    0    0  0.00000000000E+00  0.00000000000E+00  0.13476702207E+03  0.22045890928E+04  0.22004660684E+04 0.  0.
        2    1    3    3  502    0 -0.55657711350E+02 -0.46939789856E+03 -0.92799733199E+03  0.10414466939E+04  0.25500000920E-02 0. -1.
       -2    1    3    3    0  502  0.55657711350E+02  0.46939789856E+03  0.10627643541E+04  0.11631423990E+04  0.25500000920E-02 0.  1.
</event>
<event>
 5   0  0.1015876E-05  0.2160816E+04  0.7818609E-02  0.8534917E-01
       -2   -1    0    0    0  501  0.00000000000E+00  0.00000000000E+00  0.41159844258E+03  0.41159844259E+03  0.25500000920E-02 0. -1.
        2   -1    0    0  501    0  0.00000000000E+00  0.00000000000E+00 -0.28359708098E+04  0.28359708099E+04  0.25500000920E-02 0.  1.
    10030    2    1    2    0    0  0.00000000000E+00  0.00000000000E+00 -0.24243723673E+04  0.32475692524E+04  0.21608157428E+04 0.  0.
        5    1    3    3  502    0  0.62352047807E+03 -0.87900826133E+03 -0.10974719530E+04  0.15381482658E+04  0.46999998093E+01 0. -1.
       -5    1    3    3    0  502 -0.62352047807E+03  0.87900826133E+03 -0.13269004143E+04  0.17094209866E+04  0.46999998093E+01 0.  1.
</event>
<event>
 5   0  0.4309945E-06  0.2196584E+04  0.7818609E-02  0.8519851E-01
       -1   -1    0    0    0  501  0.00000000000E+00  0.00000000000E+00  0.57043275107E+03  0.57043275110E+03  0.50400001928E-02 0.  1.
        1   -1    0    0  501    0  0.00000000000E+00  0.00000000000E+00 -0.21146138963E+04  0.21146138963E+04  0.50400001928E-02 0. -1.
    10030    2    1    2    0    0  0.00000000000E+00  0.00000000000E+00 -0.15441811453E+04  0.26850466474E+04  0.21965837315E+04 0.  0.
        4    1    3    3  502    0  0.44387454020E+03  0.99750213473E+03 -0.91779576488E+03  0.14263189668E+04  0.12699999809E+01 0.  1.
       -4    1    3    3    0  502 -0.44387454020E+03 -0.99750213473E+03 -0.62638538037E+03  0.12587276806E+04  0.12699999809E+01 0. -1.
</event>
<event>
 5   0  0.1014015E-05  0.2202957E+04  0.7818609E-02  0.8517198E-01
       -2   -1    0    0    0  501  0.00000000000E+00  0.00000000000E+00  0.97437955849E+03  0.97437955849E+03  0.25500000920E-02 0. -1.
        2   -1    0    0  501    0  0.00000000000E+00  0.00000000000E+00 -0.12451559941E+04  0.12451559941E+04  0.25500000920E-02 0.  1.
    10030    2    1    2    0    0  0.00000000000E+00  0.00000000000E+00 -0.27077643561E+03  0.22195355526E+04  0.22029566930E+04 0.  0.
        1    1    3    3  502    0 -0.37844478004E+03  0.94615134268E+03 -0.55666379039E+03  0.11611620862E+04  0.50400001928E-02 0.  1.
       -1    1    3    3    0  502  0.37844478004E+03 -0.94615134268E+03  0.28588735478E+03  0.10583734664E+04  0.50400001928E-02 0. -1.
</event>
<event>
 5   0  0.1015876E-05  0.2200181E+04  0.7818609E-02  0.8518353E-01
        2   -1    0    0  501    0  0.00000000000E+00  0.00000000000E+00  0.19495307362E+04  0.19495307362E+04  0.25500000920E-02 0.  1.
       -2   -1    0    0    0  501  0.00000000000E+00  0.00000000000E+00 -0.62076426175E+03  0.62076426176E+03  0.25500000920E-02 0. -1.
    10030    2    1    2    0    0  0.00000000000E+00  0.00000000000E+00  0.13287664745E+04  0.25702949980E+04  0.22001809091E+04 0.  0.
        5    1    3    3  502    0 -0.60785743342E+02 -0.74619430259E+03 -0.27723099843E+03  0.79836079582E+03  0.46999998093E+01 0. -1.
       -5    1    3    3    0  502  0.60785743342E+02  0.74619430259E+03  0.16059974729E+04  0.17719342022E+04  0.46999998093E+01 0.  1.
</event>
<event>
 5   0  0.9963573E-06  0.2201660E+04  0.7818609E-02  0.8517737E-01
       -2   -1    0    0    0  501  0.00000000000E+00  0.00000000000E+00  0.73645678570E+03  0.73645678571E+03  0.25500000920E-02 0.  1.
        2   -1    0    0  501    0  0.00000000000E+00  0.00000000000E+00 -0.16454825735E+04  0.16454825735E+04  0.25500000920E-02 0. -1.
    10030    2    1    2    0    0  0.00000000000E+00  0.00000000000E+00 -0.90902578777E+03  0.23819393592E+04  0.22016601073E+04 0.  0.
        2    1    3    3  502    0 -0.92553646312E+03  0.57686447646E+03 -0.61656600916E+03  0.12528144366E+04  0.25500000920E-02 0. -1.
       -2    1    3    3    0  502  0.92553646312E+03 -0.57686447646E+03 -0.29245977861E+03  0.11291249226E+04  0.25500000920E-02 0.  1.
</event>
<event>
 5   0  0.4408787E-06  0.2184916E+04  0.7818609E-02  0.8524733E-01
       -1   -1    0    0    0  501  0.00000000000E+00  0.00000000000E+00  0.80669441521E+03  0.80669441523E+03  0.50400001928E-02 0. -1.
        1   -1    0    0  501    0  0.00000000000E+00  0.00000000000E+00 -0.14794503008E+04  0.14794503009E+04  0.50400001928E-02 0.  1.
    10030    2    1    2    0    0  0.00000000000E+00  0.00000000000E+00 -0.67275588563E+03  0.22861447161E+04  0.21849158293E+04 0.  0.
        1    1    3    3  502    0 -0.56870486512E+03  0.42878827040E+02  0.63856459054E+03  0.85617086714E+03  0.50400001928E-02 0. -1.
       -1    1    3    3    0  502  0.56870486512E+03 -0.42878827040E+02 -0.13113204762E+04  0.14299738489E+04  0.50400001928E-02 0.  1.
</event>
<event>
 5   0  0.4309945E-06  0.2167764E+04  0.7818609E-02  0.8531966E-01
        1   -1    0    0  501    0  0.00000000000E+00  0.00000000000E+00  0.16051142621E+04  0.16051142621E+04  0.50400001928E-02 0.  1.
       -1   -1    0    0    0  501  0.00000000000E+00  0.00000000000E+00 -0.73191085220E+03  0.73191085222E+03  0.50400001928E-02 0. -1.
    10030    2    1    2    0    0  0.00000000000E+00  0.00000000000E+00  0.87320340986E+03  0.23370251143E+04  0.21677643299E+04 0.  0.
        4    1    3    3  502    0 -0.44058483086E+03  0.50863921587E+03 -0.47943086706E+03  0.82624718716E+03  0.12699999809E+01 0. -1.
       -4    1    3    3    0  502  0.44058483086E+03 -0.50863921587E+03  0.13526342769E+04  0.15107779271E+04  0.12699999809E+01 0.  1.
</event>
<event>
 5   0  0.9963573E-06  0.2200343E+04  0.7818609E-02  0.8518286E-01
       -2   -1    0    0    0  501  0.00000000000E+00  0.00000000000E+00  0.55117538045E+03  0.55117538046E+03  0.25500000920E-02 0.  1.
        2   -1    0    0  501    0  0.00000000000E+00  0.00000000000E+00 -0.21959921032E+04  0.21959921032E+04  0.25500000920E-02 0. -1.
    10030    2    1    2    0    0  0.00000000000E+00  0.00000000000E+00 -0.16448167227E+04  0.27471674837E+04  0.22003425033E+04 0.  0.
        2    1    3    3  502    0  0.86808224443E+02 -0.70459149127E+02  0.54406413321E+03  0.55543311081E+03  0.25500000920E-02 0.  1.
       -2    1    3    3    0  502 -0.86808224443E+02  0.70459149127E+02 -0.21888808560E+04  0.21917343728E+04  0.25500000920E-02 0. -1.
</event>
<event>
 5   0  0.1015876E-05  0.2202998E+04  0.7818609E-02  0.8517181E-01
       -2   -1    0    0    0  501  0.00000000000E+00  0.00000000000E+00  0.15241670606E+04  0.15241670606E+04  0.25500000920E-02 0. -1.
        2   -1    0    0  501    0  0.00000000000E+00  0.00000000000E+00 -0.79604162451E+03  0.79604162452E+03  0.25500000920E-02 0.  1.
    10030    2    1    2    0    0  0.00000000000E+00  0.00000000000E+00  0.72812543607E+03  0.23202086851E+04  0.22029983413E+04 0.  0.
        5    1    3    3  502    0 -0.10325241070E+03  0.81850539766E+03 -0.40460818613E+03  0.91888085223E+03  0.46999998093E+01 0.  1.
       -5    1    3    3    0  502  0.10325241070E+03 -0.81850539766E+03  0.11327336222E+04  0.14013278329E+04  0.46999998093E+01 0. -1.
</event>
<event>
 5   0  0.4309945E-06  0.2206037E+04  0.7818609E-02  0.8515920E-01
        1   -1    0    0  501    0  0.00000000000E+00  0.00000000000E+00  0.12690763817E+04  0.12690763817E+04  0.50400001928E-02 0. -1.
       -1   -1    0    0    0  501  0.00000000000E+00  0.00000000000E+00 -0.95868917061E+03  0.95868917062E+03  0.50400001928E-02 0.  1.
    10030    2    1    2    0    0  0.00000000000E+00  0.00000000000E+00  0.31038721104E+03  0.22277655523E+04  0.22060369750E+04 0.  0.
        4    1    3    3  502    0  0.41157717982E+03  0.81222818462E+02 -0.87497933144E+03  0.97035218583E+03  0.12699999809E+01 0.  1.
       -4    1    3    3    0  502 -0.41157717982E+03 -0.81222818462E+02  0.11853665425E+04  0.12574133665E+04  0.12699999809E+01 0. -1.
</event>
<event>
 5   0  0.4630615E-06  0.2198940E+04  0.7818609E-02  0.8518869E-01
       -1   -1    0    0    0  501  0.00000000000E+00  0.00000000000E+00  0.89195398742E+03  0.89195398744E+03  0.50400001928E-02 0.  1.
        1   -1    0    0  501    0  0.00000000000E+00  0.00000000000E+00 -0.13552655586E+04  0.13552655587E+04  0.50400001928E-02 0. -1.
    10030    2    1    2    0    0  0.00000000000E+00  0.00000000000E+00 -0.46331157122E+03  0.22472195461E+04  0.21989402166E+04 0.  0.
        2    1    3    3  502    0 -0.83182552202E+02  0.87163090935E+03 -0.91121772327E+03  0.12637157585E+04  0.25500000920E-02 0. -1.
       -2    1    3    3    0  502  0.83182552202E+02 -0.87163090935E+03  0.44790615204E+03  0.98350378757E+03  0.25500000920E-02 0.  1.
</event>
<event>
 5   0  0.9963173E-06  0.2209501E+04  0.7818609E-02  0.8514484E-01
       -2   -1    0    0    0  501  0.00000000000E+00  0.00000000000E+00  0.68092658324E+03  0.68092658325E+03  0.25500000920E-02 0.  1.
        2   -1    0    0  501    0  0.00000000000E+00  0.00000000000E+00 -0.17923715398E+04  0.17923715398E+04  0.25500000920E-02 0. -1.
    10030    2    1    2    0    0  0.00000000000E+00  0.00000000000E+00 -0.11114449566E+04  0.24732981231E+04  0.22095007839E+04 0.  0.
        4    1    3    3  502    0  0.15416996593E+03 -0.98393569040E+03 -0.20547602658E+02  0.99615342097E+03  0.12699999809E+01 0.  1.
       -4    1    3    3    0  502 -0.15416996593E+03  0.98393569040E+03 -0.10908973539E+04  0.14771447021E+04  0.12699999809E+01 0. -1.
</event>
<event>
 5   0  0.4794967E-06  0.2206579E+04  0.7818609E-02  0.8515695E-01
       -1   -1    0    0    0  501  0.00000000000E+00  0.00000000000E+00  0.15207402471E+04  0.15207402471E+04  0.50400001928E-02 0.  1.
        1   -1    0    0  501    0  0.00000000000E+00  0.00000000000E+00 -0.80043127332E+03  0.80043127333E+03  0.50400001928E-02 0. -1.
    10030    2    1    2    0    0  0.00000000000E+00  0.00000000000E+00  0.72030897380E+03  0.23211715205E+04  0.22065793006E+04 0.  0.
        5    1    3    3  502    0 -0.38797720780E+03 -0.99508441996E+03  0.65111715770E+03  0.12508776757E+04  0.46999998093E+01 0.  1.
       -5    1    3    3    0  502  0.38797720780E+03  0.99508441996E+03  0.69191816104E+02  0.10702938447E+04  0.46999998093E+01 0. -1.
</event>
<event>
 5   0  0.9963173E-06  0.2199020E+04  0.7818609E-02  0.8518836E-01
        2   -1    0    0  501    0  0.00000000000E+00  0.00000000000E+00  0.13371669571E+04  0.13371669571E+04  0.25500000920E-02 0.  1.
       -2   -1    0    0    0  501  0.00000000000E+00  0.00000000000E+00 -0.90409222297E+03  0.90409222297E+03  0.25500000920E-02 0. -1.
    10030    2    1    2    0    0  0.00000000000E+00  0.00000000000E+00  0.43307473418E+03  0.22412591801E+04  0.21990200061E+04 0.  0.
        4    1    3    3  502    0 -0.59258273106E+03 -0.26145327943E+03  0.11220902272E+04  0.12956080431E+04  0.12699999809E+01 0.  1.
       -4    1    3    3    0  502  0.59258273106E+03  0.26145327943E+03 -0.68901549300E+03  0.94565113703E+03  0.12699999809E+01 0. -1.
</event>
<event>
 5   0  0.9963173E-06  0.2198433E+04  0.7818609E-02  0.8519081E-01
       -2   -1    0    0    0  501  0.00000000000E+00  0.00000000000E+00  0.13526884188E+04  0.13526884188E+04  0.25500000920E-02 0. -1.
        2   -1    0    0  501    0  0.00000000000E+00  0.00000000000E+00 -0.89324087192E+03  0.89324087192E+03  0.25500000920E-02 0.  1.
    10030    2    1    2    0    0  0.00000000000E+00  0.00000000000E+00  0.45944754689E+03  0.22459292907E+04  0.21984326987E+04 0.  0.
        4    1    3    3  502    0 -0.84927861613E+03 -0.10396628138E+03  0.93469901816E+03  0.12671807381E+04  0.12699999809E+01 0. -1.
       -4    1    3    3    0  502  0.84927861613E+03  0.10396628138E+03 -0.47525147128E+03  0.97874855266E+03  0.12699999809E+01 0.  1.
</event>
<event>
 5   0  0.1035928E-05  0.2200510E+04  0.7818609E-02  0.8518216E-01
        2   -1    0    0  501    0  0.00000000000E+00  0.00000000000E+00  0.17309537552E+04  0.17309537552E+04  0.25500000920E-02 0.  1.
       -2   -1    0    0    0  501  0.00000000000E+00  0.00000000000E+00 -0.69936048327E+03  0.69936048328E+03  0.25500000920E-02 0. -1.
    10030    2    1    2    0    0  0.00000000000E+00  0.00000000000E+00  0.10315932720E+04  0.24303142385E+04  0.22005096271E+04 0.  0.
        3    1    3    3  502    0  0.73042842362E+03  0.18136384358E+03 -0.37060389415E+03  0.83890749332E+03  0.10100000352E+00 0. -1.
       -3    1    3    3    0  502 -0.73042842362E+03 -0.18136384358E+03  0.14021971661E+04  0.15914067452E+04  0.10100000352E+00 0.  1.
</event>
<event>
 5   0  0.4630615E-06  0.2200280E+04  0.7818609E-02  0.8518312E-01
       -1   -1    0    0    0  501  0.00000000000E+00  0.00000000000E+00  0.83628188888E+03  0.83628188889E+03  0.50400001928E-02 0. -1.
        1   -1    0    0  501    0  0.00000000000E+00  0.00000000000E+00 -0.14472488811E+04  0.14472488811E+04  0.50400001928E-02 0.  1.
    10030    2    1    2    0    0  0.00000000000E+00  0.00000000000E+00 -0.61096699225E+03  0.22835307700E+04  0.22002800076E+04 0.  0.
        2    1    3    3  502    0  0.68363277856E+03 -0.77927268504E+03 -0.68777986332E+03  0.12440501734E+04  0.25500000920E-02 0. -1.
       -2    1    3    3    0  502 -0.68363277856E+03  0.77927268504E+03  0.76812871069E+02  0.10394805966E+04  0.25500000920E-02 0.  1.
</event>
<event>
 5   0  0.4408787E-06  0.2200654E+04  0.7818609E-02  0.8518156E-01
       -1   -1    0    0    0  501  0.00000000000E+00  0.00000000000E+00  0.15946076911E+04  0.15946076911E+04  0.50400001928E-02 0.  1.
        1   -1    0    0  501    0  0.00000000000E+00  0.00000000000E+00 -0.75925844470E+03  0.75925844471E+03  0.50400001928E-02 0. -1.
    10030    2    1    2    0    0  0.00000000000E+00  0.00000000000E+00  0.83534924643E+03  0.23538661358E+04  0.22006538624E+04 0.  0.
        1    1    3    3  502    0 -0.11832636598E+03 -0.86107659455E+03  0.11393839360E+04  0.14330560995E+04  0.50400001928E-02 0.  1.
       -1    1    3    3    0  502  0.11832636598E+03  0.86107659455E+03 -0.30403468960E+03  0.92081003636E+03  0.50400001928E-02 0. -1.
</event>
<event>
 5   0  0.4794967E-06  0.2204156E+04  0.7818609E-02  0.8516700E-01
        1   -1    0    0  501    0  0.00000000000E+00  0.00000000000E+00  0.15126790779E+04  0.15126790779E+04  0.50400001928E-02 0. -1.
       -1   -1    0    0    0  501  0.00000000000E+00  0.00000000000E+00 -0.80293024104E+03  0.80293024106E+03  0.50400001928E-02 0.  1.
    10030    2    1    2    0    0  0.00000000000E+00  0.00000000000E+00  0.70974883683E+03  0.23156093189E+04  0.22041558717E+04 0.  0.
        5    1    3    3  502    0 -0.58653627927E+03  0.82076341817E+03 -0.11126914843E+03  0.10149287211E+04  0.46999998093E+01 0.  1.
       -5    1    3    3    0  502  0.58653627927E+03 -0.82076341817E+03  0.82101798526E+03  0.13006805979E+04  0.46999998093E+01 0. -1.
</event>
<event>
 5   0  0.1014015E-05  0.2204100E+04  0.7818609E-02  0.8516723E-01
        2   -1    0    0  501    0  0.00000000000E+00  0.00000000000E+00  0.92300927779E+03  0.92300927779E+03  0.25500000920E-02 0.  1.
       -2   -1    0    0    0  501  0.00000000000E+00  0.00000000000E+00 -0.13158203327E+04  0.13158203327E+04  0.25500000920E-02 0. -1.
    10030    2    1    2    0    0  0.00000000000E+00  0.00000000000E+00 -0.39281105491E+03  0.22388296105E+04  0.22041001565E+04 0.  0.
        1    1    3    3  502    0  0.24994760596E+02 -0.34777746358E+02  0.92216365596E+03  0.92315764532E+03  0.50400001928E-02 0.  1.
       -1    1    3    3    0  502 -0.24994760596E+02  0.34777746358E+02 -0.13149747109E+04  0.13156719652E+04  0.50400001928E-02 0. -1.
</event>
<event>
 5   0  0.1015876E-05  0.2198757E+04  0.7818609E-02  0.8518946E-01
       -2   -1    0    0    0  501  0.00000000000E+00  0.00000000000E+00  0.51230861189E+03  0.51230861190E+03  0.25500000920E-02 0. -1.
        2   -1    0    0  501    0  0.00000000000E+00  0.00000000000E+00 -0.23591901239E+04  0.23591901239E+04  0.25500000920E-02 0.  1.
    10030    2    1    2    0    0  0.00000000000E+00  0.00000000000E+00 -0.18468815120E+04  0.28714987358E+04  0.21987573014E+04 0.  0.
        5    1    3    3  502    0  0.28439793977E+03 -0.67958616612E+03  0.14225481889E+03  0.75031864486E+03  0.46999998093E+01 0. -1.
       -5    1    3    3    0  502 -0.28439793977E+03  0.67958616612E+03 -0.19891363309E+04  0.21211800909E+04  0.46999998093E+01 0.  1.
</event>
<event>
 5   0  0.9963173E-06  0.2193265E+04  0.7818609E-02  0.8521237E-01
        2   -1    0    0  501    0  0.00000000000E+00  0.00000000000E+00  0.11757195562E+04  0.11757195562E+04  0.25500000920E-02 0.  1.
       -2   -1    0    0    0  501  0.00000000000E+00  0.00000000000E+00 -0.10228653875E+04  0.10228653875E+04  0.25500000920E-02 0. -1.
    10030    2    1    2    0    0  0.00000000000E+00  0.00000000000E+00  0.15285416870E+03  0.21985849436E+04  0.21932649994E+04 0.  0.
        4    1    3    3  502    0  0.78293235982E+03  0.18407264946E+03 -0.67085776058E+03  0.10473383255E+04  0.12699999809E+01 0. -1.
       -4    1    3    3    0  502 -0.78293235982E+03 -0.18407264946E+03  0.82371192928E+03  0.11512466181E+04  0.12699999809E+01 0.  1.
</event>
<event>
 5   0  0.4794967E-06  0.2196760E+04  0.7818609E-02  0.8519778E-01
       -1   -1    0    0    0  501  0.00000000000E+00  0.00000000000E+00  0.14526729392E+04  0.14526729392E+04  0.50400001928E-02 0.  1.
        1   -1    0    0  501    0  0.00000000000E+00  0.00000000000E+00 -0.83049568689E+03  0.83049568690E+03  0.50400001928E-02 0. -1.
    10030    2    1    2    0    0  0.00000000000E+00  0.00000000000E+00  0.62217725228E+03  0.22831686261E+04  0.21967599873E+04 0.  0.
        5    1    3    3  502    0 -0.28727155718E+03 -0.10305238821E+04  0.56969733775E+03  0.12120567502E+04  0.46999998093E+01 0.  1.
       -5    1    3    3    0  502  0.28727155718E+03  0.10305238821E+04  0.52479914536E+02  0.10711118758E+04  0.46999998093E+01 0. -1.
</event>
<event>
 5   0  0.4408787E-06  0.2189868E+04  0.7818609E-02  0.8522657E-01
        1   -1    0    0  501    0  0.00000000000E+00  0.00000000000E+00  0.13864756004E+04  0.13864756004E+04  0.50400001928E-02 0. -1.
       -1   -1    0    0    0  501  0.00000000000E+00  0.00000000000E+00 -0.86469637920E+03  0.86469637921E+03  0.50400001928E-02 0.  1.
    10030    2    1    2    0    0  0.00000000000E+00  0.00000000000E+00  0.52177922115E+03  0.22511719796E+04  0.21898679700E+04 0.  0.
        1    1    3    3  502    0  0.16120839211E+03  0.75643223625E+02 -0.84971091181E+03  0.86816972802E+03  0.50400001928E-02 0.  1.
       -1    1    3    3    0  502 -0.16120839211E+03 -0.75643223625E+02  0.13714901330E+04  0.13830022516E+04  0.50400001928E-02 0. -1.
</event>
<event>
 5   0  0.4630615E-06  0.2186738E+04  0.7818609E-02  0.8523969E-01
        1   -1    0    0  501    0  0.00000000000E+00  0.00000000000E+00  0.11487783317E+04  0.11487783317E+04  0.50400001928E-02 0.  1.
       -1   -1    0    0    0  501  0.00000000000E+00  0.00000000000E+00 -0.10406319698E+04  0.10406319698E+04  0.50400001928E-02 0. -1.
    10030    2    1    2    0    0  0.00000000000E+00  0.00000000000E+00  0.10814636193E+03  0.21894103015E+04  0.21867377146E+04 0.  0.
        2    1    3    3  502    0  0.60450783292E+03 -0.35070888111E+03 -0.78780466539E+03  0.10531204253E+04  0.25500000920E-02 0. -1.
       -2    1    3    3    0  502 -0.60450783292E+03  0.35070888111E+03  0.89595102732E+03  0.11362898762E+04  0.25500000920E-02 0.  1.
</event>
<event>
 5   0  0.4630615E-06  0.2201964E+04  0.7818609E-02  0.8517611E-01
        1   -1    0    0  501    0  0.00000000000E+00  0.00000000000E+00  0.12623878239E+04  0.12623878239E+04  0.50400001928E-02 0. -1.
       -1   -1    0    0    0  501  0.00000000000E+00  0.00000000000E+00 -0.96021353248E+03  0.96021353249E+03  0.50400001928E-02 0.  1.
    10030    2    1    2    0    0  0.00000000000E+00  0.00000000000E+00  0.30217429142E+03  0.22226013564E+04  0.22019644609E+04 0.  0.
        2    1    3    3  502    0  0.69474803538E+03 -0.67879500683E+03  0.67433180322E+03  0.11824385290E+04  0.25500000920E-02 0. -1.
       -2    1    3    3    0  502 -0.69474803538E+03  0.67879500683E+03 -0.37215751180E+03  0.10401628274E+04  0.25500000920E-02 0.  1.
</event>
<event>
 5   0  0.4462201E-06  0.2196392E+04  0.7818609E-02  0.8519931E-01
       -1   -1    0    0    0  501  0.00000000000E+00  0.00000000000E+00  0.16630478044E+04  0.16630478044E+04  0.50400001928E-02 0.  1.
        1   -1    0    0  501    0  0.00000000000E+00  0.00000000000E+00 -0.72519547119E+03  0.72519547121E+03  0.50400001928E-02 0. -1.
    10030    2    1    2    0    0  0.00000000000E+00  0.00000000000E+00  0.93785233325E+03  0.23882432757E+04  0.21963922566E+04 0.  0.
        3    1    3    3  502    0 -0.31224165796E+03  0.58167082164E+03  0.14231936262E+04  0.15688581534E+04  0.10100000352E+00 0.  1.
       -3    1    3    3    0  502  0.31224165796E+03 -0.58167082164E+03 -0.48534129294E+03  0.81938512224E+03  0.10100000352E+00 0. -1.
</event>
<event>
 5   0  0.1014015E-05  0.2195633E+04  0.7818609E-02  0.8520248E-01
       -2   -1    0    0    0  501  0.00000000000E+00  0.00000000000E+00  0.52433771175E+03  0.52433771175E+03  0.25500000920E-02 0.  1.
        2   -1    0    0  501    0  0.00000000000E+00  0.00000000000E+00 -0.22985201554E+04  0.22985201554E+04  0.25500000920E-02 0. -1.
    10030    2    1    2    0    0  0.00000000000E+00  0.00000000000E+00 -0.17741824437E+04  0.28228578672E+04  0.21956327550E+04 0.  0.
        1    1    3    3  502    0  0.26889952775E+03 -0.97574174690E+03 -0.34038400360E+03  0.10678202951E+04  0.50400001928E-02 0.  1.
       -1    1    3    3    0  502 -0.26889952775E+03  0.97574174690E+03 -0.14337984401E+04  0.17550375721E+04  0.50400001928E-02 0. -1.
</event>
<event>
 5   0  0.4309945E-06  0.2199524E+04  0.7818609E-02  0.8518626E-01
       -1   -1    0    0    0  501  0.00000000000E+00  0.00000000000E+00  0.66927436606E+03  0.66927436608E+03  0.50400001928E-02 0. -1.
        1   -1    0    0  501    0  0.00000000000E+00  0.00000000000E+00 -0.18071466268E+04  0.18071466268E+04  0.50400001928E-02 0.  1.
    10030    2    1    2    0    0  0.00000000000E+00  0.00000000000E+00 -0.11378722608E+04  0.24764209929E+04  0.21995244150E+04 0.  0.
        4    1    3    3  502    0 -0.10853001911E+03  0.82113156846E+03  0.24563484019E+03  0.86392934051E+03  0.12699999809E+01 0. -1.
       -4    1    3    3    0  502  0.10853001911E+03 -0.82113156846E+03 -0.13835071010E+04  0.16124916524E+04  0.12699999809E+01 0.  1.
</event>
<event>
 5   0  0.4408787E-06  0.2202036E+04  0.7818609E-02  0.8517581E-01
        1   -1    0    0  501    0  0.00000000000E+00  0.00000000000E+00  0.11659624445E+04  0.11659624445E+04  0.50400001928E-02 0. -1.
       -1   -1    0    0    0  501  0.00000000000E+00  0.00000000000E+00 -0.10396908576E+04  0.10396908576E+04  0.50400001928E-02 0.  1.
    10030    2    1    2    0    0  0.00000000000E+00  0.00000000000E+00  0.12627158690E+03  0.22056533021E+04  0.22020358706E+04 0.  0.
        1    1    3    3  502    0  0.52914594638E+03  0.71936841636E+03 -0.58193625738E+03  0.10658968800E+04  0.50400001928E-02 0.  1.
       -1    1    3    3    0  502 -0.52914594638E+03 -0.71936841636E+03  0.70820784428E+03  0.11397564221E+04  0.50400001928E-02 0. -1.
</event>
<event>
 5   0  0.9963173E-06  0.2200373E+04  0.7818609E-02  0.8518273E-01
       -2   -1    0    0    0  501  0.00000000000E+00  0.00000000000E+00  0.11219675850E+04  0.11219675850E+04  0.25500000920E-02 0. -1.
        2   -1    0    0  501    0  0.00000000000E+00  0.00000000000E+00 -0.10788280052E+04  0.10788280052E+04  0.25500000920E-02 0.  1.
    10030    2    1    2    0    0  0.00000000000E+00  0.00000000000E+00  0.43139579805E+02  0.22007955902E+04  0.22003727426E+04 0.  0.
        4    1    3    3  502    0  0.41932441668E+03  0.89524038909E+03  0.50448771715E+03  0.11098638612E+04  0.12699999809E+01 0. -1.
       -4    1    3    3    0  502 -0.41932441668E+03 -0.89524038909E+03 -0.46134813734E+03  0.10909317290E+04  0.12699999809E+01 0.  1.
</event>
<event>
 5   0  0.4794967E-06  0.2208343E+04  0.7818609E-02  0.8514964E-01
        1   -1    0    0  501    0  0.00000000000E+00  0.00000000000E+00  0.15515197286E+04  0.15515197286E+04  0.50400001928E-02 0. -1.
       -1   -1    0    0    0  501  0.00000000000E+00  0.00000000000E+00 -0.78580689872E+03  0.78580689873E+03  0.50400001928E-02 0.  1.
    10030    2    1    2    0    0  0.00000000000E+00  0.00000000000E+00  0.76571282990E+03  0.23373266274E+04  0.22083431855E+04 0.  0.
        5    1    3    3  502    0 -0.34370380693E+03  0.94931796968E+03 -0.90283512135E+02  0.10136617370E+04  0.46999998093E+01 0.  1.
       -5    1    3    3    0  502  0.34370380693E+03 -0.94931796968E+03  0.85599634204E+03  0.13236648904E+04  0.46999998093E+01 0. -1.
</event>
<event>
 5   0  0.4794967E-06  0.2193069E+04  0.7818609E-02  0.8521318E-01
       -1   -1    0    0    0  501  0.00000000000E+00  0.00000000000E+00  0.67948306069E+03  0.67948306071E+03  0.50400001928E-02 0.  1.
        1   -1    0    0  501    0  0.00000000000E+00  0.00000000000E+00 -0.17695626730E+04  0.17695626730E+04  0.50400001928E-02 0. -1.
    10030    2    1    2    0    0  0.00000000000E+00  0.00000000000E+00 -0.10900796123E+04  0.24490457337E+04  0.21930689558E+04 0.  0.
        5    1    3    3  502    0 -0.73403675209E+03 -0.50046578245E+03 -0.12627793154E+04  0.15439914645E+04  0.46999998093E+01 0. -1.
       -5    1    3    3    0  502  0.73403675209E+03  0.50046578245E+03  0.17269970314E+03  0.90505426925E+03  0.46999998093E+01 0.  1.
</event>
<event>
 5   0  0.4630615E-06  0.2200313E+04  0.7818609E-02  0.8518298E-01
       -1   -1    0    0    0  501  0.00000000000E+00  0.00000000000E+00  0.74634371932E+03  0.74634371934E+03  0.50400001928E-02 0. -1.
        1   -1    0    0  501    0  0.00000000000E+00  0.00000000000E+00 -0.16216982986E+04  0.16216982986E+04  0.50400001928E-02 0.  1.
    10030    2    1    2    0    0  0.00000000000E+00  0.00000000000E+00 -0.87535457928E+03  0.23680420180E+04  0.22003130139E+04 0.  0.
        2    1    3    3  502    0 -0.62728113365E+02  0.94383352755E+03  0.16691838634E+03  0.96053021381E+03  0.25500000920E-02 0. -1.
       -2    1    3    3    0  502  0.62728113365E+02 -0.94383352755E+03 -0.10422729656E+04  0.14075118041E+04  0.25500000920E-02 0.  1.
</event>
<event>
 5   0  0.1014015E-05  0.2198304E+04  0.7818609E-02  0.8519134E-01
        2   -1    0    0  501    0  0.00000000000E+00  0.00000000000E+00  0.14561741174E+04  0.14561741175E+04  0.25500000920E-02 0. -1.
       -2   -1    0    0    0  501  0.00000000000E+00  0.00000000000E+00 -0.82966413665E+03  0.82966413666E+03  0.25500000920E-02 0.  1.
    10030    2    1    2    0    0  0.00000000000E+00  0.00000000000E+00  0.62650998080E+03  0.22858382541E+04  0.21983042937E+04 0.  0.
        1    1    3    3  502    0  0.19043282857E+03  0.44695069049E+03  0.13384688505E+04  0.14239130752E+04  0.50400001928E-02 0. -1.
       -1    1    3    3    0  502 -0.19043282857E+03 -0.44695069049E+03 -0.71195886968E+03  0.86192517893E+03  0.50400001928E-02 0.  1.
</event>
<event>
 5   0  0.4309945E-06  0.2199703E+04  0.7818609E-02  0.8518552E-01
       -1   -1    0    0    0  501  0.00000000000E+00  0.00000000000E+00  0.70382465601E+03  0.70382465602E+03  0.50400001928E-02 0.  1.
        1   -1    0    0  501    0  0.00000000000E+00  0.00000000000E+00 -0.17187144830E+04  0.17187144830E+04  0.50400001928E-02 0. -1.
    10030    2    1    2    0    0  0.00000000000E+00  0.00000000000E+00 -0.10148898270E+04  0.24225391390E+04  0.21997032798E+04 0.  0.
        4    1    3    3  502    0  0.10602635662E+04  0.28536533692E+03 -0.43710096364E+03  0.11817999284E+04  0.12699999809E+01 0.  1.
       -4    1    3    3    0  502 -0.10602635662E+04 -0.28536533692E+03 -0.57778886336E+03  0.12407392107E+04  0.12699999809E+01 0. -1.
</event>
<event>
 5   0  0.1014015E-05  0.2199736E+04  0.7818609E-02  0.8518538E-01
        2   -1    0    0  501    0  0.00000000000E+00  0.00000000000E+00  0.23233219001E+04  0.23233219001E+04  0.25500000920E-02 0. -1.
       -2   -1    0    0    0  501  0.00000000000E+00  0.00000000000E+00 -0.52068111601E+03  0.52068111601E+03  0.25500000920E-02 0.  1.
    10030    2    1    2    0    0  0.00000000000E+00  0.00000000000E+00  0.18026407841E+04  0.28440030161E+04  0.21997362022E+04 0.  0.
        1    1    3    3  502    0  0.20313943056E+03  0.97266964750E+03  0.15109777210E+04  0.18084262619E+04  0.50400001928E-02 0. -1.
       -1    1    3    3    0  502 -0.20313943056E+03 -0.97266964750E+03  0.29166306309E+03  0.10355767542E+04  0.50400001928E-02 0.  1.
</event>
<event>
 5   0  0.1035928E-05  0.2203478E+04  0.7818609E-02  0.8516982E-01
        2   -1    0    0  501    0  0.00000000000E+00  0.00000000000E+00  0.12092325644E+04  0.12092325644E+04  0.25500000920E-02 0.  1.
       -2   -1    0    0    0  501  0.00000000000E+00  0.00000000000E+00 -0.10038008040E+04  0.10038008040E+04  0.25500000920E-02 0. -1.
    10030    2    1    2    0    0  0.00000000000E+00  0.00000000000E+00  0.20543176038E+03  0.22130333685E+04  0.22034778151E+04 0.  0.
        3    1    3    3  502    0  0.47410286081E+03 -0.18612246362E+03  0.10838933575E+04  0.11975975596E+04  0.10100000352E+00 0.  1.
       -3    1    3    3    0  502 -0.47410286081E+03  0.18612246362E+03 -0.87846159713E+03  0.10154358089E+04  0.10100000352E+00 0. -1.
</event>
<event>
 5   0  0.1035928E-05  0.2197238E+04  0.7818609E-02  0.8519579E-01
       -2   -1    0    0    0  501  0.00000000000E+00  0.00000000000E+00  0.13561530113E+04  0.13561530113E+04  0.25500000920E-02 0.  1.
        2   -1    0    0  501    0  0.00000000000E+00  0.00000000000E+00 -0.88999056656E+03  0.88999056656E+03  0.25500000920E-02 0. -1.
    10030    2    1    2    0    0  0.00000000000E+00  0.00000000000E+00  0.46616244472E+03  0.22461435778E+04  0.21972377084E+04 0.  0.
        3    1    3    3  502    0  0.13227032532E+03 -0.73593132659E+03 -0.58973987284E+03  0.95230430233E+03  0.10100000352E+00 0. -1.
       -3    1    3    3    0  502 -0.13227032532E+03  0.73593132659E+03  0.10559023176E+04  0.12938392755E+04  0.10100000352E+00 0.  1.
</event>
<event>
 5   0  0.4408787E-06  0.2197523E+04  0.7818609E-02  0.8519460E-01
       -1   -1    0    0    0  501  0.00000000000E+00  0.00000000000E+00  0.37468874924E+03  0.37468874927E+03  0.50400001928E-02 0.  1.
        1   -1    0    0  501    0  0.00000000000E+00  0.00000000000E+00 -0.32220790021E+04  0.32220790021E+04  0.50400001928E-02 0. -1.
    10030    2    1    2    0    0  0.00000000000E+00  0.00000000000E+00 -0.28473902529E+04  0.35967677514E+04  0.21975229249E+04 0.  0.
        1    1    3    3  502    0 -0.18646160343E+03  0.60693270339E+03 -0.28914219229E+04  0.29603134922E+04  0.50400001928E-02 0. -1.
       -1    1    3    3    0  502  0.18646160343E+03 -0.60693270339E+03  0.44031670039E+02  0.63645425915E+03  0.50400001928E-02 0.  1.
</event>
<event>
 5   0  0.4794967E-06  0.2198781E+04  0.7818609E-02  0.8518936E-01
       -1   -1    0    0    0  501  0.00000000000E+00  0.00000000000E+00  0.97773802821E+03  0.97773802822E+03  0.50400001928E-02 0. -1.
        1   -1    0    0  501    0  0.00000000000E+00  0.00000000000E+00 -0.12361790834E+04  0.12361790834E+04  0.50400001928E-02 0.  1.
    10030    2    1    2    0    0  0.00000000000E+00  0.00000000000E+00 -0.25844105521E+03  0.22139171117E+04  0.21987808436E+04 0.  0.
        5    1    3    3  502    0 -0.24682880031E+03 -0.57974962178E+03 -0.10363123855E+04  0.12128476949E+04  0.46999998093E+01 0.  1.
       -5    1    3    3    0  502  0.24682880031E+03  0.57974962178E+03  0.77787133032E+03  0.10010694167E+04  0.46999998093E+01 0. -1.
</event>
<event>
 5   0  0.1035928E-05  0.2198653E+04  0.7818609E-02  0.8518989E-01
        2   -1    0    0  501    0  0.00000000000E+00  0.00000000000E+00  0.11756275739E+04  0.11756275739E+04  0.25500000920E-02 0. -1.
       -2   -1    0    0    0  501  0.00000000000E+00  0.00000000000E+00 -0.10279770869E+04  0.10279770869E+04  0.25500000920E-02 0.  1.
    10030    2    1    2    0    0  0.00000000000E+00  0.00000000000E+00  0.14765048696E+03  0.22036046608E+04  0.21986525044E+04 0.  0.
        3    1    3    3  502    0 -0.59634604484E+03 -0.67003855288E+03 -0.56316738387E+03  0.10591212301E+04  0.10100000352E+00 0.  1.
       -3    1    3    3    0  502  0.59634604484E+03  0.67003855288E+03  0.71081787084E+03  0.11444834307E+04  0.10100000352E+00 0. -1.
</event>
<event>
 5   0  0.4794967E-06  0.2200092E+04  0.7818609E-02  0.8518390E-01
        1   -1    0    0  501    0  0.00000000000E+00  0.00000000000E+00  0.75752235485E+03  0.75752235487E+03  0.50400001928E-02 0.  1.
       -1   -1    0    0    0  501  0.00000000000E+00  0.00000000000E+00 -0.15974463188E+04  0.15974463188E+04  0.50400001928E-02 0. -1.
    10030    2    1    2    0    0  0.00000000000E+00  0.00000000000E+00 -0.83992396397E+03  0.23549686737E+04  0.22000920864E+04 0.  0.
        5    1    3    3  502    0 -0.85989975029E+03  0.41644323122E+03 -0.10035255318E+04  0.13856183199E+04  0.46999998093E+01 0. -1.
       -5    1    3    3    0  502  0.85989975029E+03 -0.41644323122E+03  0.16360156788E+03  0.96935035379E+03  0.46999998093E+01 0.  1.
</event>
<event>
 5   0  0.9963573E-06  0.2189684E+04  0.7818609E-02  0.8522734E-01
        2   -1    0    0  501    0  0.00000000000E+00  0.00000000000E+00  0.12713150322E+04  0.12713150322E+04  0.25500000920E-02 0.  1.
       -2   -1    0    0    0  501  0.00000000000E+00  0.00000000000E+00 -0.94286527112E+03  0.94286527112E+03  0.25500000920E-02 0. -1.
    10030    2    1    2    0    0  0.00000000000E+00  0.00000000000E+00  0.32844976104E+03  0.22141803033E+04  0.21896838059E+04 0.  0.
        2    1    3    3  502    0  0.32158371314E+03 -0.26390233000E+03  0.11882826349E+04  0.12589980718E+04  0.25500000920E-02 0.  1.
       -2    1    3    3    0  502 -0.32158371314E+03  0.26390233000E+03 -0.85983287388E+03  0.95518223149E+03  0.25500000920E-02 0. -1.
</event>
<event>
 5   0  0.4408787E-06  0.2193424E+04  0.7818609E-02  0.8521170E-01
       -1   -1    0    0    0  501  0.00000000000E+00  0.00000000000E+00  0.11830627764E+04  0.11830627764E+04  0.50400001928E-02 0.  1.
        1   -1    0    0  501    0  0.00000000000E+00  0.00000000000E+00 -0.10166636025E+04  0.10166636025E+04  0.50400001928E-02 0. -1.
    10030    2    1    2    0    0  0.00000000000E+00  0.00000000000E+00  0.16639917389E+03  0.21997263789E+04  0.21934236839E+04 0.  0.
        1    1    3    3  502    0  0.26609364579E+03 -0.62099828008E+03  0.94958716296E+03  0.11654014211E+04  0.50400001928E-02 0.  1.
       -1    1    3    3    0  502 -0.26609364579E+03  0.62099828008E+03 -0.78318798907E+03  0.10343249579E+04  0.50400001928E-02 0. -1.
</event>
<event>
 5   0  0.4408787E-06  0.2199789E+04  0.7818609E-02  0.8518516E-01
       -1   -1    0    0    0  501  0.00000000000E+00  0.00000000000E+00  0.70151456997E+03  0.70151456999E+03  0.50400001928E-02 0. -1.
        1   -1    0    0  501    0  0.00000000000E+00  0.00000000000E+00 -0.17245089125E+04  0.17245089125E+04  0.50400001928E-02 0.  1.
    10030    2    1    2    0    0  0.00000000000E+00  0.00000000000E+00 -0.10229943425E+04  0.24260234825E+04  0.21997891974E+04 0.  0.
        1    1    3    3  502    0 -0.16313647126E+03  0.83955794122E+03  0.25121873133E+03  0.89139323304E+03  0.50400001928E-02 0. -1.
       -1    1    3    3    0  502  0.16313647126E+03 -0.83955794122E+03 -0.12742130739E+04  0.15346302495E+04  0.50400001928E-02 0.  1.
</event>
<event>
 5   0  0.4309945E-06  0.2199250E+04  0.7818609E-02  0.8518741E-01
       -1   -1    0    0    0  501  0.00000000000E+00  0.00000000000E+00  0.85802998682E+03  0.85802998683E+03  0.50400001928E-02 0.  1.
        1   -1    0    0  501    0  0.00000000000E+00  0.00000000000E+00 -0.14092452646E+04  0.14092452647E+04  0.50400001928E-02 0. -1.
    10030    2    1    2    0    0  0.00000000000E+00  0.00000000000E+00 -0.55121527783E+03  0.22672752515E+04  0.21992495955E+04 0.  0.
        4    1    3    3  502    0  0.79778130163E+03 -0.59994281911E+03 -0.75116395900E+03  0.12492538964E+04  0.12699999809E+01 0. -1.
       -4    1    3    3    0  502 -0.79778130163E+03  0.59994281911E+03  0.19994868118E+03  0.10180213551E+04  0.12699999809E+01 0.  1.
</event>
<event>
 5   0  0.9963173E-06  0.2199969E+04  0.7818609E-02  0.8518441E-01
        2   -1    0    0  501    0  0.00000000000E+00  0.00000000000E+00  0.10675676068E+04  0.10675676068E+04  0.25500000920E-02 0.  1.
       -2   -1    0    0    0  501  0.00000000000E+00  0.00000000000E+00 -0.11333861866E+04  0.11333861866E+04  0.25500000920E-02 0. -1.
    10030    2    1    2    0    0  0.00000000000E+00  0.00000000000E+00 -0.65818579783E+02  0.22009537934E+04  0.21999694350E+04 0.  0.
        4    1    3    3  502    0  0.33444593383E+03 -0.10411638059E+04  0.85839280530E+02  0.10969257716E+04  0.12699999809E+01 0. -1.
       -4    1    3    3    0  502 -0.33444593383E+03  0.10411638059E+04 -0.15165786031E+03  0.11040280218E+04  0.12699999809E+01 0.  1.
</event>
<event>
 5   0  0.4462201E-06  0.2197687E+04  0.7818609E-02  0.8519391E-01
        1   -1    0    0  501    0  0.00000000000E+00  0.00000000000E+00  0.10730444845E+04  0.10730444845E+04  0.50400001928E-02 0. -1.
       -1   -1    0    0    0  501  0.00000000000E+00  0.00000000000E+00 -0.11252627676E+04  0.11252627676E+04  0.50400001928E-02 0.  1.
    10030    2    1    2    0    0  0.00000000000E+00  0.00000000000E+00 -0.52218283103E+02  0.21983072521E+04  0.21976869717E+04 0.  0.
        3    1    3    3  502    0 -0.23769211991E+03 -0.62879127821E+03 -0.89559609079E+03  0.11198072975E+04  0.10100000352E+00 0.  1.
       -3    1    3    3    0  502  0.23769211991E+03  0.62879127821E+03  0.84337780769E+03  0.10784999546E+04  0.10100000352E+00 0. -1.
</event>
<event>
 5   0  0.4794967E-06  0.2205911E+04  0.7818609E-02  0.8515972E-01
        1   -1    0    0  501    0  0.00000000000E+00  0.00000000000E+00  0.63674231178E+03  0.63674231180E+03  0.50400001928E-02 0.  1.
       -1   -1    0    0    0  501  0.00000000000E+00  0.00000000000E+00 -0.19105230633E+04  0.19105230633E+04  0.50400001928E-02 0. -1.
    10030    2    1    2    0    0  0.00000000000E+00  0.00000000000E+00 -0.12737807515E+04  0.25472653751E+04  0.22059110336E+04 0.  0.
        5    1    3    3  502    0  0.61100701875E+03  0.11539743964E+03 -0.16888136679E+04  0.17996554784E+04  0.46999998093E+01 0. -1.
       -5    1    3    3    0  502 -0.61100701875E+03 -0.11539743964E+03  0.41503291636E+03  0.74760989674E+03  0.46999998093E+01 0.  1.
</event>
<event>
 5   0  0.4309945E-06  0.2195994E+04  0.7818609E-02  0.8520097E-01
        1   -1    0    0  501    0  0.00000000000E+00  0.00000000000E+00  0.15628927260E+04  0.15628927260E+04  0.50400001928E-02 0.  1.
       -1   -1    0    0    0  501  0.00000000000E+00  0.00000000000E+00 -0.77138821197E+03  0.77138821198E+03  0.50400001928E-02 0. -1.
    10030    2    1    2    0    0  0.00000000000E+00  0.00000000000E+00  0.79150451406E+03  0.23342809380E+04  0.21959936479E+04 0.  0.
        4    1    3    3  502    0 -0.20106578440E+03  0.54554357811E+03 -0.59432558918E+03  0.83142634318E+03  0.12699999809E+01 0. -1.
       -4    1    3    3    0  502  0.20106578440E+03 -0.54554357811E+03  0.13858301032E+04  0.15028545948E+04  0.12699999809E+01 0.  1.
</event>
<event>
 5   0  0.9963573E-06  0.2206047E+04  0.7818609E-02  0.8515916E-01
       -2   -1    0    0    0  501  0.00000000000E+00  0.00000000000E+00  0.49345356550E+03  0.49345356551E+03  0.25500000920E-02 0. -1.
        2   -1    0    0  501    0  0.00000000000E+00  0.00000000000E+00 -0.24656027162E+04  0.24656027162E+04  0.25500000920E-02 0.  1.
    10030    2    1    2    0    0  0.00000000000E+00  0.00000000000E+00 -0.19721491507E+04  0.29590562817E+04  0.22060466463E+04 0.  0.
        2    1    3    3  502    0 -0.91659175515E+03 -0.43906640042E+03 -0.15610393254E+04  0.18627301268E+04  0.25500000920E-02 0.  1.
       -2    1    3    3    0  502  0.91659175515E+03  0.43906640042E+03 -0.41110982525E+03  0.10963261549E+04  0.25500000920E-02 0. -1.
</event>
<event>
 5   0  0.9963173E-06  0.2201027E+04  0.7818609E-02  0.8518001E-01
       -2   -1    0    0    0  501  0.00000000000E+00  0.00000000000E+00  0.77451852368E+03  0.77451852369E+03  0.25500000920E-02 0.  1.
        2   -1    0    0  501    0  0.00000000000E+00  0.00000000000E+00 -0.15637199124E+04  0.15637199124E+04  0.25500000920E-02 0. -1.
    10030    2    1    2    0    0  0.00000000000E+00  0.00000000000E+00 -0.78920138869E+03  0.23382384361E+04  0.22010270675E+04 0.  0.
        4    1    3    3  502    0  0.72978036344E+03 -0.42122615565E+03  0.35742594959E+03  0.91529545799E+03  0.12699999809E+01 0.  1.
       -4    1    3    3    0  502 -0.72978036344E+03  0.42122615565E+03 -0.11466273383E+04  0.14229429781E+04  0.12699999809E+01 0. -1.
</event>
<event>
 5   0  0.9963173E-06  0.2202363E+04  0.7818609E-02  0.8517445E-01
       -2   -1    0    0    0  501  0.00000000000E+00  0.00000000000E+00  0.83573961086E+03  0.83573961086E+03  0.25500000920E-02 0.  1.
        2   -1    0    0  501    0  0.00000000000E+00  0.00000000000E+00 -0.14509313935E+04  0.14509313935E+04  0.25500000920E-02 0. -1.
    10030    2    1    2    0    0  0.00000000000E+00  0.00000000000E+00 -0.61519178262E+03  0.22866710043E+04  0.22023631292E+04 0.  0.
        4    1    3    3  502    0  0.73190720155E+01 -0.47665200763E+03  0.72305051060E+03  0.86605678738E+03  0.12699999809E+01 0.  1.
       -4    1    3    3    0  502 -0.73190720155E+01  0.47665200763E+03 -0.13382422932E+04  0.14206142170E+04  0.12699999809E+01 0. -1.
</event>
<event>
 5   0  0.4309945E-06  0.2193186E+04  0.7818609E-02  0.8521270E-01
       -1   -1    0    0    0  501  0.00000000000E+00  0.00000000000E+00  0.60910853406E+03  0.60910853408E+03  0.50400001928E-02 0. -1.
        1   -1    0    0  501    0  0.00000000000E+00  0.00000000000E+00 -0.19742234487E+04  0.19742234487E+04  0.50400001928E-02 0.  1.
    10030    2    1    2    0    0  0.00000000000E+00  0.00000000000E+00 -0.13651149146E+04  0.25833319828E+04  0.21931861305E+04 0.  0.
        4    1    3    3  502    0 -0.51878289022E+02 -0.95792066412E+03 -0.13082946838E+04  0.16223254754E+04  0.12699999809E+01 0.  1.
       -4    1    3    3    0  502  0.51878289022E+02  0.95792066412E+03 -0.56820230800E+02  0.96100650734E+03  0.12699999809E+01 0. -1.
</event>
<event>
 5   0  0.9963573E-06  0.2200043E+04  0.7818609E-02  0.8518410E-01
        2   -1    0    0  501    0  0.00000000000E+00  0.00000000000E+00  0.18680899054E+04  0.18680899054E+04  0.25500000920E-02 0.  1.
       -2   -1    0    0    0  501  0.00000000000E+00  0.00000000000E+00 -0.64774585492E+03  0.64774585493E+03  0.25500000920E-02 0. -1.
    10030    2    1    2    0    0  0.00000000000E+00  0.00000000000E+00  0.12203440504E+04  0.25158357603E+04  0.22000431749E+04 0.  0.
        2    1    3    3  502    0  0.87058338908E+03  0.65827717083E+03  0.45336438576E+03  0.11818559715E+04  0.25500000920E-02 0. -1.
       -2    1    3    3    0  502 -0.87058338908E+03 -0.65827717083E+03  0.76697966468E+03  0.13339797888E+04  0.25500000920E-02 0.  1.
</event>
<event>
 5   0  0.9963173E-06  0.2199700E+04  0.7818609E-02  0.8518553E-01
        2   -1    0    0  501    0  0.00000000000E+00  0.00000000000E+00  0.17226972954E+04  0.17226972954E+04  0.25500000920E-02 0. -1.
       -2   -1    0    0    0  501  0.00000000000E+00  0.00000000000E+00 -0.70219508524E+03  0.70219508525E+03  0.25500000920E-02 0.  1.
    10030    2    1    2    0    0  0.00000000000E+00  0.00000000000E+00  0.10205022102E+04  0.24248923807E+04  0.21996995924E+04 0.  0.
        4    1    3    3  502    0  0.35665828540E+03 -0.63885334972E+03  0.14154939193E+04  0.15934124963E+04  0.12699999809E+01 0. -1.
       -4    1    3    3    0  502 -0.35665828540E+03  0.63885334972E+03 -0.39499170907E+03  0.83147988438E+03  0.12699999809E+01 0.  1.
</event>
<event>
 5   0  0.1015876E-05  0.2202145E+04  0.7818609E-02  0.8517536E-01
       -2   -1    0    0    0  501  0.00000000000E+00  0.00000000000E+00  0.59068611730E+03  0.59068611730E+03  0.25500000920E-02 0. -1.
        2   -1    0    0  501    0  0.00000000000E+00  0.00000000000E+00 -0.20524614692E+04  0.20524614692E+04  0.25500000920E-02 0.  1.
    10030    2    1    2    0    0  0.00000000000E+00  0.00000000000E+00 -0.14617753519E+04  0.26431475865E+04  0.22021448600E+04 0.  0.
        5    1    3    3  502    0  0.35491086569E+03 -0.90381746749E+03 -0.13539728189E+04  0.16661669248E+04  0.46999998093E+01 0.  1.
       -5    1    3    3    0  502 -0.35491086569E+03  0.90381746749E+03 -0.10780253301E+03  0.97698066166E+03  0.46999998093E+01 0. -1.
</event>
<event>
 5   0  0.3546750E-06  0.2186487E+04  0.7818609E-02  0.8524074E-01
       -4   -1    0    0    0  501  0.00000000000E+00  0.00000000000E+00  0.68063039171E+03  0.68063157657E+03  0.12699999809E+01 0.  1.
        4   -1    0    0  501    0  0.00000000000E+00  0.00000000000E+00 -0.17559880739E+04  0.17559885332E+04  0.12699999809E+01 0. -1.
    10030    2    1    2    0    0  0.00000000000E+00  0.00000000000E+00 -0.10753576822E+04  0.24366201098E+04  0.21864865457E+04 0.  0.
        5    1    3    3  502    0 -0.63059963687E+03  0.37775206150E+03 -0.14394522401E+04  0.16162912373E+04  0.46999998093E+01 0. -1.
       -5    1    3    3    0  502  0.63059963687E+03 -0.37775206150E+03  0.36409455790E+03  0.82032887252E+03  0.46999998093E+01 0.  1.
</event>
<event>
 5   0  0.1015876E-05  0.2198633E+04  0.7818609E-02  0.8518997E-01
       -2   -1    0    0    0  501  0.00000000000E+00  0.00000000000E+00  0.12815649761E+04  0.12815649761E+04  0.25500000920E-02 0. -1.
        2   -1    0    0  501    0  0.00000000000E+00  0.00000000000E+00 -0.94298480324E+03  0.94298480324E+03  0.25500000920E-02 0.  1.
    10030    2    1    2    0    0  0.00000000000E+00  0.00000000000E+00  0.33858017285E+03  0.22245497793E+04  0.21986325722E+04 0.  0.
        5    1    3    3  502    0  0.93685758877E+02 -0.12238840798E+03  0.12705682108E+04  0.12798912502E+04  0.46999998093E+01 0. -1.
       -5    1    3    3    0  502 -0.93685758877E+02  0.12238840798E+03 -0.93198803798E+03  0.94465852919E+03  0.46999998093E+01 0.  1.
</event>
<event>
 5   0  0.4794967E-06  0.2249870E+04  0.7818609E-02  0.8497953E-01
       -1   -1    0    0    0  501  0.00000000000E+00  0.00000000000E+00  0.10877692028E+04  0.10877692028E+04  0.50400001928E-02 0.  1.
        1   -1    0    0  501    0  0.00000000000E+00  0.00000000000E+00 -0.11633710784E+04  0.11633710784E+04  0.50400001928E-02 0. -1.
    10030    2    1    2    0    0  0.00000000000E+00  0.00000000000E+00 -0.75601875614E+02  0.22511402812E+04  0.22498704234E+04 0.  0.
        5    1    3    3  502    0 -0.12797772396E+03  0.88619205144E+02 -0.11525327460E+04  0.11630070859E+04  0.46999998093E+01 0. -1.
       -5    1    3    3    0  502  0.12797772396E+03 -0.88619205144E+02  0.10769308703E+04  0.10881331954E+04  0.46999998093E+01 0.  1.
</event>
<event>
 5   0  0.4630615E-06  0.2198951E+04  0.7818609E-02  0.8518865E-01
       -1   -1    0    0    0  501  0.00000000000E+00  0.00000000000E+00  0.92725725239E+03  0.92725725240E+03  0.50400001928E-02 0.  1.
        1   -1    0    0  501    0  0.00000000000E+00  0.00000000000E+00 -0.13036801910E+04  0.13036801911E+04  0.50400001928E-02 0. -1.
    10030    2    1    2    0    0  0.00000000000E+00  0.00000000000E+00 -0.37642293866E+03  0.22309374435E+04  0.21989514883E+04 0.  0.
        2    1    3    3  502    0 -0.66481334489E+03 -0.74376407816E+03  0.28077346246E+03  0.10363375535E+04  0.25500000920E-02 0.  1.
       -2    1    3    3    0  502  0.66481334489E+03  0.74376407816E+03 -0.65719640111E+03  0.11945998900E+04  0.25500000920E-02 0. -1.
</event>
<event>
 5   0  0.1014015E-05  0.2198617E+04  0.7818609E-02  0.8519004E-01
        2   -1    0    0  501    0  0.00000000000E+00  0.00000000000E+00  0.25456735850E+04  0.25456735850E+04  0.25500000920E-02 0.  1.
       -2   -1    0    0    0  501  0.00000000000E+00  0.00000000000E+00 -0.47471897192E+03  0.47471897192E+03  0.25500000920E-02 0. -1.
    10030    2    1    2    0    0  0.00000000000E+00  0.00000000000E+00  0.20709546131E+04  0.30203925569E+04  0.21986173356E+04 0.  0.
        1    1    3    3  502    0  0.96947963736E+03  0.19683174481E+03  0.37686133211E+03  0.10586113388E+04  0.50400001928E-02 0. -1.
       -1    1    3    3    0  502 -0.96947963736E+03 -0.19683174481E+03  0.16940932809E+04  0.19617812181E+04  0.50400001928E-02 0.  1.
</event>
<event>
 5   0  0.4309945E-06  0.2197634E+04  0.7818609E-02  0.8519414E-01
        1   -1    0    0  501    0  0.00000000000E+00  0.00000000000E+00  0.19112770924E+04  0.19112770924E+04  0.50400001928E-02 0. -1.
       -1   -1    0    0    0  501  0.00000000000E+00  0.00000000000E+00 -0.63172329573E+03  0.63172329575E+03  0.50400001928E-02 0.  1.
    10030    2    1    2    0    0  0.00000000000E+00  0.00000000000E+00  0.12795537967E+04  0.25430003882E+04  0.21976335126E+04 0.  0.
        4    1    3    3  502    0  0.64403293558E+03  0.41064871156E+02  0.16688843069E+04  0.17893130493E+04  0.12699999809E+01 0. -1.
       -4    1    3    3    0  502 -0.64403293558E+03 -0.41064871156E+02 -0.38933051018E+03  0.75368733889E+03  0.12699999809E+01 0.  1.
</event>
<event>
 5   0  0.1035928E-05  0.2198810E+04  0.7818609E-02  0.8518923E-01
       -2   -1    0    0    0  501  0.00000000000E+00  0.00000000000E+00  0.11431969678E+04  0.11431969678E+04  0.25500000920E-02 0.  1.
        2   -1    0    0  501    0  0.00000000000E+00  0.00000000000E+00 -0.10572909533E+04  0.10572909533E+04  0.25500000920E-02 0. -1.
    10030    2    1    2    0    0  0.00000000000E+00  0.00000000000E+00  0.85906014470E+02  0.22004879211E+04  0.21988104165E+04 0.  0.
        3    1    3    3  502    0  0.95421521738E+03 -0.89407845184E+02  0.58203952970E+03  0.11212896451E+04  0.10100000352E+00 0.  1.
       -3    1    3    3    0  502 -0.95421521738E+03  0.89407845184E+02 -0.49613351523E+03  0.10791982760E+04  0.10100000352E+00 0. -1.
</event>
<event>
 5   0  0.4794967E-06  0.2204023E+04  0.7818609E-02  0.8516755E-01
        1   -1    0    0  501    0  0.00000000000E+00  0.00000000000E+00  0.19441259993E+04  0.19441259993E+04  0.50400001928E-02 0.  1.
       -1   -1    0    0    0  501  0.00000000000E+00  0.00000000000E+00 -0.62466611330E+03  0.62466611332E+03  0.50400001928E-02 0. -1.
    10030    2    1    2    0    0  0.00000000000E+00  0.00000000000E+00  0.13194598860E+04  0.25687921126E+04  0.22040232592E+04 0.  0.
        5    1    3    3  502    0  0.69994153755E+02 -0.87605653572E+03  0.14346203468E+04  0.16824184571E+04  0.46999998093E+01 0.  1.
       -5    1    3    3    0  502 -0.69994153755E+02  0.87605653572E+03 -0.11516046087E+03  0.88637365546E+03  0.46999998093E+01 0. -1.
</event>
<event>
 5   0  0.4462201E-06  0.2203000E+04  0.7818609E-02  0.8517180E-01
        1   -1    0    0  501    0  0.00000000000E+00  0.00000000000E+00  0.14247459940E+04  0.14247459940E+04  0.50400001928E-02 0.  1.
       -1   -1    0    0    0  501  0.00000000000E+00  0.00000000000E+00 -0.85159202640E+03  0.85159202641E+03  0.50400001928E-02 0. -1.
    10030    2    1    2    0    0  0.00000000000E+00  0.00000000000E+00  0.57315396758E+03  0.22763380204E+04  0.22030000709E+04 0.  0.
        3    1    3    3  502    0 -0.33555462717E+03  0.93044024473E+03  0.78746837679E+03  0.12642873137E+04  0.10100000352E+00 0.  1.
       -3    1    3    3    0  502  0.33555462717E+03 -0.93044024473E+03 -0.21431440920E+03  0.10120507067E+04  0.10100000352E+00 0. -1.
</event>
<event>
 5   0  0.3546750E-06  0.2203366E+04  0.7818609E-02  0.8517028E-01
       -3   -1    0    0    0  501  0.00000000000E+00  0.00000000000E+00  0.18601437012E+04  0.18601437040E+04  0.10100000352E+00 0.  1.
        3   -1    0    0  501    0  0.00000000000E+00  0.00000000000E+00 -0.65247956344E+03  0.65247957126E+03  0.10100000352E+00 0. -1.
    10030    2    1    2    0    0  0.00000000000E+00  0.00000000000E+00  0.12076641378E+04  0.25126232753E+04  0.22033663004E+04 0.  0.
        4    1    3    3  502    0  0.98515423952E+03 -0.76380421997E+02  0.48276712040E+02  0.98929019925E+03  0.12699999809E+01 0. -1.
       -4    1    3    3    0  502 -0.98515423952E+03  0.76380421997E+02  0.11593874258E+04  0.15233330760E+04  0.12699999809E+01 0.  1.
</event>
<event>
 5   0  0.9963573E-06  0.2200598E+04  0.7818609E-02  0.8518179E-01
        2   -1    0    0  501    0  0.00000000000E+00  0.00000000000E+00  0.12387006317E+04  0.12387006317E+04  0.25500000920E-02 0.  1.
       -2   -1    0    0    0  501  0.00000000000E+00  0.00000000000E+00 -0.97736136268E+03  0.97736136268E+03  0.25500000920E-02 0. -1.
    10030    2    1    2    0    0  0.00000000000E+00  0.00000000000E+00  0.26133926901E+03  0.22160619944E+04  0.22005982253E+04 0.  0.
        2    1    3    3  502    0 -0.72092747174E+02 -0.10622754398E+04 -0.14882648610E+03  0.10750701360E+04  0.25500000920E-02 0. -1.
       -2    1    3    3    0  502  0.72092747174E+02  0.10622754398E+04  0.41016575511E+03  0.11409918584E+04  0.25500000920E-02 0.  1.
</event>
<event>
 5   0  0.1015876E-05  0.2195913E+04  0.7818609E-02  0.8520131E-01
       -2   -1    0    0    0  501  0.00000000000E+00  0.00000000000E+00  0.60872438965E+03  0.60872438966E+03  0.25500000920E-02 0. -1.
        2   -1    0    0  501    0  0.00000000000E+00  0.00000000000E+00 -0.19803855611E+04  0.19803855611E+04  0.25500000920E-02 0.  1.
    10030    2    1    2    0    0  0.00000000000E+00  0.00000000000E+00 -0.13716611714E+04  0.25891099507E+04  0.21959134700E+04 0.  0.
        5    1    3    3  502    0  0.64728056005E+03 -0.51161376526E+03  0.16828799739E+03  0.84205920712E+03  0.46999998093E+01 0. -1.
       -5    1    3    3    0  502 -0.64728056005E+03  0.51161376526E+03 -0.15399491688E+04  0.17470507436E+04  0.46999998093E+01 0.  1.
</event>
<event>
 5   0  0.4309945E-06  0.2199020E+04  0.7818609E-02  0.8518836E-01
       -1   -1    0    0    0  501  0.00000000000E+00  0.00000000000E+00  0.52756508928E+03  0.52756508931E+03  0.50400001928E-02 0.  1.
        1   -1    0    0  501    0  0.00000000000E+00  0.00000000000E+00 -0.22915127556E+04  0.22915127556E+04  0.50400001928E-02 0. -1.
    10030    2    1    2    0    0  0.00000000000E+00  0.00000000000E+00 -0.17639476663E+04  0.28190778449E+04  0.21990199013E+04 0.  0.
        4    1    3    3  502    0  0.73759122806E+03 -0.53671826066E+02  0.16107967130E+03  0.75688160107E+03  0.12699999809E+01 0.  1.
       -4    1    3    3    0  502 -0.73759122806E+03  0.53671826066E+02 -0.19250273376E+04  0.20621962438E+04  0.12699999809E+01 0. -1.
</event>
<event>
 5   0  0.9963173E-06  0.2202962E+04  0.7818609E-02  0.8517196E-01
        2   -1    0    0  501    0  0.00000000000E+00  0.00000000000E+00  0.10018326215E+04  0.10018326215E+04  0.25500000920E-02 0.  1.
       -2   -1    0    0    0  501  0.00000000000E+00  0.00000000000E+00 -0.12110411861E+04  0.12110411861E+04  0.25500000920E-02 0. -1.
    10030    2    1    2    0    0  0.00000000000E+00  0.00000000000E+00 -0.20920856460E+03  0.22128738076E+04  0.22029621569E+04 0.  0.
        4    1    3    3  502    0 -0.26141417249E+03 -0.29594286684E+03  0.92829225172E+03  0.10087852435E+04  0.12699999809E+01 0.  1.
       -4    1    3    3    0  502  0.26141417249E+03  0.29594286684E+03 -0.11375008163E+04  0.12040885640E+04  0.12699999809E+01 0. -1.
</event>
<event>
 5   0  0.4794967E-06  0.2197873E+04  0.7818609E-02  0.8519314E-01
       -1   -1    0    0    0  501  0.00000000000E+00  0.00000000000E+00  0.85537500107E+03  0.85537500109E+03  0.50400001928E-02 0. -1.
        1   -1    0    0  501    0  0.00000000000E+00  0.00000000000E+00 -0.14118503205E+04  0.14118503205E+04  0.50400001928E-02 0.  1.
    10030    2    1    2    0    0  0.00000000000E+00  0.00000000000E+00 -0.55647531944E+03  0.22672253216E+04  0.21978730350E+04 0.  0.
        5    1    3    3  502    0 -0.58080479842E+03 -0.81028796897E+03  0.19866916262E+03  0.10165590650E+04  0.46999998093E+01 0. -1.
       -5    1    3    3    0  502  0.58080479842E+03  0.81028796897E+03 -0.75514448206E+03  0.12506662566E+04  0.46999998093E+01 0.  1.
</event>
<event>
 5   0  0.9963573E-06  0.2197417E+04  0.7818609E-02  0.8519504E-01
        2   -1    0    0  501    0  0.00000000000E+00  0.00000000000E+00  0.16955101935E+04  0.16955101935E+04  0.25500000920E-02 0.  1.
       -2   -1    0    0    0  501  0.00000000000E+00  0.00000000000E+00 -0.71197473822E+03  0.71197473823E+03  0.25500000920E-02 0. -1.
    10030    2    1    2    0    0  0.00000000000E+00  0.00000000000E+00  0.98353545524E+03  0.24074849317E+04  0.21974170530E+04 0.  0.
        2    1    3    3  502    0  0.67240351940E+03 -0.82777397995E+03  0.20226411847E+03  0.10854708787E+04  0.25500000920E-02 0. -1.
       -2    1    3    3    0  502 -0.67240351940E+03  0.82777397995E+03  0.78127133677E+03  0.13220140530E+04  0.25500000920E-02 0.  1.
</event>
<event>
 5   0  0.1035928E-05  0.2200723E+04  0.7818609E-02  0.8518127E-01
       -2   -1    0    0    0  501  0.00000000000E+00  0.00000000000E+00  0.91365062451E+03  0.91365062452E+03  0.25500000920E-02 0.  1.
        2   -1    0    0  501    0  0.00000000000E+00  0.00000000000E+00 -0.13252283386E+04  0.13252283386E+04  0.25500000920E-02 0. -1.
    10030    2    1    2    0    0  0.00000000000E+00  0.00000000000E+00 -0.41157771405E+03  0.22388789631E+04  0.22007232440E+04 0.  0.
        3    1    3    3  502    0  0.10203685962E+04 -0.29819475373E+03 -0.49483367800E+03  0.11725751841E+04  0.10100000352E+00 0. -1.
       -3    1    3    3    0  502 -0.10203685962E+04  0.29819475373E+03  0.83255963948E+02  0.10663037790E+04  0.10100000352E+00 0.  1.
</event>
<event>
 5   0  0.4630615E-06  0.2178468E+04  0.7818609E-02  0.8527444E-01
       -1   -1    0    0    0  501  0.00000000000E+00  0.00000000000E+00  0.54425495812E+03  0.54425495814E+03  0.50400001928E-02 0.  1.
        1   -1    0    0  501    0  0.00000000000E+00  0.00000000000E+00 -0.21799178136E+04  0.21799178136E+04  0.50400001928E-02 0. -1.
    10030    2    1    2    0    0  0.00000000000E+00  0.00000000000E+00 -0.16356628555E+04  0.27241727718E+04  0.21784683412E+04 0.  0.
        2    1    3    3  502    0  0.14708477568E+03  0.90402404644E+03 -0.80633105975E+02  0.91945369952E+03  0.25500000920E-02 0.  1.
       -2    1    3    3    0  502 -0.14708477568E+03 -0.90402404644E+03 -0.15550297495E+04  0.18047190722E+04  0.25500000920E-02 0. -1.
</event>
<event>
 5   0  0.4794967E-06  0.2198710E+04  0.7818609E-02  0.8518965E-01
        1   -1    0    0  501    0  0.00000000000E+00  0.00000000000E+00  0.12190182447E+04  0.12190182448E+04  0.50400001928E-02 0. -1.
       -1   -1    0    0    0  501  0.00000000000E+00  0.00000000000E+00 -0.99143831064E+03  0.99143831065E+03  0.50400001928E-02 0.  1.
    10030    2    1    2    0    0  0.00000000000E+00  0.00000000000E+00  0.22757993411E+03  0.22104565554E+04  0.21987099756E+04 0.  0.
        5    1    3    3  502    0 -0.10851860116E+04  0.14720286656E+03  0.21054307253E+03  0.11151895978E+04  0.46999998093E+01 0. -1.
       -5    1    3    3    0  502  0.10851860116E+04 -0.14720286656E+03  0.17036861582E+02  0.10952669576E+04  0.46999998093E+01 0.  1.
</event>
<event>
 5   0  0.1035928E-05  0.2185003E+04  0.7818609E-02  0.8524696E-01
        2   -1    0    0  501    0  0.00000000000E+00  0.00000000000E+00  0.22651016148E+04  0.22651016148E+04  0.25500000920E-02 0.  1.
       -2   -1    0    0    0  501  0.00000000000E+00  0.00000000000E+00 -0.52693417709E+03  0.52693417709E+03  0.25500000920E-02 0. -1.
    10030    2    1    2    0    0  0.00000000000E+00  0.00000000000E+00  0.17381674377E+04  0.27920357919E+04  0.21850029340E+04 0.  0.
        3    1    3    3  502    0 -0.72734471336E+03 -0.62597313009E+03  0.20181467467E+03  0.98061300458E+03  0.10100000352E+00 0. -1.
       -3    1    3    3    0  502  0.72734471336E+03  0.62597313009E+03  0.15363527630E+04  0.18114227873E+04  0.10100000352E+00 0.  1.
</event>
<event>
 5   0  0.1035928E-05  0.2199650E+04  0.7818609E-02  0.8518574E-01
       -2   -1    0    0    0  501  0.00000000000E+00  0.00000000000E+00  0.43535915046E+03  0.43535915046E+03  0.25500000920E-02 0.  1.
        2   -1    0    0  501    0  0.00000000000E+00  0.00000000000E+00 -0.27784300927E+04  0.27784300927E+04  0.25500000920E-02 0. -1.
    10030    2    1    2    0    0  0.00000000000E+00  0.00000000000E+00 -0.23430709422E+04  0.32137892431E+04  0.21996499401E+04 0.  0.
        3    1    3    3  502    0  0.88041070867E+03 -0.65733672025E+03 -0.10999535494E+04  0.15547065320E+04  0.10100000352E+00 0. -1.
       -3    1    3    3    0  502 -0.88041070867E+03  0.65733672025E+03 -0.12431173928E+04  0.16590827111E+04  0.10100000352E+00 0.  1.
</event>
<event>
 5   0  0.9963573E-06  0.2216252E+04  0.7818609E-02  0.8511694E-01
        2   -1    0    0  501    0  0.00000000000E+00  0.00000000000E+00  0.20710926415E+04  0.20710926415E+04  0.25500000920E-02 0.  1.
       -2   -1    0    0    0  501  0.00000000000E+00  0.00000000000E+00 -0.59289610624E+03  0.59289610624E+03  0.25500000920E-02 0. -1.
    10030    2    1    2    0    0  0.00000000000E+00  0.00000000000E+00  0.14781965352E+04  0.26639887477E+04  0.22162515767E+04 0.  0.
        2    1    3    3  502    0 -0.58497854397E+02  0.86846742354E+03  0.15634146618E+04  0.17893918155E+04  0.25500000920E-02 0.  1.
       -2    1    3    3    0  502  0.58497854397E+02 -0.86846742354E+03 -0.85218126552E+02  0.87459693221E+03  0.25500000920E-02 0. -1.
</event>
<event>
 5   0  0.4408787E-06  0.2201277E+04  0.7818609E-02  0.8517897E-01
       -1   -1    0    0    0  501  0.00000000000E+00  0.00000000000E+00  0.79975022939E+03  0.79975022940E+03  0.50400001928E-02 0.  1.
        1   -1    0    0  501    0  0.00000000000E+00  0.00000000000E+00 -0.15147298889E+04  0.15147298889E+04  0.50400001928E-02 0. -1.
    10030    2    1    2    0    0  0.00000000000E+00  0.00000000000E+00 -0.71497965953E+03  0.23144801183E+04  0.22012774256E+04 0.  0.
        1    1    3    3  502    0  0.31342891134E+03 -0.49525195411E+03  0.62202691899E+03  0.85465178200E+03  0.50400001928E-02 0.  1.
       -1    1    3    3    0  502 -0.31342891134E+03  0.49525195411E+03 -0.13370065785E+04  0.14598283363E+04  0.50400001928E-02 0. -1.
</event>
<event>
 5   0  0.9963173E-06  0.2195120E+04  0.7818609E-02  0.8520462E-01
       -2   -1    0    0    0  501  0.00000000000E+00  0.00000000000E+00  0.11408140223E+04  0.11408140223E+04  0.25500000920E-02 0.  1.
        2   -1    0    0  501    0  0.00000000000E+00  0.00000000000E+00 -0.10559462794E+04  0.10559462794E+04  0.25500000920E-02 0. -1.
    10030    2    1    2    0    0  0.00000000000E+00  0.00000000000E+00  0.84867742914E+02  0.21967603018E+04  0.21951203360E+04 0.  0.
        4    1    3    3  502    0 -0.55312252195E+03 -0.90961378183E+03  0.30964450237E+03  0.11087033359E+04  0.12699999809E+01 0.  1.
       -4    1    3    3    0  502  0.55312252195E+03  0.90961378183E+03 -0.22477675945E+03  0.10880569658E+04  0.12699999809E+01 0. -1.
</event>
<event>
 5   0  0.1035928E-05  0.2183854E+04  0.7818609E-02  0.8525178E-01
       -2   -1    0    0    0  501  0.00000000000E+00  0.00000000000E+00  0.85796224653E+03  0.85796224654E+03  0.25500000920E-02 0. -1.
        2   -1    0    0  501    0  0.00000000000E+00  0.00000000000E+00 -0.13896941408E+04  0.13896941408E+04  0.25500000920E-02 0.  1.
    10030    2    1    2    0    0  0.00000000000E+00  0.00000000000E+00 -0.53173189431E+03  0.22476563874E+04  0.21838544888E+04 0.  0.
        3    1    3    3  502    0 -0.90875493940E+02 -0.80655481836E+03  0.48589536561E+03  0.94598274135E+03  0.10100000352E+00 0. -1.
       -3    1    3    3    0  502  0.90875493940E+02  0.80655481836E+03 -0.10176272599E+04  0.13016736460E+04  0.10100000352E+00 0.  1.
</event>
<event>
 5   0  0.4630615E-06  0.2177284E+04  0.7818609E-02  0.8527943E-01
        1   -1    0    0  501    0  0.00000000000E+00  0.00000000000E+00  0.28258370817E+04  0.28258370817E+04  0.50400001928E-02 0. -1.
       -1   -1    0    0    0  501  0.00000000000E+00  0.00000000000E+00 -0.41939482112E+03  0.41939482115E+03  0.50400001928E-02 0.  1.
    10030    2    1    2    0    0  0.00000000000E+00  0.00000000000E+00  0.24064422605E+04  0.32452319028E+04  0.21772840306E+04 0.  0.
        2    1    3    3  502    0 -0.71039381395E+03  0.55376245731E+03  0.29190876210E+03  0.94684896125E+03  0.25500000920E-02 0.  1.
       -2    1    3    3    0  502  0.71039381395E+03 -0.55376245731E+03  0.21145334984E+04  0.22983829416E+04  0.25500000920E-02 0. -1.
</event>
<event>
 5   0  0.4408787E-06  0.2194907E+04  0.7818609E-02  0.8520551E-01
        1   -1    0    0  501    0  0.00000000000E+00  0.00000000000E+00  0.86860317523E+03  0.86860317524E+03  0.50400001928E-02 0.  1.
       -1   -1    0    0    0  501  0.00000000000E+00  0.00000000000E+00 -0.13865994533E+04  0.13865994533E+04  0.50400001928E-02 0. -1.
    10030    2    1    2    0    0  0.00000000000E+00  0.00000000000E+00 -0.51799627804E+03  0.22552026285E+04  0.21949074586E+04 0.  0.
        1    1    3    3  502    0  0.10176060362E+03 -0.10856764544E+04 -0.38632202206E+03  0.11568462684E+04  0.50400001928E-02 0. -1.
       -1    1    3    3    0  502 -0.10176060362E+03  0.10856764544E+04 -0.13167425598E+03  0.10983563601E+04  0.50400001928E-02 0.  1.
</event>
<event>
 5   0  0.1014015E-05  0.2203542E+04  0.7818609E-02  0.8516955E-01
        2   -1    0    0  501    0  0.00000000000E+00  0.00000000000E+00  0.12032274815E+04  0.12032274815E+04  0.25500000920E-02 0. -1.
       -2   -1    0    0    0  501  0.00000000000E+00  0.00000000000E+00 -0.10088690433E+04  0.10088690433E+04  0.25500000920E-02 0.  1.
    10030    2    1    2    0    0  0.00000000000E+00  0.00000000000E+00  0.19435843823E+03  0.22120965248E+04  0.22035416567E+04 0.  0.
        1    1    3    3  502    0  0.96065250003E+03  0.77941626810E+02  0.63307830476E+03  0.11531332373E+04  0.50400001928E-02 0. -1.
       -1    1    3    3    0  502 -0.96065250003E+03 -0.77941626810E+02 -0.43871986653E+03  0.10589632875E+04  0.50400001928E-02 0.  1.
</event>
<event>
 5   0  0.4794967E-06  0.2196550E+04  0.7818609E-02  0.8519865E-01
        1   -1    0    0  501    0  0.00000000000E+00  0.00000000000E+00  0.13019742443E+04  0.13019742443E+04  0.50400001928E-02 0. -1.
       -1   -1    0    0    0  501  0.00000000000E+00  0.00000000000E+00 -0.92644551022E+03  0.92644551023E+03  0.50400001928E-02 0.  1.
    10030    2    1    2    0    0  0.00000000000E+00  0.00000000000E+00  0.37552873410E+03  0.22284197546E+04  0.21965501980E+04 0.  0.
        5    1    3    3  502    0  0.20870201940E+03  0.10604178236E+04 -0.10373170378E+02  0.10808201452E+04  0.46999998093E+01 0.  1.
       -5    1    3    3    0  502 -0.20870201940E+03 -0.10604178236E+04  0.38590190448E+03  0.11475996094E+04  0.46999998093E+01 0. -1.
</event>
<event>
 5   0  0.4309945E-06  0.2201776E+04  0.7818609E-02  0.8517689E-01
        1   -1    0    0  501    0  0.00000000000E+00  0.00000000000E+00  0.93447832908E+03  0.93447832910E+03  0.50400001928E-02 0.  1.
       -1   -1    0    0    0  501  0.00000000000E+00  0.00000000000E+00 -0.12969319636E+04  0.12969319636E+04  0.50400001928E-02 0. -1.
    10030    2    1    2    0    0  0.00000000000E+00  0.00000000000E+00 -0.36245363456E+03  0.22314102927E+04  0.22017763868E+04 0.  0.
        4    1    3    3  502    0  0.58865222823E+03 -0.91360555682E+02  0.75702778673E+03  0.96330207085E+03  0.12699999809E+01 0.  1.
       -4    1    3    3    0  502 -0.58865222823E+03  0.91360555682E+02 -0.11194814213E+04  0.12681082219E+04  0.12699999809E+01 0. -1.
</event>
<event>
 5   0  0.1035928E-05  0.2200054E+04  0.7818609E-02  0.8518406E-01
       -2   -1    0    0    0  501  0.00000000000E+00  0.00000000000E+00  0.12204727788E+04  0.12204727788E+04  0.25500000920E-02 0.  1.
        2   -1    0    0  501    0  0.00000000000E+00  0.00000000000E+00 -0.99146771093E+03  0.99146771093E+03  0.25500000920E-02 0. -1.
    10030    2    1    2    0    0  0.00000000000E+00  0.00000000000E+00  0.22900506789E+03  0.22119404898E+04  0.22000539559E+04 0.  0.
        3    1    3    3  502    0  0.21107409230E+03 -0.55169170697E+03  0.10474943357E+04  0.12025640962E+04  0.10100000352E+00 0.  1.
       -3    1    3    3    0  502 -0.21107409230E+03  0.55169170697E+03 -0.81848926785E+03  0.10093763935E+04  0.10100000352E+00 0. -1.
</event>
<event>
 5   0  0.4309945E-06  0.2196482E+04  0.7818609E-02  0.8519894E-01
        1   -1    0    0  501    0  0.00000000000E+00  0.00000000000E+00  0.97483345640E+03  0.97483345642E+03  0.50400001928E-02 0.  1.
       -1   -1    0    0    0  501  0.00000000000E+00  0.00000000000E+00 -0.12372710398E+04  0.12372710398E+04  0.50400001928E-02 0. -1.
    10030    2    1    2    0    0  0.00000000000E+00  0.00000000000E+00 -0.26243758336E+03  0.22121044962E+04  0.21964819182E+04 0.  0.
        4    1    3    3  502    0  0.62999604551E+03  0.56371290528E+02  0.77297471060E+03  0.99878138542E+03  0.12699999809E+01 0.  1.
       -4    1    3    3    0  502 -0.62999604551E+03 -0.56371290528E+02 -0.10354122940E+04  0.12133231108E+04  0.12699999809E+01 0. -1.
</event>
<event>
 5   0  0.4408787E-06  0.2201116E+04  0.7818609E-02  0.8517964E-01
       -1   -1    0    0    0  501  0.00000000000E+00  0.00000000000E+00  0.77205746871E+03  0.77205746872E+03  0.50400001928E-02 0.  1.
        1   -1    0    0  501    0  0.00000000000E+00  0.00000000000E+00 -0.15688310965E+04  0.15688310966E+04  0.50400001928E-02 0. -1.
    10030    2    1    2    0    0  0.00000000000E+00  0.00000000000E+00 -0.79677362784E+03  0.23408885653E+04  0.22011158672E+04 0.  0.
        1    1    3    3  502    0 -0.15946141809E+03  0.75331578700E+03 -0.12346496141E+04  0.14550849764E+04  0.50400001928E-02 0. -1.
       -1    1    3    3    0  502  0.15946141809E+03 -0.75331578700E+03  0.43787598625E+03  0.88580358893E+03  0.50400001928E-02 0.  1.
</event>
<event>
 5   0  0.4630615E-06  0.2198995E+04  0.7818609E-02  0.8518847E-01
        1   -1    0    0  501    0  0.00000000000E+00  0.00000000000E+00  0.11947641492E+04  0.11947641492E+04  0.50400001928E-02 0. -1.
       -1   -1    0    0    0  501  0.00000000000E+00  0.00000000000E+00 -0.10118271640E+04  0.10118271640E+04  0.50400001928E-02 0.  1.
    10030    2    1    2    0    0  0.00000000000E+00  0.00000000000E+00  0.18293698520E+03  0.22065913132E+04  0.21989950621E+04 0.  0.
        2    1    3    3  502    0 -0.26208787705E+02  0.10378650123E+04  0.45471918166E+03  0.11334108780E+04  0.25500000920E-02 0. -1.
       -2    1    3    3    0  502  0.26208787705E+02 -0.10378650123E+04 -0.27178219646E+03  0.10731804352E+04  0.25500000920E-02 0.  1.
</event>
<event>
 5   0  0.1014015E-05  0.2233888E+04  0.7818609E-02  0.8504454E-01
        2   -1    0    0  501    0  0.00000000000E+00  0.00000000000E+00  0.13949971041E+04  0.13949971041E+04  0.25500000920E-02 0. -1.
       -2   -1    0    0    0  501  0.00000000000E+00  0.00000000000E+00 -0.89431260613E+03  0.89431260613E+03  0.25500000920E-02 0.  1.
    10030    2    1    2    0    0  0.00000000000E+00  0.00000000000E+00  0.50068449795E+03  0.22893097102E+04  0.22338876388E+04 0.  0.
        1    1    3    3  502    0  0.23870300792E+03  0.76983956744E+03  0.10427868473E+04  0.13179668033E+04  0.50400001928E-02 0. -1.
       -1    1    3    3    0  502 -0.23870300792E+03 -0.76983956744E+03 -0.54210234938E+03  0.97134290692E+03  0.50400001928E-02 0.  1.
</event>
<event>
 5   0  0.3546750E-06  0.2196710E+04  0.7818609E-02  0.8519799E-01
        3   -1    0    0  501    0  0.00000000000E+00  0.00000000000E+00  0.14158611001E+04  0.14158611037E+04  0.10100000352E+00 0. -1.
       -3   -1    0    0    0  501  0.00000000000E+00  0.00000000000E+00 -0.85204971812E+03  0.85204972410E+03  0.10100000352E+00 0.  1.
    10030    2    1    2    0    0  0.00000000000E+00  0.00000000000E+00  0.56381138195E+03  0.22679108278E+04  0.21967103242E+04 0.  0.
        4    1    3    3  502    0 -0.67678921861E+03  0.70992810216E+03 -0.22842449938E+03  0.10070853596E+04  0.12699999809E+01 0.  1.
       -4    1    3    3    0  502  0.67678921861E+03 -0.70992810216E+03  0.79223588134E+03  0.12608254682E+04  0.12699999809E+01 0. -1.
</event>
<event>
 5   0  0.1035928E-05  0.2202106E+04  0.7818609E-02  0.8517552E-01
       -2   -1    0    0    0  501  0.00000000000E+00  0.00000000000E+00  0.76769318821E+03  0.76769318822E+03  0.25500000920E-02 0. -1.
        2   -1    0    0  501    0  0.00000000000E+00  0.00000000000E+00 -0.15791700265E+04  0.15791700265E+04  0.25500000920E-02 0.  1.
    10030    2    1    2    0    0  0.00000000000E+00  0.00000000000E+00 -0.81147683829E+03  0.23468632147E+04  0.22021063302E+04 0.  0.
        3    1    3    3  502    0  0.32074423120E+03  0.74137283229E+03 -0.12031248812E+04  0.14491445850E+04  0.10100000352E+00 0.  1.
       -3    1    3    3    0  502 -0.32074423120E+03 -0.74137283229E+03  0.39164804295E+03  0.89771862967E+03  0.10100000352E+00 0. -1.
</event>
<event>
 5   0  0.9963573E-06  0.2202917E+04  0.7818609E-02  0.8517215E-01
       -2   -1    0    0    0  501  0.00000000000E+00  0.00000000000E+00  0.14358214517E+04  0.14358214517E+04  0.25500000920E-02 0.  1.
        2   -1    0    0  501    0  0.00000000000E+00  0.00000000000E+00 -0.84495926987E+03  0.84495926987E+03  0.25500000920E-02 0. -1.
    10030    2    1    2    0    0  0.00000000000E+00  0.00000000000E+00  0.59086218186E+03  0.22807807216E+04  0.22029168350E+04 0.  0.
        2    1    3    3  502    0 -0.73245238248E+03  0.26971489648E+03 -0.50919850221E+03  0.93194191484E+03  0.25500000920E-02 0. -1.
       -2    1    3    3    0  502  0.73245238248E+03 -0.26971489648E+03  0.11000606841E+04  0.13488388068E+04  0.25500000920E-02 0.  1.
</event>
<event>
 5   0  0.9963173E-06  0.2203673E+04  0.7818609E-02  0.8516901E-01
       -2   -1    0    0    0  501  0.00000000000E+00  0.00000000000E+00  0.11289656945E+04  0.11289656945E+04  0.25500000920E-02 0. -1.
        2   -1    0    0  501    0  0.00000000000E+00  0.00000000000E+00 -0.10753595865E+04  0.10753595865E+04  0.25500000920E-02 0.  1.
    10030    2    1    2    0    0  0.00000000000E+00  0.00000000000E+00  0.53606107999E+02  0.22043252810E+04  0.22036733718E+04 0.  0.
        4    1    3    3  502    0 -0.73160749564E+03 -0.45423748406E+02  0.84968219204E+03  0.11221739103E+04  0.12699999809E+01 0. -1.
       -4    1    3    3    0  502  0.73160749564E+03  0.45423748406E+02 -0.79607608404E+03  0.10821513707E+04  0.12699999809E+01 0.  1.
</event>
<event>
 5   0  0.1035928E-05  0.2199305E+04  0.7818609E-02  0.8518717E-01
       -2   -1    0    0    0  501  0.00000000000E+00  0.00000000000E+00  0.31178591415E+04  0.31178591415E+04  0.25500000920E-02 0. -1.
        2   -1    0    0  501    0  0.00000000000E+00  0.00000000000E+00 -0.38784175299E+03  0.38784175300E+03  0.25500000920E-02 0.  1.
    10030    2    1    2    0    0  0.00000000000E+00  0.00000000000E+00  0.27300173885E+04  0.35057008945E+04  0.21993053040E+04 0.  0.
        3    1    3    3  502    0  0.20784352919E+03  0.15036864382E+03 -0.33947724612E+03  0.42550496179E+03  0.10100000352E+00 0.  1.
       -3    1    3    3    0  502 -0.20784352919E+03 -0.15036864382E+03  0.30694946346E+04  0.30801959327E+04  0.10100000352E+00 0. -1.
</event>
<event>
 5   0  0.4408787E-06  0.2201503E+04  0.7818609E-02  0.8517803E-01
        1   -1    0    0  501    0  0.00000000000E+00  0.00000000000E+00  0.90699463457E+03  0.90699463458E+03  0.50400001928E-02 0.  1.
       -1   -1    0    0    0  501  0.00000000000E+00  0.00000000000E+00 -0.13358997261E+04  0.13358997261E+04  0.50400001928E-02 0. -1.
    10030    2    1    2    0    0  0.00000000000E+00  0.00000000000E+00 -0.42890509151E+03  0.22428943607E+04  0.22015030174E+04 0.  0.
        1    1    3    3  502    0  0.75810824374E+03 -0.52197947073E+03 -0.82951098234E+03  0.12390638187E+04  0.50400001928E-02 0. -1.
       -1    1    3    3    0  502 -0.75810824374E+03  0.52197947073E+03  0.40060589083E+03  0.10038305419E+04  0.50400001928E-02 0.  1.
</event>
<event>
 5   0  0.3546750E-06  0.2181779E+04  0.7818609E-02  0.8526051E-01
        3   -1    0    0  501    0  0.00000000000E+00  0.00000000000E+00  0.71754535457E+03  0.71754536168E+03  0.10100000352E+00 0. -1.
       -3   -1    0    0    0  501  0.00000000000E+00  0.00000000000E+00 -0.16584875320E+04  0.16584875351E+04  0.10100000352E+00 0.  1.
    10030    2    1    2    0    0  0.00000000000E+00  0.00000000000E+00 -0.94094217744E+03  0.23760328968E+04  0.21817791238E+04 0.  0.
        2    1    3    3  502    0  0.35878226415E+03 -0.80907429469E+03 -0.11649935354E+04  0.14630570272E+04  0.25500000920E-02 0.  1.
       -2    1    3    3    0  502 -0.35878226415E+03  0.80907429469E+03  0.22405135792E+03  0.91297586956E+03  0.25500000920E-02 0. -1.
</event>
<event>
 5   0  0.3546750E-06  0.2198836E+04  0.7818609E-02  0.8518913E-01
        3   -1    0    0  501    0  0.00000000000E+00  0.00000000000E+00  0.13527425857E+04  0.13527425895E+04  0.10100000352E+00 0.  1.
       -3   -1    0    0    0  501  0.00000000000E+00  0.00000000000E+00 -0.89353261363E+03  0.89353261934E+03  0.10100000352E+00 0. -1.
    10030    2    1    2    0    0  0.00000000000E+00  0.00000000000E+00  0.45920997206E+03  0.22462752088E+04  0.21988357181E+04 0.  0.
        5    1    3    3  502    0 -0.11759692798E+03 -0.66834062965E+03 -0.65403615670E+03  0.94249329917E+03  0.46999998093E+01 0. -1.
       -5    1    3    3    0  502  0.11759692798E+03  0.66834062965E+03  0.11132461288E+04  0.13037819096E+04  0.46999998093E+01 0.  1.
</event>
<event>
 5   0  0.9963173E-06  0.2200489E+04  0.7818609E-02  0.8518224E-01
       -2   -1    0    0    0  501  0.00000000000E+00  0.00000000000E+00  0.45536238897E+03  0.45536238898E+03  0.25500000920E-02 0. -1.
        2   -1    0    0  501    0  0.00000000000E+00  0.00000000000E+00 -0.26584065660E+04  0.26584065660E+04  0.25500000920E-02 0.  1.
    10030    2    1    2    0    0  0.00000000000E+00  0.00000000000E+00 -0.22030441770E+04  0.31137689550E+04  0.22004893681E+04 0.  0.
        4    1    3    3  502    0 -0.34987034126E+03  0.88577764495E+03 -0.18811092397E+04  0.21084555666E+04  0.12699999809E+01 0.  1.
       -4    1    3    3    0  502  0.34987034126E+03 -0.88577764495E+03 -0.32193493734E+03  0.10053133883E+04  0.12699999809E+01 0. -1.
</event>
<event>
 5   0  0.9963573E-06  0.2208432E+04  0.7818609E-02  0.8514927E-01
        2   -1    0    0  501    0  0.00000000000E+00  0.00000000000E+00  0.22739004949E+04  0.22739004949E+04  0.25500000920E-02 0.  1.
       -2   -1    0    0    0  501  0.00000000000E+00  0.00000000000E+00 -0.53621190441E+03  0.53621190441E+03  0.25500000920E-02 0. -1.
    10030    2    1    2    0    0  0.00000000000E+00  0.00000000000E+00  0.17376885905E+04  0.28101123993E+04  0.22084315835E+04 0.  0.
        2    1    3    3  502    0  0.60599357560E+03  0.51020156283E+03  0.18476850770E+04  0.20103417600E+04  0.25500000920E-02 0.  1.
       -2    1    3    3    0  502 -0.60599357560E+03 -0.51020156283E+03 -0.10999648651E+03  0.79977063927E+03  0.25500000920E-02 0. -1.
</event>
<event>
 5   0  0.4630615E-06  0.2200302E+04  0.7818609E-02  0.8518302E-01
       -1   -1    0    0    0  501  0.00000000000E+00  0.00000000000E+00  0.10563086063E+04  0.10563086063E+04  0.50400001928E-02 0.  1.
        1   -1    0    0  501    0  0.00000000000E+00  0.00000000000E+00 -0.11458134063E+04  0.11458134063E+04  0.50400001928E-02 0. -1.
    10030    2    1    2    0    0  0.00000000000E+00  0.00000000000E+00 -0.89504800073E+02  0.22021220126E+04  0.22003023086E+04 0.  0.
        2    1    3    3  502    0 -0.95038899349E+03 -0.19009122617E+03  0.47621498216E+03  0.10798863933E+04  0.25500000920E-02 0.  1.
       -2    1    3    3    0  502  0.95038899349E+03  0.19009122617E+03 -0.56571978223E+03  0.11222356193E+04  0.25500000920E-02 0. -1.
</event>
<event>
 5   0  0.4630615E-06  0.2203016E+04  0.7818609E-02  0.8517174E-01
        1   -1    0    0  501    0  0.00000000000E+00  0.00000000000E+00  0.49787568786E+03  0.49787568788E+03  0.50400001928E-02 0.  1.
       -1   -1    0    0    0  501  0.00000000000E+00  0.00000000000E+00 -0.24369943746E+04  0.24369943746E+04  0.50400001928E-02 0. -1.
    10030    2    1    2    0    0  0.00000000000E+00  0.00000000000E+00 -0.19391186868E+04  0.29348700625E+04  0.22030163419E+04 0.  0.
        2    1    3    3  502    0  0.10601746580E+04 -0.43179303754E+02 -0.57552036802E+03  0.12070867623E+04  0.25500000920E-02 0.  1.
       -2    1    3    3    0  502 -0.10601746580E+04  0.43179303754E+02 -0.13635983187E+04  0.17277833002E+04  0.25500000920E-02 0. -1.
</event>
<event>
 5   0  0.1014015E-05  0.2222824E+04  0.7818609E-02  0.8508988E-01
        2   -1    0    0  501    0  0.00000000000E+00  0.00000000000E+00  0.23065442053E+04  0.23065442053E+04  0.25500000920E-02 0.  1.
       -2   -1    0    0    0  501  0.00000000000E+00  0.00000000000E+00 -0.53553559635E+03  0.53553559635E+03  0.25500000920E-02 0. -1.
    10030    2    1    2    0    0  0.00000000000E+00  0.00000000000E+00  0.17710086090E+04  0.28420798017E+04  0.22228239035E+04 0.  0.
        1    1    3    3  502    0  0.75406779902E+03 -0.52475406463E+03  0.85745202882E+02  0.92267942088E+03  0.50400001928E-02 0. -1.
       -1    1    3    3    0  502 -0.75406779902E+03  0.52475406463E+03  0.16852634061E+04  0.19194003808E+04  0.50400001928E-02 0.  1.
</event>
<event>
 5   0  0.4309945E-06  0.2201870E+04  0.7818609E-02  0.8517650E-01
        1   -1    0    0  501    0  0.00000000000E+00  0.00000000000E+00  0.18293871072E+04  0.18293871072E+04  0.50400001928E-02 0. -1.
       -1   -1    0    0    0  501  0.00000000000E+00  0.00000000000E+00 -0.66254866633E+03  0.66254866634E+03  0.50400001928E-02 0.  1.
    10030    2    1    2    0    0  0.00000000000E+00  0.00000000000E+00  0.11668384408E+04  0.24919357735E+04  0.22018701034E+04 0.  0.
        4    1    3    3  502    0 -0.43101564276E+03  0.98439630493E+03  0.85419947124E+03  0.13727595999E+04  0.12699999809E+01 0. -1.
       -4    1    3    3    0  502  0.43101564276E+03 -0.98439630493E+03  0.31263896960E+03  0.11191761737E+04  0.12699999809E+01 0.  1.
</event>
<event>
 5   0  0.4794967E-06  0.2197727E+04  0.7818609E-02  0.8519375E-01
       -1   -1    0    0    0  501  0.00000000000E+00  0.00000000000E+00  0.73179015405E+03  0.73179015407E+03  0.50400001928E-02 0.  1.
        1   -1    0    0  501    0  0.00000000000E+00  0.00000000000E+00 -0.16500651495E+04  0.16500651495E+04  0.50400001928E-02 0. -1.
    10030    2    1    2    0    0  0.00000000000E+00  0.00000000000E+00 -0.91827499546E+03  0.23818553036E+04  0.21977273989E+04 0.  0.
        5    1    3    3  502    0 -0.33890142594E+03  0.51157331427E+03  0.52877985000E+03  0.81005657342E+03  0.46999998093E+01 0.  1.
       -5    1    3    3    0  502  0.33890142594E+03 -0.51157331427E+03 -0.14470548455E+04  0.15717987302E+04  0.46999998093E+01 0. -1.
</event>
<event>
 5   0  0.4408787E-06  0.2202026E+04  0.7818609E-02  0.8517585E-01
       -1   -1    0    0    0  501  0.00000000000E+00  0.00000000000E+00  0.11287357499E+04  0.11287357499E+04  0.50400001928E-02 0. -1.
        1   -1    0    0  501    0  0.00000000000E+00  0.00000000000E+00 -0.10739715614E+04  0.10739715614E+04  0.50400001928E-02 0.  1.
    10030    2    1    2    0    0  0.00000000000E+00  0.00000000000E+00  0.54764188483E+02  0.22027073113E+04  0.22020264265E+04 0.  0.
        1    1    3    3  502    0  0.68414832788E+03  0.69072506241E+03 -0.48956590643E+03  0.10885011820E+04  0.50400001928E-02 0.  1.
       -1    1    3    3    0  502 -0.68414832788E+03 -0.69072506241E+03  0.54433009492E+03  0.11142061293E+04  0.50400001928E-02 0. -1.
</event>
<event>
 5   0  0.4462201E-06  0.2201351E+04  0.7818609E-02  0.8517866E-01
       -1   -1    0    0    0  501  0.00000000000E+00  0.00000000000E+00  0.93724978881E+03  0.93724978882E+03  0.50400001928E-02 0.  1.
        1   -1    0    0  501    0  0.00000000000E+00  0.00000000000E+00 -0.12925969201E+04  0.12925969202E+04  0.50400001928E-02 0. -1.
    10030    2    1    2    0    0  0.00000000000E+00  0.00000000000E+00 -0.35534713134E+03  0.22298467090E+04  0.22013506676E+04 0.  0.
        3    1    3    3  502    0  0.22712722406E+02 -0.21096663869E+03  0.91633654362E+03  0.94058251194E+03  0.10100000352E+00 0.  1.
       -3    1    3    3    0  502 -0.22712722406E+02  0.21096663869E+03 -0.12716836750E+04  0.12892641970E+04  0.10100000352E+00 0. -1.
</event>
<event>
 5   0  0.1035928E-05  0.2198105E+04  0.7818609E-02  0.8519217E-01
       -2   -1    0    0    0  501  0.00000000000E+00  0.00000000000E+00  0.20557284632E+04  0.20557284633E+04  0.25500000920E-02 0. -1.
        2   -1    0    0  501    0  0.00000000000E+00  0.00000000000E+00 -0.58758546472E+03  0.58758546472E+03  0.25500000920E-02 0.  1.
    10030    2    1    2    0    0  0.00000000000E+00  0.00000000000E+00  0.14681429985E+04  0.26433139280E+04  0.21981047877E+04 0.  0.
        3    1    3    3  502    0 -0.66349096212E+03  0.65532092963E+02 -0.31662392315E+03  0.73808226570E+03  0.10100000352E+00 0.  1.
       -3    1    3    3    0  502  0.66349096212E+03 -0.65532092963E+02  0.17847669217E+04  0.19052316623E+04  0.10100000352E+00 0. -1.
</event>
<event>
 5   0  0.1014015E-05  0.2202770E+04  0.7818609E-02  0.8517276E-01
        2   -1    0    0  501    0  0.00000000000E+00  0.00000000000E+00  0.12718747578E+04  0.12718747579E+04  0.25500000920E-02 0. -1.
       -2   -1    0    0    0  501  0.00000000000E+00  0.00000000000E+00 -0.95374907485E+03  0.95374907485E+03  0.25500000920E-02 0.  1.
    10030    2    1    2    0    0  0.00000000000E+00  0.00000000000E+00  0.31812568300E+03  0.22256238327E+04  0.22027704135E+04 0.  0.
        1    1    3    3  502    0 -0.58225046126E+03 -0.83314362932E+03 -0.26949032559E+03  0.10515554870E+04  0.50400001928E-02 0.  1.
       -1    1    3    3    0  502  0.58225046126E+03  0.83314362932E+03  0.58761600859E+03  0.11740683457E+04  0.50400001928E-02 0. -1.
</event>
<event>
 5   0  0.3546750E-06  0.2199592E+04  0.7818609E-02  0.8518598E-01
        3   -1    0    0  501    0  0.00000000000E+00  0.00000000000E+00  0.23988884595E+04  0.23988884616E+04  0.10100000352E+00 0. -1.
       -3   -1    0    0    0  501  0.00000000000E+00  0.00000000000E+00 -0.50421339009E+03  0.50421340021E+03  0.10100000352E+00 0.  1.
    10030    2    1    2    0    0  0.00000000000E+00  0.00000000000E+00  0.18946750694E+04  0.29031018618E+04  0.21995924171E+04 0.  0.
        4    1    3    3  502    0  0.43675416857E+03 -0.69875008956E+03  0.19086860157E+04  0.20789636386E+04  0.12699999809E+01 0. -1.
       -4    1    3    3    0  502 -0.43675416857E+03  0.69875008956E+03 -0.14010946267E+02  0.82413822320E+03  0.12699999809E+01 0.  1.
</event>
<event>
 5   0  0.9963173E-06  0.2198482E+04  0.7818609E-02  0.8519060E-01
        2   -1    0    0  501    0  0.00000000000E+00  0.00000000000E+00  0.18022759042E+04  0.18022759042E+04  0.25500000920E-02 0.  1.
       -2   -1    0    0    0  501  0.00000000000E+00  0.00000000000E+00 -0.67044704799E+03  0.67044704799E+03  0.25500000920E-02 0. -1.
    10030    2    1    2    0    0  0.00000000000E+00  0.00000000000E+00  0.11318288562E+04  0.24727229522E+04  0.21984818031E+04 0.  0.
        4    1    3    3  502    0  0.29709828262E+03  0.59739651755E+03  0.15484895832E+04  0.16861113815E+04  0.12699999809E+01 0.  1.
       -4    1    3    3    0  502 -0.29709828262E+03 -0.59739651755E+03 -0.41666072702E+03  0.78661157064E+03  0.12699999809E+01 0. -1.
</event>
<event>
 5   0  0.4630615E-06  0.2195710E+04  0.7818609E-02  0.8520216E-01
        1   -1    0    0  501    0  0.00000000000E+00  0.00000000000E+00  0.16298330703E+04  0.16298330704E+04  0.50400001928E-02 0.  1.
       -1   -1    0    0    0  501  0.00000000000E+00  0.00000000000E+00 -0.73951492953E+03  0.73951492955E+03  0.50400001928E-02 0. -1.
    10030    2    1    2    0    0  0.00000000000E+00  0.00000000000E+00  0.89031814082E+03  0.23693479999E+04  0.21957102616E+04 0.  0.
        2    1    3    3  502    0  0.49046841111E+03 -0.95091521013E+02 -0.60974029413E+03  0.78827970033E+03  0.25500000920E-02 0. -1.
       -2    1    3    3    0  502 -0.49046841111E+03  0.95091521013E+02  0.15000584349E+04  0.15810682996E+04  0.25500000920E-02 0.  1.
</event>
<event>
 5   0  0.1015876E-05  0.2199833E+04  0.7818609E-02  0.8518498E-01
        2   -1    0    0  501    0  0.00000000000E+00  0.00000000000E+00  0.11341142140E+04  0.11341142140E+04  0.25500000920E-02 0.  1.
       -2   -1    0    0    0  501  0.00000000000E+00  0.00000000000E+00 -0.10667498840E+04  0.10667498840E+04  0.25500000920E-02 0. -1.
    10030    2    1    2    0    0  0.00000000000E+00  0.00000000000E+00  0.67364329933E+02  0.22008640980E+04  0.21998329084E+04 0.  0.
        5    1    3    3  502    0 -0.10449983764E+04  0.32672864703E+03  0.13871185302E+03  0.11036468111E+04  0.46999998093E+01 0.  1.
       -5    1    3    3    0  502  0.10449983764E+04 -0.32672864703E+03 -0.71347523086E+02  0.10972172869E+04  0.46999998093E+01 0. -1.
</event>
<event>
 5   0  0.1015876E-05  0.2199402E+04  0.7818609E-02  0.8518677E-01
       -2   -1    0    0    0  501  0.00000000000E+00  0.00000000000E+00  0.58813554796E+03  0.58813554796E+03  0.25500000920E-02 0. -1.
        2   -1    0    0  501    0  0.00000000000E+00  0.00000000000E+00 -0.20562313242E+04  0.20562313242E+04  0.25500000920E-02 0.  1.
    10030    2    1    2    0    0  0.00000000000E+00  0.00000000000E+00 -0.14680957762E+04  0.26443668722E+04  0.21994024066E+04 0.  0.
        5    1    3    3  502    0  0.68152880974E+03 -0.54934428580E+03 -0.15343395194E+04  0.17664881867E+04  0.46999998093E+01 0.  1.
       -5    1    3    3    0  502 -0.68152880974E+03  0.54934428580E+03  0.66243743208E+02  0.87787868545E+03  0.46999998093E+01 0. -1.
</event>
<event>
 5   0  0.1035928E-05  0.2196082E+04  0.7818609E-02  0.8520060E-01
       -2   -1    0    0    0  501  0.00000000000E+00  0.00000000000E+00  0.83671403301E+03  0.83671403301E+03  0.25500000920E-02 0.  1.
        2   -1    0    0  501    0  0.00000000000E+00  0.00000000000E+00 -0.14409876039E+04  0.14409876039E+04  0.25500000920E-02 0. -1.
    10030    2    1    2    0    0  0.00000000000E+00  0.00000000000E+00 -0.60427357093E+03  0.22777016370E+04  0.21960824662E+04 0.  0.
        3    1    3    3  502    0 -0.10085496363E+04  0.41036611043E+03 -0.15501334112E+03  0.10998190122E+04  0.10100000352E+00 0.  1.
       -3    1    3    3    0  502  0.10085496363E+04 -0.41036611043E+03 -0.44926022981E+03  0.11778826248E+04  0.10100000352E+00 0. -1.
</event>
<event>
 5   0  0.1015876E-05  0.2201684E+04  0.7818609E-02  0.8517728E-01
        2   -1    0    0  501    0  0.00000000000E+00  0.00000000000E+00  0.14035255380E+04  0.14035255380E+04  0.25500000920E-02 0. -1.
       -2   -1    0    0    0  501  0.00000000000E+00  0.00000000000E+00 -0.86343479884E+03  0.86343479884E+03  0.25500000920E-02 0.  1.
    10030    2    1    2    0    0  0.00000000000E+00  0.00000000000E+00  0.54009073912E+03  0.22669603368E+04  0.22016837107E+04 0.  0.
        5    1    3    3  502    0  0.21571977220E+03  0.47616387633E+03  0.12675636332E+04  0.13711333675E+04  0.46999998093E+01 0. -1.
       -5    1    3    3    0  502 -0.21571977220E+03 -0.47616387633E+03 -0.72747289411E+03  0.89582696929E+03  0.46999998093E+01 0.  1.
</event>
<event>
 5   0  0.9963573E-06  0.2202400E+04  0.7818609E-02  0.8517430E-01
       -2   -1    0    0    0  501  0.00000000000E+00  0.00000000000E+00  0.93595225338E+03  0.93595225338E+03  0.25500000920E-02 0.  1.
        2   -1    0    0  501    0  0.00000000000E+00  0.00000000000E+00 -0.12956228123E+04  0.12956228123E+04  0.25500000920E-02 0. -1.
    10030    2    1    2    0    0  0.00000000000E+00  0.00000000000E+00 -0.35967055889E+03  0.22315750656E+04  0.22023996828E+04 0.  0.
        2    1    3    3  502    0 -0.20619738437E+03  0.43290258899E+03 -0.11842892919E+04  0.12776788093E+04  0.25500000920E-02 0. -1.
       -2    1    3    3    0  502  0.20619738437E+03 -0.43290258899E+03  0.82461873304E+03  0.95389625629E+03  0.25500000920E-02 0.  1.
</event>
<event>
 5   0  0.1015876E-05  0.2198605E+04  0.7818609E-02  0.8519009E-01
       -2   -1    0    0    0  501  0.00000000000E+00  0.00000000000E+00  0.82236618231E+03  0.82236618231E+03  0.25500000920E-02 0. -1.
        2   -1    0    0  501    0  0.00000000000E+00  0.00000000000E+00 -0.14694984677E+04  0.14694984677E+04  0.25500000920E-02 0.  1.
    10030    2    1    2    0    0  0.00000000000E+00  0.00000000000E+00 -0.64713228544E+03  0.22918646501E+04  0.21986048711E+04 0.  0.
        5    1    3    3  502    0  0.90309132559E+03 -0.35987284017E+03 -0.85852182044E+03  0.12969827330E+04  0.46999998093E+01 0.  1.
       -5    1    3    3    0  502 -0.90309132559E+03  0.35987284017E+03  0.21138953500E+03  0.99488191709E+03  0.46999998093E+01 0. -1.
</event>
<event>
 5   0  0.9963573E-06  0.2199122E+04  0.7818609E-02  0.8518794E-01
        2   -1    0    0  501    0  0.00000000000E+00  0.00000000000E+00  0.72138595651E+03  0.72138595651E+03  0.25500000920E-02 0.  1.
       -2   -1    0    0    0  501  0.00000000000E+00  0.00000000000E+00 -0.16759882800E+04  0.16759882800E+04  0.25500000920E-02 0. -1.
    10030    2    1    2    0    0  0.00000000000E+00  0.00000000000E+00 -0.95460232345E+03  0.23973742365E+04  0.21991220143E+04 0.  0.
        2    1    3    3  502    0 -0.42277008446E+03  0.35041079118E+03 -0.15158160568E+04  0.16122098452E+04  0.25500000920E-02 0. -1.
       -2    1    3    3    0  502  0.42277008446E+03 -0.35041079118E+03  0.56121373332E+03  0.78516439130E+03  0.25500000920E-02 0.  1.
</event>
<event>
 5   0  0.9963173E-06  0.2198819E+04  0.7818609E-02  0.8518920E-01
       -2   -1    0    0    0  501  0.00000000000E+00  0.00000000000E+00  0.58657527617E+03  0.58657527618E+03  0.25500000920E-02 0.  1.
        2   -1    0    0  501    0  0.00000000000E+00  0.00000000000E+00 -0.20606067887E+04  0.20606067888E+04  0.25500000920E-02 0. -1.
    10030    2    1    2    0    0  0.00000000000E+00  0.00000000000E+00 -0.14740315126E+04  0.26471820649E+04  0.21988187703E+04 0.  0.
        4    1    3    3  502    0 -0.37569695571E+03 -0.67439084327E+03  0.20538448353E+03  0.79883390701E+03  0.12699999809E+01 0.  1.
       -4    1    3    3    0  502  0.37569695571E+03  0.67439084327E+03 -0.16794159961E+04  0.18483481579E+04  0.12699999809E+01 0. -1.
</event>
<event>
 5   0  0.1014015E-05  0.2202099E+04  0.7818609E-02  0.8517555E-01
        2   -1    0    0  501    0  0.00000000000E+00  0.00000000000E+00  0.19076889561E+04  0.19076889561E+04  0.25500000920E-02 0.  1.
       -2   -1    0    0    0  501  0.00000000000E+00  0.00000000000E+00 -0.63548604727E+03  0.63548604727E+03  0.25500000920E-02 0. -1.
    10030    2    1    2    0    0  0.00000000000E+00  0.00000000000E+00  0.12722029089E+04  0.25431750034E+04  0.22020987391E+04 0.  0.
        1    1    3    3  502    0  0.50374130945E+02 -0.10109754578E+04  0.13575306939E+03  0.10212922330E+04  0.50400001928E-02 0. -1.
       -1    1    3    3    0  502 -0.50374130945E+02  0.10109754578E+04  0.11364498395E+04  0.15218827704E+04  0.50400001928E-02 0.  1.
</event>
<event>
 5   0  0.4408787E-06  0.2199200E+04  0.7818609E-02  0.8518761E-01
       -1   -1    0    0    0  501  0.00000000000E+00  0.00000000000E+00  0.22996720470E+04  0.22996720470E+04  0.50400001928E-02 0. -1.
        1   -1    0    0  501    0  0.00000000000E+00  0.00000000000E+00 -0.52577922918E+03  0.52577922920E+03  0.50400001928E-02 0.  1.
    10030    2    1    2    0    0  0.00000000000E+00  0.00000000000E+00  0.17738928178E+04  0.28254512762E+04  0.21991996692E+04 0.  0.
        1    1    3    3  502    0 -0.76365243538E+03 -0.73001905181E+03  0.49508948539E+03  0.11667075283E+04  0.50400001928E-02 0.  1.
       -1    1    3    3    0  502  0.76365243538E+03  0.73001905181E+03  0.12788033324E+04  0.16587437479E+04  0.50400001928E-02 0. -1.
</event>
<event>
 5   0  0.4794967E-06  0.2216094E+04  0.7818609E-02  0.8511759E-01
       -1   -1    0    0    0  501  0.00000000000E+00  0.00000000000E+00  0.10443482548E+04  0.10443482548E+04  0.50400001928E-02 0.  1.
        1   -1    0    0  501    0  0.00000000000E+00  0.00000000000E+00 -0.11756313429E+04  0.11756313429E+04  0.50400001928E-02 0. -1.
    10030    2    1    2    0    0  0.00000000000E+00  0.00000000000E+00 -0.13128308811E+03  0.22199795977E+04  0.22160943493E+04 0.  0.
        5    1    3    3  502    0  0.19847976837E+03  0.10225056079E+04  0.31295558679E+03  0.10876006739E+04  0.46999998093E+01 0. -1.
       -5    1    3    3    0  502 -0.19847976837E+03 -0.10225056079E+04 -0.44423867490E+03  0.11323789237E+04  0.46999998093E+01 0.  1.
</event>
<event>
 5   0  0.4630615E-06  0.2200630E+04  0.7818609E-02  0.8518166E-01
        1   -1    0    0  501    0  0.00000000000E+00  0.00000000000E+00  0.92463247968E+03  0.92463247969E+03  0.50400001928E-02 0. -1.
       -1   -1    0    0    0  501  0.00000000000E+00  0.00000000000E+00 -0.13093780553E+04  0.13093780553E+04  0.50400001928E-02 0.  1.
    10030    2    1    2    0    0  0.00000000000E+00  0.00000000000E+00 -0.38474557564E+03  0.22340105350E+04  0.22006303444E+04 0.  0.
        2    1    3    3  502    0  0.35094483907E+03  0.18143583907E+03 -0.12348930925E+04  0.12965501123E+04  0.25500000920E-02 0.  1.
       -2    1    3    3    0  502 -0.35094483907E+03 -0.18143583907E+03  0.85014751686E+03  0.93746042274E+03  0.25500000920E-02 0. -1.
</event>
<event>
 5   0  0.4794967E-06  0.2203172E+04  0.7818609E-02  0.8517109E-01
        1   -1    0    0  501    0  0.00000000000E+00  0.00000000000E+00  0.13740048213E+04  0.13740048213E+04  0.50400001928E-02 0.  1.
       -1   -1    0    0    0  501  0.00000000000E+00  0.00000000000E+00 -0.88317845532E+03  0.88317845533E+03  0.50400001928E-02 0. -1.
    10030    2    1    2    0    0  0.00000000000E+00  0.00000000000E+00  0.49082636594E+03  0.22571832766E+04  0.22031717642E+04 0.  0.
        5    1    3    3  502    0  0.82293847257E+03 -0.72070270739E+03  0.37832107348E+03  0.11574925688E+04  0.46999998093E+01 0. -1.
       -5    1    3    3    0  502 -0.82293847257E+03  0.72070270739E+03  0.11250529247E+03  0.10996907078E+04  0.46999998093E+01 0.  1.
</event>
<event>
 5   0  0.1014015E-05  0.2238819E+04  0.7818609E-02  0.8502442E-01
        2   -1    0    0  501    0  0.00000000000E+00  0.00000000000E+00  0.19355519161E+04  0.19355519161E+04  0.25500000920E-02 0.  1.
       -2   -1    0    0    0  501  0.00000000000E+00  0.00000000000E+00 -0.64740051375E+03  0.64740051376E+03  0.25500000920E-02 0. -1.
    10030    2    1    2    0    0  0.00000000000E+00  0.00000000000E+00  0.12881514024E+04  0.25829524299E+04  0.22388187108E+04 0.  0.
        1    1    3    3  502    0 -0.15370889948E+03  0.33028164020E+03 -0.57709740287E+03  0.68246157405E+03  0.50400001928E-02 0. -1.
       -1    1    3    3    0  502  0.15370889948E+03 -0.33028164020E+03  0.18652488052E+04  0.19004908558E+04  0.50400001928E-02 0.  1.
</event>
<event>
 5   0  0.9963173E-06  0.2182959E+04  0.7818609E-02  0.8525555E-01
       -2   -1    0    0    0  501  0.00000000000E+00  0.00000000000E+00  0.70320993697E+03  0.70320993698E+03  0.25500000920E-02 0. -1.
        2   -1    0    0  501    0  0.00000000000E+00  0.00000000000E+00 -0.16941276164E+04  0.16941276164E+04  0.25500000920E-02 0.  1.
    10030    2    1    2    0    0  0.00000000000E+00  0.00000000000E+00 -0.99091767940E+03  0.23973375534E+04  0.21829588859E+04 0.  0.
        4    1    3    3  502    0 -0.65757855932E+03 -0.82935268733E+03 -0.20264684294E+03  0.10776376003E+04  0.12699999809E+01 0. -1.
       -4    1    3    3    0  502  0.65757855932E+03  0.82935268733E+03 -0.78827083646E+03  0.13196999531E+04  0.12699999809E+01 0.  1.
</event>
<event>
 5   0  0.4309945E-06  0.2199696E+04  0.7818609E-02  0.8518555E-01
        1   -1    0    0  501    0  0.00000000000E+00  0.00000000000E+00  0.14110905758E+04  0.14110905758E+04  0.50400001928E-02 0. -1.
       -1   -1    0    0    0  501  0.00000000000E+00  0.00000000000E+00 -0.85725548696E+03  0.85725548698E+03  0.50400001928E-02 0.  1.
    10030    2    1    2    0    0  0.00000000000E+00  0.00000000000E+00  0.55383508879E+03  0.22683460627E+04  0.21996955596E+04 0.  0.
        4    1    3    3  502    0 -0.13023954329E+03 -0.49500875930E+03  0.12807811994E+04  0.13792744846E+04  0.12699999809E+01 0. -1.
       -4    1    3    3    0  502  0.13023954329E+03  0.49500875930E+03 -0.72694611057E+03  0.88907157810E+03  0.12699999809E+01 0.  1.
</event>
<event>
 5   0  0.4630615E-06  0.2200480E+04  0.7818609E-02  0.8518228E-01
        1   -1    0    0  501    0  0.00000000000E+00  0.00000000000E+00  0.86484454060E+03  0.86484454061E+03  0.50400001928E-02 0. -1.
       -1   -1    0    0    0  501  0.00000000000E+00  0.00000000000E+00 -0.13997062334E+04  0.13997062334E+04  0.50400001928E-02 0.  1.
    10030    2    1    2    0    0  0.00000000000E+00  0.00000000000E+00 -0.53486169277E+03  0.22645507740E+04  0.22004802152E+04 0.  0.
        2    1    3    3  502    0 -0.77416219087E+03  0.36815141226E+03 -0.97719739634E+03  0.12999143478E+04  0.25500000920E-02 0.  1.
       -2    1    3    3    0  502  0.77416219087E+03 -0.36815141226E+03  0.44233570356E+03  0.96463642622E+03  0.25500000920E-02 0. -1.
</event>
<event>
 5   0  0.4630615E-06  0.2199845E+04  0.7818609E-02  0.8518492E-01
       -1   -1    0    0    0  501  0.00000000000E+00  0.00000000000E+00  0.11334709818E+04  0.11334709819E+04  0.50400001928E-02 0. -1.
        1   -1    0    0  501    0  0.00000000000E+00  0.00000000000E+00 -0.10673673059E+04  0.10673673059E+04  0.50400001928E-02 0.  1.
    10030    2    1    2    0    0  0.00000000000E+00  0.00000000000E+00  0.66103675977E+02  0.22008382877E+04  0.21998453293E+04 0.  0.
        2    1    3    3  502    0 -0.85744937872E+03 -0.27904145250E+02 -0.65561327611E+03  0.10797346184E+04  0.25500000920E-02 0.  1.
       -2    1    3    3    0  502  0.85744937872E+03  0.27904145250E+02  0.72171695209E+03  0.11211036693E+04  0.25500000920E-02 0. -1.
</event>
<event>
 5   0  0.9963573E-06  0.2203026E+04  0.7818609E-02  0.8517170E-01
        2   -1    0    0  501    0  0.00000000000E+00  0.00000000000E+00  0.12652321743E+04  0.12652321743E+04  0.25500000920E-02 0.  1.
       -2   -1    0    0    0  501  0.00000000000E+00  0.00000000000E+00 -0.95897861388E+03  0.95897861389E+03  0.25500000920E-02 0. -1.
    10030    2    1    2    0    0  0.00000000000E+00  0.00000000000E+00  0.30625356046E+03  0.22242107882E+04  0.22030257346E+04 0.  0.
        2    1    3    3  502    0  0.17760017217E+02  0.58576631218E+03  0.10947763062E+04  0.12417619543E+04  0.25500000920E-02 0.  1.
       -2    1    3    3    0  502 -0.17760017217E+02 -0.58576631218E+03 -0.78852274571E+03  0.98244883389E+03  0.25500000920E-02 0. -1.
</event>
<event>
 5   0  0.4408787E-06  0.2147044E+04  0.7818609E-02  0.8540798E-01
        1   -1    0    0  501    0  0.00000000000E+00  0.00000000000E+00  0.71057741485E+03  0.71057741487E+03  0.50400001928E-02 0.  1.
       -1   -1    0    0    0  501  0.00000000000E+00  0.00000000000E+00 -0.16218497509E+04  0.16218497509E+04  0.50400001928E-02 0. -1.
    10030    2    1    2    0    0  0.00000000000E+00  0.00000000000E+00 -0.91127233604E+03  0.23324271658E+04  0.21470442970E+04 0.  0.
        1    1    3    3  502    0 -0.64985843782E+03 -0.63758855015E+03 -0.10736257821E+04  0.14076602816E+04  0.50400001928E-02 0. -1.
       -1    1    3    3    0  502  0.64985843782E+03  0.63758855015E+03  0.16235344608E+03  0.92476688412E+03  0.50400001928E-02 0.  1.
</event>
<event>
 5   0  0.4309945E-06  0.2198824E+04  0.7818609E-02  0.8518918E-01
        1   -1    0    0  501    0  0.00000000000E+00  0.00000000000E+00  0.16712324897E+04  0.16712324897E+04  0.50400001928E-02 0. -1.
       -1   -1    0    0    0  501  0.00000000000E+00  0.00000000000E+00 -0.72324281802E+03  0.72324281804E+03  0.50400001928E-02 0.  1.
    10030    2    1    2    0    0  0.00000000000E+00  0.00000000000E+00  0.94798967169E+03  0.23944753078E+04  0.21988241362E+04 0.  0.
        4    1    3    3  502    0 -0.33760676268E+03 -0.83839878517E+03  0.11556427066E+04  0.14671068562E+04  0.12699999809E+01 0. -1.
       -4    1    3    3    0  502  0.33760676268E+03  0.83839878517E+03 -0.20765303492E+03  0.92736845159E+03  0.12699999809E+01 0.  1.
</event>
<event>
 5   0  0.4462201E-06  0.2205104E+04  0.7818609E-02  0.8516307E-01
       -1   -1    0    0    0  501  0.00000000000E+00  0.00000000000E+00  0.71859765936E+03  0.71859765937E+03  0.50400001928E-02 0. -1.
        1   -1    0    0  501    0  0.00000000000E+00  0.00000000000E+00 -0.16916567176E+04  0.16916567177E+04  0.50400001928E-02 0.  1.
    10030    2    1    2    0    0  0.00000000000E+00  0.00000000000E+00 -0.97305905829E+03  0.24102543770E+04  0.22051036781E+04 0.  0.
        3    1    3    3  502    0  0.59528759982E+03  0.89633222661E+03 -0.74940775701E+03  0.13112554227E+04  0.10100000352E+00 0. -1.
       -3    1    3    3    0  502 -0.59528759982E+03 -0.89633222661E+03 -0.22365130128E+03  0.10989989544E+04  0.10100000352E+00 0.  1.
</event>
<event>
 5   0  0.4309945E-06  0.2199433E+04  0.7818609E-02  0.8518664E-01
        1   -1    0    0  501    0  0.00000000000E+00  0.00000000000E+00  0.18029585472E+04  0.18029585472E+04  0.50400001928E-02 0.  1.
       -1   -1    0    0    0  501  0.00000000000E+00  0.00000000000E+00 -0.67077328133E+03  0.67077328135E+03  0.50400001928E-02 0. -1.
    10030    2    1    2    0    0  0.00000000000E+00  0.00000000000E+00  0.11321852658E+04  0.24737318285E+04  0.21994330368E+04 0.  0.
        4    1    3    3  502    0  0.15232694733E+03  0.49579175470E+02 -0.65757964369E+03  0.67681178641E+03  0.12699999809E+01 0. -1.
       -4    1    3    3    0  502 -0.15232694733E+03 -0.49579175470E+02  0.17897649095E+04  0.17969200421E+04  0.12699999809E+01 0.  1.
</event>
<event>
 5   0  0.9963173E-06  0.2203600E+04  0.7818609E-02  0.8516931E-01
       -2   -1    0    0    0  501  0.00000000000E+00  0.00000000000E+00  0.71849360892E+03  0.71849360892E+03  0.25500000920E-02 0. -1.
        2   -1    0    0  501    0  0.00000000000E+00  0.00000000000E+00 -0.16895947901E+04  0.16895947901E+04  0.25500000920E-02 0.  1.
    10030    2    1    2    0    0  0.00000000000E+00  0.00000000000E+00 -0.97110118118E+03  0.24080883990E+04  0.22035998351E+04 0.  0.
        4    1    3    3  502    0 -0.13524579821E+02 -0.42810815535E+03 -0.15948891295E+04  0.16514031776E+04  0.12699999809E+01 0.  1.
       -4    1    3    3    0  502  0.13524579821E+02  0.42810815535E+03  0.62378794829E+03  0.75668522139E+03  0.12699999809E+01 0. -1.
</event>
<event>
 5   0  0.9963573E-06  0.2201881E+04  0.7818609E-02  0.8517646E-01
       -2   -1    0    0    0  501  0.00000000000E+00  0.00000000000E+00  0.75027123263E+03  0.75027123264E+03  0.25500000920E-02 0.  1.
        2   -1    0    0  501    0  0.00000000000E+00  0.00000000000E+00 -0.16155086607E+04  0.16155086607E+04  0.25500000920E-02 0. -1.
    10030    2    1    2    0    0  0.00000000000E+00  0.00000000000E+00 -0.86523742805E+03  0.23657798933E+04  0.22018807181E+04 0.  0.
        2    1    3    3  502    0 -0.10744507065E+04 -0.15048241771E+03 -0.63357097879E+03  0.12563842820E+04  0.25500000920E-02 0. -1.
       -2    1    3    3    0  502  0.10744507065E+04  0.15048241771E+03 -0.23166644926E+03  0.11093956114E+04  0.25500000920E-02 0.  1.
</event>
<event>
 5   0  0.1015876E-05  0.2208682E+04  0.7818609E-02  0.8514823E-01
        2   -1    0    0  501    0  0.00000000000E+00  0.00000000000E+00  0.84933166270E+03  0.84933166271E+03  0.25500000920E-02 0.  1.
       -2   -1    0    0    0  501  0.00000000000E+00  0.00000000000E+00 -0.14359162400E+04  0.14359162400E+04  0.25500000920E-02 0. -1.
    10030    2    1    2    0    0  0.00000000000E+00  0.00000000000E+00 -0.58658457734E+03  0.22852479027E+04  0.22086820755E+04 0.  0.
        5    1    3    3  502    0 -0.59558520336E+03  0.87366843823E+03  0.36389274222E+02  0.10580002569E+04  0.46999998093E+01 0.  1.
       -5    1    3    3    0  502  0.59558520336E+03 -0.87366843823E+03 -0.62297385156E+03  0.12272476458E+04  0.46999998093E+01 0. -1.
</event>
<event>
 5   0  0.1035928E-05  0.2190002E+04  0.7818609E-02  0.8522601E-01
       -2   -1    0    0    0  501  0.00000000000E+00  0.00000000000E+00  0.11254272932E+04  0.11254272932E+04  0.25500000920E-02 0.  1.
        2   -1    0    0  501    0  0.00000000000E+00  0.00000000000E+00 -0.10653975214E+04  0.10653975214E+04  0.25500000920E-02 0. -1.
    10030    2    1    2    0    0  0.00000000000E+00  0.00000000000E+00  0.60029771778E+02  0.21908248145E+04  0.21900022362E+04 0.  0.
        3    1    3    3  502    0 -0.87265567273E+03  0.37317871256E+03  0.57633095309E+03  0.11103817597E+04  0.10100000352E+00 0.  1.
       -3    1    3    3    0  502  0.87265567273E+03 -0.37317871256E+03 -0.51630118132E+03  0.10804430548E+04  0.10100000352E+00 0. -1.
</event>
<event>
 5   0  0.1014015E-05  0.2200933E+04  0.7818609E-02  0.8518040E-01
        2   -1    0    0  501    0  0.00000000000E+00  0.00000000000E+00  0.10726412820E+04  0.10726412820E+04  0.25500000920E-02 0.  1.
       -2   -1    0    0    0  501  0.00000000000E+00  0.00000000000E+00 -0.11290137078E+04  0.11290137078E+04  0.25500000920E-02 0. -1.
    10030    2    1    2    0    0  0.00000000000E+00  0.00000000000E+00 -0.56372425817E+02  0.22016549898E+04  0.22009331757E+04 0.  0.
        1    1    3    3  502    0 -0.41830933779E+02  0.91390062804E+03  0.58362088086E+03  0.10851624383E+04  0.50400001928E-02 0.  1.
       -1    1    3    3    0  502  0.41830933779E+02 -0.91390062804E+03 -0.63999330668E+03  0.11164925515E+04  0.50400001928E-02 0. -1.
</event>
<event>
 5   0  0.4462201E-06  0.2205594E+04  0.7818609E-02  0.8516103E-01
       -1   -1    0    0    0  501  0.00000000000E+00  0.00000000000E+00  0.10021924382E+04  0.10021924382E+04  0.50400001928E-02 0.  1.
        1   -1    0    0  501    0  0.00000000000E+00  0.00000000000E+00 -0.12135009698E+04  0.12135009698E+04  0.50400001928E-02 0. -1.
    10030    2    1    2    0    0  0.00000000000E+00  0.00000000000E+00 -0.21130853158E+03  0.22156934080E+04  0.22055942471E+04 0.  0.
        3    1    3    3  502    0  0.61675472540E+03  0.32171652174E+03 -0.96530240240E+03  0.11898305131E+04  0.10100000352E+00 0. -1.
       -3    1    3    3    0  502 -0.61675472540E+03 -0.32171652174E+03  0.75399387081E+03  0.10258628949E+04  0.10100000352E+00 0.  1.
</event>
<event>
 5   0  0.4462201E-06  0.2199299E+04  0.7818609E-02  0.8518720E-01
       -1   -1    0    0    0  501  0.00000000000E+00  0.00000000000E+00  0.90323927357E+03  0.90323927358E+03  0.50400001928E-02 0.  1.
        1   -1    0    0  501    0  0.00000000000E+00  0.00000000000E+00 -0.13387694577E+04  0.13387694577E+04  0.50400001928E-02 0. -1.
    10030    2    1    2    0    0  0.00000000000E+00  0.00000000000E+00 -0.43553018416E+03  0.22420087313E+04  0.21992991179E+04 0.  0.
        3    1    3    3  502    0 -0.25122567436E+03  0.99571834004E+03  0.18314012497E+03  0.10431249531E+04  0.10100000352E+00 0.  1.
       -3    1    3    3    0  502  0.25122567436E+03 -0.99571834004E+03 -0.61867030913E+03  0.11988837782E+04  0.10100000352E+00 0. -1.
</event>
<event>
 5   0  0.1015876E-05  0.2204595E+04  0.7818609E-02  0.8516518E-01
        2   -1    0    0  501    0  0.00000000000E+00  0.00000000000E+00  0.18217960958E+04  0.18217960958E+04  0.25500000920E-02 0. -1.
       -2   -1    0    0    0  501  0.00000000000E+00  0.00000000000E+00 -0.66695686575E+03  0.66695686575E+03  0.25500000920E-02 0.  1.
    10030    2    1    2    0    0  0.00000000000E+00  0.00000000000E+00  0.11548392300E+04  0.24887529615E+04  0.22045946694E+04 0.  0.
        5    1    3    3  502    0 -0.13930323076E+03 -0.10924898473E+04  0.62912574957E+03  0.12683693292E+04  0.46999998093E+01 0.  1.
       -5    1    3    3    0  502  0.13930323076E+03  0.10924898473E+04  0.52571348045E+03  0.12203836323E+04  0.46999998093E+01 0. -1.
</event>
<event>
 5   0  0.4309945E-06  0.2197530E+04  0.7818609E-02  0.8519457E-01
       -1   -1    0    0    0  501  0.00000000000E+00  0.00000000000E+00  0.84741914036E+03  0.84741914037E+03  0.50400001928E-02 0. -1.
        1   -1    0    0  501    0  0.00000000000E+00  0.00000000000E+00 -0.14246607012E+04  0.14246607012E+04  0.50400001928E-02 0.  1.
    10030    2    1    2    0    0  0.00000000000E+00  0.00000000000E+00 -0.57724156087E+03  0.22720798416E+04  0.21975302016E+04 0.  0.
        4    1    3    3  502    0 -0.80147682664E+02  0.56538525680E+03  0.68194669237E+03  0.88945884884E+03  0.12699999809E+01 0. -1.
       -4    1    3    3    0  502  0.80147682664E+02 -0.56538525680E+03 -0.12591882532E+04  0.13826209928E+04  0.12699999809E+01 0.  1.
</event>
<event>
 5   0  0.1014015E-05  0.2198679E+04  0.7818609E-02  0.8518978E-01
        2   -1    0    0  501    0  0.00000000000E+00  0.00000000000E+00  0.14118537037E+04  0.14118537037E+04  0.25500000920E-02 0. -1.
       -2   -1    0    0    0  501  0.00000000000E+00  0.00000000000E+00 -0.85600044890E+03  0.85600044890E+03  0.25500000920E-02 0.  1.
    10030    2    1    2    0    0  0.00000000000E+00  0.00000000000E+00  0.55585325478E+03  0.22678541526E+04  0.21986790617E+04 0.  0.
        1    1    3    3  502    0  0.10016930681E+04 -0.17008432709E+03 -0.15507832169E+03  0.10277971428E+04  0.50400001928E-02 0.  1.
       -1    1    3    3    0  502 -0.10016930681E+04  0.17008432709E+03  0.71093157647E+03  0.12400570097E+04  0.50400001928E-02 0. -1.
</event>
<event>
 5   0  0.1035928E-05  0.2197461E+04  0.7818609E-02  0.8519486E-01
        2   -1    0    0  501    0  0.00000000000E+00  0.00000000000E+00  0.16380400891E+04  0.16380400891E+04  0.25500000920E-02 0. -1.
       -2   -1    0    0    0  501  0.00000000000E+00  0.00000000000E+00 -0.73698358164E+03  0.73698358165E+03  0.25500000920E-02 0.  1.
    10030    2    1    2    0    0  0.00000000000E+00  0.00000000000E+00  0.90105650749E+03  0.23750236708E+04  0.21974609455E+04 0.  0.
        3    1    3    3  502    0  0.90088353527E+03 -0.22242387302E+03 -0.18535279609E+03  0.94626592067E+03  0.10100000352E+00 0.  1.
       -3    1    3    3    0  502 -0.90088353527E+03  0.22242387302E+03  0.10864093036E+04  0.14287577501E+04  0.10100000352E+00 0. -1.
</event>
<event>
 5   0  0.4408787E-06  0.2202106E+04  0.7818609E-02  0.8517552E-01
       -1   -1    0    0    0  501  0.00000000000E+00  0.00000000000E+00  0.78209910908E+03  0.78209910910E+03  0.50400001928E-02 0.  1.
        1   -1    0    0  501    0  0.00000000000E+00  0.00000000000E+00 -0.15500816331E+04  0.15500816331E+04  0.50400001928E-02 0. -1.
    10030    2    1    2    0    0  0.00000000000E+00  0.00000000000E+00 -0.76798252400E+03  0.23321807422E+04  0.22021057779E+04 0.  0.
        1    1    3    3  502    0 -0.66307630627E+03  0.87860533588E+03 -0.35597214444E+03  0.11568637309E+04  0.50400001928E-02 0. -1.
       -1    1    3    3    0  502  0.66307630627E+03 -0.87860533588E+03 -0.41201037956E+03  0.11753170113E+04  0.50400001928E-02 0.  1.
</event>
<event>
 5   0  0.1035928E-05  0.2203246E+04  0.7818609E-02  0.8517078E-01
        2   -1    0    0  501    0  0.00000000000E+00  0.00000000000E+00  0.83558671183E+03  0.83558671184E+03  0.25500000920E-02 0.  1.
       -2   -1    0    0    0  501  0.00000000000E+00  0.00000000000E+00 -0.14523605993E+04  0.14523605993E+04  0.25500000920E-02 0. -1.
    10030    2    1    2    0    0  0.00000000000E+00  0.00000000000E+00 -0.61677388747E+03  0.22879473111E+04  0.22032459850E+04 0.  0.
        3    1    3    3  502    0  0.95886140602E+03 -0.19698979605E+03 -0.83313826497E+03  0.12854336056E+04  0.10100000352E+00 0. -1.
       -3    1    3    3    0  502 -0.95886140602E+03  0.19698979605E+03  0.21636437750E+03  0.10025137055E+04  0.10100000352E+00 0.  1.
</event>
<event>
 5   0  0.1014015E-05  0.2197062E+04  0.7818609E-02  0.8519652E-01
       -2   -1    0    0    0  501  0.00000000000E+00  0.00000000000E+00  0.61595049439E+03  0.61595049439E+03  0.25500000920E-02 0. -1.
        2   -1    0    0  501    0  0.00000000000E+00  0.00000000000E+00 -0.19592010253E+04  0.19592010253E+04  0.25500000920E-02 0.  1.
    10030    2    1    2    0    0  0.00000000000E+00  0.00000000000E+00 -0.13432505309E+04  0.25751515197E+04  0.21970624389E+04 0.  0.
        1    1    3    3  502    0  0.45483334800E+03  0.62887666984E+03 -0.15828526935E+04  0.17628902091E+04  0.50400001928E-02 0.  1.
       -1    1    3    3    0  502 -0.45483334800E+03 -0.62887666984E+03  0.23960216253E+03  0.81226131056E+03  0.50400001928E-02 0. -1.
</event>
<event>
 5   0  0.4630615E-06  0.2198757E+04  0.7818609E-02  0.8518946E-01
        1   -1    0    0  501    0  0.00000000000E+00  0.00000000000E+00  0.12285997868E+04  0.12285997868E+04  0.50400001928E-02 0. -1.
       -1   -1    0    0    0  501  0.00000000000E+00  0.00000000000E+00 -0.98374811834E+03  0.98374811835E+03  0.50400001928E-02 0.  1.
    10030    2    1    2    0    0  0.00000000000E+00  0.00000000000E+00  0.24485166847E+03  0.22123479052E+04  0.21987566746E+04 0.  0.
        2    1    3    3  502    0  0.36313809105E+03 -0.80857367552E+03  0.77680896652E+03  0.11785978247E+04  0.25500000920E-02 0. -1.
       -2    1    3    3    0  502 -0.36313809105E+03  0.80857367552E+03 -0.53195729805E+03  0.10337500805E+04  0.25500000920E-02 0.  1.
</event>
<event>
 5   0  0.9963173E-06  0.2199908E+04  0.7818609E-02  0.8518467E-01
        2   -1    0    0  501    0  0.00000000000E+00  0.00000000000E+00  0.96458013383E+03  0.96458013383E+03  0.25500000920E-02 0.  1.
       -2   -1    0    0    0  501  0.00000000000E+00  0.00000000000E+00 -0.12543264911E+04  0.12543264912E+04  0.25500000920E-02 0. -1.
    10030    2    1    2    0    0  0.00000000000E+00  0.00000000000E+00 -0.28974635732E+03  0.22189066250E+04  0.21999076478E+04 0.  0.
        4    1    3    3  502    0  0.53257016889E+03 -0.72289720859E+03 -0.78572278474E+03  0.11931358960E+04  0.12699999809E+01 0. -1.
       -4    1    3    3    0  502 -0.53257016889E+03  0.72289720859E+03  0.49597642742E+03  0.10257707290E+04  0.12699999809E+01 0.  1.
</event>
<event>
 5   0  0.9963573E-06  0.2216755E+04  0.7818609E-02  0.8511487E-01
       -2   -1    0    0    0  501  0.00000000000E+00  0.00000000000E+00  0.14125011640E+04  0.14125011640E+04  0.25500000920E-02 0.  1.
        2   -1    0    0  501    0  0.00000000000E+00  0.00000000000E+00 -0.86973423925E+03  0.86973423925E+03  0.25500000920E-02 0. -1.
    10030    2    1    2    0    0  0.00000000000E+00  0.00000000000E+00  0.54276692476E+03  0.22822354033E+04  0.22167549484E+04 0.  0.
        2    1    3    3  502    0  0.58027827593E+03 -0.81608039701E+03 -0.21782686469E+03  0.10247724796E+04  0.25500000920E-02 0. -1.
       -2    1    3    3    0  502 -0.58027827593E+03  0.81608039701E+03  0.76059378945E+03  0.12574629237E+04  0.25500000920E-02 0.  1.
</event>
<event>
 5   0  0.4462201E-06  0.2196553E+04  0.7818609E-02  0.8519864E-01
       -1   -1    0    0    0  501  0.00000000000E+00  0.00000000000E+00  0.79445414593E+03  0.79445414594E+03  0.50400001928E-02 0. -1.
        1   -1    0    0  501    0  0.00000000000E+00  0.00000000000E+00 -0.15182896536E+04  0.15182896536E+04  0.50400001928E-02 0.  1.
    10030    2    1    2    0    0  0.00000000000E+00  0.00000000000E+00 -0.72383550764E+03  0.23127437995E+04  0.21965532181E+04 0.  0.
        3    1    3    3  502    0  0.58011193766E+03 -0.70711848692E+03  0.27824442491E+03  0.95601589158E+03  0.10100000352E+00 0. -1.
       -3    1    3    3    0  502 -0.58011193766E+03  0.70711848692E+03 -0.10020799325E+04  0.13567279079E+04  0.10100000352E+00 0.  1.
</event>
<event>
 5   0  0.4309945E-06  0.2198064E+04  0.7818609E-02  0.8519234E-01
        1   -1    0    0  501    0  0.00000000000E+00  0.00000000000E+00  0.16732602042E+04  0.16732602042E+04  0.50400001928E-02 0.  1.
       -1   -1    0    0    0  501  0.00000000000E+00  0.00000000000E+00 -0.72186711545E+03  0.72186711547E+03  0.50400001928E-02 0. -1.
    10030    2    1    2    0    0  0.00000000000E+00  0.00000000000E+00  0.95139308871E+03  0.23951273196E+04  0.21980641638E+04 0.  0.
        4    1    3    3  502    0 -0.32187368852E+03 -0.89582142621E+03  0.10742833467E+04  0.14353344631E+04  0.12699999809E+01 0.  1.
       -4    1    3    3    0  502  0.32187368852E+03  0.89582142621E+03 -0.12289025804E+03  0.95979285652E+03  0.12699999809E+01 0. -1.
</event>
<event>
 5   0  0.4794967E-06  0.2200239E+04  0.7818609E-02  0.8518329E-01
        1   -1    0    0  501    0  0.00000000000E+00  0.00000000000E+00  0.18219428419E+04  0.18219428419E+04  0.50400001928E-02 0. -1.
       -1   -1    0    0    0  501  0.00000000000E+00  0.00000000000E+00 -0.66427045629E+03  0.66427045631E+03  0.50400001928E-02 0.  1.
    10030    2    1    2    0    0  0.00000000000E+00  0.00000000000E+00  0.11576723856E+04  0.24862132982E+04  0.22002388988E+04 0.  0.
        5    1    3    3  502    0 -0.14288128338E+03  0.10369868192E+04  0.96116843403E+03  0.14211346076E+04  0.46999998093E+01 0. -1.
       -5    1    3    3    0  502  0.14288128338E+03 -0.10369868192E+04  0.19650395158E+03  0.10650786906E+04  0.46999998093E+01 0.  1.
</event>
<event>
 5   0  0.4309945E-06  0.2210434E+04  0.7818609E-02  0.8514098E-01
        1   -1    0    0  501    0  0.00000000000E+00  0.00000000000E+00  0.15756912278E+04  0.15756912278E+04  0.50400001928E-02 0.  1.
       -1   -1    0    0    0  501  0.00000000000E+00  0.00000000000E+00 -0.77521806835E+03  0.77521806836E+03  0.50400001928E-02 0. -1.
    10030    2    1    2    0    0  0.00000000000E+00  0.00000000000E+00  0.80047315949E+03  0.23509092962E+04  0.22104337221E+04 0.  0.
        4    1    3    3  502    0 -0.23760140979E+03  0.36905588260E+03  0.14790182714E+04  0.15427745573E+04  0.12699999809E+01 0.  1.
       -4    1    3    3    0  502  0.23760140979E+03 -0.36905588260E+03 -0.67854511195E+03  0.80813473893E+03  0.12699999809E+01 0. -1.
</event>
<event>
 5   0  0.4408787E-06  0.2201271E+04  0.7818609E-02  0.8517899E-01
       -1   -1    0    0    0  501  0.00000000000E+00  0.00000000000E+00  0.10017253197E+04  0.10017253197E+04  0.50400001928E-02 0.  1.
        1   -1    0    0  501    0  0.00000000000E+00  0.00000000000E+00 -0.12093125993E+04  0.12093125993E+04  0.50400001928E-02 0. -1.
    10030    2    1    2    0    0  0.00000000000E+00  0.00000000000E+00 -0.20758727955E+03  0.22110379190E+04  0.22012714964E+04 0.  0.
        1    1    3    3  502    0 -0.50054039884E+03  0.98023374394E+03 -0.10420352424E+03  0.11055574422E+04  0.50400001928E-02 0.  1.
       -1    1    3    3    0  502  0.50054039884E+03 -0.98023374394E+03 -0.10338375532E+03  0.11054804768E+04  0.50400001928E-02 0. -1.
</event>
<event>
 5   0  0.1015876E-05  0.2200109E+04  0.7818609E-02  0.8518383E-01
        2   -1    0    0  501    0  0.00000000000E+00  0.00000000000E+00  0.59969940384E+03  0.59969940384E+03  0.25500000920E-02 0. -1.
       -2   -1    0    0    0  501  0.00000000000E+00  0.00000000000E+00 -0.20178773403E+04  0.20178773403E+04  0.25500000920E-02 0.  1.
    10030    2    1    2    0    0  0.00000000000E+00  0.00000000000E+00 -0.14181779365E+04  0.26175767442E+04  0.22001089410E+04 0.  0.
        5    1    3    3  502    0 -0.63681588648E+02  0.23996340926E+02 -0.20153585827E+04  0.20165127016E+04  0.46999998093E+01 0.  1.
       -5    1    3    3    0  502  0.63681588648E+02 -0.23996340926E+02  0.59718064616E+03  0.60106404256E+03  0.46999998093E+01 0. -1.
</event>
<event>
 5   0  0.4309945E-06  0.2197569E+04  0.7818609E-02  0.8519441E-01
        1   -1    0    0  501    0  0.00000000000E+00  0.00000000000E+00  0.12962482403E+04  0.12962482403E+04  0.50400001928E-02 0. -1.
       -1   -1    0    0    0  501  0.00000000000E+00  0.00000000000E+00 -0.93140096489E+03  0.93140096490E+03  0.50400001928E-02 0.  1.
    10030    2    1    2    0    0  0.00000000000E+00  0.00000000000E+00  0.36484727537E+03  0.22276492052E+04  0.21975685307E+04 0.  0.
        4    1    3    3  502    0 -0.99304221076E+03  0.14113795587E+03  0.63719864421E+03  0.11883082428E+04  0.12699999809E+01 0. -1.
       -4    1    3    3    0  502  0.99304221076E+03 -0.14113795587E+03 -0.27235136885E+03  0.10393409623E+04  0.12699999809E+01 0.  1.
</event>
<event>
 5   0  0.3546750E-06  0.2201596E+04  0.7818609E-02  0.8517764E-01
        4   -1    0    0  501    0  0.00000000000E+00  0.00000000000E+00  0.13659045076E+04  0.13659050980E+04  0.12699999809E+01 0.  1.
       -4   -1    0    0    0  501  0.00000000000E+00  0.00000000000E+00 -0.88714435427E+03  0.88714526331E+03  0.12699999809E+01 0. -1.
    10030    2    1    2    0    0  0.00000000000E+00  0.00000000000E+00  0.47876015329E+03  0.22530503613E+04  0.22015959316E+04 0.  0.
        4    1    3    3  502    0 -0.34337415506E+03  0.79581679477E+03 -0.45509968270E+03  0.97895225384E+03  0.12699999809E+01 0. -1.
       -4    1    3    3    0  502  0.34337415506E+03 -0.79581679477E+03  0.93385983599E+03  0.12740981074E+04  0.12699999809E+01 0.  1.
</event>
<event>
 5   0  0.1035928E-05  0.2197901E+04  0.7818609E-02  0.8519302E-01
       -2   -1    0    0    0  501  0.00000000000E+00  0.00000000000E+00  0.13836364844E+04  0.13836364844E+04  0.25500000920E-02 0. -1.
        2   -1    0    0  501    0  0.00000000000E+00  0.00000000000E+00 -0.87283925899E+03  0.87283925899E+03  0.25500000920E-02 0.  1.
    10030    2    1    2    0    0  0.00000000000E+00  0.00000000000E+00  0.51079722537E+03  0.22564757433E+04  0.21979010385E+04 0.  0.
        3    1    3    3  502    0 -0.72059916837E+03 -0.77901317463E+02 -0.59266701348E+03  0.93626170262E+03  0.10100000352E+00 0.  1.
       -3    1    3    3    0  502  0.72059916837E+03  0.77901317463E+02  0.11034642388E+04  0.13202140407E+04  0.10100000352E+00 0. -1.
</event>
<event>
 5   0  0.1035928E-05  0.2202333E+04  0.7818609E-02  0.8517458E-01
       -2   -1    0    0    0  501  0.00000000000E+00  0.00000000000E+00  0.76241836547E+03  0.76241836547E+03  0.25500000920E-02 0.  1.
        2   -1    0    0  501    0  0.00000000000E+00  0.00000000000E+00 -0.15904223966E+04  0.15904223966E+04  0.25500000920E-02 0. -1.
    10030    2    1    2    0    0  0.00000000000E+00  0.00000000000E+00 -0.82800403117E+03  0.23528407621E+04  0.22023326216E+04 0.  0.
        3    1    3    3  502    0  0.78837766488E+03  0.43371743478E+03 -0.10921390485E+04  0.14150681493E+04  0.10100000352E+00 0. -1.
       -3    1    3    3    0  502 -0.78837766488E+03 -0.43371743478E+03  0.26413501736E+03  0.93777261279E+03  0.10100000352E+00 0.  1.
</event>
<event>
 5   0  0.4794967E-06  0.2186845E+04  0.7818609E-02  0.8523924E-01
       -1   -1    0    0    0  501  0.00000000000E+00  0.00000000000E+00  0.58648168921E+03  0.58648168923E+03  0.50400001928E-02 0. -1.
        1   -1    0    0  501    0  0.00000000000E+00  0.00000000000E+00 -0.20385507662E+04  0.20385507662E+04  0.50400001928E-02 0.  1.
    10030    2    1    2    0    0  0.00000000000E+00  0.00000000000E+00 -0.14520690770E+04  0.26250324555E+04  0.21868449391E+04 0.  0.
        5    1    3    3  502    0  0.85293002924E+02 -0.74479097572E+03 -0.16814918467E+04  0.18410392213E+04  0.46999998093E+01 0.  1.
       -5    1    3    3    0  502 -0.85293002924E+02  0.74479097572E+03  0.22942276973E+03  0.78399323411E+03  0.46999998093E+01 0. -1.
</event>
<event>
 5   0  0.1015876E-05  0.2197632E+04  0.7818609E-02  0.8519414E-01
       -2   -1    0    0    0  501  0.00000000000E+00  0.00000000000E+00  0.59224141138E+03  0.59224141138E+03  0.25500000920E-02 0.  1.
        2   -1    0    0  501    0  0.00000000000E+00  0.00000000000E+00 -0.20386896837E+04  0.20386896837E+04  0.25500000920E-02 0. -1.
    10030    2    1    2    0    0  0.00000000000E+00  0.00000000000E+00 -0.14464482723E+04  0.26309310951E+04  0.21976318669E+04 0.  0.
        5    1    3    3  502    0 -0.71308948224E+03  0.34203564154E+03  0.18999445438E+03  0.81339103293E+03  0.46999998093E+01 0.  1.
       -5    1    3    3    0  502  0.71308948224E+03 -0.34203564154E+03 -0.16364427267E+04  0.18175400621E+04  0.46999998093E+01 0. -1.
</event>
<event>
 5   0  0.1035928E-05  0.2203518E+04  0.7818609E-02  0.8516965E-01
        2   -1    0    0  501    0  0.00000000000E+00  0.00000000000E+00  0.10040118608E+04  0.10040118608E+04  0.25500000920E-02 0.  1.
       -2   -1    0    0    0  501  0.00000000000E+00  0.00000000000E+00 -0.12090225673E+04  0.12090225673E+04  0.25500000920E-02 0. -1.
    10030    2    1    2    0    0  0.00000000000E+00  0.00000000000E+00 -0.20501070647E+03  0.22130344281E+04  0.22035180939E+04 0.  0.
        3    1    3    3  502    0  0.80802609611E+03  0.22136368779E+02 -0.85438853079E+03  0.11761700398E+04  0.10100000352E+00 0. -1.
       -3    1    3    3    0  502 -0.80802609611E+03 -0.22136368779E+02  0.64937782432E+03  0.10368643883E+04  0.10100000352E+00 0.  1.
</event>
<event>
 5   0  0.4462201E-06  0.2202754E+04  0.7818609E-02  0.8517283E-01
       -1   -1    0    0    0  501  0.00000000000E+00  0.00000000000E+00  0.17052974939E+04  0.17052974939E+04  0.50400001928E-02 0. -1.
        1   -1    0    0  501    0  0.00000000000E+00  0.00000000000E+00 -0.71133115997E+03  0.71133115999E+03  0.50400001928E-02 0.  1.
    10030    2    1    2    0    0  0.00000000000E+00  0.00000000000E+00  0.99396633388E+03  0.24166286538E+04  0.22027539531E+04 0.  0.
        3    1    3    3  502    0 -0.45673391810E+03 -0.94488067925E+03  0.13043896976E+03  0.10575536417E+04  0.10100000352E+00 0.  1.
       -3    1    3    3    0  502  0.45673391810E+03  0.94488067925E+03  0.86352736412E+03  0.13590750122E+04  0.10100000352E+00 0. -1.
</event>
<event>
 5   0  0.4462201E-06  0.2201123E+04  0.7818609E-02  0.8517961E-01
       -1   -1    0    0    0  501  0.00000000000E+00  0.00000000000E+00  0.61571287273E+03  0.61571287275E+03  0.50400001928E-02 0.  1.
        1   -1    0    0  501    0  0.00000000000E+00  0.00000000000E+00 -0.19672089061E+04  0.19672089061E+04  0.50400001928E-02 0. -1.
    10030    2    1    2    0    0  0.00000000000E+00  0.00000000000E+00 -0.13514960334E+04  0.25829217789E+04  0.22011232104E+04 0.  0.
        3    1    3    3  502    0 -0.83691177430E+03  0.67580150787E+03 -0.40279180072E+03  0.11486384292E+04  0.10100000352E+00 0.  1.
       -3    1    3    3    0  502  0.83691177430E+03 -0.67580150787E+03 -0.94870423267E+03  0.14342833497E+04  0.10100000352E+00 0. -1.
</event>
<event>
 5   0  0.4309945E-06  0.2202737E+04  0.7818609E-02  0.8517290E-01
        1   -1    0    0  501    0  0.00000000000E+00  0.00000000000E+00  0.10674198964E+04  0.10674198964E+04  0.50400001928E-02 0.  1.
       -1   -1    0    0    0  501  0.00000000000E+00  0.00000000000E+00 -0.11363965417E+04  0.11363965418E+04  0.50400001928E-02 0. -1.
    10030    2    1    2    0    0  0.00000000000E+00  0.00000000000E+00 -0.68976645341E+02  0.22038164382E+04  0.22027367331E+04 0.  0.
        4    1    3    3  502    0  0.10459094942E+04  0.25956802875E+03  0.19301802506E+03  0.10947875604E+04  0.12699999809E+01 0.  1.
       -4    1    3    3    0  502 -0.10459094942E+04 -0.25956802875E+03 -0.26199467040E+03  0.11090288778E+04  0.12699999809E+01 0. -1.
</event>
<event>
 5   0  0.1014015E-05  0.2200968E+04  0.7818609E-02  0.8518025E-01
       -2   -1    0    0    0  501  0.00000000000E+00  0.00000000000E+00  0.11765025914E+04  0.11765025914E+04  0.25500000920E-02 0.  1.
        2   -1    0    0  501    0  0.00000000000E+00  0.00000000000E+00 -0.10293770179E+04  0.10293770179E+04  0.25500000920E-02 0. -1.
    10030    2    1    2    0    0  0.00000000000E+00  0.00000000000E+00  0.14712557356E+03  0.22058796093E+04  0.22009677227E+04 0.  0.
        1    1    3    3  502    0  0.63491474495E+03  0.79878544428E+03 -0.33953398155E+03  0.10753874855E+04  0.50400001928E-02 0. -1.
       -1    1    3    3    0  502 -0.63491474495E+03 -0.79878544428E+03  0.48665955511E+03  0.11304921238E+04  0.50400001928E-02 0.  1.
</event>
<event>
 5   0  0.1015876E-05  0.2195160E+04  0.7818609E-02  0.8520445E-01
        2   -1    0    0  501    0  0.00000000000E+00  0.00000000000E+00  0.21729104641E+04  0.21729104641E+04  0.25500000920E-02 0.  1.
       -2   -1    0    0    0  501  0.00000000000E+00  0.00000000000E+00 -0.55440953197E+03  0.55440953197E+03  0.25500000920E-02 0. -1.
    10030    2    1    2    0    0  0.00000000000E+00  0.00000000000E+00  0.16185009321E+04  0.27273199960E+04  0.21951603799E+04 0.  0.
        5    1    3    3  502    0  0.99779732878E+03 -0.29883000048E+03  0.12392105121E+04  0.16188155120E+04  0.46999998093E+01 0.  1.
       -5    1    3    3    0  502 -0.99779732878E+03  0.29883000048E+03  0.37929042000E+03  0.11085044841E+04  0.46999998093E+01 0. -1.
</event>
<event>
 5   0  0.9963573E-06  0.2213384E+04  0.7818609E-02  0.8512878E-01
       -2   -1    0    0    0  501  0.00000000000E+00  0.00000000000E+00  0.71414757908E+03  0.71414757909E+03  0.25500000920E-02 0. -1.
        2   -1    0    0  501    0  0.00000000000E+00  0.00000000000E+00 -0.17150064387E+04  0.17150064387E+04  0.25500000920E-02 0.  1.
    10030    2    1    2    0    0  0.00000000000E+00  0.00000000000E+00 -0.10008588596E+04  0.24291540178E+04  0.22133844640E+04 0.  0.
        2    1    3    3  502    0  0.36964631833E+03 -0.43153022030E+03 -0.15426989264E+04  0.16440123811E+04  0.25500000920E-02 0.  1.
       -2    1    3    3    0  502 -0.36964631833E+03  0.43153022030E+03  0.54184006679E+03  0.78514163669E+03  0.25500000920E-02 0. -1.
</event>
<event>
 5   0  0.1035928E-05  0.2214125E+04  0.7818609E-02  0.8512572E-01
       -2   -1    0    0    0  501  0.00000000000E+00  0.00000000000E+00  0.97913694676E+03  0.97913694676E+03  0.25500000920E-02 0.  1.
        2   -1    0    0  501    0  0.00000000000E+00  0.00000000000E+00 -0.12517021045E+04  0.12517021045E+04  0.25500000920E-02 0. -1.
    10030    2    1    2    0    0  0.00000000000E+00  0.00000000000E+00 -0.27256515772E+03  0.22308390512E+04  0.22141253594E+04 0.  0.
        3    1    3    3  502    0  0.28157861662E+02 -0.83552116251E+03 -0.86750146166E+03  0.12047602560E+04  0.10100000352E+00 0. -1.
       -3    1    3    3    0  502 -0.28157861662E+02  0.83552116251E+03  0.59493630394E+03  0.10260787953E+04  0.10100000352E+00 0.  1.
</event>
<event>
 5   0  0.4630615E-06  0.2202318E+04  0.7818609E-02  0.8517464E-01
       -1   -1    0    0    0  501  0.00000000000E+00  0.00000000000E+00  0.78642161956E+03  0.78642161958E+03  0.50400001928E-02 0. -1.
        1   -1    0    0  501    0  0.00000000000E+00  0.00000000000E+00 -0.15418593048E+04  0.15418593048E+04  0.50400001928E-02 0.  1.
    10030    2    1    2    0    0  0.00000000000E+00  0.00000000000E+00 -0.75543768520E+03  0.23282809243E+04  0.22023183163E+04 0.  0.
        2    1    3    3  502    0 -0.40566999002E+03  0.50742607698E+01 -0.14599677239E+04  0.15152886338E+04  0.25500000920E-02 0.  1.
       -2    1    3    3    0  502  0.40566999002E+03 -0.50742607698E+01  0.70453003874E+03  0.81299229050E+03  0.25500000920E-02 0. -1.
</event>
<event>
 5   0  0.4408787E-06  0.2197978E+04  0.7818609E-02  0.8519270E-01
        1   -1    0    0  501    0  0.00000000000E+00  0.00000000000E+00  0.19904952569E+04  0.19904952569E+04  0.50400001928E-02 0. -1.
       -1   -1    0    0    0  501  0.00000000000E+00  0.00000000000E+00 -0.60677214901E+03  0.60677214903E+03  0.50400001928E-02 0.  1.
    10030    2    1    2    0    0  0.00000000000E+00  0.00000000000E+00  0.13837231079E+04  0.25972674059E+04  0.21979782389E+04 0.  0.
        1    1    3    3  502    0  0.92739312292E+02  0.73212716826E+03 -0.27042519624E+03  0.78596473034E+03  0.50400001928E-02 0.  1.
       -1    1    3    3    0  502 -0.92739312292E+02 -0.73212716826E+03  0.16541483041E+04  0.18113026756E+04  0.50400001928E-02 0. -1.
</event>
<event>
 5   0  0.1035928E-05  0.2199342E+04  0.7818609E-02  0.8518702E-01
       -2   -1    0    0    0  501  0.00000000000E+00  0.00000000000E+00  0.71171097264E+03  0.71171097264E+03  0.25500000920E-02 0.  1.
        2   -1    0    0  501    0  0.00000000000E+00  0.00000000000E+00 -0.16991115775E+04  0.16991115775E+04  0.25500000920E-02 0. -1.
    10030    2    1    2    0    0  0.00000000000E+00  0.00000000000E+00 -0.98740060490E+03  0.24108225502E+04  0.21993420411E+04 0.  0.
        3    1    3    3  502    0  0.56029474772E+03 -0.87306999283E+03 -0.93798630786E+02  0.10416235453E+04  0.10100000352E+00 0.  1.
       -3    1    3    3    0  502 -0.56029474772E+03  0.87306999283E+03 -0.89360197411E+03  0.13691990049E+04  0.10100000352E+00 0. -1.
</event>
<event>
 5   0  0.1015876E-05  0.2197194E+04  0.7818609E-02  0.8519597E-01
       -2   -1    0    0    0  501  0.00000000000E+00  0.00000000000E+00  0.79313125859E+03  0.79313125859E+03  0.25500000920E-02 0. -1.
        2   -1    0    0  501    0  0.00000000000E+00  0.00000000000E+00 -0.15217090984E+04  0.15217090984E+04  0.25500000920E-02 0.  1.
    10030    2    1    2    0    0  0.00000000000E+00  0.00000000000E+00 -0.72857783982E+03  0.23148403570E+04  0.21971937124E+04 0.  0.
        5    1    3    3  502    0 -0.28402916280E+03  0.20899881571E+03  0.73187285241E+03  0.81241186130E+03  0.46999998093E+01 0. -1.
       -5    1    3    3    0  502  0.28402916280E+03 -0.20899881571E+03 -0.14604506922E+04  0.15024284957E+04  0.46999998093E+01 0.  1.
</event>
<event>
 5   0  0.4462201E-06  0.2203822E+04  0.7818609E-02  0.8516839E-01
        1   -1    0    0  501    0  0.00000000000E+00  0.00000000000E+00  0.12695712260E+04  0.12695712260E+04  0.50400001928E-02 0. -1.
       -1   -1    0    0    0  501  0.00000000000E+00  0.00000000000E+00 -0.95639179614E+03  0.95639179615E+03  0.50400001928E-02 0.  1.
    10030    2    1    2    0    0  0.00000000000E+00  0.00000000000E+00  0.31317942984E+03  0.22259630221E+04  0.22038216853E+04 0.  0.
        3    1    3    3  502    0 -0.48100858543E+03 -0.77337121750E+03  0.78309170102E+03  0.12011265219E+04  0.10100000352E+00 0. -1.
       -3    1    3    3    0  502  0.48100858543E+03  0.77337121750E+03 -0.46991227119E+03  0.10248365002E+04  0.10100000352E+00 0.  1.
</event>
<event>
 5   0  0.4309945E-06  0.2188026E+04  0.7818609E-02  0.8523428E-01
        1   -1    0    0  501    0  0.00000000000E+00  0.00000000000E+00  0.15494490375E+04  0.15494490375E+04  0.50400001928E-02 0. -1.
       -1   -1    0    0    0  501  0.00000000000E+00  0.00000000000E+00 -0.77244528463E+03  0.77244528464E+03  0.50400001928E-02 0.  1.
    10030    2    1    2    0    0  0.00000000000E+00  0.00000000000E+00  0.77700375291E+03  0.23218943222E+04  0.21880261450E+04 0.  0.
        4    1    3    3  502    0 -0.58779201124E+03  0.70193180806E+03 -0.24701714788E+03  0.94827569615E+03  0.12699999809E+01 0.  1.
       -4    1    3    3    0  502  0.58779201124E+03 -0.70193180806E+03  0.10240209008E+04  0.13736186260E+04  0.12699999809E+01 0. -1.
</event>
<event>
 5   0  0.4630615E-06  0.2197959E+04  0.7818609E-02  0.8519278E-01
       -1   -1    0    0    0  501  0.00000000000E+00  0.00000000000E+00  0.11263781829E+04  0.11263781829E+04  0.50400001928E-02 0. -1.
        1   -1    0    0  501    0  0.00000000000E+00  0.00000000000E+00 -0.10722469974E+04  0.10722469974E+04  0.50400001928E-02 0.  1.
    10030    2    1    2    0    0  0.00000000000E+00  0.00000000000E+00  0.54131185557E+02  0.21986251803E+04  0.21979587117E+04 0.  0.
        2    1    3    3  502    0  0.53804168064E+03 -0.95505983174E+03  0.10536762859E+03  0.11012404231E+04  0.25500000920E-02 0.  1.
       -2    1    3    3    0  502 -0.53804168064E+03  0.95505983174E+03 -0.51236443031E+02  0.10973847572E+04  0.25500000920E-02 0. -1.
</event>
<event>
 5   0  0.9963173E-06  0.2201124E+04  0.7818609E-02  0.8517960E-01
        2   -1    0    0  501    0  0.00000000000E+00  0.00000000000E+00  0.12765796863E+04  0.12765796863E+04  0.25500000920E-02 0. -1.
       -2   -1    0    0    0  501  0.00000000000E+00  0.00000000000E+00 -0.94881394347E+03  0.94881394348E+03  0.25500000920E-02 0.  1.
    10030    2    1    2    0    0  0.00000000000E+00  0.00000000000E+00  0.32776574287E+03  0.22253936298E+04  0.22011239005E+04 0.  0.
        4    1    3    3  502    0  0.68733814620E+03 -0.10699065752E+03  0.10261371261E+04  0.12396934067E+04  0.12699999809E+01 0. -1.
       -4    1    3    3    0  502 -0.68733814620E+03  0.10699065752E+03 -0.69837138328E+03  0.98570022314E+03  0.12699999809E+01 0.  1.
</event>
<event>
 5   0  0.4794967E-06  0.2196328E+04  0.7818609E-02  0.8519958E-01
        1   -1    0    0  501    0  0.00000000000E+00  0.00000000000E+00  0.12463832981E+04  0.12463832981E+04  0.50400001928E-02 0.  1.
       -1   -1    0    0    0  501  0.00000000000E+00  0.00000000000E+00 -0.96757082519E+03  0.96757082520E+03  0.50400001928E-02 0. -1.
    10030    2    1    2    0    0  0.00000000000E+00  0.00000000000E+00  0.27881247290E+03  0.22139541233E+04  0.21963279502E+04 0.  0.
        5    1    3    3  502    0  0.52387017333E+03  0.32820739662E+03 -0.77550207053E+03  0.99175884423E+03  0.46999998093E+01 0. -1.
       -5    1    3    3    0  502 -0.52387017333E+03 -0.32820739662E+03  0.10543145434E+04  0.12221952791E+04  0.46999998093E+01 0.  1.
</event>
<event>
 5   0  0.1015876E-05  0.2200578E+04  0.7818609E-02  0.8518187E-01
       -2   -1    0    0    0  501  0.00000000000E+00  0.00000000000E+00  0.61530982058E+03  0.61530982059E+03  0.25500000920E-02 0.  1.
        2   -1    0    0  501    0  0.00000000000E+00  0.00000000000E+00 -0.19675232376E+04  0.19675232376E+04  0.25500000920E-02 0. -1.
    10030    2    1    2    0    0  0.00000000000E+00  0.00000000000E+00 -0.13522134170E+04  0.25828330582E+04  0.22005784424E+04 0.  0.
        5    1    3    3  502    0  0.58579413249E+03  0.46327305218E+03 -0.16244423214E+04  0.17879070535E+04  0.46999998093E+01 0. -1.
       -5    1    3    3    0  502 -0.58579413249E+03 -0.46327305218E+03  0.27222890436E+03  0.79492600467E+03  0.46999998093E+01 0.  1.
</event>
<event>
 5   0  0.4630615E-06  0.2198243E+04  0.7818609E-02  0.8519160E-01
        1   -1    0    0  501    0  0.00000000000E+00  0.00000000000E+00  0.20995002728E+04  0.20995002728E+04  0.50400001928E-02 0.  1.
       -1   -1    0    0    0  501  0.00000000000E+00  0.00000000000E+00 -0.57540747737E+03  0.57540747740E+03  0.50400001928E-02 0. -1.
    10030    2    1    2    0    0  0.00000000000E+00  0.00000000000E+00  0.15240927954E+04  0.26749077502E+04  0.21982430764E+04 0.  0.
        2    1    3    3  502    0  0.51415794092E+03 -0.86984926152E+03  0.23574136334E+03  0.10375789687E+04  0.25500000920E-02 0. -1.
       -2    1    3    3    0  502 -0.51415794092E+03  0.86984926152E+03  0.12883514320E+04  0.16373287814E+04  0.25500000920E-02 0.  1.
</event>
<event>
 5   0  0.1014015E-05  0.2200151E+04  0.7818609E-02  0.8518365E-01
       -2   -1    0    0    0  501  0.00000000000E+00  0.00000000000E+00  0.56537735954E+03  0.56537735954E+03  0.25500000920E-02 0. -1.
        2   -1    0    0  501    0  0.00000000000E+00  0.00000000000E+00 -0.21404565753E+04  0.21404565753E+04  0.25500000920E-02 0.  1.
    10030    2    1    2    0    0  0.00000000000E+00  0.00000000000E+00 -0.15750792158E+04  0.27058339348E+04  0.22001506192E+04 0.  0.
        1    1    3    3  502    0  0.28365690127E+03  0.25346864124E+03 -0.20569934466E+04  0.20918722784E+04  0.50400001928E-02 0.  1.
       -1    1    3    3    0  502 -0.28365690127E+03 -0.25346864124E+03  0.48191423082E+03  0.61396165647E+03  0.50400001928E-02 0. -1.
</event>
<event>
 5   0  0.4794967E-06  0.2199221E+04  0.7818609E-02  0.8518752E-01
        1   -1    0    0  501    0  0.00000000000E+00  0.00000000000E+00  0.26961688907E+04  0.26961688907E+04  0.50400001928E-02 0.  1.
       -1   -1    0    0    0  501  0.00000000000E+00  0.00000000000E+00 -0.44846712406E+03  0.44846712409E+03  0.50400001928E-02 0. -1.
    10030    2    1    2    0    0  0.00000000000E+00  0.00000000000E+00  0.22477017666E+04  0.31446360148E+04  0.21992208697E+04 0.  0.
        5    1    3    3  502    0  0.28202423242E+03  0.83742489539E+03  0.18806381151E+03  0.90344242223E+03  0.46999998093E+01 0. -1.
       -5    1    3    3    0  502 -0.28202423242E+03 -0.83742489539E+03  0.20596379551E+04  0.22411935926E+04  0.46999998093E+01 0.  1.
</event>
<event>
 5   0  0.4630615E-06  0.2227361E+04  0.7818609E-02  0.8507125E-01
        1   -1    0    0  501    0  0.00000000000E+00  0.00000000000E+00  0.92447073478E+03  0.92447073479E+03  0.50400001928E-02 0. -1.
       -1   -1    0    0    0  501  0.00000000000E+00  0.00000000000E+00 -0.13416155484E+04  0.13416155484E+04  0.50400001928E-02 0.  1.
    10030    2    1    2    0    0  0.00000000000E+00  0.00000000000E+00 -0.41714481360E+03  0.22660862832E+04  0.22273610501E+04 0.  0.
        2    1    3    3  502    0  0.88667731915E+03  0.25990386712E+03  0.42395843626E+03  0.10166058450E+04  0.25500000920E-02 0. -1.
       -2    1    3    3    0  502 -0.88667731915E+03 -0.25990386712E+03 -0.84110324986E+03  0.12494804382E+04  0.25500000920E-02 0.  1.
</event>
<event>
 5   0  0.9963573E-06  0.2202081E+04  0.7818609E-02  0.8517563E-01
        2   -1    0    0  501    0  0.00000000000E+00  0.00000000000E+00  0.15808408844E+04  0.15808408844E+04  0.25500000920E-02 0.  1.
       -2   -1    0    0    0  501  0.00000000000E+00  0.00000000000E+00 -0.76686403148E+03  0.76686403148E+03  0.25500000920E-02 0. -1.
    10030    2    1    2    0    0  0.00000000000E+00  0.00000000000E+00  0.81397685295E+03  0.23477049159E+04  0.22020808466E+04 0.  0.
        2    1    3    3  502    0 -0.49427930118E+03 -0.68284359515E+03  0.11621387805E+04  0.14356719501E+04  0.25500000920E-02 0.  1.
       -2    1    3    3    0  502  0.49427930118E+03  0.68284359515E+03 -0.34816192755E+03  0.91203296586E+03  0.25500000920E-02 0. -1.
</event>
<event>
 5   0  0.9963573E-06  0.2203056E+04  0.7818609E-02  0.8517157E-01
       -2   -1    0    0    0  501  0.00000000000E+00  0.00000000000E+00  0.13394409828E+04  0.13394409828E+04  0.25500000920E-02 0. -1.
        2   -1    0    0  501    0  0.00000000000E+00  0.00000000000E+00 -0.90587334587E+03  0.90587334587E+03  0.25500000920E-02 0.  1.
    10030    2    1    2    0    0  0.00000000000E+00  0.00000000000E+00  0.43356763697E+03  0.22453143287E+04  0.22030559545E+04 0.  0.
        2    1    3    3  502    0  0.36041074747E+02  0.10834987820E+04  0.17859716820E+02  0.10842451471E+04  0.25500000920E-02 0. -1.
       -2    1    3    3    0  502 -0.36041074747E+02 -0.10834987820E+04  0.41570792015E+03  0.11610691816E+04  0.25500000920E-02 0.  1.
</event>
<event>
 5   0  0.9963173E-06  0.2195488E+04  0.7818609E-02  0.8520308E-01
       -2   -1    0    0    0  501  0.00000000000E+00  0.00000000000E+00  0.83090112187E+03  0.83090112187E+03  0.25500000920E-02 0. -1.
        2   -1    0    0  501    0  0.00000000000E+00  0.00000000000E+00 -0.14502833039E+04  0.14502833039E+04  0.25500000920E-02 0.  1.
    10030    2    1    2    0    0  0.00000000000E+00  0.00000000000E+00 -0.61938218204E+03  0.22811844258E+04  0.21954881227E+04 0.  0.
        4    1    3    3  502    0  0.37748741369E+02 -0.45077083764E+03 -0.13489427500E+04  0.14227675394E+04  0.12699999809E+01 0.  1.
       -4    1    3    3    0  502 -0.37748741369E+02  0.45077083764E+03  0.72956056797E+03  0.85841688635E+03  0.12699999809E+01 0. -1.
</event>
<event>
 5   0  0.9963573E-06  0.2198940E+04  0.7818609E-02  0.8518869E-01
        2   -1    0    0  501    0  0.00000000000E+00  0.00000000000E+00  0.12450051725E+04  0.12450051725E+04  0.25500000920E-02 0. -1.
       -2   -1    0    0    0  501  0.00000000000E+00  0.00000000000E+00 -0.97094720259E+03  0.97094720259E+03  0.25500000920E-02 0.  1.
    10030    2    1    2    0    0  0.00000000000E+00  0.00000000000E+00  0.27405796990E+03  0.22159523751E+04  0.21989400078E+04 0.  0.
        2    1    3    3  502    0  0.42853732120E+02 -0.10866493433E+04  0.30011754968E+03  0.11281461702E+04  0.25500000920E-02 0. -1.
       -2    1    3    3    0  502 -0.42853732120E+02  0.10866493433E+04 -0.26059579777E+02  0.10878062049E+04  0.25500000920E-02 0.  1.
</event>
<event>
 5   0  0.9963573E-06  0.2197921E+04  0.7818609E-02  0.8519294E-01
        2   -1    0    0  501    0  0.00000000000E+00  0.00000000000E+00  0.24430075793E+04  0.24430075793E+04  0.25500000920E-02 0.  1.
       -2   -1    0    0    0  501  0.00000000000E+00  0.00000000000E+00 -0.49435556622E+03  0.49435556623E+03  0.25500000920E-02 0. -1.
    10030    2    1    2    0    0  0.00000000000E+00  0.00000000000E+00  0.19486520131E+04  0.29373631456E+04  0.21979211953E+04 0.  0.
        2    1    3    3  502    0  0.91757020097E+03 -0.36292239753E+03  0.16208956324E+04  0.18976170297E+04  0.25500000920E-02 0.  1.
       -2    1    3    3    0  502 -0.91757020097E+03  0.36292239753E+03  0.32775638072E+03  0.10397461159E+04  0.25500000920E-02 0. -1.
</event>
<event>
 5   0  0.1035928E-05  0.2202661E+04  0.7818609E-02  0.8517321E-01
       -2   -1    0    0    0  501  0.00000000000E+00  0.00000000000E+00  0.13159292154E+04  0.13159292154E+04  0.25500000920E-02 0.  1.
        2   -1    0    0  501    0  0.00000000000E+00  0.00000000000E+00 -0.92172787901E+03  0.92172787901E+03  0.25500000920E-02 0. -1.
    10030    2    1    2    0    0  0.00000000000E+00  0.00000000000E+00  0.39420133634E+03  0.22376570944E+04  0.22026607951E+04 0.  0.
        3    1    3    3  502    0  0.58823133422E+02  0.10815223498E+04 -0.55120629306E+01  0.10831348703E+04  0.10100000352E+00 0.  1.
       -3    1    3    3    0  502 -0.58823133422E+02 -0.10815223498E+04  0.39971339927E+03  0.11545222241E+04  0.10100000352E+00 0. -1.
</event>
<event>
 5   0  0.4309945E-06  0.2201153E+04  0.7818609E-02  0.8517948E-01
       -1   -1    0    0    0  501  0.00000000000E+00  0.00000000000E+00  0.95774388771E+03  0.95774388772E+03  0.50400001928E-02 0.  1.
        1   -1    0    0  501    0  0.00000000000E+00  0.00000000000E+00 -0.12647106960E+04  0.12647106960E+04  0.50400001928E-02 0. -1.
    10030    2    1    2    0    0  0.00000000000E+00  0.00000000000E+00 -0.30696680830E+03  0.22224545837E+04  0.22011532785E+04 0.  0.
        4    1    3    3  502    0 -0.64704340118E+03  0.79060221411E+03 -0.56677370791E+03  0.11683112055E+04  0.12699999809E+01 0. -1.
       -4    1    3    3    0  502  0.64704340118E+03 -0.79060221411E+03  0.25980689961E+03  0.10541433783E+04  0.12699999809E+01 0.  1.
</event>
<event>
 5   0  0.4408787E-06  0.2198606E+04  0.7818609E-02  0.8519009E-01
       -1   -1    0    0    0  501  0.00000000000E+00  0.00000000000E+00  0.83278748362E+03  0.83278748364E+03  0.50400001928E-02 0.  1.
        1   -1    0    0  501    0  0.00000000000E+00  0.00000000000E+00 -0.14511110775E+04  0.14511110775E+04  0.50400001928E-02 0. -1.
    10030    2    1    2    0    0  0.00000000000E+00  0.00000000000E+00 -0.61832359386E+03  0.22838985611E+04  0.21986060517E+04 0.  0.
        1    1    3    3  502    0 -0.85836502697E+03 -0.15816961032E+03 -0.10034142697E+04  0.13299053883E+04  0.50400001928E-02 0.  1.
       -1    1    3    3    0  502  0.85836502697E+03  0.15816961032E+03  0.38509067585E+03  0.95399317283E+03  0.50400001928E-02 0. -1.
</event>
<event>
 5   0  0.4462201E-06  0.2199795E+04  0.7818609E-02  0.8518513E-01
        1   -1    0    0  501    0  0.00000000000E+00  0.00000000000E+00  0.10155132745E+04  0.10155132745E+04  0.50400001928E-02 0.  1.
       -1   -1    0    0    0  501  0.00000000000E+00  0.00000000000E+00 -0.11912935481E+04  0.11912935481E+04  0.50400001928E-02 0. -1.
    10030    2    1    2    0    0  0.00000000000E+00  0.00000000000E+00 -0.17578027359E+03  0.22068068226E+04  0.21997949104E+04 0.  0.
        3    1    3    3  502    0  0.11275094074E+03  0.30073233063E+02  0.10092857631E+04  0.10160093187E+04  0.10100000352E+00 0.  1.
       -3    1    3    3    0  502 -0.11275094074E+03 -0.30073233063E+02 -0.11850660366E+04  0.11907975039E+04  0.10100000352E+00 0. -1.
</event>
<event>
 5   0  0.4630615E-06  0.2196238E+04  0.7818609E-02  0.8519995E-01
       -1   -1    0    0    0  501  0.00000000000E+00  0.00000000000E+00  0.74185851141E+03  0.74185851143E+03  0.50400001928E-02 0.  1.
        1   -1    0    0  501    0  0.00000000000E+00  0.00000000000E+00 -0.16254659652E+04  0.16254659652E+04  0.50400001928E-02 0. -1.
    10030    2    1    2    0    0  0.00000000000E+00  0.00000000000E+00 -0.88360745382E+03  0.23673244767E+04  0.21962383854E+04 0.  0.
        2    1    3    3  502    0 -0.95987446141E+03  0.52649440812E+03 -0.34964225279E+03  0.11492628282E+04  0.25500000920E-02 0.  1.
       -2    1    3    3    0  502  0.95987446141E+03 -0.52649440812E+03 -0.53396520103E+03  0.12180616484E+04  0.25500000920E-02 0. -1.
</event>
<event>
 5   0  0.4408787E-06  0.2200850E+04  0.7818609E-02  0.8518074E-01
       -1   -1    0    0    0  501  0.00000000000E+00  0.00000000000E+00  0.74101595425E+03  0.74101595427E+03  0.50400001928E-02 0. -1.
        1   -1    0    0  501    0  0.00000000000E+00  0.00000000000E+00 -0.16341550112E+04  0.16341550112E+04  0.50400001928E-02 0.  1.
    10030    2    1    2    0    0  0.00000000000E+00  0.00000000000E+00 -0.89313905691E+03  0.23751709654E+04  0.22008497768E+04 0.  0.
        1    1    3    3  502    0  0.89336768646E+03  0.27406725826E+03 -0.10737325657E+04  0.14234185288E+04  0.50400001928E-02 0.  1.
       -1    1    3    3    0  502 -0.89336768646E+03 -0.27406725826E+03  0.18059350884E+03  0.95175243668E+03  0.50400001928E-02 0. -1.
</event>
<event>
 5   0  0.9963173E-06  0.2200583E+04  0.7818609E-02  0.8518186E-01
       -2   -1    0    0    0  501  0.00000000000E+00  0.00000000000E+00  0.15066629191E+04  0.15066629191E+04  0.25500000920E-02 0. -1.
        2   -1    0    0  501    0  0.00000000000E+00  0.00000000000E+00 -0.80352476457E+03  0.80352476457E+03  0.25500000920E-02 0.  1.
    10030    2    1    2    0    0  0.00000000000E+00  0.00000000000E+00  0.70313815450E+03  0.23101876836E+04  0.22005826204E+04 0.  0.
        4    1    3    3  502    0 -0.10447578932E+04  0.34421956669E+03  0.37798563791E+03  0.11631340941E+04  0.12699999809E+01 0. -1.
       -4    1    3    3    0  502  0.10447578932E+04 -0.34421956669E+03  0.32515251659E+03  0.11470535896E+04  0.12699999809E+01 0.  1.
</event>
<event>
 5   0  0.9963173E-06  0.2200471E+04  0.7818609E-02  0.8518232E-01
        2   -1    0    0  501    0  0.00000000000E+00  0.00000000000E+00  0.13587837865E+04  0.13587837865E+04  0.25500000920E-02 0. -1.
       -2   -1    0    0    0  501  0.00000000000E+00  0.00000000000E+00 -0.89088364742E+03  0.89088364742E+03  0.25500000920E-02 0.  1.
    10030    2    1    2    0    0  0.00000000000E+00  0.00000000000E+00  0.46790013907E+03  0.22496674339E+04  0.22004710912E+04 0.  0.
        4    1    3    3  502    0  0.72183846131E+02 -0.10152047814E+04 -0.19332354983E+03  0.10359666325E+04  0.12699999809E+01 0.  1.
       -4    1    3    3    0  502 -0.72183846131E+02  0.10152047814E+04  0.66122368889E+03  0.12137008014E+04  0.12699999809E+01 0. -1.
</event>
<event>
 5   0  0.9963573E-06  0.2201276E+04  0.7818609E-02  0.8517897E-01
        2   -1    0    0  501    0  0.00000000000E+00  0.00000000000E+00  0.96778673752E+03  0.96778673752E+03  0.25500000920E-02 0. -1.
       -2   -1    0    0    0  501  0.00000000000E+00  0.00000000000E+00 -0.12517264117E+04  0.12517264118E+04  0.25500000920E-02 0.  1.
    10030    2    1    2    0    0  0.00000000000E+00  0.00000000000E+00 -0.28393967423E+03  0.22195131493E+04  0.22012761938E+04 0.  0.
        2    1    3    3  502    0  0.34310961626E+03 -0.65522880433E+03  0.67986276005E+03  0.10046205091E+04  0.25500000920E-02 0. -1.
       -2    1    3    3    0  502 -0.34310961626E+03  0.65522880433E+03 -0.96380243429E+03  0.12148926402E+04  0.25500000920E-02 0.  1.
</event>
<event>
 5   0  0.3546750E-06  0.2198226E+04  0.7818609E-02  0.8519167E-01
       -3   -1    0    0    0  501  0.00000000000E+00  0.00000000000E+00  0.15921555844E+04  0.15921555876E+04  0.10100000352E+00 0. -1.
        3   -1    0    0  501    0  0.00000000000E+00  0.00000000000E+00 -0.75875110370E+03  0.75875111042E+03  0.10100000352E+00 0.  1.
    10030    2    1    2    0    0  0.00000000000E+00  0.00000000000E+00  0.83340448073E+03  0.23509066981E+04  0.21982263929E+04 0.  0.
        2    1    3    3  502    0 -0.23294605748E+03  0.91645551371E+03  0.10158795290E+04  0.13878637512E+04  0.25500000920E-02 0. -1.
       -2    1    3    3    0  502  0.23294605748E+03 -0.91645551371E+03 -0.18247504828E+03  0.96304294689E+03  0.25500000920E-02 0.  1.
</event>
<event>
 5   0  0.4309945E-06  0.2200380E+04  0.7818609E-02  0.8518270E-01
        1   -1    0    0  501    0  0.00000000000E+00  0.00000000000E+00  0.19685241916E+04  0.19685241917E+04  0.50400001928E-02 0.  1.
       -1   -1    0    0    0  501  0.00000000000E+00  0.00000000000E+00 -0.61488575943E+03  0.61488575945E+03  0.50400001928E-02 0. -1.
    10030    2    1    2    0    0  0.00000000000E+00  0.00000000000E+00  0.13536384322E+04  0.25834099511E+04  0.22003795060E+04 0.  0.
        4    1    3    3  502    0 -0.35526355208E+03 -0.41645078515E+03  0.17972903564E+04  0.18788021945E+04  0.12699999809E+01 0.  1.
       -4    1    3    3    0  502  0.35526355208E+03  0.41645078515E+03 -0.44365192421E+03  0.70460775659E+03  0.12699999809E+01 0. -1.
</event>
<event>
 5   0  0.4462201E-06  0.2199699E+04  0.7818609E-02  0.8518553E-01
        1   -1    0    0  501    0  0.00000000000E+00  0.00000000000E+00  0.10784353171E+04  0.10784353171E+04  0.50400001928E-02 0. -1.
       -1   -1    0    0    0  501  0.00000000000E+00  0.00000000000E+00 -0.11216891702E+04  0.11216891702E+04  0.50400001928E-02 0.  1.
    10030    2    1    2    0    0  0.00000000000E+00  0.00000000000E+00 -0.43253853174E+02  0.22001244873E+04  0.21996992667E+04 0.  0.
        3    1    3    3  502    0  0.51580568823E+03  0.58674730174E+03 -0.79594794503E+03  0.11152851857E+04  0.10100000352E+00 0.  1.
       -3    1    3    3    0  502 -0.51580568823E+03 -0.58674730174E+03  0.75269409186E+03  0.10848393016E+04  0.10100000352E+00 0. -1.
</event>
<event>
 5   0  0.4309945E-06  0.2200702E+04  0.7818609E-02  0.8518136E-01
       -1   -1    0    0    0  501  0.00000000000E+00  0.00000000000E+00  0.76955074218E+03  0.76955074219E+03  0.50400001928E-02 0.  1.
        1   -1    0    0  501    0  0.00000000000E+00  0.00000000000E+00 -0.15733491861E+04  0.15733491861E+04  0.50400001928E-02 0. -1.
    10030    2    1    2    0    0  0.00000000000E+00  0.00000000000E+00 -0.80379844389E+03  0.23428999283E+04  0.22007017370E+04 0.  0.
        4    1    3    3  502    0 -0.80538533032E+03 -0.68285257205E+03 -0.73147837778E+03  0.12845214656E+04  0.12699999809E+01 0. -1.
       -4    1    3    3    0  502  0.80538533032E+03  0.68285257205E+03 -0.72320066107E+02  0.10583784627E+04  0.12699999809E+01 0.  1.
</event>
<event>
 5   0  0.4309945E-06  0.2240702E+04  0.7818609E-02  0.8501676E-01
        1   -1    0    0  501    0  0.00000000000E+00  0.00000000000E+00  0.68847458232E+03  0.68847458233E+03  0.50400001928E-02 0.  1.
       -1   -1    0    0    0  501  0.00000000000E+00  0.00000000000E+00 -0.18231409139E+04  0.18231409139E+04  0.50400001928E-02 0. -1.
    10030    2    1    2    0    0  0.00000000000E+00  0.00000000000E+00 -0.11346663316E+04  0.25116154963E+04  0.22407018358E+04 0.  0.
        4    1    3    3  502    0  0.97091432610E+03  0.15264096341E+03  0.35470996961E+02  0.98348039983E+03  0.12699999809E+01 0.  1.
       -4    1    3    3    0  502 -0.97091432610E+03 -0.15264096341E+03 -0.11701373286E+04  0.15281350964E+04  0.12699999809E+01 0. -1.
</event>
<event>
 5   0  0.1014015E-05  0.2200797E+04  0.7818609E-02  0.8518097E-01
        2   -1    0    0  501    0  0.00000000000E+00  0.00000000000E+00  0.11010743785E+04  0.11010743785E+04  0.25500000920E-02 0.  1.
       -2   -1    0    0    0  501  0.00000000000E+00  0.00000000000E+00 -0.10997226221E+04  0.10997226221E+04  0.25500000920E-02 0. -1.
    10030    2    1    2    0    0  0.00000000000E+00  0.00000000000E+00  0.13517564527E+01  0.22007970006E+04  0.22007965855E+04 0.  0.
        1    1    3    3  502    0 -0.27936763332E+03  0.88636040922E+03 -0.58855708423E+03  0.11000365862E+04  0.50400001928E-02 0. -1.
       -1    1    3    3    0  502  0.27936763332E+03 -0.88636040922E+03  0.58990884069E+03  0.11007604144E+04  0.50400001928E-02 0.  1.
</event>
<event>
 5   0  0.9963573E-06  0.2195703E+04  0.7818609E-02  0.8520219E-01
       -2   -1    0    0    0  501  0.00000000000E+00  0.00000000000E+00  0.81661783032E+03  0.81661783033E+03  0.25500000920E-02 0.  1.
        2   -1    0    0  501    0  0.00000000000E+00  0.00000000000E+00 -0.14759385501E+04  0.14759385501E+04  0.25500000920E-02 0. -1.
    10030    2    1    2    0    0  0.00000000000E+00  0.00000000000E+00 -0.65932071973E+03  0.22925563804E+04  0.21957028364E+04 0.  0.
        2    1    3    3  502    0  0.50992474553E+03 -0.94949401484E+03 -0.11135484137E+03  0.10834952843E+04  0.25500000920E-02 0.  1.
       -2    1    3    3    0  502 -0.50992474553E+03  0.94949401484E+03 -0.54796587836E+03  0.12090610961E+04  0.25500000920E-02 0. -1.
</event>
<event>
 5   0  0.1035928E-05  0.2196333E+04  0.7818609E-02  0.8519956E-01
        2   -1    0    0  501    0  0.00000000000E+00  0.00000000000E+00  0.16796639766E+04  0.16796639766E+04  0.25500000920E-02 0. -1.
       -2   -1    0    0    0  501  0.00000000000E+00  0.00000000000E+00 -0.71798274720E+03  0.71798274721E+03  0.25500000920E-02 0.  1.
    10030    2    1    2    0    0  0.00000000000E+00  0.00000000000E+00  0.96168122943E+03  0.23976467238E+04  0.21963330861E+04 0.  0.
        3    1    3    3  502    0  0.28195764534E+03  0.12688954955E+03  0.16311656980E+04  0.16602116179E+04  0.10100000352E+00 0. -1.
       -3    1    3    3    0  502 -0.28195764534E+03 -0.12688954955E+03 -0.66948446861E+03  0.73743510593E+03  0.10100000352E+00 0.  1.
</event>
<event>
 5   0  0.1015876E-05  0.2197840E+04  0.7818609E-02  0.8519328E-01
       -2   -1    0    0    0  501  0.00000000000E+00  0.00000000000E+00  0.74825218982E+03  0.74825218982E+03  0.25500000920E-02 0.  1.
        2   -1    0    0  501    0  0.00000000000E+00  0.00000000000E+00 -0.16139283734E+04  0.16139283734E+04  0.25500000920E-02 0. -1.
    10030    2    1    2    0    0  0.00000000000E+00  0.00000000000E+00 -0.86567618358E+03  0.23621805632E+04  0.21978402486E+04 0.  0.
        5    1    3    3  502    0  0.31703305512E+03  0.20431578470E+03  0.67649714715E+03  0.77454849946E+03  0.46999998093E+01 0.  1.
       -5    1    3    3    0  502 -0.31703305512E+03 -0.20431578470E+03 -0.15421733307E+04  0.15876320638E+04  0.46999998093E+01 0. -1.
</event>
<event>
 5   0  0.4794967E-06  0.2199544E+04  0.7818609E-02  0.8518618E-01
       -1   -1    0    0    0  501  0.00000000000E+00  0.00000000000E+00  0.74555774625E+03  0.74555774626E+03  0.50400001928E-02 0. -1.
        1   -1    0    0  501    0  0.00000000000E+00  0.00000000000E+00 -0.16222736392E+04  0.16222736393E+04  0.50400001928E-02 0.  1.
    10030    2    1    2    0    0  0.00000000000E+00  0.00000000000E+00 -0.87671589300E+03  0.23678313855E+04  0.21995442058E+04 0.  0.
        5    1    3    3  502    0  0.13660024334E+03  0.49236898151E+03  0.61000461526E+03  0.79574779992E+03  0.46999998093E+01 0. -1.
       -5    1    3    3    0  502 -0.13660024334E+03 -0.49236898151E+03 -0.14867205083E+04  0.15720835856E+04  0.46999998093E+01 0.  1.
</event>
<event>
 5   0  0.4630615E-06  0.2197369E+04  0.7818609E-02  0.8519524E-01
        1   -1    0    0  501    0  0.00000000000E+00  0.00000000000E+00  0.14745213489E+04  0.14745213489E+04  0.50400001928E-02 0. -1.
       -1   -1    0    0    0  501  0.00000000000E+00  0.00000000000E+00 -0.81864361603E+03  0.81864361604E+03  0.50400001928E-02 0.  1.
    10030    2    1    2    0    0  0.00000000000E+00  0.00000000000E+00  0.65587773291E+03  0.22931649650E+04  0.21973688712E+04 0.  0.
        2    1    3    3  502    0 -0.10934834693E+04  0.61301851858E+02  0.41917728232E+03  0.11726779646E+04  0.25500000920E-02 0.  1.
       -2    1    3    3    0  502  0.10934834693E+04 -0.61301851858E+02  0.23670045059E+03  0.11204870004E+04  0.25500000920E-02 0. -1.
</event>
<event>
 5   0  0.4794967E-06  0.2163632E+04  0.7818609E-02  0.8533720E-01
       -1   -1    0    0    0  501  0.00000000000E+00  0.00000000000E+00  0.10354403319E+04  0.10354403319E+04  0.50400001928E-02 0.  1.
        1   -1    0    0  501    0  0.00000000000E+00  0.00000000000E+00 -0.11302683104E+04  0.11302683104E+04  0.50400001928E-02 0. -1.
    10030    2    1    2    0    0  0.00000000000E+00  0.00000000000E+00 -0.94827978537E+02  0.21657086423E+04  0.21636315717E+04 0.  0.
        5    1    3    3  502    0  0.33166005778E+03  0.34358211503E+03  0.92421671604E+03  0.10403103825E+04  0.46999998093E+01 0.  1.
       -5    1    3    3    0  502 -0.33166005778E+03 -0.34358211503E+03 -0.10190446946E+04  0.11253982598E+04  0.46999998093E+01 0. -1.
</event>
<event>
 5   0  0.9963573E-06  0.2222751E+04  0.7818609E-02  0.8509018E-01
       -2   -1    0    0    0  501  0.00000000000E+00  0.00000000000E+00  0.63698279949E+03  0.63698279950E+03  0.25500000920E-02 0. -1.
        2   -1    0    0  501    0  0.00000000000E+00  0.00000000000E+00 -0.19390716010E+04  0.19390716010E+04  0.25500000920E-02 0.  1.
    10030    2    1    2    0    0  0.00000000000E+00  0.00000000000E+00 -0.13020888015E+04  0.25760544005E+04  0.22227507794E+04 0.  0.
        2    1    3    3  502    0  0.65681560697E+03 -0.70601482754E+03 -0.12914006780E+04  0.16117007754E+04  0.25500000920E-02 0.  1.
       -2    1    3    3    0  502 -0.65681560697E+03  0.70601482754E+03 -0.10688123511E+02  0.96435362511E+03  0.25500000920E-02 0. -1.
</event>
<event>
 5   0  0.1014015E-05  0.2198508E+04  0.7818609E-02  0.8519049E-01
        2   -1    0    0  501    0  0.00000000000E+00  0.00000000000E+00  0.13456578984E+04  0.13456578984E+04  0.25500000920E-02 0. -1.
       -2   -1    0    0    0  501  0.00000000000E+00  0.00000000000E+00 -0.89796927800E+03  0.89796927800E+03  0.25500000920E-02 0.  1.
    10030    2    1    2    0    0  0.00000000000E+00  0.00000000000E+00  0.44768862037E+03  0.22436271764E+04  0.21985080864E+04 0.  0.
        1    1    3    3  502    0  0.25659052033E+03 -0.65180739497E+03  0.10883828894E+04  0.12943217873E+04  0.50400001928E-02 0. -1.
       -1    1    3    3    0  502 -0.25659052033E+03  0.65180739497E+03 -0.64069426902E+03  0.94930538903E+03  0.50400001928E-02 0.  1.
</event>
<event>
 5   0  0.1014015E-05  0.2202930E+04  0.7818609E-02  0.8517209E-01
       -2   -1    0    0    0  501  0.00000000000E+00  0.00000000000E+00  0.11590525889E+04  0.11590525889E+04  0.25500000920E-02 0. -1.
        2   -1    0    0  501    0  0.00000000000E+00  0.00000000000E+00 -0.10467390949E+04  0.10467390949E+04  0.25500000920E-02 0.  1.
    10030    2    1    2    0    0  0.00000000000E+00  0.00000000000E+00  0.11231349399E+03  0.22057916837E+04  0.22029304644E+04 0.  0.
        1    1    3    3  502    0  0.29472980144E+03  0.10334189058E+04 -0.18582916611E+03  0.10905745136E+04  0.50400001928E-02 0. -1.
       -1    1    3    3    0  502 -0.29472980144E+03 -0.10334189058E+04  0.29814266010E+03  0.11152171701E+04  0.50400001928E-02 0.  1.
</event>
<event>
 5   0  0.1035928E-05  0.2200454E+04  0.7818609E-02  0.8518239E-01
        2   -1    0    0  501    0  0.00000000000E+00  0.00000000000E+00  0.13725136689E+04  0.13725136689E+04  0.25500000920E-02 0. -1.
       -2   -1    0    0    0  501  0.00000000000E+00  0.00000000000E+00 -0.88195811030E+03  0.88195811030E+03  0.25500000920E-02 0.  1.
    10030    2    1    2    0    0  0.00000000000E+00  0.00000000000E+00  0.49055555859E+03  0.22544717792E+04  0.22004541002E+04 0.  0.
        3    1    3    3  502    0 -0.81885701266E+03 -0.73430125203E+03  0.21676631302E+03  0.11210320159E+04  0.10100000352E+00 0.  1.
       -3    1    3    3    0  502  0.81885701266E+03  0.73430125203E+03  0.27378924557E+03  0.11334397633E+04  0.10100000352E+00 0. -1.
</event>
<event>
 5   0  0.4309945E-06  0.2194442E+04  0.7818609E-02  0.8520745E-01
        1   -1    0    0  501    0  0.00000000000E+00  0.00000000000E+00  0.83407813710E+03  0.83407813711E+03  0.50400001928E-02 0.  1.
       -1   -1    0    0    0  501  0.00000000000E+00  0.00000000000E+00 -0.14433823622E+04  0.14433823622E+04  0.50400001928E-02 0. -1.
    10030    2    1    2    0    0  0.00000000000E+00  0.00000000000E+00 -0.60930422508E+03  0.22774604993E+04  0.21944417712E+04 0.  0.
        4    1    3    3  502    0  0.20827037797E+03 -0.10763813468E+04 -0.25919196051E+03  0.11265679914E+04  0.12699999809E+01 0.  1.
       -4    1    3    3    0  502 -0.20827037797E+03  0.10763813468E+04 -0.35011226457E+03  0.11508925079E+04  0.12699999809E+01 0. -1.
</event>
<event>
 5   0  0.1035928E-05  0.2200443E+04  0.7818609E-02  0.8518244E-01
        2   -1    0    0  501    0  0.00000000000E+00  0.00000000000E+00  0.17435167962E+04  0.17435167962E+04  0.25500000920E-02 0.  1.
       -2   -1    0    0    0  501  0.00000000000E+00  0.00000000000E+00 -0.69427883707E+03  0.69427883707E+03  0.25500000920E-02 0. -1.
    10030    2    1    2    0    0  0.00000000000E+00  0.00000000000E+00  0.10492379592E+04  0.24377956333E+04  0.22004425134E+04 0.  0.
        3    1    3    3  502    0  0.31889355115E+03 -0.26974002660E+03  0.16522688566E+04  0.17042432818E+04  0.10100000352E+00 0.  1.
       -3    1    3    3    0  502 -0.31889355115E+03  0.26974002660E+03 -0.60303089744E+03  0.73355235149E+03  0.10100000352E+00 0. -1.
</event>
<event>
 5   0  0.4630615E-06  0.2203612E+04  0.7818609E-02  0.8516926E-01
        1   -1    0    0  501    0  0.00000000000E+00  0.00000000000E+00  0.16161692179E+04  0.16161692179E+04  0.50400001928E-02 0.  1.
       -1   -1    0    0    0  501  0.00000000000E+00  0.00000000000E+00 -0.75114431260E+03  0.75114431262E+03  0.50400001928E-02 0. -1.
    10030    2    1    2    0    0  0.00000000000E+00  0.00000000000E+00  0.86502490528E+03  0.23673135305E+04  0.22036118680E+04 0.  0.
        2    1    3    3  502    0 -0.61213989017E+03 -0.53457676858E+03  0.12317485242E+04  0.14757005094E+04  0.25500000920E-02 0.  1.
       -2    1    3    3    0  502  0.61213989017E+03  0.53457676858E+03 -0.36672361894E+03  0.89161302106E+03  0.25500000920E-02 0. -1.
</event>
<event>
 5   0  0.1015876E-05  0.2199687E+04  0.7818609E-02  0.8518558E-01
        2   -1    0    0  501    0  0.00000000000E+00  0.00000000000E+00  0.73482264434E+03  0.73482264434E+03  0.25500000920E-02 0. -1.
       -2   -1    0    0    0  501  0.00000000000E+00  0.00000000000E+00 -0.16461875683E+04  0.16461875683E+04  0.25500000920E-02 0.  1.
    10030    2    1    2    0    0  0.00000000000E+00  0.00000000000E+00 -0.91136492396E+03  0.23810102126E+04  0.21996871614E+04 0.  0.
        5    1    3    3  502    0 -0.82900275560E+02  0.18099516704E+02 -0.16426283478E+04  0.16448252269E+04  0.46999998093E+01 0.  1.
       -5    1    3    3    0  502  0.82900275560E+02 -0.18099516704E+02  0.73126342382E+03  0.73618498572E+03  0.46999998093E+01 0. -1.
</event>
<event>
 5   0  0.1035928E-05  0.2200052E+04  0.7818609E-02  0.8518406E-01
       -2   -1    0    0    0  501  0.00000000000E+00  0.00000000000E+00  0.13302323523E+04  0.13302323523E+04  0.25500000920E-02 0. -1.
        2   -1    0    0  501    0  0.00000000000E+00  0.00000000000E+00 -0.90965868224E+03  0.90965868224E+03  0.25500000920E-02 0.  1.
    10030    2    1    2    0    0  0.00000000000E+00  0.00000000000E+00  0.42057367003E+03  0.22398910345E+04  0.22000521891E+04 0.  0.
        3    1    3    3  502    0 -0.68640848391E+03 -0.77059731656E+03 -0.17750488407E+03  0.10471317134E+04  0.10100000352E+00 0.  1.
       -3    1    3    3    0  502  0.68640848391E+03  0.77059731656E+03  0.59807855411E+03  0.11927593211E+04  0.10100000352E+00 0. -1.
</event>
<event>
 5   0  0.4630615E-06  0.2199853E+04  0.7818609E-02  0.8518489E-01
       -1   -1    0    0    0  501  0.00000000000E+00  0.00000000000E+00  0.62682930234E+03  0.62682930236E+03  0.50400001928E-02 0. -1.
        1   -1    0    0  501    0  0.00000000000E+00  0.00000000000E+00 -0.19300917724E+04  0.19300917724E+04  0.50400001928E-02 0.  1.
    10030    2    1    2    0    0  0.00000000000E+00  0.00000000000E+00 -0.13032624700E+04  0.25569210747E+04  0.21998527943E+04 0.  0.
        2    1    3    3  502    0  0.44765725470E+03  0.47370058374E+03 -0.16814766372E+04  0.18033726576E+04  0.25500000920E-02 0.  1.
       -2    1    3    3    0  502 -0.44765725470E+03 -0.47370058374E+03  0.37821416716E+03  0.75354841714E+03  0.25500000920E-02 0. -1.
</event>
<event>
 5   0  0.4630615E-06  0.2199636E+04  0.7818609E-02  0.8518580E-01
       -1   -1    0    0    0  501  0.00000000000E+00  0.00000000000E+00  0.10257386407E+04  0.10257386407E+04  0.50400001928E-02 0.  1.
        1   -1    0    0  501    0  0.00000000000E+00  0.00000000000E+00 -0.11792471871E+04  0.11792471871E+04  0.50400001928E-02 0. -1.
    10030    2    1    2    0    0  0.00000000000E+00  0.00000000000E+00 -0.15350854637E+03  0.22049858278E+04  0.21996357941E+04 0.  0.
        2    1    3    3  502    0  0.15478576191E+03  0.37708958642E+03  0.94722140847E+03  0.10312049190E+04  0.25500000920E-02 0.  1.
       -2    1    3    3    0  502 -0.15478576191E+03 -0.37708958642E+03 -0.11007299548E+04  0.11737809088E+04  0.25500000920E-02 0. -1.
</event>
<event>
 5   0  0.4794967E-06  0.2196236E+04  0.7818609E-02  0.8519997E-01
        1   -1    0    0  501    0  0.00000000000E+00  0.00000000000E+00  0.89477826570E+03  0.89477826571E+03  0.50400001928E-02 0. -1.
       -1   -1    0    0    0  501  0.00000000000E+00  0.00000000000E+00 -0.13476665052E+04  0.13476665052E+04  0.50400001928E-02 0.  1.
    10030    2    1    2    0    0  0.00000000000E+00  0.00000000000E+00 -0.45288823949E+03  0.22424447709E+04  0.21962355960E+04 0.  0.
        5    1    3    3  502    0  0.70464015693E+03  0.28250705195E+03  0.58366785350E+03  0.95761069249E+03  0.46999998093E+01 0. -1.
       -5    1    3    3    0  502 -0.70464015693E+03 -0.28250705195E+03 -0.10365560930E+04  0.12848340784E+04  0.46999998093E+01 0.  1.
</event>
<event>
 5   0  0.9963573E-06  0.2195310E+04  0.7818609E-02  0.8520383E-01
        2   -1    0    0  501    0  0.00000000000E+00  0.00000000000E+00  0.17820228985E+04  0.17820228985E+04  0.25500000920E-02 0. -1.
       -2   -1    0    0    0  501  0.00000000000E+00  0.00000000000E+00 -0.67611170941E+03  0.67611170941E+03  0.25500000920E-02 0.  1.
    10030    2    1    2    0    0  0.00000000000E+00  0.00000000000E+00  0.11059111891E+04  0.24581346079E+04  0.21953100447E+04 0.  0.
        2    1    3    3  502    0 -0.13245384882E+03 -0.68294441252E+03 -0.39774580503E+03  0.80134812540E+03  0.25500000920E-02 0.  1.
       -2    1    3    3    0  502  0.13245384882E+03  0.68294441252E+03  0.15036569942E+04  0.16567864825E+04  0.25500000920E-02 0. -1.
</event>
<event>
 5   0  0.9963573E-06  0.2200599E+04  0.7818609E-02  0.8518179E-01
        2   -1    0    0  501    0  0.00000000000E+00  0.00000000000E+00  0.48574905012E+03  0.48574905013E+03  0.25500000920E-02 0. -1.
       -2   -1    0    0    0  501  0.00000000000E+00  0.00000000000E+00 -0.24923545817E+04  0.24923545817E+04  0.25500000920E-02 0.  1.
    10030    2    1    2    0    0  0.00000000000E+00  0.00000000000E+00 -0.20066055316E+04  0.29781036318E+04  0.22005988918E+04 0.  0.
        2    1    3    3  502    0  0.53921108989E+03  0.94245749782E+02  0.28840651859E+03  0.61871575120E+03  0.25500000920E-02 0. -1.
       -2    1    3    3    0  502 -0.53921108989E+03 -0.94245749782E+02 -0.22950120502E+04  0.23593878806E+04  0.25500000920E-02 0.  1.
</event>
<event>
 5   0  0.4462201E-06  0.2200033E+04  0.7818609E-02  0.8518414E-01
        1   -1    0    0  501    0  0.00000000000E+00  0.00000000000E+00  0.25853691206E+04  0.25853691206E+04  0.50400001928E-02 0.  1.
       -1   -1    0    0    0  501  0.00000000000E+00  0.00000000000E+00 -0.46803226194E+03  0.46803226197E+03  0.50400001928E-02 0. -1.
    10030    2    1    2    0    0  0.00000000000E+00  0.00000000000E+00  0.21173368587E+04  0.30534013826E+04  0.22000328702E+04 0.  0.
        3    1    3    3  502    0  0.31202076840E+03 -0.19538985496E+03  0.24973289992E+04  0.25243189766E+04  0.10100000352E+00 0.  1.
       -3    1    3    3    0  502 -0.31202076840E+03  0.19538985496E+03 -0.37999214047E+03  0.52908240602E+03  0.10100000352E+00 0. -1.
</event>
<event>
 5   0  0.9963173E-06  0.2201608E+04  0.7818609E-02  0.8517759E-01
        2   -1    0    0  501    0  0.00000000000E+00  0.00000000000E+00  0.20513508772E+04  0.20513508772E+04  0.25500000920E-02 0. -1.
       -2   -1    0    0    0  501  0.00000000000E+00  0.00000000000E+00 -0.59071780536E+03  0.59071780537E+03  0.25500000920E-02 0.  1.
    10030    2    1    2    0    0  0.00000000000E+00  0.00000000000E+00  0.14606330718E+04  0.26420686826E+04  0.22016080380E+04 0.  0.
        4    1    3    3  502    0 -0.59547834443E+03  0.12175855314E+01  0.18413779683E+04  0.19352701042E+04  0.12699999809E+01 0. -1.
       -4    1    3    3    0  502  0.59547834443E+03 -0.12175855314E+01 -0.38074489651E+03  0.70679857832E+03  0.12699999809E+01 0.  1.
</event>
<event>
 5   0  0.4408787E-06  0.2208690E+04  0.7818609E-02  0.8514820E-01
        1   -1    0    0  501    0  0.00000000000E+00  0.00000000000E+00  0.97897394772E+03  0.97897394773E+03  0.50400001928E-02 0. -1.
       -1   -1    0    0    0  501  0.00000000000E+00  0.00000000000E+00 -0.12457716205E+04  0.12457716205E+04  0.50400001928E-02 0.  1.
    10030    2    1    2    0    0  0.00000000000E+00  0.00000000000E+00 -0.26679767277E+03  0.22247455682E+04  0.22086900745E+04 0.  0.
        1    1    3    3  502    0  0.78133679154E+02 -0.19289813789E+03 -0.12258395125E+04  0.12433813067E+04  0.50400001928E-02 0.  1.
       -1    1    3    3    0  502 -0.78133679154E+02  0.19289813789E+03  0.95904183973E+03  0.98136426152E+03  0.50400001928E-02 0. -1.
</event>
<event>
 5   0  0.9963573E-06  0.2203265E+04  0.7818609E-02  0.8517070E-01
        2   -1    0    0  501    0  0.00000000000E+00  0.00000000000E+00  0.12709644180E+04  0.12709644180E+04  0.25500000920E-02 0.  1.
       -2   -1    0    0    0  501  0.00000000000E+00  0.00000000000E+00 -0.95486110780E+03  0.95486110781E+03  0.25500000920E-02 0. -1.
    10030    2    1    2    0    0  0.00000000000E+00  0.00000000000E+00  0.31610331015E+03  0.22258255258E+04  0.22032652969E+04 0.  0.
        2    1    3    3  502    0  0.25848827864E+03 -0.43802719588E+03 -0.82914949776E+03  0.97271419449E+03  0.25500000920E-02 0. -1.
       -2    1    3    3    0  502 -0.25848827864E+03  0.43802719588E+03  0.11452528079E+04  0.12531113313E+04  0.25500000920E-02 0.  1.
</event>
<event>
 5   0  0.4462201E-06  0.2200663E+04  0.7818609E-02  0.8518152E-01
        1   -1    0    0  501    0  0.00000000000E+00  0.00000000000E+00  0.12533301122E+04  0.12533301122E+04  0.50400001928E-02 0. -1.
       -1   -1    0    0    0  501  0.00000000000E+00  0.00000000000E+00 -0.96601026271E+03  0.96601026272E+03  0.50400001928E-02 0.  1.
    10030    2    1    2    0    0  0.00000000000E+00  0.00000000000E+00  0.28731984949E+03  0.22193403749E+04  0.22006633100E+04 0.  0.
        3    1    3    3  502    0  0.71032017129E+03  0.29733765579E+03 -0.64899118331E+03  0.10070521305E+04  0.10100000352E+00 0.  1.
       -3    1    3    3    0  502 -0.71032017129E+03 -0.29733765579E+03  0.93631103280E+03  0.12122882444E+04  0.10100000352E+00 0. -1.
</event>
<event>
 5   0  0.1014015E-05  0.2219174E+04  0.7818609E-02  0.8510490E-01
       -2   -1    0    0    0  501  0.00000000000E+00  0.00000000000E+00  0.12624575798E+04  0.12624575798E+04  0.25500000920E-02 0.  1.
        2   -1    0    0  501    0  0.00000000000E+00  0.00000000000E+00 -0.97522771135E+03  0.97522771136E+03  0.25500000920E-02 0. -1.
    10030    2    1    2    0    0  0.00000000000E+00  0.00000000000E+00  0.28722986847E+03  0.22376852912E+04  0.22191742755E+04 0.  0.
        1    1    3    3  502    0 -0.72355615461E+03  0.71113367622E+03 -0.30950972823E+03  0.10606794456E+04  0.50400001928E-02 0. -1.
       -1    1    3    3    0  502  0.72355615461E+03 -0.71113367622E+03  0.59673959670E+03  0.11770058456E+04  0.50400001928E-02 0.  1.
</event>
<event>
 5   0  0.1015876E-05  0.2209858E+04  0.7818609E-02  0.8514336E-01
       -2   -1    0    0    0  501  0.00000000000E+00  0.00000000000E+00  0.13775822669E+04  0.13775822669E+04  0.25500000920E-02 0. -1.
        2   -1    0    0  501    0  0.00000000000E+00  0.00000000000E+00 -0.88623930142E+03  0.88623930142E+03  0.25500000920E-02 0.  1.
    10030    2    1    2    0    0  0.00000000000E+00  0.00000000000E+00  0.49134296545E+03  0.22638215683E+04  0.22098575030E+04 0.  0.
        5    1    3    3  502    0 -0.25236496187E+03 -0.96138945967E+03 -0.24869747001E+03  0.10246122626E+04  0.46999998093E+01 0. -1.
       -5    1    3    3    0  502  0.25236496187E+03  0.96138945967E+03  0.74004043545E+03  0.12392093057E+04  0.46999998093E+01 0.  1.
</event>
<event>
 5   0  0.4408787E-06  0.2199881E+04  0.7818609E-02  0.8518478E-01
       -1   -1    0    0    0  501  0.00000000000E+00  0.00000000000E+00  0.55303844824E+03  0.55303844826E+03  0.50400001928E-02 0. -1.
        1   -1    0    0  501    0  0.00000000000E+00  0.00000000000E+00 -0.21876753417E+04  0.21876753417E+04  0.50400001928E-02 0.  1.
    10030    2    1    2    0    0  0.00000000000E+00  0.00000000000E+00 -0.16346368935E+04  0.27407137900E+04  0.21998805206E+04 0.  0.
        1    1    3    3  502    0  0.67798587985E+03 -0.75598860133E+03 -0.13439520749E+04  0.16844556386E+04  0.50400001928E-02 0.  1.
       -1    1    3    3    0  502 -0.67798587985E+03  0.75598860133E+03 -0.29068481853E+03  0.10562581514E+04  0.50400001928E-02 0. -1.
</event>
<event>
 5   0  0.4309945E-06  0.2196842E+04  0.7818609E-02  0.8519744E-01
       -1   -1    0    0    0  501  0.00000000000E+00  0.00000000000E+00  0.81384641365E+03  0.81384641367E+03  0.50400001928E-02 0.  1.
        1   -1    0    0  501    0  0.00000000000E+00  0.00000000000E+00 -0.14825018909E+04  0.14825018909E+04  0.50400001928E-02 0. -1.
    10030    2    1    2    0    0  0.00000000000E+00  0.00000000000E+00 -0.66865547727E+03  0.22963483046E+04  0.21968421402E+04 0.  0.
        4    1    3    3  502    0  0.55077993121E+03 -0.47258286467E+03  0.52753954483E+03  0.89721384344E+03  0.12699999809E+01 0.  1.
       -4    1    3    3    0  502 -0.55077993121E+03  0.47258286467E+03 -0.11961950221E+04  0.13991344612E+04  0.12699999809E+01 0. -1.
</event>
<event>
 5   0  0.4309945E-06  0.2200584E+04  0.7818609E-02  0.8518185E-01
       -1   -1    0    0    0  501  0.00000000000E+00  0.00000000000E+00  0.12175048274E+04  0.12175048274E+04  0.50400001928E-02 0. -1.
        1   -1    0    0  501    0  0.00000000000E+00  0.00000000000E+00 -0.99436321421E+03  0.99436321423E+03  0.50400001928E-02 0.  1.
    10030    2    1    2    0    0  0.00000000000E+00  0.00000000000E+00  0.22314161318E+03  0.22118680416E+04  0.22005835713E+04 0.  0.
        4    1    3    3  502    0  0.33002873134E+02 -0.56401024084E+03  0.10605753628E+04  0.12016731895E+04  0.12699999809E+01 0. -1.
       -4    1    3    3    0  502 -0.33002873134E+02  0.56401024084E+03 -0.83743374958E+03  0.10101948521E+04  0.12699999809E+01 0.  1.
</event>
<event>
 5   0  0.9963573E-06  0.2215009E+04  0.7818609E-02  0.8512207E-01
        2   -1    0    0  501    0  0.00000000000E+00  0.00000000000E+00  0.95514446741E+03  0.95514446741E+03  0.25500000920E-02 0.  1.
       -2   -1    0    0    0  501  0.00000000000E+00  0.00000000000E+00 -0.12841681993E+04  0.12841681993E+04  0.25500000920E-02 0. -1.
    10030    2    1    2    0    0  0.00000000000E+00  0.00000000000E+00 -0.32902373187E+03  0.22393126667E+04  0.22150089397E+04 0.  0.
        2    1    3    3  502    0  0.95141882784E+03 -0.39044008683E+03 -0.58002627906E+03  0.11807081484E+04  0.25500000920E-02 0. -1.
       -2    1    3    3    0  502 -0.95141882784E+03  0.39044008683E+03  0.25100254719E+03  0.10586045183E+04  0.25500000920E-02 0.  1.
</event>
<event>
 5   0  0.9963573E-06  0.2198063E+04  0.7818609E-02  0.8519235E-01
       -2   -1    0    0    0  501  0.00000000000E+00  0.00000000000E+00  0.66148242878E+03  0.66148242879E+03  0.25500000920E-02 0.  1.
        2   -1    0    0  501    0  0.00000000000E+00  0.00000000000E+00 -0.18260056156E+04  0.18260056156E+04  0.25500000920E-02 0. -1.
    10030    2    1    2    0    0  0.00000000000E+00  0.00000000000E+00 -0.11645231868E+04  0.24874880444E+04  0.21980633563E+04 0.  0.
        2    1    3    3  502    0 -0.24870971989E+03  0.52167912800E+03 -0.16401575728E+04  0.17390004316E+04  0.25500000920E-02 0. -1.
       -2    1    3    3    0  502  0.24870971989E+03 -0.52167912800E+03  0.47563438601E+03  0.74848761280E+03  0.25500000920E-02 0.  1.
</event>
<event>
 5   0  0.9963173E-06  0.2206172E+04  0.7818609E-02  0.8515864E-01
        2   -1    0    0  501    0  0.00000000000E+00  0.00000000000E+00  0.18784474659E+04  0.18784474659E+04  0.25500000920E-02 0. -1.
       -2   -1    0    0    0  501  0.00000000000E+00  0.00000000000E+00 -0.64776835697E+03  0.64776835697E+03  0.25500000920E-02 0.  1.
    10030    2    1    2    0    0  0.00000000000E+00  0.00000000000E+00  0.12306791090E+04  0.25262158229E+04  0.22061720954E+04 0.  0.
        4    1    3    3  502    0  0.30754674562E+03  0.10224778442E+04  0.29810984181E+03  0.11085653041E+04  0.12699999809E+01 0.  1.
       -4    1    3    3    0  502 -0.30754674562E+03 -0.10224778442E+04  0.93256926716E+03  0.14176505189E+04  0.12699999809E+01 0. -1.
</event>
<event>
 5   0  0.1015876E-05  0.2200350E+04  0.7818609E-02  0.8518282E-01
        2   -1    0    0  501    0  0.00000000000E+00  0.00000000000E+00  0.13086380257E+04  0.13086380257E+04  0.25500000920E-02 0. -1.
       -2   -1    0    0    0  501  0.00000000000E+00  0.00000000000E+00 -0.92491987983E+03  0.92491987984E+03  0.25500000920E-02 0.  1.
    10030    2    1    2    0    0  0.00000000000E+00  0.00000000000E+00  0.38371814586E+03  0.22335579055E+04  0.22003502680E+04 0.  0.
        5    1    3    3  502    0  0.76449620395E+03 -0.32177371794E+02 -0.61056032092E+03  0.97892585245E+03  0.46999998093E+01 0.  1.
       -5    1    3    3    0  502 -0.76449620395E+03  0.32177371794E+02  0.99427846678E+03  0.12546320531E+04  0.46999998093E+01 0. -1.
</event>
<event>
 5   0  0.9963573E-06  0.2204256E+04  0.7818609E-02  0.8516659E-01
        2   -1    0    0  501    0  0.00000000000E+00  0.00000000000E+00  0.12820787906E+04  0.12820787906E+04  0.25500000920E-02 0.  1.
       -2   -1    0    0    0  501  0.00000000000E+00  0.00000000000E+00 -0.94743506696E+03  0.94743506697E+03  0.25500000920E-02 0. -1.
    10030    2    1    2    0    0  0.00000000000E+00  0.00000000000E+00  0.33464372364E+03  0.22295138576E+04  0.22042562508E+04 0.  0.
        2    1    3    3  502    0 -0.91920217040E+03 -0.95533050582E+02 -0.44008171022E+03  0.10235873707E+04  0.25500000920E-02 0. -1.
       -2    1    3    3    0  502  0.91920217040E+03  0.95533050582E+02  0.77472543386E+03  0.12059264869E+04  0.25500000920E-02 0.  1.
</event>
<event>
 5   0  0.1014015E-05  0.2204262E+04  0.7818609E-02  0.8516656E-01
       -2   -1    0    0    0  501  0.00000000000E+00  0.00000000000E+00  0.11931609094E+04  0.11931609094E+04  0.25500000920E-02 0.  1.
        2   -1    0    0  501    0  0.00000000000E+00  0.00000000000E+00 -0.10180456415E+04  0.10180456415E+04  0.25500000920E-02 0. -1.
    10030    2    1    2    0    0  0.00000000000E+00  0.00000000000E+00  0.17511526796E+03  0.22112065509E+04  0.22042615665E+04 0.  0.
        1    1    3    3  502    0  0.18823563804E+03  0.10150756187E+04 -0.29950920256E+03  0.10749497335E+04  0.50400001928E-02 0. -1.
       -1    1    3    3    0  502 -0.18823563804E+03 -0.10150756187E+04  0.47462447052E+03  0.11362568174E+04  0.50400001928E-02 0.  1.
</event>
<event>
 5   0  0.9963173E-06  0.2205108E+04  0.7818609E-02  0.8516305E-01
       -2   -1    0    0    0  501  0.00000000000E+00  0.00000000000E+00  0.11226520859E+04  0.11226520859E+04  0.25500000920E-02 0.  1.
        2   -1    0    0  501    0  0.00000000000E+00  0.00000000000E+00 -0.10828156039E+04  0.10828156039E+04  0.25500000920E-02 0. -1.
    10030    2    1    2    0    0  0.00000000000E+00  0.00000000000E+00  0.39836482011E+02  0.22054676899E+04  0.22051078853E+04 0.  0.
        4    1    3    3  502    0  0.98804573283E+03 -0.18391266363E+03  0.47338536734E+03  0.11109246405E+04  0.12699999809E+01 0.  1.
       -4    1    3    3    0  502 -0.98804573283E+03  0.18391266363E+03 -0.43354888533E+03  0.10945430493E+04  0.12699999809E+01 0. -1.
</event>
<event>
 5   0  0.9963173E-06  0.2199873E+04  0.7818609E-02  0.8518481E-01
       -2   -1    0    0    0  501  0.00000000000E+00  0.00000000000E+00  0.87117279105E+03  0.87117279105E+03  0.25500000920E-02 0.  1.
        2   -1    0    0  501    0  0.00000000000E+00  0.00000000000E+00 -0.13887716607E+04  0.13887716607E+04  0.25500000920E-02 0. -1.
    10030    2    1    2    0    0  0.00000000000E+00  0.00000000000E+00 -0.51759886965E+03  0.22599444518E+04  0.21998727998E+04 0.  0.
        4    1    3    3  502    0  0.68054946067E+02  0.10761891070E+04 -0.35980383382E+02  0.10789396047E+04  0.12699999809E+01 0.  1.
       -4    1    3    3    0  502 -0.68054946067E+02 -0.10761891070E+04 -0.48161848627E+03  0.11810048471E+04  0.12699999809E+01 0. -1.
</event>
<event>
 5   0  0.1015876E-05  0.2199647E+04  0.7818609E-02  0.8518575E-01
       -2   -1    0    0    0  501  0.00000000000E+00  0.00000000000E+00  0.92058382766E+03  0.92058382766E+03  0.25500000920E-02 0. -1.
        2   -1    0    0  501    0  0.00000000000E+00  0.00000000000E+00 -0.13139612716E+04  0.13139612716E+04  0.25500000920E-02 0.  1.
    10030    2    1    2    0    0  0.00000000000E+00  0.00000000000E+00 -0.39337744391E+03  0.22345450992E+04  0.21996467869E+04 0.  0.
        5    1    3    3  502    0  0.17948242580E+03  0.11111453341E+03  0.89980095815E+03  0.92424251957E+03  0.46999998093E+01 0. -1.
       -5    1    3    3    0  502 -0.17948242580E+03 -0.11111453341E+03 -0.12931784021E+04  0.13103025797E+04  0.46999998093E+01 0.  1.
</event>
<event>
 5   0  0.4309945E-06  0.2199076E+04  0.7818609E-02  0.8518813E-01
       -1   -1    0    0    0  501  0.00000000000E+00  0.00000000000E+00  0.12785224900E+04  0.12785224900E+04  0.50400001928E-02 0.  1.
        1   -1    0    0  501    0  0.00000000000E+00  0.00000000000E+00 -0.94561002426E+03  0.94561002427E+03  0.50400001928E-02 0. -1.
    10030    2    1    2    0    0  0.00000000000E+00  0.00000000000E+00  0.33291246575E+03  0.22241325143E+04  0.21990758812E+04 0.  0.
        4    1    3    3  502    0  0.63219956682E+03  0.87839553386E+03  0.36290393196E+03  0.11414709295E+04  0.12699999809E+01 0.  1.
       -4    1    3    3    0  502 -0.63219956682E+03 -0.87839553386E+03 -0.29991466207E+02  0.10826615848E+04  0.12699999809E+01 0. -1.
</event>
<event>
 5   0  0.1015876E-05  0.2201759E+04  0.7818609E-02  0.8517696E-01
        2   -1    0    0  501    0  0.00000000000E+00  0.00000000000E+00  0.22503031192E+04  0.22503031192E+04  0.25500000920E-02 0. -1.
       -2   -1    0    0    0  501  0.00000000000E+00  0.00000000000E+00 -0.53856575556E+03  0.53856575557E+03  0.25500000920E-02 0.  1.
    10030    2    1    2    0    0  0.00000000000E+00  0.00000000000E+00  0.17117373636E+04  0.27888688748E+04  0.22017594779E+04 0.  0.
        5    1    3    3  502    0  0.11716484603E+03 -0.47890567493E+03 -0.39089264972E+03  0.62920378275E+03  0.46999998093E+01 0.  1.
       -5    1    3    3    0  502 -0.11716484603E+03  0.47890567493E+03  0.21026300134E+04  0.21596650920E+04  0.46999998093E+01 0. -1.
</event>
<event>
 5   0  0.1035928E-05  0.2194004E+04  0.7818609E-02  0.8520928E-01
        2   -1    0    0  501    0  0.00000000000E+00  0.00000000000E+00  0.22654552763E+04  0.22654552763E+04  0.25500000920E-02 0.  1.
       -2   -1    0    0    0  501  0.00000000000E+00  0.00000000000E+00 -0.53120136062E+03  0.53120136062E+03  0.25500000920E-02 0. -1.
    10030    2    1    2    0    0  0.00000000000E+00  0.00000000000E+00  0.17342539157E+04  0.27966566369E+04  0.21940035781E+04 0.  0.
        3    1    3    3  502    0  0.33415110917E+03  0.36683937830E+03  0.21142224768E+04  0.21716732684E+04  0.10100000352E+00 0.  1.
       -3    1    3    3    0  502 -0.33415110917E+03 -0.36683937830E+03 -0.37996856112E+03  0.62498336848E+03  0.10100000352E+00 0. -1.
</event>
<event>
 5   0  0.3546750E-06  0.2200618E+04  0.7818609E-02  0.8518171E-01
        4   -1    0    0  501    0  0.00000000000E+00  0.00000000000E+00  0.10992181464E+04  0.10992188800E+04  0.12699999809E+01 0.  1.
       -4   -1    0    0    0  501  0.00000000000E+00  0.00000000000E+00 -0.11013995534E+04  0.11014002856E+04  0.12699999809E+01 0. -1.
    10030    2    1    2    0    0  0.00000000000E+00  0.00000000000E+00 -0.21814069788E+01  0.22006191656E+04  0.22006180844E+04 0.  0.
        1    1    3    3  502    0  0.97548778588E+03  0.21901689996E+03 -0.46058539656E+03  0.11007650659E+04  0.50400001928E-02 0. -1.
       -1    1    3    3    0  502 -0.97548778588E+03 -0.21901689996E+03  0.45840398958E+03  0.10998540997E+04  0.50400001928E-02 0.  1.
</event>
<event>
 5   0  0.4408787E-06  0.2203125E+04  0.7818609E-02  0.8517129E-01
       -1   -1    0    0    0  501  0.00000000000E+00  0.00000000000E+00  0.10896251039E+04  0.10896251039E+04  0.50400001928E-02 0. -1.
        1   -1    0    0  501    0  0.00000000000E+00  0.00000000000E+00 -0.11136302396E+04  0.11136302397E+04  0.50400001928E-02 0.  1.
    10030    2    1    2    0    0  0.00000000000E+00  0.00000000000E+00 -0.24005135752E+02  0.22032553436E+04  0.22031245681E+04 0.  0.
        1    1    3    3  502    0 -0.24051064641E+02 -0.10861578705E+04 -0.19400812944E+03  0.11036106776E+04  0.50400001928E-02 0. -1.
       -1    1    3    3    0  502  0.24051064641E+02  0.10861578705E+04  0.17000299368E+03  0.10996446659E+04  0.50400001928E-02 0.  1.
</event>
<event>
 5   0  0.4794967E-06  0.2204210E+04  0.7818609E-02  0.8516678E-01
       -1   -1    0    0    0  501  0.00000000000E+00  0.00000000000E+00  0.49960737192E+03  0.49960737194E+03  0.50400001928E-02 0. -1.
        1   -1    0    0  501    0  0.00000000000E+00  0.00000000000E+00 -0.24311788838E+04  0.24311788838E+04  0.50400001928E-02 0.  1.
    10030    2    1    2    0    0  0.00000000000E+00  0.00000000000E+00 -0.19315715118E+04  0.29307862557E+04  0.22042095117E+04 0.  0.
        5    1    3    3  502    0 -0.81373928606E+03 -0.26199350723E+03 -0.40950310844E+02  0.85586870574E+03  0.46999998093E+01 0. -1.
       -5    1    3    3    0  502  0.81373928606E+03  0.26199350723E+03 -0.18906212010E+04  0.20749175500E+04  0.46999998093E+01 0.  1.
</event>
<event>
 5   0  0.4794967E-06  0.2199304E+04  0.7818609E-02  0.8518718E-01
        1   -1    0    0  501    0  0.00000000000E+00  0.00000000000E+00  0.16475948467E+04  0.16475948467E+04  0.50400001928E-02 0. -1.
       -1   -1    0    0    0  501  0.00000000000E+00  0.00000000000E+00 -0.73393915499E+03  0.73393915500E+03  0.50400001928E-02 0.  1.
    10030    2    1    2    0    0  0.00000000000E+00  0.00000000000E+00  0.91365569171E+03  0.23815340017E+04  0.21993038622E+04 0.  0.
        5    1    3    3  502    0 -0.19139332980E+03  0.62424590004E+03 -0.50130145504E+03  0.82318867171E+03  0.46999998093E+01 0.  1.
       -5    1    3    3    0  502  0.19139332980E+03 -0.62424590004E+03  0.14149571467E+04  0.15583453300E+04  0.46999998093E+01 0. -1.
</event>
<event>
 5   0  0.1014015E-05  0.2197353E+04  0.7818609E-02  0.8519530E-01
        2   -1    0    0  501    0  0.00000000000E+00  0.00000000000E+00  0.14941812195E+04  0.14941812195E+04  0.25500000920E-02 0.  1.
       -2   -1    0    0    0  501  0.00000000000E+00  0.00000000000E+00 -0.80786084955E+03  0.80786084955E+03  0.25500000920E-02 0. -1.
    10030    2    1    2    0    0  0.00000000000E+00  0.00000000000E+00  0.68632036992E+03  0.23020420690E+04  0.21973534166E+04 0.  0.
        1    1    3    3  502    0  0.18385084766E+03 -0.42707875869E+03 -0.69970158422E+03  0.84010696182E+03  0.50400001928E-02 0. -1.
       -1    1    3    3    0  502 -0.18385084766E+03  0.42707875869E+03  0.13860219541E+04  0.14619351072E+04  0.50400001928E-02 0.  1.
</event>
<event>
 5   0  0.1014015E-05  0.2167792E+04  0.7818609E-02  0.8531955E-01
        2   -1    0    0  501    0  0.00000000000E+00  0.00000000000E+00  0.23276697950E+04  0.23276697950E+04  0.25500000920E-02 0. -1.
       -2   -1    0    0    0  501  0.00000000000E+00  0.00000000000E+00 -0.50472378251E+03  0.50472378252E+03  0.25500000920E-02 0.  1.
    10030    2    1    2    0    0  0.00000000000E+00  0.00000000000E+00  0.18229460125E+04  0.28323935775E+04  0.21677917828E+04 0.  0.
        1    1    3    3  502    0  0.70884039070E+03 -0.31276703427E+03  0.19018507031E+04  0.20536099956E+04  0.50400001928E-02 0. -1.
       -1    1    3    3    0  502 -0.70884039070E+03  0.31276703427E+03 -0.78904690604E+02  0.77878358190E+03  0.50400001928E-02 0.  1.
</event>
<event>
 5   0  0.4309945E-06  0.2198226E+04  0.7818609E-02  0.8519167E-01
        1   -1    0    0  501    0  0.00000000000E+00  0.00000000000E+00  0.13929926089E+04  0.13929926089E+04  0.50400001928E-02 0. -1.
       -1   -1    0    0    0  501  0.00000000000E+00  0.00000000000E+00 -0.86723332772E+03  0.86723332773E+03  0.50400001928E-02 0.  1.
    10030    2    1    2    0    0  0.00000000000E+00  0.00000000000E+00  0.52575928120E+03  0.22602259367E+04  0.21982262083E+04 0.  0.
        4    1    3    3  502    0 -0.72140930916E+03 -0.62423358021E+03  0.82412204239E+03  0.12606655812E+04  0.12699999809E+01 0. -1.
       -4    1    3    3    0  502  0.72140930916E+03  0.62423358021E+03 -0.29836276119E+03  0.99956035544E+03  0.12699999809E+01 0.  1.
</event>
<event>
 5   0  0.9963573E-06  0.2198419E+04  0.7818609E-02  0.8519086E-01
       -2   -1    0    0    0  501  0.00000000000E+00  0.00000000000E+00  0.48452273241E+03  0.48452273242E+03  0.25500000920E-02 0. -1.
        2   -1    0    0  501    0  0.00000000000E+00  0.00000000000E+00 -0.24937151015E+04  0.24937151015E+04  0.25500000920E-02 0.  1.
    10030    2    1    2    0    0  0.00000000000E+00  0.00000000000E+00 -0.20091923691E+04  0.29782378339E+04  0.21984191182E+04 0.  0.
        2    1    3    3  502    0 -0.94740023279E+03 -0.54186312498E+03 -0.11816387347E+04  0.16085561683E+04  0.25500000920E-02 0. -1.
       -2    1    3    3    0  502  0.94740023279E+03  0.54186312498E+03 -0.82755363442E+03  0.13696816656E+04  0.25500000920E-02 0.  1.
</event>
<event>
 5   0  0.3546750E-06  0.2195564E+04  0.7818609E-02  0.8520277E-01
        3   -1    0    0  501    0  0.00000000000E+00  0.00000000000E+00  0.17952440326E+04  0.17952440354E+04  0.10100000352E+00 0.  1.
       -3   -1    0    0    0  501  0.00000000000E+00  0.00000000000E+00 -0.67128771600E+03  0.67128772360E+03  0.10100000352E+00 0. -1.
    10030    2    1    2    0    0  0.00000000000E+00  0.00000000000E+00  0.11239563166E+04  0.24665317590E+04  0.21955639632E+04 0.  0.
        1    1    3    3  502    0 -0.13549352860E+01  0.70975997235E+03 -0.37885458335E+03  0.80454449818E+03  0.50400001928E-02 0. -1.
       -1    1    3    3    0  502  0.13549352860E+01 -0.70975997235E+03  0.15028108999E+04  0.16619872608E+04  0.50400001928E-02 0.  1.
</event>
<event>
 5   0  0.1015876E-05  0.2161053E+04  0.7818609E-02  0.8534816E-01
       -2   -1    0    0    0  501  0.00000000000E+00  0.00000000000E+00  0.85970494619E+03  0.85970494619E+03  0.25500000920E-02 0.  1.
        2   -1    0    0  501    0  0.00000000000E+00  0.00000000000E+00 -0.13580676054E+04  0.13580676054E+04  0.25500000920E-02 0. -1.
    10030    2    1    2    0    0  0.00000000000E+00  0.00000000000E+00 -0.49836265924E+03  0.22177725516E+04  0.21610529264E+04 0.  0.
        5    1    3    3  502    0  0.34640852123E+03  0.74676065911E+03  0.46909210974E+03  0.94748078766E+03  0.46999998093E+01 0.  1.
       -5    1    3    3    0  502 -0.34640852123E+03 -0.74676065911E+03 -0.96745476898E+03  0.12702917640E+04  0.46999998093E+01 0. -1.
</event>
<event>
 5   0  0.1015876E-05  0.2200722E+04  0.7818609E-02  0.8518128E-01
       -2   -1    0    0    0  501  0.00000000000E+00  0.00000000000E+00  0.19418574015E+04  0.19418574015E+04  0.25500000920E-02 0.  1.
        2   -1    0    0  501    0  0.00000000000E+00  0.00000000000E+00 -0.62352400148E+03  0.62352400148E+03  0.25500000920E-02 0. -1.
    10030    2    1    2    0    0  0.00000000000E+00  0.00000000000E+00  0.13183334000E+04  0.25653814029E+04  0.22007223335E+04 0.  0.
        5    1    3    3  502    0  0.51431823914E+03  0.51576447223E+03  0.16205943635E+04  0.17767623428E+04  0.46999998093E+01 0.  1.
       -5    1    3    3    0  502 -0.51431823914E+03 -0.51576447223E+03 -0.30226096350E+03  0.78861906012E+03  0.46999998093E+01 0. -1.
</event>
<event>
 5   0  0.4408787E-06  0.2204809E+04  0.7818609E-02  0.8516429E-01
        1   -1    0    0  501    0  0.00000000000E+00  0.00000000000E+00  0.83337244154E+03  0.83337244155E+03  0.50400001928E-02 0.  1.
       -1   -1    0    0    0  501  0.00000000000E+00  0.00000000000E+00 -0.14582868031E+04  0.14582868031E+04  0.50400001928E-02 0. -1.
    10030    2    1    2    0    0  0.00000000000E+00  0.00000000000E+00 -0.62491436160E+03  0.22916592447E+04  0.22048093193E+04 0.  0.
        1    1    3    3  502    0  0.64927188242E+03 -0.32072059815E+03  0.55147654279E+03  0.91024285587E+03  0.50400001928E-02 0.  1.
       -1    1    3    3    0  502 -0.64927188242E+03  0.32072059815E+03 -0.11763909044E+04  0.13814163888E+04  0.50400001928E-02 0. -1.
</event>
<event>
 5   0  0.4309945E-06  0.2199861E+04  0.7818609E-02  0.8518486E-01
        1   -1    0    0  501    0  0.00000000000E+00  0.00000000000E+00  0.14731167058E+04  0.14731167058E+04  0.50400001928E-02 0.  1.
       -1   -1    0    0    0  501  0.00000000000E+00  0.00000000000E+00 -0.82128397989E+03  0.82128397991E+03  0.50400001928E-02 0. -1.
    10030    2    1    2    0    0  0.00000000000E+00  0.00000000000E+00  0.65183272593E+03  0.22944006857E+04  0.21998610420E+04 0.  0.
        4    1    3    3  502    0  0.49847934883E+03 -0.73836414922E+03 -0.34692982649E+03  0.95604664922E+03  0.12699999809E+01 0. -1.
       -4    1    3    3    0  502 -0.49847934883E+03  0.73836414922E+03  0.99876255242E+03  0.13383540365E+04  0.12699999809E+01 0.  1.
</event>
<event>
 5   0  0.1035928E-05  0.2204567E+04  0.7818609E-02  0.8516530E-01
        2   -1    0    0  501    0  0.00000000000E+00  0.00000000000E+00  0.83088862366E+03  0.83088862367E+03  0.25500000920E-02 0.  1.
       -2   -1    0    0    0  501  0.00000000000E+00  0.00000000000E+00 -0.14623250572E+04  0.14623250572E+04  0.25500000920E-02 0. -1.
    10030    2    1    2    0    0  0.00000000000E+00  0.00000000000E+00 -0.63143643358E+03  0.22932136809E+04  0.22045673083E+04 0.  0.
        3    1    3    3  502    0  0.11169606439E+03  0.10736340447E+04 -0.83438595863E+02  0.10826486421E+04  0.10100000352E+00 0.  1.
       -3    1    3    3    0  502 -0.11169606439E+03 -0.10736340447E+04 -0.54799783771E+03  0.12105650388E+04  0.10100000352E+00 0. -1.
</event>
<event>
 5   0  0.1014015E-05  0.2200237E+04  0.7818609E-02  0.8518329E-01
        2   -1    0    0  501    0  0.00000000000E+00  0.00000000000E+00  0.99444206193E+03  0.99444206193E+03  0.25500000920E-02 0.  1.
       -2   -1    0    0    0  501  0.00000000000E+00  0.00000000000E+00 -0.12170253911E+04  0.12170253911E+04  0.25500000920E-02 0. -1.
    10030    2    1    2    0    0  0.00000000000E+00  0.00000000000E+00 -0.22258332912E+03  0.22114674530E+04  0.22002374775E+04 0.  0.
        1    1    3    3  502    0 -0.80130170313E+03  0.59320467802E+03  0.35614656086E+03  0.10586862530E+04  0.50400001928E-02 0.  1.
       -1    1    3    3    0  502  0.80130170313E+03 -0.59320467802E+03 -0.57872988998E+03  0.11527812000E+04  0.50400001928E-02 0. -1.
</event>
<event>
 5   0  0.1015876E-05  0.2191783E+04  0.7818609E-02  0.8521856E-01
        2   -1    0    0  501    0  0.00000000000E+00  0.00000000000E+00  0.13759458202E+04  0.13759458202E+04  0.25500000920E-02 0.  1.
       -2   -1    0    0    0  501  0.00000000000E+00  0.00000000000E+00 -0.87283790443E+03  0.87283790443E+03  0.25500000920E-02 0. -1.
    10030    2    1    2    0    0  0.00000000000E+00  0.00000000000E+00  0.50310791577E+03  0.22487837246E+04  0.21917825315E+04 0.  0.
        5    1    3    3  502    0  0.66179070914E+03 -0.83036827017E+03 -0.26562338384E+02  0.10621704452E+04  0.46999998093E+01 0.  1.
       -5    1    3    3    0  502 -0.66179070914E+03  0.83036827017E+03  0.52967025416E+03  0.11866132794E+04  0.46999998093E+01 0. -1.
</event>
<event>
 5   0  0.3546750E-06  0.2203196E+04  0.7818609E-02  0.8517099E-01
       -4   -1    0    0    0  501  0.00000000000E+00  0.00000000000E+00  0.10545935193E+04  0.10545942840E+04  0.12699999809E+01 0. -1.
        4   -1    0    0  501    0  0.00000000000E+00  0.00000000000E+00 -0.11506963163E+04  0.11506970171E+04  0.12699999809E+01 0.  1.
    10030    2    1    2    0    0  0.00000000000E+00  0.00000000000E+00 -0.96102797041E+02  0.22052913011E+04  0.22031963088E+04 0.  0.
        3    1    3    3  502    0  0.84402617463E+03 -0.27386300802E+01  0.66052766649E+03  0.10717669952E+04  0.10100000352E+00 0. -1.
       -3    1    3    3    0  502 -0.84402617463E+03  0.27386300802E+01 -0.75663046353E+03  0.11335243059E+04  0.10100000352E+00 0.  1.
</event>
<event>
 5   0  0.1035928E-05  0.2199598E+04  0.7818609E-02  0.8518595E-01
       -2   -1    0    0    0  501  0.00000000000E+00  0.00000000000E+00  0.10694267896E+04  0.10694267896E+04  0.25500000920E-02 0. -1.
        2   -1    0    0  501    0  0.00000000000E+00  0.00000000000E+00 -0.11310342010E+04  0.11310342010E+04  0.25500000920E-02 0.  1.
    10030    2    1    2    0    0  0.00000000000E+00  0.00000000000E+00 -0.61607411398E+02  0.22004609906E+04  0.21995983947E+04 0.  0.
        3    1    3    3  502    0 -0.33515014948E+03 -0.55695224000E+02  0.10156135160E+04  0.10709334268E+04  0.10100000352E+00 0. -1.
       -3    1    3    3    0  502  0.33515014948E+03  0.55695224000E+02 -0.10772209274E+04  0.11295275637E+04  0.10100000352E+00 0.  1.
</event>
<event>
 5   0  0.9963173E-06  0.2198040E+04  0.7818609E-02  0.8519245E-01
       -2   -1    0    0    0  501  0.00000000000E+00  0.00000000000E+00  0.10942032672E+04  0.10942032672E+04  0.25500000920E-02 0. -1.
        2   -1    0    0  501    0  0.00000000000E+00  0.00000000000E+00 -0.11038574546E+04  0.11038574546E+04  0.25500000920E-02 0.  1.
    10030    2    1    2    0    0  0.00000000000E+00  0.00000000000E+00 -0.96541874313E+01  0.21980607218E+04  0.21980395204E+04 0.  0.
        4    1    3    3  502    0  0.21453940498E+03 -0.63793267143E+03 -0.87366087125E+03  0.11028463993E+04  0.12699999809E+01 0.  1.
       -4    1    3    3    0  502 -0.21453940498E+03  0.63793267143E+03  0.86400668382E+03  0.10952143225E+04  0.12699999809E+01 0. -1.
</event>
<event>
 5   0  0.4794967E-06  0.2198116E+04  0.7818609E-02  0.8519213E-01
        1   -1    0    0  501    0  0.00000000000E+00  0.00000000000E+00  0.19576390619E+04  0.19576390619E+04  0.50400001928E-02 0.  1.
       -1   -1    0    0    0  501  0.00000000000E+00  0.00000000000E+00 -0.61703311005E+03  0.61703311007E+03  0.50400001928E-02 0. -1.
    10030    2    1    2    0    0  0.00000000000E+00  0.00000000000E+00  0.13406059518E+04  0.25746721719E+04  0.21981156646E+04 0.  0.
        5    1    3    3  502    0 -0.62277191260E+03 -0.83608661147E+03  0.26282831856E+03  0.10751681227E+04  0.46999998093E+01 0. -1.
       -5    1    3    3    0  502  0.62277191260E+03  0.83608661147E+03  0.10777776332E+04  0.14995040493E+04  0.46999998093E+01 0.  1.
</event>
<event>
 5   0  0.1035928E-05  0.2197139E+04  0.7818609E-02  0.8519620E-01
        2   -1    0    0  501    0  0.00000000000E+00  0.00000000000E+00  0.20229515152E+04  0.20229515152E+04  0.25500000920E-02 0.  1.
       -2   -1    0    0    0  501  0.00000000000E+00  0.00000000000E+00 -0.59658115638E+03  0.59658115639E+03  0.25500000920E-02 0. -1.
    10030    2    1    2    0    0  0.00000000000E+00  0.00000000000E+00  0.14263703589E+04  0.26195326716E+04  0.21971388252E+04 0.  0.
        3    1    3    3  502    0  0.66620452547E+03 -0.65161611830E+02 -0.32535744764E+03  0.74426607094E+03  0.10100000352E+00 0. -1.
       -3    1    3    3    0  502 -0.66620452547E+03  0.65161611830E+02  0.17517278065E+04  0.18752666007E+04  0.10100000352E+00 0.  1.
</event>
<event>
 5   0  0.9963173E-06  0.2179872E+04  0.7818609E-02  0.8526853E-01
       -2   -1    0    0    0  501  0.00000000000E+00  0.00000000000E+00  0.62310544250E+03  0.62310544250E+03  0.25500000920E-02 0.  1.
        2   -1    0    0  501    0  0.00000000000E+00  0.00000000000E+00 -0.19065153771E+04  0.19065153771E+04  0.25500000920E-02 0. -1.
    10030    2    1    2    0    0  0.00000000000E+00  0.00000000000E+00 -0.12834099346E+04  0.25296208196E+04  0.21798716547E+04 0.  0.
        4    1    3    3  502    0  0.41594784744E+02  0.78774457213E+02 -0.19022829876E+04  0.19043680629E+04  0.12699999809E+01 0. -1.
       -4    1    3    3    0  502 -0.41594784744E+02 -0.78774457213E+02  0.61887305296E+03  0.62525275673E+03  0.12699999809E+01 0.  1.
</event>
<event>
 5   0  0.1014015E-05  0.2200511E+04  0.7818609E-02  0.8518216E-01
        2   -1    0    0  501    0  0.00000000000E+00  0.00000000000E+00  0.23840353144E+04  0.23840353144E+04  0.25500000920E-02 0.  1.
       -2   -1    0    0    0  501  0.00000000000E+00  0.00000000000E+00 -0.50777847913E+03  0.50777847914E+03  0.25500000920E-02 0. -1.
    10030    2    1    2    0    0  0.00000000000E+00  0.00000000000E+00  0.18762568353E+04  0.28918137936E+04  0.22005106918E+04 0.  0.
        1    1    3    3  502    0 -0.60135205685E+03 -0.65631064578E+03  0.88291347726E+02  0.89451848620E+03  0.50400001928E-02 0. -1.
       -1    1    3    3    0  502  0.60135205685E+03  0.65631064578E+03  0.17879654876E+04  0.19972953074E+04  0.50400001928E-02 0.  1.
</event>
<event>
 5   0  0.4309945E-06  0.2201102E+04  0.7818609E-02  0.8517970E-01
       -1   -1    0    0    0  501  0.00000000000E+00  0.00000000000E+00  0.86873340156E+03  0.86873340158E+03  0.50400001928E-02 0.  1.
        1   -1    0    0  501    0  0.00000000000E+00  0.00000000000E+00 -0.13942282490E+04  0.13942282490E+04  0.50400001928E-02 0. -1.
    10030    2    1    2    0    0  0.00000000000E+00  0.00000000000E+00 -0.52549484739E+03  0.22629616505E+04  0.22011021324E+04 0.  0.
        4    1    3    3  502    0 -0.24031227496E+03 -0.10208883287E+04  0.80165013538E+02  0.10518512307E+04  0.12699999809E+01 0.  1.
       -4    1    3    3    0  502  0.24031227496E+03  0.10208883287E+04 -0.60565986093E+03  0.12111104199E+04  0.12699999809E+01 0. -1.
</event>
<event>
 5   0  0.1035928E-05  0.2200271E+04  0.7818609E-02  0.8518315E-01
       -2   -1    0    0    0  501  0.00000000000E+00  0.00000000000E+00  0.77585594464E+03  0.77585594465E+03  0.25500000920E-02 0. -1.
        2   -1    0    0  501    0  0.00000000000E+00  0.00000000000E+00 -0.15599517761E+04  0.15599517761E+04  0.25500000920E-02 0.  1.
    10030    2    1    2    0    0  0.00000000000E+00  0.00000000000E+00 -0.78409583146E+03  0.23358077207E+04  0.22002707641E+04 0.  0.
        3    1    3    3  502    0 -0.77392985023E+03 -0.10196681279E+03  0.43090324536E+03  0.89165142351E+03  0.10100000352E+00 0. -1.
       -3    1    3    3    0  502  0.77392985023E+03  0.10196681279E+03 -0.12149990768E+04  0.14441562972E+04  0.10100000352E+00 0.  1.
</event>
<event>
 5   0  0.1015876E-05  0.2205139E+04  0.7818609E-02  0.8516292E-01
       -2   -1    0    0    0  501  0.00000000000E+00  0.00000000000E+00  0.95874595427E+03  0.95874595427E+03  0.25500000920E-02 0. -1.
        2   -1    0    0  501    0  0.00000000000E+00  0.00000000000E+00 -0.12679683775E+04  0.12679683775E+04  0.25500000920E-02 0.  1.
    10030    2    1    2    0    0  0.00000000000E+00  0.00000000000E+00 -0.30922242324E+03  0.22267143318E+04  0.22051390451E+04 0.  0.
        5    1    3    3  502    0  0.31589889183E+03 -0.10218429948E+04 -0.42496616323E+03  0.11509011885E+04  0.46999998093E+01 0.  1.
       -5    1    3    3    0  502 -0.31589889183E+03  0.10218429948E+04  0.11574373999E+03  0.10758131433E+04  0.46999998093E+01 0. -1.
</event>
<event>
 5   0  0.4462201E-06  0.2197846E+04  0.7818609E-02  0.8519325E-01
        1   -1    0    0  501    0  0.00000000000E+00  0.00000000000E+00  0.16334153085E+04  0.16334153085E+04  0.50400001928E-02 0.  1.
       -1   -1    0    0    0  501  0.00000000000E+00  0.00000000000E+00 -0.73932936926E+03  0.73932936928E+03  0.50400001928E-02 0. -1.
    10030    2    1    2    0    0  0.00000000000E+00  0.00000000000E+00  0.89408593922E+03  0.23727446778E+04  0.21978461364E+04 0.  0.
        3    1    3    3  502    0 -0.58308133496E+02  0.23427732531E+03 -0.71034550583E+03  0.75025092565E+03  0.10100000352E+00 0. -1.
       -3    1    3    3    0  502  0.58308133496E+02 -0.23427732531E+03  0.16044314450E+04  0.16224937521E+04  0.10100000352E+00 0.  1.
</event>
<event>
 5   0  0.4309945E-06  0.2184233E+04  0.7818609E-02  0.8525020E-01
       -1   -1    0    0    0  501  0.00000000000E+00  0.00000000000E+00  0.84700031977E+03  0.84700031979E+03  0.50400001928E-02 0. -1.
        1   -1    0    0  501    0  0.00000000000E+00  0.00000000000E+00 -0.14081674308E+04  0.14081674308E+04  0.50400001928E-02 0.  1.
    10030    2    1    2    0    0  0.00000000000E+00  0.00000000000E+00 -0.56116711102E+03  0.22551677506E+04  0.21842328303E+04 0.  0.
        4    1    3    3  502    0 -0.39868736646E+03 -0.75215189189E+03 -0.98693031727E+03  0.13033484372E+04  0.12699999809E+01 0.  1.
       -4    1    3    3    0  502  0.39868736646E+03  0.75215189189E+03  0.42576320626E+03  0.95181931340E+03  0.12699999809E+01 0. -1.
</event>
<event>
 5   0  0.9963173E-06  0.2238428E+04  0.7818609E-02  0.8502602E-01
       -2   -1    0    0    0  501  0.00000000000E+00  0.00000000000E+00  0.51144239361E+03  0.51144239362E+03  0.25500000920E-02 0. -1.
        2   -1    0    0  501    0  0.00000000000E+00  0.00000000000E+00 -0.24492288742E+04  0.24492288742E+04  0.25500000920E-02 0.  1.
    10030    2    1    2    0    0  0.00000000000E+00  0.00000000000E+00 -0.19377864806E+04  0.29606712679E+04  0.22384275534E+04 0.  0.
        4    1    3    3  502    0  0.76655359836E+03 -0.19352613270E+03  0.78915623000E+02  0.79453512927E+03  0.12699999809E+01 0. -1.
       -4    1    3    3    0  502 -0.76655359836E+03  0.19352613270E+03 -0.20167021036E+04  0.21661361386E+04  0.12699999809E+01 0.  1.
</event>
<event>
 5   0  0.4462201E-06  0.2201106E+04  0.7818609E-02  0.8517968E-01
        1   -1    0    0  501    0  0.00000000000E+00  0.00000000000E+00  0.14752652282E+04  0.14752652283E+04  0.50400001928E-02 0. -1.
       -1   -1    0    0    0  501  0.00000000000E+00  0.00000000000E+00 -0.82101668029E+03  0.82101668030E+03  0.50400001928E-02 0.  1.
    10030    2    1    2    0    0  0.00000000000E+00  0.00000000000E+00  0.65424854796E+03  0.22962819086E+04  0.22011064129E+04 0.  0.
        3    1    3    3  502    0 -0.57274653381E+03 -0.69619469352E+03 -0.33143339092E+03  0.96050702553E+03  0.10100000352E+00 0.  1.
       -3    1    3    3    0  502  0.57274653381E+03  0.69619469352E+03  0.98568193889E+03  0.13357748830E+04  0.10100000352E+00 0. -1.
</event>
<event>
 5   0  0.1015876E-05  0.2201702E+04  0.7818609E-02  0.8517720E-01
        2   -1    0    0  501    0  0.00000000000E+00  0.00000000000E+00  0.57877972440E+03  0.57877972441E+03  0.25500000920E-02 0.  1.
       -2   -1    0    0    0  501  0.00000000000E+00  0.00000000000E+00 -0.20938422681E+04  0.20938422681E+04  0.25500000920E-02 0. -1.
    10030    2    1    2    0    0  0.00000000000E+00  0.00000000000E+00 -0.15150625437E+04  0.26726219925E+04  0.22017024784E+04 0.  0.
        5    1    3    3  502    0 -0.43022225712E+03  0.64244000501E+03  0.19367358456E+03  0.79708964233E+03  0.46999998093E+01 0.  1.
       -5    1    3    3    0  502  0.43022225712E+03 -0.64244000501E+03 -0.17087361283E+04  0.18755323502E+04  0.46999998093E+01 0. -1.
</event>
<event>
 5   0  0.9963573E-06  0.2200133E+04  0.7818609E-02  0.8518373E-01
       -2   -1    0    0    0  501  0.00000000000E+00  0.00000000000E+00  0.42569513875E+03  0.42569513876E+03  0.25500000920E-02 0.  1.
        2   -1    0    0  501    0  0.00000000000E+00  0.00000000000E+00 -0.28427542934E+04  0.28427542934E+04  0.25500000920E-02 0. -1.
    10030    2    1    2    0    0  0.00000000000E+00  0.00000000000E+00 -0.24170591547E+04  0.32684494322E+04  0.22001333445E+04 0.  0.
        2    1    3    3  502    0 -0.18754479240E+03 -0.10803024143E+04 -0.13407395896E+04  0.17319956705E+04  0.25500000920E-02 0.  1.
       -2    1    3    3    0  502  0.18754479240E+03  0.10803024143E+04 -0.10763195651E+04  0.15364537617E+04  0.25500000920E-02 0. -1.
</event>
<event>
 5   0  0.1015876E-05  0.2199504E+04  0.7818609E-02  0.8518635E-01
       -2   -1    0    0    0  501  0.00000000000E+00  0.00000000000E+00  0.63894844092E+03  0.63894844092E+03  0.25500000920E-02 0.  1.
        2   -1    0    0  501    0  0.00000000000E+00  0.00000000000E+00 -0.18928819124E+04  0.18928819124E+04  0.25500000920E-02 0. -1.
    10030    2    1    2    0    0  0.00000000000E+00  0.00000000000E+00 -0.12539334715E+04  0.25318303534E+04  0.21995035320E+04 0.  0.
        5    1    3    3  502    0 -0.47025612505E+03  0.95339908435E+03 -0.30277299172E+03  0.11053525283E+04  0.46999998093E+01 0.  1.
       -5    1    3    3    0  502  0.47025612505E+03 -0.95339908435E+03 -0.95116047979E+03  0.14264778251E+04  0.46999998093E+01 0. -1.
</event>
<event>
 5   0  0.4794967E-06  0.2195516E+04  0.7818609E-02  0.8520297E-01
        1   -1    0    0  501    0  0.00000000000E+00  0.00000000000E+00  0.97594240933E+03  0.97594240935E+03  0.50400001928E-02 0. -1.
       -1   -1    0    0    0  501  0.00000000000E+00  0.00000000000E+00 -0.12347787045E+04  0.12347787045E+04  0.50400001928E-02 0.  1.
    10030    2    1    2    0    0  0.00000000000E+00  0.00000000000E+00 -0.25883629514E+03  0.22107211138E+04  0.21955162526E+04 0.  0.
        5    1    3    3  502    0  0.41003302466E+03 -0.97214971969E+03 -0.43458243178E+03  0.11410898908E+04  0.46999998093E+01 0.  1.
       -5    1    3    3    0  502 -0.41003302466E+03  0.97214971969E+03  0.17574613664E+03  0.10696312231E+04  0.46999998093E+01 0. -1.
</event>
<event>
 5   0  0.4309945E-06  0.2192909E+04  0.7818609E-02  0.8521385E-01
       -1   -1    0    0    0  501  0.00000000000E+00  0.00000000000E+00  0.85742041721E+03  0.85742041722E+03  0.50400001928E-02 0.  1.
        1   -1    0    0  501    0  0.00000000000E+00  0.00000000000E+00 -0.14021270225E+04  0.14021270225E+04  0.50400001928E-02 0. -1.
    10030    2    1    2    0    0  0.00000000000E+00  0.00000000000E+00 -0.54470660530E+03  0.22595474397E+04  0.21929088779E+04 0.  0.
        4    1    3    3  502    0  0.75971447646E+03 -0.76356610155E+03 -0.48354882000E+03  0.11806863899E+04  0.12699999809E+01 0. -1.
       -4    1    3    3    0  502 -0.75971447646E+03  0.76356610155E+03 -0.61157785297E+02  0.10788610498E+04  0.12699999809E+01 0.  1.
</event>
<event>
 5   0  0.1035928E-05  0.2210699E+04  0.7818609E-02  0.8513988E-01
       -2   -1    0    0    0  501  0.00000000000E+00  0.00000000000E+00  0.53694842618E+03  0.53694842618E+03  0.25500000920E-02 0. -1.
        2   -1    0    0  501    0  0.00000000000E+00  0.00000000000E+00 -0.22754474744E+04  0.22754474744E+04  0.25500000920E-02 0.  1.
    10030    2    1    2    0    0  0.00000000000E+00  0.00000000000E+00 -0.17384990482E+04  0.28123959006E+04  0.22106993828E+04 0.  0.
        3    1    3    3  502    0 -0.66812927726E+03  0.86722550772E+03 -0.67497249827E+03  0.12861044654E+04  0.10100000352E+00 0.  1.
       -3    1    3    3    0  502  0.66812927726E+03 -0.86722550772E+03 -0.10635265500E+04  0.15262914352E+04  0.10100000352E+00 0. -1.
</event>
<event>
 5   0  0.4630615E-06  0.2198774E+04  0.7818609E-02  0.8518939E-01
       -1   -1    0    0    0  501  0.00000000000E+00  0.00000000000E+00  0.50366431320E+03  0.50366431322E+03  0.50400001928E-02 0. -1.
        1   -1    0    0  501    0  0.00000000000E+00  0.00000000000E+00 -0.23997171400E+04  0.23997171401E+04  0.50400001928E-02 0.  1.
    10030    2    1    2    0    0  0.00000000000E+00  0.00000000000E+00 -0.18960528268E+04  0.29033814533E+04  0.21987740996E+04 0.  0.
        2    1    3    3  502    0 -0.79267037012E+03 -0.27563115751E+03 -0.10268355134E+02  0.83928796595E+03  0.25500000920E-02 0. -1.
       -2    1    3    3    0  502  0.79267037012E+03  0.27563115751E+03 -0.18857844717E+04  0.20640934873E+04  0.25500000920E-02 0.  1.
</event>
<event>
 5   0  0.9963173E-06  0.2200316E+04  0.7818609E-02  0.8518297E-01
        2   -1    0    0  501    0  0.00000000000E+00  0.00000000000E+00  0.14973520521E+04  0.14973520521E+04  0.25500000920E-02 0. -1.
       -2   -1    0    0    0  501  0.00000000000E+00  0.00000000000E+00 -0.80832518926E+03  0.80832518927E+03  0.25500000920E-02 0.  1.
    10030    2    1    2    0    0  0.00000000000E+00  0.00000000000E+00  0.68902686284E+03  0.23056772414E+04  0.22003157782E+04 0.  0.
        4    1    3    3  502    0 -0.88157753409E+03 -0.17780075249E+03 -0.31951293183E+03  0.95440147879E+03  0.12699999809E+01 0.  1.
       -4    1    3    3    0  502  0.88157753409E+03  0.17780075249E+03  0.10085397947E+04  0.13512757626E+04  0.12699999809E+01 0. -1.
</event>
<event>
 5   0  0.4309945E-06  0.2217267E+04  0.7818609E-02  0.8511275E-01
        1   -1    0    0  501    0  0.00000000000E+00  0.00000000000E+00  0.10348714435E+04  0.10348714436E+04  0.50400001928E-02 0.  1.
       -1   -1    0    0    0  501  0.00000000000E+00  0.00000000000E+00 -0.11876528711E+04  0.11876528712E+04  0.50400001928E-02 0. -1.
    10030    2    1    2    0    0  0.00000000000E+00  0.00000000000E+00 -0.15278142759E+03  0.22225243147E+04  0.22172668231E+04 0.  0.
        4    1    3    3  502    0  0.30213926012E+03 -0.30578751145E+03  0.94792878505E+03  0.10408480817E+04  0.12699999809E+01 0.  1.
       -4    1    3    3    0  502 -0.30213926012E+03  0.30578751145E+03 -0.11007102126E+04  0.11816762331E+04  0.12699999809E+01 0. -1.
</event>
<event>
 5   0  0.4408787E-06  0.2205398E+04  0.7818609E-02  0.8516185E-01
        1   -1    0    0  501    0  0.00000000000E+00  0.00000000000E+00  0.15256727077E+04  0.15256727077E+04  0.50400001928E-02 0.  1.
       -1   -1    0    0    0  501  0.00000000000E+00  0.00000000000E+00 -0.79698966090E+03  0.79698966091E+03  0.50400001928E-02 0. -1.
    10030    2    1    2    0    0  0.00000000000E+00  0.00000000000E+00  0.72868304678E+03  0.23226623686E+04  0.22053982624E+04 0.  0.
        1    1    3    3  502    0 -0.82320659795E+03  0.31231809384E+03  0.10635185905E+04  0.13806822542E+04  0.50400001928E-02 0.  1.
       -1    1    3    3    0  502  0.82320659795E+03 -0.31231809384E+03 -0.33483554369E+03  0.94198011444E+03  0.50400001928E-02 0. -1.
</event>
<event>
 5   0  0.4794967E-06  0.2201748E+04  0.7818609E-02  0.8517701E-01
       -1   -1    0    0    0  501  0.00000000000E+00  0.00000000000E+00  0.80569509534E+03  0.80569509535E+03  0.50400001928E-02 0. -1.
        1   -1    0    0  501    0  0.00000000000E+00  0.00000000000E+00 -0.15041961230E+04  0.15041961230E+04  0.50400001928E-02 0.  1.
    10030    2    1    2    0    0  0.00000000000E+00  0.00000000000E+00 -0.69850102762E+03  0.23098912183E+04  0.22017478863E+04 0.  0.
        5    1    3    3  502    0  0.61874596108E+03  0.74027336892E+02  0.60283388346E+03  0.86703944085E+03  0.46999998093E+01 0. -1.
       -5    1    3    3    0  502 -0.61874596108E+03 -0.74027336892E+02 -0.13013349111E+04  0.14428517775E+04  0.46999998093E+01 0.  1.
</event>
<event>
 5   0  0.4462201E-06  0.2190267E+04  0.7818609E-02  0.8522490E-01
        1   -1    0    0  501    0  0.00000000000E+00  0.00000000000E+00  0.16287996884E+04  0.16287996885E+04  0.50400001928E-02 0. -1.
       -1   -1    0    0    0  501  0.00000000000E+00  0.00000000000E+00 -0.73631999579E+03  0.73631999581E+03  0.50400001928E-02 0.  1.
    10030    2    1    2    0    0  0.00000000000E+00  0.00000000000E+00  0.89247969265E+03  0.23651196843E+04  0.21902673625E+04 0.  0.
        3    1    3    3  502    0 -0.41767489366E+03 -0.31525678506E+03 -0.59257747924E+03  0.79056134260E+03  0.10100000352E+00 0.  1.
       -3    1    3    3    0  502  0.41767489366E+03  0.31525678506E+03  0.14850571719E+04  0.15745583417E+04  0.10100000352E+00 0. -1.
</event>
<event>
 5   0  0.9963573E-06  0.2198080E+04  0.7818609E-02  0.8519228E-01
       -2   -1    0    0    0  501  0.00000000000E+00  0.00000000000E+00  0.55365275102E+03  0.55365275103E+03  0.25500000920E-02 0. -1.
        2   -1    0    0  501    0  0.00000000000E+00  0.00000000000E+00 -0.21816724620E+04  0.21816724620E+04  0.25500000920E-02 0.  1.
    10030    2    1    2    0    0  0.00000000000E+00  0.00000000000E+00 -0.16280197110E+04  0.27353252131E+04  0.21980800354E+04 0.  0.
        2    1    3    3  502    0 -0.36860926489E+03  0.59918760817E+03 -0.18647789778E+04  0.19930627727E+04  0.25500000920E-02 0.  1.
       -2    1    3    3    0  502  0.36860926489E+03 -0.59918760817E+03  0.23675926678E+03  0.74226244036E+03  0.25500000920E-02 0. -1.
</event>
<event>
 5   0  0.4309945E-06  0.2202946E+04  0.7818609E-02  0.8517203E-01
        1   -1    0    0  501    0  0.00000000000E+00  0.00000000000E+00  0.11881684489E+04  0.11881684489E+04  0.50400001928E-02 0.  1.
       -1   -1    0    0    0  501  0.00000000000E+00  0.00000000000E+00 -0.10211029667E+04  0.10211029668E+04  0.50400001928E-02 0. -1.
    10030    2    1    2    0    0  0.00000000000E+00  0.00000000000E+00  0.16706548211E+03  0.22092714156E+04  0.22029455991E+04 0.  0.
        4    1    3    3  502    0 -0.45176024489E+03 -0.91534382883E+03 -0.33153865462E+03  0.10732479379E+04  0.12699999809E+01 0. -1.
       -4    1    3    3    0  502  0.45176024489E+03  0.91534382883E+03  0.49860413674E+03  0.11360234777E+04  0.12699999809E+01 0.  1.
</event>
<event>
 5   0  0.1035928E-05  0.2198632E+04  0.7818609E-02  0.8518998E-01
        2   -1    0    0  501    0  0.00000000000E+00  0.00000000000E+00  0.16745339094E+04  0.16745339094E+04  0.25500000920E-02 0. -1.
       -2   -1    0    0    0  501  0.00000000000E+00  0.00000000000E+00 -0.72169078075E+03  0.72169078076E+03  0.25500000920E-02 0.  1.
    10030    2    1    2    0    0  0.00000000000E+00  0.00000000000E+00  0.95284312868E+03  0.23962246902E+04  0.21986320151E+04 0.  0.
        3    1    3    3  502    0  0.43049059359E+03  0.15515433100E+03 -0.61295897639E+03  0.76492727401E+03  0.10100000352E+00 0.  1.
       -3    1    3    3    0  502 -0.43049059359E+03 -0.15515433100E+03  0.15658021051E+04  0.16312974162E+04  0.10100000352E+00 0. -1.
</event>
<event>
 5   0  0.9963173E-06  0.2196030E+04  0.7818609E-02  0.8520083E-01
       -2   -1    0    0    0  501  0.00000000000E+00  0.00000000000E+00  0.51090725203E+03  0.51090725204E+03  0.25500000920E-02 0.  1.
        2   -1    0    0  501    0  0.00000000000E+00  0.00000000000E+00 -0.23597951527E+04  0.23597951527E+04  0.25500000920E-02 0. -1.
    10030    2    1    2    0    0  0.00000000000E+00  0.00000000000E+00 -0.18488879007E+04  0.28707024048E+04  0.21960295598E+04 0.  0.
        4    1    3    3  502    0 -0.62676242764E+03  0.57418458816E+03 -0.15837961825E+02  0.85015971200E+03  0.12699999809E+01 0.  1.
       -4    1    3    3    0  502  0.62676242764E+03 -0.57418458816E+03 -0.18330499389E+04  0.20205426927E+04  0.12699999809E+01 0. -1.
</event>
<event>
 5   0  0.4408787E-06  0.2204918E+04  0.7818609E-02  0.8516384E-01
        1   -1    0    0  501    0  0.00000000000E+00  0.00000000000E+00  0.26061106595E+04  0.26061106595E+04  0.50400001928E-02 0. -1.
       -1   -1    0    0    0  501  0.00000000000E+00  0.00000000000E+00 -0.46637159210E+03  0.46637159213E+03  0.50400001928E-02 0.  1.
    10030    2    1    2    0    0  0.00000000000E+00  0.00000000000E+00  0.21397390674E+04  0.30724822516E+04  0.22049181187E+04 0.  0.
        1    1    3    3  502    0  0.88271522217E+03 -0.50420104489E+03  0.16643613466E+04  0.19502573033E+04  0.50400001928E-02 0. -1.
       -1    1    3    3    0  502 -0.88271522217E+03  0.50420104489E+03  0.47537772078E+03  0.11222249483E+04  0.50400001928E-02 0.  1.
</event>
<event>
 5   0  0.1015876E-05  0.2199668E+04  0.7818609E-02  0.8518566E-01
       -2   -1    0    0    0  501  0.00000000000E+00  0.00000000000E+00  0.10020100921E+04  0.10020100921E+04  0.25500000920E-02 0. -1.
        2   -1    0    0  501    0  0.00000000000E+00  0.00000000000E+00 -0.12072077635E+04  0.12072077635E+04  0.25500000920E-02 0.  1.
    10030    2    1    2    0    0  0.00000000000E+00  0.00000000000E+00 -0.20519767143E+03  0.22092178556E+04  0.21996675770E+04 0.  0.
        5    1    3    3  502    0  0.27324349652E+03 -0.76987454774E+03 -0.84216774656E+03  0.11733019351E+04  0.46999998093E+01 0.  1.
       -5    1    3    3    0  502 -0.27324349652E+03  0.76987454774E+03  0.63697007514E+03  0.10359159205E+04  0.46999998093E+01 0. -1.
</event>
<event>
 5   0  0.1014015E-05  0.2207391E+04  0.7818609E-02  0.8515358E-01
        2   -1    0    0  501    0  0.00000000000E+00  0.00000000000E+00  0.91423853229E+03  0.91423853229E+03  0.25500000920E-02 0.  1.
       -2   -1    0    0    0  501  0.00000000000E+00  0.00000000000E+00 -0.13324139452E+04  0.13324139452E+04  0.25500000920E-02 0. -1.
    10030    2    1    2    0    0  0.00000000000E+00  0.00000000000E+00 -0.41817541291E+03  0.22466524775E+04  0.22073913742E+04 0.  0.
        1    1    3    3  502    0 -0.49245301469E+03  0.57233754757E+03 -0.10284302066E+04  0.12758326418E+04  0.50400001928E-02 0. -1.
       -1    1    3    3    0  502  0.49245301469E+03 -0.57233754757E+03  0.61025479372E+03  0.97081983566E+03  0.50400001928E-02 0.  1.
</event>
<event>
 5   0  0.1035928E-05  0.2236963E+04  0.7818609E-02  0.8503199E-01
        2   -1    0    0  501    0  0.00000000000E+00  0.00000000000E+00  0.10506967938E+04  0.10506967938E+04  0.25500000920E-02 0. -1.
       -2   -1    0    0    0  501  0.00000000000E+00  0.00000000000E+00 -0.11906395108E+04  0.11906395108E+04  0.25500000920E-02 0.  1.
    10030    2    1    2    0    0  0.00000000000E+00  0.00000000000E+00 -0.13994271691E+03  0.22413363046E+04  0.22369632242E+04 0.  0.
        3    1    3    3  502    0 -0.96464834692E+03  0.40266100466E+03 -0.46864214261E+03  0.11455600316E+04  0.10100000352E+00 0.  1.
       -3    1    3    3    0  502  0.96464834692E+03 -0.40266100466E+03  0.32869942570E+03  0.10957762730E+04  0.10100000352E+00 0. -1.
</event>
<event>
 5   0  0.4408787E-06  0.2194906E+04  0.7818609E-02  0.8520551E-01
        1   -1    0    0  501    0  0.00000000000E+00  0.00000000000E+00  0.13072358401E+04  0.13072358401E+04  0.50400001928E-02 0. -1.
       -1   -1    0    0    0  501  0.00000000000E+00  0.00000000000E+00 -0.92133546750E+03  0.92133546751E+03  0.50400001928E-02 0.  1.
    10030    2    1    2    0    0  0.00000000000E+00  0.00000000000E+00  0.38590037263E+03  0.22285713076E+04  0.21949056872E+04 0.  0.
        1    1    3    3  502    0  0.17122534207E+03 -0.10261691306E+04 -0.16178159204E+03  0.10528601455E+04  0.50400001928E-02 0.  1.
       -1    1    3    3    0  502 -0.17122534207E+03  0.10261691306E+04  0.54768196467E+03  0.11757111622E+04  0.50400001928E-02 0. -1.
</event>
<event>
 5   0  0.4630615E-06  0.2198333E+04  0.7818609E-02  0.8519122E-01
        1   -1    0    0  501    0  0.00000000000E+00  0.00000000000E+00  0.21389752288E+04  0.21389752288E+04  0.50400001928E-02 0.  1.
       -1   -1    0    0    0  501  0.00000000000E+00  0.00000000000E+00 -0.56483442009E+03  0.56483442011E+03  0.50400001928E-02 0. -1.
    10030    2    1    2    0    0  0.00000000000E+00  0.00000000000E+00  0.15741408087E+04  0.27038096489E+04  0.21983328528E+04 0.  0.
        2    1    3    3  502    0  0.18759141333E+03 -0.74576851730E+03  0.17530252423E+04  0.19142775974E+04  0.25500000920E-02 0.  1.
       -2    1    3    3    0  502 -0.18759141333E+03  0.74576851730E+03 -0.17888443360E+03  0.78953205150E+03  0.25500000920E-02 0. -1.
</event>
<event>
 5   0  0.1014015E-05  0.2203499E+04  0.7818609E-02  0.8516973E-01
        2   -1    0    0  501    0  0.00000000000E+00  0.00000000000E+00  0.15677813520E+04  0.15677813520E+04  0.25500000920E-02 0.  1.
       -2   -1    0    0    0  501  0.00000000000E+00  0.00000000000E+00 -0.77424812738E+03  0.77424812738E+03  0.25500000920E-02 0. -1.
    10030    2    1    2    0    0  0.00000000000E+00  0.00000000000E+00  0.79353322463E+03  0.23420294794E+04  0.22034988323E+04 0.  0.
        1    1    3    3  502    0 -0.61192033791E+03  0.21683916838E+03  0.13428903601E+04  0.14915831335E+04  0.50400001928E-02 0.  1.
       -1    1    3    3    0  502  0.61192033791E+03 -0.21683916838E+03 -0.54935713548E+03  0.85044634588E+03  0.50400001928E-02 0. -1.
</event>
<event>
 5   0  0.1035928E-05  0.2197367E+04  0.7818609E-02  0.8519525E-01
        2   -1    0    0  501    0  0.00000000000E+00  0.00000000000E+00  0.14329382557E+04  0.14329382557E+04  0.25500000920E-02 0.  1.
       -2   -1    0    0    0  501  0.00000000000E+00  0.00000000000E+00 -0.84239857799E+03  0.84239857800E+03  0.25500000920E-02 0. -1.
    10030    2    1    2    0    0  0.00000000000E+00  0.00000000000E+00  0.59053967774E+03  0.22753368337E+04  0.21973667413E+04 0.  0.
        3    1    3    3  502    0 -0.66938703686E+03 -0.58694977298E+02 -0.60481547221E+03  0.90406076737E+03  0.10100000352E+00 0. -1.
       -3    1    3    3    0  502  0.66938703686E+03  0.58694977298E+02  0.11953551499E+04  0.13712760664E+04  0.10100000352E+00 0.  1.
</event>
<event>
 5   0  0.4794967E-06  0.2202511E+04  0.7818609E-02  0.8517384E-01
        1   -1    0    0  501    0  0.00000000000E+00  0.00000000000E+00  0.16809471821E+04  0.16809471821E+04  0.50400001928E-02 0.  1.
       -1   -1    0    0    0  501  0.00000000000E+00  0.00000000000E+00 -0.72147639992E+03  0.72147639994E+03  0.50400001928E-02 0. -1.
    10030    2    1    2    0    0  0.00000000000E+00  0.00000000000E+00  0.95947078218E+03  0.24024235820E+04  0.22025110410E+04 0.  0.
        5    1    3    3  502    0 -0.51433486298E+03  0.93599191263E+03  0.18680757712E+03  0.10842233961E+04  0.46999998093E+01 0.  1.
       -5    1    3    3    0  502  0.51433486298E+03 -0.93599191263E+03  0.77266320506E+03  0.13182001859E+04  0.46999998093E+01 0. -1.
</event>
<event>
 5   0  0.1035928E-05  0.2207081E+04  0.7818609E-02  0.8515487E-01
        2   -1    0    0  501    0  0.00000000000E+00  0.00000000000E+00  0.13824894509E+04  0.13824894509E+04  0.25500000920E-02 0. -1.
       -2   -1    0    0    0  501  0.00000000000E+00  0.00000000000E+00 -0.88087582968E+03  0.88087582969E+03  0.25500000920E-02 0.  1.
    10030    2    1    2    0    0  0.00000000000E+00  0.00000000000E+00  0.50161362123E+03  0.22633652806E+04  0.22070809157E+04 0.  0.
        3    1    3    3  502    0 -0.10853028225E+04 -0.87736981397E+02  0.66725573704E+02  0.10908860192E+04  0.10100000352E+00 0.  1.
       -3    1    3    3    0  502  0.10853028225E+04  0.87736981397E+02  0.43488804752E+03  0.11724792614E+04  0.10100000352E+00 0. -1.
</event>
<event>
 5   0  0.4309945E-06  0.2200642E+04  0.7818609E-02  0.8518161E-01
        1   -1    0    0  501    0  0.00000000000E+00  0.00000000000E+00  0.84997990082E+03  0.84997990083E+03  0.50400001928E-02 0. -1.
       -1   -1    0    0    0  501  0.00000000000E+00  0.00000000000E+00 -0.14243946705E+04  0.14243946705E+04  0.50400001928E-02 0.  1.
    10030    2    1    2    0    0  0.00000000000E+00  0.00000000000E+00 -0.57441476969E+03  0.22743745714E+04  0.22006424887E+04 0.  0.
        4    1    3    3  502    0 -0.50018040583E+03 -0.81213018171E+02 -0.12966242968E+04  0.13921250564E+04  0.12699999809E+01 0.  1.
       -4    1    3    3    0  502  0.50018040583E+03  0.81213018171E+02  0.72220952711E+03  0.88224951496E+03  0.12699999809E+01 0. -1.
</event>
<event>
 5   0  0.4309945E-06  0.2203559E+04  0.7818609E-02  0.8516948E-01
        1   -1    0    0  501    0  0.00000000000E+00  0.00000000000E+00  0.12829917409E+04  0.12829917409E+04  0.50400001928E-02 0.  1.
       -1   -1    0    0    0  501  0.00000000000E+00  0.00000000000E+00 -0.94616215826E+03  0.94616215827E+03  0.50400001928E-02 0. -1.
    10030    2    1    2    0    0  0.00000000000E+00  0.00000000000E+00  0.33682958263E+03  0.22291538992E+04  0.22035591525E+04 0.  0.
        4    1    3    3  502    0  0.70825160764E+03 -0.85727909349E+02  0.10177782549E+04  0.12429174563E+04  0.12699999809E+01 0.  1.
       -4    1    3    3    0  502 -0.70825160764E+03  0.85727909349E+02 -0.68094867223E+03  0.98623644289E+03  0.12699999809E+01 0. -1.
</event>
<event>
 5   0  0.1035928E-05  0.2200873E+04  0.7818609E-02  0.8518065E-01
        2   -1    0    0  501    0  0.00000000000E+00  0.00000000000E+00  0.14797300067E+04  0.14797300067E+04  0.25500000920E-02 0. -1.
       -2   -1    0    0    0  501  0.00000000000E+00  0.00000000000E+00 -0.81836601204E+03  0.81836601204E+03  0.25500000920E-02 0.  1.
    10030    2    1    2    0    0  0.00000000000E+00  0.00000000000E+00  0.66136399466E+03  0.22980960188E+04  0.22008732308E+04 0.  0.
        3    1    3    3  502    0 -0.65778763063E+03 -0.66973906835E+03  0.93026535943E+03  0.13216007854E+04  0.10100000352E+00 0. -1.
       -3    1    3    3    0  502  0.65778763063E+03  0.66973906835E+03 -0.26890136477E+03  0.97649523340E+03  0.10100000352E+00 0.  1.
</event>
<event>
 5   0  0.4462201E-06  0.2187551E+04  0.7818609E-02  0.8523628E-01
        1   -1    0    0  501    0  0.00000000000E+00  0.00000000000E+00  0.22397518299E+04  0.22397518299E+04  0.50400001928E-02 0.  1.
       -1   -1    0    0    0  501  0.00000000000E+00  0.00000000000E+00 -0.53414163848E+03  0.53414163850E+03  0.50400001928E-02 0. -1.
    10030    2    1    2    0    0  0.00000000000E+00  0.00000000000E+00  0.17056101914E+04  0.27738934684E+04  0.21875508792E+04 0.  0.
        3    1    3    3  502    0  0.34785259892E+03  0.19811869896E+03  0.21435214955E+04  0.21805817713E+04  0.10100000352E+00 0.  1.
       -3    1    3    3    0  502 -0.34785259892E+03 -0.19811869896E+03 -0.43791130409E+03  0.59331169709E+03  0.10100000352E+00 0. -1.
</event>
<event>
 5   0  0.4408787E-06  0.2198132E+04  0.7818609E-02  0.8519206E-01
        1   -1    0    0  501    0  0.00000000000E+00  0.00000000000E+00  0.10371244945E+04  0.10371244945E+04  0.50400001928E-02 0. -1.
       -1   -1    0    0    0  501  0.00000000000E+00  0.00000000000E+00 -0.11647066704E+04  0.11647066704E+04  0.50400001928E-02 0.  1.
    10030    2    1    2    0    0  0.00000000000E+00  0.00000000000E+00 -0.12758217593E+03  0.22018311649E+04  0.21981317675E+04 0.  0.
        1    1    3    3  502    0  0.39482350793E+03 -0.88920962599E+03 -0.57589160672E+03  0.11305885653E+04  0.50400001928E-02 0.  1.
       -1    1    3    3    0  502 -0.39482350793E+03  0.88920962599E+03  0.44830943079E+03  0.10712425996E+04  0.50400001928E-02 0. -1.
</event>
<event>
 5   0  0.4309945E-06  0.2176797E+04  0.7818609E-02  0.8528148E-01
       -1   -1    0    0    0  501  0.00000000000E+00  0.00000000000E+00  0.16077363365E+04  0.16077363365E+04  0.50400001928E-02 0.  1.
        1   -1    0    0  501    0  0.00000000000E+00  0.00000000000E+00 -0.73681920939E+03  0.73681920941E+03  0.50400001928E-02 0. -1.
    10030    2    1    2    0    0  0.00000000000E+00  0.00000000000E+00  0.87091712713E+03  0.23445555459E+04  0.21767967442E+04 0.  0.
        4    1    3    3  502    0  0.21160418118E+03 -0.39482389324E+03  0.15038454209E+04  0.15691446393E+04  0.12699999809E+01 0.  1.
       -4    1    3    3    0  502 -0.21160418118E+03  0.39482389324E+03 -0.63292829378E+03  0.77541090664E+03  0.12699999809E+01 0. -1.
</event>
<event>
 5   0  0.9963573E-06  0.2200982E+04  0.7818609E-02  0.8518020E-01
        2   -1    0    0  501    0  0.00000000000E+00  0.00000000000E+00  0.84233629589E+03  0.84233629589E+03  0.25500000920E-02 0.  1.
       -2   -1    0    0    0  501  0.00000000000E+00  0.00000000000E+00 -0.14377634163E+04  0.14377634163E+04  0.25500000920E-02 0. -1.
    10030    2    1    2    0    0  0.00000000000E+00  0.00000000000E+00 -0.59542712040E+03  0.22800997122E+04  0.22009818813E+04 0.  0.
        2    1    3    3  502    0 -0.13971916136E+03  0.69149902527E+03  0.57727074167E+03  0.91155573346E+03  0.25500000920E-02 0.  1.
       -2    1    3    3    0  502  0.13971916136E+03 -0.69149902527E+03 -0.11726978621E+04  0.13685439787E+04  0.25500000920E-02 0. -1.
</event>
<event>
 5   0  0.9963573E-06  0.2201350E+04  0.7818609E-02  0.8517866E-01
        2   -1    0    0  501    0  0.00000000000E+00  0.00000000000E+00  0.29985663567E+04  0.29985663567E+04  0.25500000920E-02 0.  1.
       -2   -1    0    0    0  501  0.00000000000E+00  0.00000000000E+00 -0.40402160177E+03  0.40402160177E+03  0.25500000920E-02 0. -1.
    10030    2    1    2    0    0  0.00000000000E+00  0.00000000000E+00  0.25945447549E+04  0.34025879585E+04  0.22013501152E+04 0.  0.
        2    1    3    3  502    0 -0.94026462809E+03  0.46151236008E+03  0.77448808132E+03  0.13026599777E+04  0.25500000920E-02 0. -1.
       -2    1    3    3    0  502  0.94026462809E+03 -0.46151236008E+03  0.18200566736E+04  0.20999279808E+04  0.25500000920E-02 0.  1.
</event>
<event>
 5   0  0.9963573E-06  0.2149756E+04  0.7818609E-02  0.8539637E-01
        2   -1    0    0  501    0  0.00000000000E+00  0.00000000000E+00  0.89748753097E+03  0.89748753097E+03  0.25500000920E-02 0. -1.
       -2   -1    0    0    0  501  0.00000000000E+00  0.00000000000E+00 -0.12873305082E+04  0.12873305082E+04  0.25500000920E-02 0.  1.
    10030    2    1    2    0    0  0.00000000000E+00  0.00000000000E+00 -0.38984297727E+03  0.21848180392E+04  0.21497563391E+04 0.  0.
        2    1    3    3  502    0  0.16211040401E+03 -0.10400711153E+04  0.26193880163E+02  0.10529548078E+04  0.25500000920E-02 0. -1.
       -2    1    3    3    0  502 -0.16211040401E+03  0.10400711153E+04 -0.41603685744E+03  0.11318632314E+04  0.25500000920E-02 0.  1.
</event>
<event>
 5   0  0.4630615E-06  0.2196069E+04  0.7818609E-02  0.8520066E-01
       -1   -1    0    0    0  501  0.00000000000E+00  0.00000000000E+00  0.15729914763E+04  0.15729914763E+04  0.50400001928E-02 0.  1.
        1   -1    0    0  501    0  0.00000000000E+00  0.00000000000E+00 -0.76648849531E+03  0.76648849533E+03  0.50400001928E-02 0. -1.
    10030    2    1    2    0    0  0.00000000000E+00  0.00000000000E+00  0.80650298101E+03  0.23394799717E+04  0.21960690971E+04 0.  0.
        2    1    3    3  502    0 -0.21488834434E+03  0.87161019136E+03 -0.27033587855E+03  0.93753016669E+03  0.25500000920E-02 0. -1.
       -2    1    3    3    0  502  0.21488834434E+03 -0.87161019136E+03  0.10768388596E+04  0.14019498050E+04  0.25500000920E-02 0.  1.
</event>
<event>
 5   0  0.4309945E-06  0.2197474E+04  0.7818609E-02  0.8519480E-01
       -1   -1    0    0    0  501  0.00000000000E+00  0.00000000000E+00  0.11246987793E+04  0.11246987793E+04  0.50400001928E-02 0.  1.
        1   -1    0    0  501    0  0.00000000000E+00  0.00000000000E+00 -0.10733743669E+04  0.10733743669E+04  0.50400001928E-02 0. -1.
    10030    2    1    2    0    0  0.00000000000E+00  0.00000000000E+00  0.51324412379E+02  0.21980731462E+04  0.21974738590E+04 0.  0.
        4    1    3    3  502    0  0.24129878189E+03  0.85517690050E+03  0.67211130339E+03  0.11141309844E+04  0.12699999809E+01 0.  1.
       -4    1    3    3    0  502 -0.24129878189E+03 -0.85517690050E+03 -0.62078689101E+03  0.10839421619E+04  0.12699999809E+01 0. -1.
</event>
<event>
 5   0  0.4462201E-06  0.2198824E+04  0.7818609E-02  0.8518918E-01
        1   -1    0    0  501    0  0.00000000000E+00  0.00000000000E+00  0.17428940325E+04  0.17428940325E+04  0.50400001928E-02 0. -1.
       -1   -1    0    0    0  501  0.00000000000E+00  0.00000000000E+00 -0.69350584107E+03  0.69350584109E+03  0.50400001928E-02 0.  1.
    10030    2    1    2    0    0  0.00000000000E+00  0.00000000000E+00  0.10493881914E+04  0.24363998736E+04  0.21988244058E+04 0.  0.
        3    1    3    3  502    0 -0.57167925019E+03  0.93390121087E+03  0.63392829848E+03  0.12652484873E+04  0.10100000352E+00 0. -1.
       -3    1    3    3    0  502  0.57167925019E+03 -0.93390121087E+03  0.41545989293E+03  0.11711513863E+04  0.10100000352E+00 0.  1.
</event>
<event>
 5   0  0.1015876E-05  0.2193440E+04  0.7818609E-02  0.8521163E-01
        2   -1    0    0  501    0  0.00000000000E+00  0.00000000000E+00  0.18501317603E+04  0.18501317603E+04  0.25500000920E-02 0. -1.
       -2   -1    0    0    0  501  0.00000000000E+00  0.00000000000E+00 -0.65011313846E+03  0.65011313847E+03  0.25500000920E-02 0.  1.
    10030    2    1    2    0    0  0.00000000000E+00  0.00000000000E+00  0.12000186218E+04  0.25002448988E+04  0.21934401886E+04 0.  0.
        5    1    3    3  502    0 -0.86058581498E+03  0.48059397498E+03  0.11480911004E+04  0.15131800218E+04  0.46999998093E+01 0. -1.
       -5    1    3    3    0  502  0.86058581498E+03 -0.48059397498E+03  0.51927521439E+02  0.98706487690E+03  0.46999998093E+01 0.  1.
</event>
<event>
 5   0  0.4309945E-06  0.2183354E+04  0.7818609E-02  0.8525389E-01
       -1   -1    0    0    0  501  0.00000000000E+00  0.00000000000E+00  0.99643358749E+03  0.99643358750E+03  0.50400001928E-02 0.  1.
        1   -1    0    0  501    0  0.00000000000E+00  0.00000000000E+00 -0.11960244669E+04  0.11960244669E+04  0.50400001928E-02 0. -1.
    10030    2    1    2    0    0  0.00000000000E+00  0.00000000000E+00 -0.19959087941E+03  0.21924580544E+04  0.21833542546E+04 0.  0.
        4    1    3    3  502    0 -0.52156313800E+03  0.73128626651E+03  0.52323467337E+03  0.10395113500E+04  0.12699999809E+01 0.  1.
       -4    1    3    3    0  502  0.52156313800E+03 -0.73128626651E+03 -0.72282555277E+03  0.11529467044E+04  0.12699999809E+01 0. -1.
</event>
<event>
 5   0  0.1015876E-05  0.2199203E+04  0.7818609E-02  0.8518760E-01
        2   -1    0    0  501    0  0.00000000000E+00  0.00000000000E+00  0.16773422031E+04  0.16773422031E+04  0.25500000920E-02 0. -1.
       -2   -1    0    0    0  501  0.00000000000E+00  0.00000000000E+00 -0.72085691282E+03  0.72085691282E+03  0.25500000920E-02 0.  1.
    10030    2    1    2    0    0  0.00000000000E+00  0.00000000000E+00  0.95648529033E+03  0.23981991160E+04  0.21992032396E+04 0.  0.
        5    1    3    3  502    0 -0.96175134803E+03 -0.41284963436E+03  0.84593382629E+03  0.13457476006E+04  0.46999998093E+01 0. -1.
       -5    1    3    3    0  502  0.96175134803E+03  0.41284963436E+03  0.11055146404E+03  0.10524515154E+04  0.46999998093E+01 0.  1.
</event>
<event>
 5   0  0.4309945E-06  0.2202744E+04  0.7818609E-02  0.8517287E-01
       -1   -1    0    0    0  501  0.00000000000E+00  0.00000000000E+00  0.66232884876E+03  0.66232884878E+03  0.50400001928E-02 0.  1.
        1   -1    0    0  501    0  0.00000000000E+00  0.00000000000E+00 -0.18314470683E+04  0.18314470683E+04  0.50400001928E-02 0. -1.
    10030    2    1    2    0    0  0.00000000000E+00  0.00000000000E+00 -0.11691182195E+04  0.24937759171E+04  0.22027439509E+04 0.  0.
        4    1    3    3  502    0  0.46027230586E+03 -0.87198947026E+03 -0.29008280651E+02  0.98643769445E+03  0.12699999809E+01 0.  1.
       -4    1    3    3    0  502 -0.46027230586E+03  0.87198947026E+03 -0.11401099389E+04  0.15073382226E+04  0.12699999809E+01 0. -1.
</event>
<event>
 5   0  0.4794967E-06  0.2193299E+04  0.7818609E-02  0.8521223E-01
       -1   -1    0    0    0  501  0.00000000000E+00  0.00000000000E+00  0.18171189679E+04  0.18171189679E+04  0.50400001928E-02 0.  1.
        1   -1    0    0  501    0  0.00000000000E+00  0.00000000000E+00 -0.66183875526E+03  0.66183875528E+03  0.50400001928E-02 0. -1.
    10030    2    1    2    0    0  0.00000000000E+00  0.00000000000E+00  0.11552802127E+04  0.24789577232E+04  0.21932986627E+04 0.  0.
        5    1    3    3  502    0  0.24973195768E+03 -0.91823304010E+03 -0.38419100806E+02  0.95237392022E+03  0.46999998093E+01 0. -1.
       -5    1    3    3    0  502 -0.24973195768E+03  0.91823304010E+03  0.11936993135E+04  0.15265838030E+04  0.46999998093E+01 0.  1.
</event>
<event>
 5   0  0.4462201E-06  0.2198285E+04  0.7818609E-02  0.8519142E-01
       -1   -1    0    0    0  501  0.00000000000E+00  0.00000000000E+00  0.11649881549E+04  0.11649881549E+04  0.50400001928E-02 0.  1.
        1   -1    0    0  501    0  0.00000000000E+00  0.00000000000E+00 -0.10370185024E+04  0.10370185024E+04  0.50400001928E-02 0. -1.
    10030    2    1    2    0    0  0.00000000000E+00  0.00000000000E+00  0.12796965246E+03  0.22020066574E+04  0.21982850332E+04 0.  0.
        3    1    3    3  502    0 -0.51534119149E+02  0.11447577019E+03  0.11577829991E+04  0.11645694272E+04  0.10100000352E+00 0.  1.
       -3    1    3    3    0  502  0.51534119149E+02 -0.11447577019E+03 -0.10298133467E+04  0.10374372302E+04  0.10100000352E+00 0. -1.
</event>
<event>
 5   0  0.4408787E-06  0.2192500E+04  0.7818609E-02  0.8521556E-01
       -1   -1    0    0    0  501  0.00000000000E+00  0.00000000000E+00  0.15944622778E+04  0.15944622778E+04  0.50400001928E-02 0. -1.
        1   -1    0    0  501    0  0.00000000000E+00  0.00000000000E+00 -0.75371147457E+03  0.75371147458E+03  0.50400001928E-02 0.  1.
    10030    2    1    2    0    0  0.00000000000E+00  0.00000000000E+00  0.84075080327E+03  0.23481737524E+04  0.21925004124E+04 0.  0.
        1    1    3    3  502    0 -0.10507676931E+04 -0.65083386632E+02  0.74771684935E+03  0.12912896960E+04  0.50400001928E-02 0. -1.
       -1    1    3    3    0  502  0.10507676931E+04  0.65083386632E+02  0.93033953915E+02  0.10568840564E+04  0.50400001928E-02 0.  1.
</event>
<event>
 5   0  0.9963173E-06  0.2198864E+04  0.7818609E-02  0.8518901E-01
        2   -1    0    0  501    0  0.00000000000E+00  0.00000000000E+00  0.14813280590E+04  0.14813280590E+04  0.25500000920E-02 0. -1.
       -2   -1    0    0    0  501  0.00000000000E+00  0.00000000000E+00 -0.81599125988E+03  0.81599125988E+03  0.25500000920E-02 0.  1.
    10030    2    1    2    0    0  0.00000000000E+00  0.00000000000E+00  0.66533679911E+03  0.22973193189E+04  0.21988640241E+04 0.  0.
        4    1    3    3  502    0 -0.93517072607E+03  0.55533290319E+03  0.16481937939E+03  0.11000481630E+04  0.12699999809E+01 0.  1.
       -4    1    3    3    0  502  0.93517072607E+03 -0.55533290319E+03  0.50051741972E+03  0.11972711558E+04  0.12699999809E+01 0. -1.
</event>
<event>
 5   0  0.9963573E-06  0.2196660E+04  0.7818609E-02  0.8519820E-01
        2   -1    0    0  501    0  0.00000000000E+00  0.00000000000E+00  0.25036184619E+04  0.25036184619E+04  0.25500000920E-02 0.  1.
       -2   -1    0    0    0  501  0.00000000000E+00  0.00000000000E+00 -0.48183417217E+03  0.48183417218E+03  0.25500000920E-02 0. -1.
    10030    2    1    2    0    0  0.00000000000E+00  0.00000000000E+00  0.20217842898E+04  0.29854526341E+04  0.21966601276E+04 0.  0.
        2    1    3    3  502    0 -0.70085434037E+03  0.48610710343E+01  0.21601918256E+04  0.22710458295E+04  0.25500000920E-02 0.  1.
       -2    1    3    3    0  502  0.70085434037E+03 -0.48610710343E+01 -0.13840753586E+03  0.71440680457E+03  0.25500000920E-02 0. -1.
</event>
<event>
 5   0  0.4462201E-06  0.2201592E+04  0.7818609E-02  0.8517766E-01
        1   -1    0    0  501    0  0.00000000000E+00  0.00000000000E+00  0.72861586031E+03  0.72861586033E+03  0.50400001928E-02 0. -1.
       -1   -1    0    0    0  501  0.00000000000E+00  0.00000000000E+00 -0.16630870128E+04  0.16630870128E+04  0.50400001928E-02 0.  1.
    10030    2    1    2    0    0  0.00000000000E+00  0.00000000000E+00 -0.93447115253E+03  0.23917028732E+04  0.22015917648E+04 0.  0.
        3    1    3    3  502    0  0.35627927983E+03  0.29717425048E+03  0.61721553730E+03  0.77214149614E+03  0.10100000352E+00 0. -1.
       -3    1    3    3    0  502 -0.35627927983E+03 -0.29717425048E+03 -0.15516866898E+04  0.16195613770E+04  0.10100000352E+00 0.  1.
</event>
<event>
 5   0  0.1035928E-05  0.2200575E+04  0.7818609E-02  0.8518189E-01
        2   -1    0    0  501    0  0.00000000000E+00  0.00000000000E+00  0.13347817955E+04  0.13347817955E+04  0.25500000920E-02 0. -1.
       -2   -1    0    0    0  501  0.00000000000E+00  0.00000000000E+00 -0.90698914423E+03  0.90698914423E+03  0.25500000920E-02 0.  1.
    10030    2    1    2    0    0  0.00000000000E+00  0.00000000000E+00  0.42779265123E+03  0.22417709397E+04  0.22005750143E+04 0.  0.
        3    1    3    3  502    0  0.42561398032E+03  0.90482807833E+03  0.68158944051E+03  0.12101344087E+04  0.10100000352E+00 0. -1.
       -3    1    3    3    0  502 -0.42561398032E+03 -0.90482807833E+03 -0.25379678928E+03  0.10316365310E+04  0.10100000352E+00 0.  1.
</event>
<event>
 5   0  0.4408787E-06  0.2249970E+04  0.7818609E-02  0.8497913E-01
        1   -1    0    0  501    0  0.00000000000E+00  0.00000000000E+00  0.20761624188E+04  0.20761624188E+04  0.50400001928E-02 0.  1.
       -1   -1    0    0    0  501  0.00000000000E+00  0.00000000000E+00 -0.60958195744E+03  0.60958195746E+03  0.50400001928E-02 0. -1.
    10030    2    1    2    0    0  0.00000000000E+00  0.00000000000E+00  0.14665804613E+04  0.26857443762E+04  0.22499699120E+04 0.  0.
        1    1    3    3  502    0 -0.52979256437E+03 -0.99020667550E+03  0.65409488636E+03  0.12996266933E+04  0.50400001928E-02 0. -1.
       -1    1    3    3    0  502  0.52979256437E+03  0.99020667550E+03  0.81248557496E+03  0.13861176830E+04  0.50400001928E-02 0.  1.
</event>
<event>
 5   0  0.4309945E-06  0.2191366E+04  0.7818609E-02  0.8522031E-01
        1   -1    0    0  501    0  0.00000000000E+00  0.00000000000E+00  0.11518403999E+04  0.11518403999E+04  0.50400001928E-02 0. -1.
       -1   -1    0    0    0  501  0.00000000000E+00  0.00000000000E+00 -0.10422631781E+04  0.10422631781E+04  0.50400001928E-02 0.  1.
    10030    2    1    2    0    0  0.00000000000E+00  0.00000000000E+00  0.10957722175E+03  0.21941035780E+04  0.21913656344E+04 0.  0.
        4    1    3    3  502    0 -0.64801314358E+02 -0.81802254574E+03  0.78175301179E+03  0.11333576135E+04  0.12699999809E+01 0. -1.
       -4    1    3    3    0  502  0.64801314358E+02  0.81802254574E+03 -0.67217579004E+03  0.10607459645E+04  0.12699999809E+01 0.  1.
</event>
<event>
 5   0  0.4794967E-06  0.2200867E+04  0.7818609E-02  0.8518067E-01
        1   -1    0    0  501    0  0.00000000000E+00  0.00000000000E+00  0.90390077637E+03  0.90390077638E+03  0.50400001928E-02 0.  1.
       -1   -1    0    0    0  501  0.00000000000E+00  0.00000000000E+00 -0.13396978914E+04  0.13396978914E+04  0.50400001928E-02 0. -1.
    10030    2    1    2    0    0  0.00000000000E+00  0.00000000000E+00 -0.43579711502E+03  0.22435986678E+04  0.22008670693E+04 0.  0.
        5    1    3    3  502    0 -0.66054804586E+03 -0.81540453404E+03 -0.55557548194E+03  0.11873897764E+04  0.46999998093E+01 0. -1.
       -5    1    3    3    0  502  0.66054804586E+03  0.81540453404E+03  0.11977836692E+03  0.10562088914E+04  0.46999998093E+01 0.  1.
</event>
<event>
 5   0  0.1035928E-05  0.2204780E+04  0.7818609E-02  0.8516441E-01
        2   -1    0    0  501    0  0.00000000000E+00  0.00000000000E+00  0.18150024573E+04  0.18150024573E+04  0.25500000920E-02 0. -1.
       -2   -1    0    0    0  501  0.00000000000E+00  0.00000000000E+00 -0.66956603245E+03  0.66956603245E+03  0.25500000920E-02 0.  1.
    10030    2    1    2    0    0  0.00000000000E+00  0.00000000000E+00  0.11454364248E+04  0.24845684897E+04  0.22047802559E+04 0.  0.
        3    1    3    3  502    0  0.92810932267E+03  0.56897721920E+03  0.76836451538E+03  0.13324811554E+04  0.10100000352E+00 0. -1.
       -3    1    3    3    0  502 -0.92810932267E+03 -0.56897721920E+03  0.37707190944E+03  0.11520873343E+04  0.10100000352E+00 0.  1.
</event>
<event>
 5   0  0.4408787E-06  0.2202200E+04  0.7818609E-02  0.8517513E-01
        1   -1    0    0  501    0  0.00000000000E+00  0.00000000000E+00  0.10555997736E+04  0.10555997736E+04  0.50400001928E-02 0.  1.
       -1   -1    0    0    0  501  0.00000000000E+00  0.00000000000E+00 -0.11485611553E+04  0.11485611553E+04  0.50400001928E-02 0. -1.
    10030    2    1    2    0    0  0.00000000000E+00  0.00000000000E+00 -0.92961381699E+02  0.22041609290E+04  0.22021997144E+04 0.  0.
        1    1    3    3  502    0 -0.31385100308E+03  0.34245356732E+03  0.95272897281E+03  0.10599383914E+04  0.50400001928E-02 0.  1.
       -1    1    3    3    0  502  0.31385100308E+03 -0.34245356732E+03 -0.10456903545E+04  0.11442225376E+04  0.50400001928E-02 0. -1.
</event>
<event>
 5   0  0.1014015E-05  0.2197931E+04  0.7818609E-02  0.8519290E-01
       -2   -1    0    0    0  501  0.00000000000E+00  0.00000000000E+00  0.87638626909E+03  0.87638626909E+03  0.25500000920E-02 0.  1.
        2   -1    0    0  501    0  0.00000000000E+00  0.00000000000E+00 -0.13780743785E+04  0.13780743785E+04  0.25500000920E-02 0. -1.
    10030    2    1    2    0    0  0.00000000000E+00  0.00000000000E+00 -0.50168810944E+03  0.22544606476E+04  0.21979312666E+04 0.  0.
        1    1    3    3  502    0 -0.77619439394E+03  0.68406270666E+03  0.12923436662E+03  0.10426509701E+04  0.50400001928E-02 0.  1.
       -1    1    3    3    0  502  0.77619439394E+03 -0.68406270666E+03 -0.63092247607E+03  0.12118096776E+04  0.50400001928E-02 0. -1.
</event>
<event>
 5   0  0.4309945E-06  0.2234577E+04  0.7818609E-02  0.8504173E-01
       -1   -1    0    0    0  501  0.00000000000E+00  0.00000000000E+00  0.12508706702E+04  0.12508706703E+04  0.50400001928E-02 0. -1.
        1   -1    0    0  501    0  0.00000000000E+00  0.00000000000E+00 -0.99797154142E+03  0.99797154143E+03  0.50400001928E-02 0.  1.
    10030    2    1    2    0    0  0.00000000000E+00  0.00000000000E+00  0.25289912882E+03  0.22488422117E+04  0.22345767661E+04 0.  0.
        4    1    3    3  502    0  0.70993665751E+02  0.92684940873E+03  0.75027920309E+03  0.11945754152E+04  0.12699999809E+01 0. -1.
       -4    1    3    3    0  502 -0.70993665751E+02 -0.92684940873E+03 -0.49738007427E+03  0.10542667965E+04  0.12699999809E+01 0.  1.
</event>
<event>
 5   0  0.4794967E-06  0.2199432E+04  0.7818609E-02  0.8518664E-01
       -1   -1    0    0    0  501  0.00000000000E+00  0.00000000000E+00  0.96577084567E+03  0.96577084568E+03  0.50400001928E-02 0.  1.
        1   -1    0    0  501    0  0.00000000000E+00  0.00000000000E+00 -0.12522388026E+04  0.12522388026E+04  0.50400001928E-02 0. -1.
    10030    2    1    2    0    0  0.00000000000E+00  0.00000000000E+00 -0.28646795697E+03  0.22180096483E+04  0.21994324063E+04 0.  0.
        5    1    3    3  502    0  0.75073267724E+03 -0.71445673077E+03 -0.51418007113E+03  0.11569145208E+04  0.46999998093E+01 0. -1.
       -5    1    3    3    0  502 -0.75073267724E+03  0.71445673077E+03  0.22771211416E+03  0.10610951276E+04  0.46999998093E+01 0.  1.
</event>
<event>
 5   0  0.4630615E-06  0.2198387E+04  0.7818609E-02  0.8519100E-01
       -1   -1    0    0    0  501  0.00000000000E+00  0.00000000000E+00  0.92183988099E+03  0.92183988100E+03  0.50400001928E-02 0.  1.
        1   -1    0    0  501    0  0.00000000000E+00  0.00000000000E+00 -0.13106688233E+04  0.13106688233E+04  0.50400001928E-02 0. -1.
    10030    2    1    2    0    0  0.00000000000E+00  0.00000000000E+00 -0.38882894230E+03  0.22325087043E+04  0.21983874018E+04 0.  0.
        2    1    3    3  502    0 -0.77667646581E+02 -0.43778444756E+03  0.82644400614E+03  0.93845467719E+03  0.25500000920E-02 0.  1.
       -2    1    3    3    0  502  0.77667646581E+02  0.43778444756E+03 -0.12152729484E+04  0.12940540271E+04  0.25500000920E-02 0. -1.
</event>
<event>
 5   0  0.4309945E-06  0.2200174E+04  0.7818609E-02  0.8518356E-01
       -1   -1    0    0    0  501  0.00000000000E+00  0.00000000000E+00  0.77782385273E+03  0.77782385274E+03  0.50400001928E-02 0. -1.
        1   -1    0    0  501    0  0.00000000000E+00  0.00000000000E+00 -0.15558684589E+04  0.15558684589E+04  0.50400001928E-02 0.  1.
    10030    2    1    2    0    0  0.00000000000E+00  0.00000000000E+00 -0.77804460615E+03  0.23336923116E+04  0.22001741741E+04 0.  0.
        4    1    3    3  502    0 -0.95201317627E+02  0.57419244707E+03  0.60113163432E+03  0.83673240157E+03  0.12699999809E+01 0. -1.
       -4    1    3    3    0  502  0.95201317627E+02 -0.57419244707E+03 -0.13791762405E+04  0.14969599101E+04  0.12699999809E+01 0.  1.
</event>
<event>
 5   0  0.4794967E-06  0.2196880E+04  0.7818609E-02  0.8519728E-01
       -1   -1    0    0    0  501  0.00000000000E+00  0.00000000000E+00  0.62643061546E+03  0.62643061548E+03  0.50400001928E-02 0. -1.
        1   -1    0    0  501    0  0.00000000000E+00  0.00000000000E+00 -0.19261043555E+04  0.19261043555E+04  0.50400001928E-02 0.  1.
    10030    2    1    2    0    0  0.00000000000E+00  0.00000000000E+00 -0.12996737401E+04  0.25525349710E+04  0.21968802761E+04 0.  0.
        5    1    3    3  502    0  0.89587196056E+03  0.13839992808E+02  0.88462709439E+02  0.90034763068E+03  0.46999998093E+01 0. -1.
       -5    1    3    3    0  502 -0.89587196056E+03 -0.13839992808E+02 -0.13881364495E+04  0.16521873403E+04  0.46999998093E+01 0.  1.
</event>
<event>
 5   0  0.9963573E-06  0.2181319E+04  0.7818609E-02  0.8526244E-01
        2   -1    0    0  501    0  0.00000000000E+00  0.00000000000E+00  0.11783659304E+04  0.11783659304E+04  0.25500000920E-02 0. -1.
       -2   -1    0    0    0  501  0.00000000000E+00  0.00000000000E+00 -0.10094813909E+04  0.10094813909E+04  0.25500000920E-02 0.  1.
    10030    2    1    2    0    0  0.00000000000E+00  0.00000000000E+00  0.16888453953E+03  0.21878473213E+04  0.21813193057E+04 0.  0.
        2    1    3    3  502    0  0.69424364381E+02  0.51736509560E+03  0.10449365254E+04  0.11680662338E+04  0.25500000920E-02 0. -1.
       -2    1    3    3    0  502 -0.69424364381E+02 -0.51736509560E+03 -0.87605198584E+03  0.10197810875E+04  0.25500000920E-02 0.  1.
</event>
<event>
 5   0  0.4408787E-06  0.2204426E+04  0.7818609E-02  0.8516588E-01
       -1   -1    0    0    0  501  0.00000000000E+00  0.00000000000E+00  0.12712754665E+04  0.12712754665E+04  0.50400001928E-02 0. -1.
        1   -1    0    0  501    0  0.00000000000E+00  0.00000000000E+00 -0.95563333351E+03  0.95563333352E+03  0.50400001928E-02 0.  1.
    10030    2    1    2    0    0  0.00000000000E+00  0.00000000000E+00  0.31564213300E+03  0.22269088000E+04  0.22044257410E+04 0.  0.
        1    1    3    3  502    0  0.87487433700E+02  0.72668197854E+03  0.99033324974E+03  0.12314547067E+04  0.50400001928E-02 0. -1.
       -1    1    3    3    0  502 -0.87487433700E+02 -0.72668197854E+03 -0.67469111674E+03  0.99545409338E+03  0.50400001928E-02 0.  1.
</event>
<event>
 5   0  0.4408787E-06  0.2198214E+04  0.7818609E-02  0.8519172E-01
       -1   -1    0    0    0  501  0.00000000000E+00  0.00000000000E+00  0.89359538709E+03  0.89359538711E+03  0.50400001928E-02 0. -1.
        1   -1    0    0  501    0  0.00000000000E+00  0.00000000000E+00 -0.13518823389E+04  0.13518823389E+04  0.50400001928E-02 0.  1.
    10030    2    1    2    0    0  0.00000000000E+00  0.00000000000E+00 -0.45828695179E+03  0.22454777260E+04  0.21982136584E+04 0.  0.
        1    1    3    3  502    0 -0.40332925449E+03  0.54283442422E+03  0.65591054338E+03  0.94210527044E+03  0.50400001928E-02 0. -1.
       -1    1    3    3    0  502  0.40332925449E+03 -0.54283442422E+03 -0.11141974952E+04  0.13033724556E+04  0.50400001928E-02 0.  1.
</event>
<event>
 5   0  0.4408787E-06  0.2201704E+04  0.7818609E-02  0.8517719E-01
        1   -1    0    0  501    0  0.00000000000E+00  0.00000000000E+00  0.12381262151E+04  0.12381262151E+04  0.50400001928E-02 0.  1.
       -1   -1    0    0    0  501  0.00000000000E+00  0.00000000000E+00 -0.97879769857E+03  0.97879769859E+03  0.50400001928E-02 0. -1.
    10030    2    1    2    0    0  0.00000000000E+00  0.00000000000E+00  0.25932851653E+03  0.22169239137E+04  0.22017039673E+04 0.  0.
        1    1    3    3  502    0 -0.57602555151E+03 -0.15096902580E+03 -0.80262934473E+03  0.99940529706E+03  0.50400001928E-02 0. -1.
       -1    1    3    3    0  502  0.57602555151E+03  0.15096902580E+03  0.10619578613E+04  0.12175186166E+04  0.50400001928E-02 0.  1.
</event>
<event>
 5   0  0.9963173E-06  0.2201214E+04  0.7818609E-02  0.8517923E-01
       -2   -1    0    0    0  501  0.00000000000E+00  0.00000000000E+00  0.74500389355E+03  0.74500389355E+03  0.25500000920E-02 0.  1.
        2   -1    0    0  501    0  0.00000000000E+00  0.00000000000E+00 -0.16259462796E+04  0.16259462796E+04  0.25500000920E-02 0. -1.
    10030    2    1    2    0    0  0.00000000000E+00  0.00000000000E+00 -0.88094238602E+03  0.23709501731E+04  0.22012144911E+04 0.  0.
        4    1    3    3  502    0  0.25583857587E+02  0.82380203390E+03  0.34517729021E+03  0.89356214077E+03  0.12699999809E+01 0.  1.
       -4    1    3    3    0  502 -0.25583857587E+02 -0.82380203390E+03 -0.12261196762E+04  0.14773880324E+04  0.12699999809E+01 0. -1.
</event>
<event>
 5   0  0.4462201E-06  0.2201525E+04  0.7818609E-02  0.8517793E-01
       -1   -1    0    0    0  501  0.00000000000E+00  0.00000000000E+00  0.12350454170E+04  0.12350454170E+04  0.50400001928E-02 0. -1.
        1   -1    0    0  501    0  0.00000000000E+00  0.00000000000E+00 -0.98108008706E+03  0.98108008707E+03  0.50400001928E-02 0.  1.
    10030    2    1    2    0    0  0.00000000000E+00  0.00000000000E+00  0.25396532996E+03  0.22161255041E+04  0.22015253487E+04 0.  0.
        3    1    3    3  502    0  0.49366907238E+03  0.14425047471E+03  0.11066589352E+04  0.12203324799E+04  0.10100000352E+00 0. -1.
       -3    1    3    3    0  502 -0.49366907238E+03 -0.14425047471E+03 -0.85269360522E+03  0.99579302421E+03  0.10100000352E+00 0.  1.
</event>
<event>
 5   0  0.9963173E-06  0.2185625E+04  0.7818609E-02  0.8524435E-01
       -2   -1    0    0    0  501  0.00000000000E+00  0.00000000000E+00  0.41588448157E+03  0.41588448158E+03  0.25500000920E-02 0.  1.
        2   -1    0    0  501    0  0.00000000000E+00  0.00000000000E+00 -0.28715637045E+04  0.28715637045E+04  0.25500000920E-02 0. -1.
    10030    2    1    2    0    0  0.00000000000E+00  0.00000000000E+00 -0.24556792229E+04  0.32874481861E+04  0.21856246545E+04 0.  0.
        4    1    3    3  502    0  0.71428117672E+03 -0.50689093537E+03 -0.22108287201E+04  0.23780036295E+04  0.12699999809E+01 0. -1.
       -4    1    3    3    0  502 -0.71428117672E+03  0.50689093537E+03 -0.24485050289E+03  0.90944455655E+03  0.12699999809E+01 0.  1.
</event>
<event>
 5   0  0.1035928E-05  0.2199179E+04  0.7818609E-02  0.8518770E-01
       -2   -1    0    0    0  501  0.00000000000E+00  0.00000000000E+00  0.74300583560E+03  0.74300583561E+03  0.25500000920E-02 0. -1.
        2   -1    0    0  501    0  0.00000000000E+00  0.00000000000E+00 -0.16273049868E+04  0.16273049868E+04  0.25500000920E-02 0.  1.
    10030    2    1    2    0    0  0.00000000000E+00  0.00000000000E+00 -0.88429915123E+03  0.23703108224E+04  0.21991790300E+04 0.  0.
        3    1    3    3  502    0  0.33179328256E+03  0.10085235339E+03 -0.15668233548E+04  0.16047409183E+04  0.10100000352E+00 0.  1.
       -3    1    3    3    0  502 -0.33179328256E+03 -0.10085235339E+03  0.68252420354E+03  0.76556990416E+03  0.10100000352E+00 0. -1.
</event>
<event>
 5   0  0.1014015E-05  0.2199967E+04  0.7818609E-02  0.8518442E-01
       -2   -1    0    0    0  501  0.00000000000E+00  0.00000000000E+00  0.56362375481E+03  0.56362375482E+03  0.25500000920E-02 0. -1.
        2   -1    0    0  501    0  0.00000000000E+00  0.00000000000E+00 -0.21467583974E+04  0.21467583974E+04  0.25500000920E-02 0.  1.
    10030    2    1    2    0    0  0.00000000000E+00  0.00000000000E+00 -0.15831346426E+04  0.27103821522E+04  0.21999672985E+04 0.  0.
        1    1    3    3  502    0 -0.59513423650E+03 -0.35340552260E+03 -0.18448343109E+04  0.19704044909E+04  0.50400001928E-02 0.  1.
       -1    1    3    3    0  502  0.59513423650E+03  0.35340552260E+03  0.26169966833E+03  0.73997766135E+03  0.50400001928E-02 0. -1.
</event>
<event>
 5   0  0.9963173E-06  0.2201066E+04  0.7818609E-02  0.8517985E-01
       -2   -1    0    0    0  501  0.00000000000E+00  0.00000000000E+00  0.71957464900E+03  0.71957464901E+03  0.25500000920E-02 0. -1.
        2   -1    0    0  501    0  0.00000000000E+00  0.00000000000E+00 -0.16831784597E+04  0.16831784597E+04  0.25500000920E-02 0.  1.
    10030    2    1    2    0    0  0.00000000000E+00  0.00000000000E+00 -0.96360381074E+03  0.24027531088E+04  0.22010656959E+04 0.  0.
        4    1    3    3  502    0 -0.58667522435E+03  0.61307423034E+02  0.53243176935E+03  0.79462671796E+03  0.12699999809E+01 0. -1.
       -4    1    3    3    0  502  0.58667522435E+03 -0.61307423034E+02 -0.14960355801E+04  0.16081263908E+04  0.12699999809E+01 0.  1.
</event>
<event>
 5   0  0.4462201E-06  0.2161399E+04  0.7818609E-02  0.8534669E-01
       -1   -1    0    0    0  501  0.00000000000E+00  0.00000000000E+00  0.94318780079E+03  0.94318780081E+03  0.50400001928E-02 0.  1.
        1   -1    0    0  501    0  0.00000000000E+00  0.00000000000E+00 -0.12382597420E+04  0.12382597420E+04  0.50400001928E-02 0. -1.
    10030    2    1    2    0    0  0.00000000000E+00  0.00000000000E+00 -0.29507194118E+03  0.21814475428E+04  0.21613990681E+04 0.  0.
        3    1    3    3  502    0 -0.66949598825E+03  0.82566452035E+03  0.49116663181E+02  0.10641236936E+04  0.10100000352E+00 0. -1.
       -3    1    3    3    0  502  0.66949598825E+03 -0.82566452035E+03 -0.34418860436E+03  0.11173238492E+04  0.10100000352E+00 0.  1.
</event>
<event>
 5   0  0.1035928E-05  0.2201567E+04  0.7818609E-02  0.8517776E-01
        2   -1    0    0  501    0  0.00000000000E+00  0.00000000000E+00  0.20907634497E+04  0.20907634497E+04  0.25500000920E-02 0. -1.
       -2   -1    0    0    0  501  0.00000000000E+00  0.00000000000E+00 -0.57956058775E+03  0.57956058776E+03  0.25500000920E-02 0.  1.
    10030    2    1    2    0    0  0.00000000000E+00  0.00000000000E+00  0.15112028619E+04  0.26703240374E+04  0.22015668000E+04 0.  0.
        3    1    3    3  502    0  0.48921638408E+03  0.71251190392E+03  0.15824518263E+04  0.18030972454E+04  0.10100000352E+00 0.  1.
       -3    1    3    3    0  502 -0.48921638408E+03 -0.71251190392E+03 -0.71248964369E+02  0.86722679202E+03  0.10100000352E+00 0. -1.
</event>
<event>
 5   0  0.4408787E-06  0.2197406E+04  0.7818609E-02  0.8519508E-01
       -1   -1    0    0    0  501  0.00000000000E+00  0.00000000000E+00  0.58852154057E+03  0.58852154059E+03  0.50400001928E-02 0. -1.
        1   -1    0    0  501    0  0.00000000000E+00  0.00000000000E+00 -0.20511548749E+04  0.20511548749E+04  0.50400001928E-02 0.  1.
    10030    2    1    2    0    0  0.00000000000E+00  0.00000000000E+00 -0.14626333343E+04  0.26396764155E+04  0.21974064958E+04 0.  0.
        1    1    3    3  502    0 -0.13923338323E+03  0.69026306560E+03 -0.17444500580E+04  0.18812110567E+04  0.50400001928E-02 0.  1.
       -1    1    3    3    0  502  0.13923338323E+03 -0.69026306560E+03  0.28181672372E+03  0.75846535882E+03  0.50400001928E-02 0. -1.
</event>
<event>
 5   0  0.9963173E-06  0.2198373E+04  0.7818609E-02  0.8519106E-01
        2   -1    0    0  501    0  0.00000000000E+00  0.00000000000E+00  0.96888930816E+03  0.96888930816E+03  0.25500000920E-02 0.  1.
       -2   -1    0    0    0  501  0.00000000000E+00  0.00000000000E+00 -0.12470062415E+04  0.12470062415E+04  0.25500000920E-02 0. -1.
    10030    2    1    2    0    0  0.00000000000E+00  0.00000000000E+00 -0.27811693337E+03  0.22158955497E+04  0.21983730481E+04 0.  0.
        4    1    3    3  502    0  0.47261163146E+03  0.28873202756E+03  0.81797317080E+03  0.98783078459E+03  0.12699999809E+01 0.  1.
       -4    1    3    3    0  502 -0.47261163146E+03 -0.28873202756E+03 -0.10960901042E+04  0.12280647651E+04  0.12699999809E+01 0. -1.
</event>
<event>
 5   0  0.9963573E-06  0.2201926E+04  0.7818609E-02  0.8517627E-01
        2   -1    0    0  501    0  0.00000000000E+00  0.00000000000E+00  0.23599436027E+04  0.23599436027E+04  0.25500000920E-02 0.  1.
       -2   -1    0    0    0  501  0.00000000000E+00  0.00000000000E+00 -0.51362232584E+03  0.51362232585E+03  0.25500000920E-02 0. -1.
    10030    2    1    2    0    0  0.00000000000E+00  0.00000000000E+00  0.18463212769E+04  0.28735659286E+04  0.22019261769E+04 0.  0.
        2    1    3    3  502    0 -0.54836902526E+02  0.44861960646E+03  0.22332985859E+04  0.22785717481E+04  0.25500000920E-02 0.  1.
       -2    1    3    3    0  502  0.54836902526E+02 -0.44861960646E+03 -0.38697730901E+03  0.59499418054E+03  0.25500000920E-02 0. -1.
</event>
<event>
 5   0  0.1014015E-05  0.2199320E+04  0.7818609E-02  0.8518711E-01
        2   -1    0    0  501    0  0.00000000000E+00  0.00000000000E+00  0.12269177189E+04  0.12269177189E+04  0.25500000920E-02 0.  1.
       -2   -1    0    0    0  501  0.00000000000E+00  0.00000000000E+00 -0.98560132335E+03  0.98560132336E+03  0.25500000920E-02 0. -1.
    10030    2    1    2    0    0  0.00000000000E+00  0.00000000000E+00  0.24131639551E+03  0.22125190422E+04  0.21993196470E+04 0.  0.
        1    1    3    3  502    0 -0.43193207224E+03  0.56114184686E+01 -0.89667500835E+03  0.99530039369E+03  0.50400001928E-02 0. -1.
       -1    1    3    3    0  502  0.43193207224E+03 -0.56114184686E+01  0.11379914039E+04  0.12172186485E+04  0.50400001928E-02 0.  1.
</event>
<event>
 5   0  0.1035928E-05  0.2200684E+04  0.7818609E-02  0.8518144E-01
       -2   -1    0    0    0  501  0.00000000000E+00  0.00000000000E+00  0.69322323224E+03  0.69322323224E+03  0.25500000920E-02 0. -1.
        2   -1    0    0  501    0  0.00000000000E+00  0.00000000000E+00 -0.17465542918E+04  0.17465542918E+04  0.25500000920E-02 0.  1.
    10030    2    1    2    0    0  0.00000000000E+00  0.00000000000E+00 -0.10533310596E+04  0.24397775241E+04  0.22006835406E+04 0.  0.
        3    1    3    3  502    0 -0.21072258629E+03  0.96468988219E+02 -0.17191895668E+04  0.17347400528E+04  0.10100000352E+00 0.  1.
       -3    1    3    3    0  502  0.21072258629E+03 -0.96468988219E+02  0.66585850720E+03  0.70503747126E+03  0.10100000352E+00 0. -1.
</event>
<event>
 5   0  0.9963573E-06  0.2196604E+04  0.7818609E-02  0.8519843E-01
        2   -1    0    0  501    0  0.00000000000E+00  0.00000000000E+00  0.11676906184E+04  0.11676906184E+04  0.25500000920E-02 0. -1.
       -2   -1    0    0    0  501  0.00000000000E+00  0.00000000000E+00 -0.10330362761E+04  0.10330362761E+04  0.25500000920E-02 0.  1.
    10030    2    1    2    0    0  0.00000000000E+00  0.00000000000E+00  0.13465434236E+03  0.22007268945E+04  0.21966035310E+04 0.  0.
        2    1    3    3  502    0 -0.79019094126E+03 -0.68373480331E+03  0.40615094991E+03  0.11210948216E+04  0.25500000920E-02 0. -1.
       -2    1    3    3    0  502  0.79019094126E+03  0.68373480331E+03 -0.27149660755E+03  0.10796320729E+04  0.25500000920E-02 0.  1.
</event>
<event>
 5   0  0.4630615E-06  0.2191536E+04  0.7818609E-02  0.8521959E-01
        1   -1    0    0  501    0  0.00000000000E+00  0.00000000000E+00  0.12267914747E+04  0.12267914747E+04  0.50400001928E-02 0. -1.
       -1   -1    0    0    0  501  0.00000000000E+00  0.00000000000E+00 -0.97873838200E+03  0.97873838202E+03  0.50400001928E-02 0.  1.
    10030    2    1    2    0    0  0.00000000000E+00  0.00000000000E+00  0.24805309270E+03  0.22055298567E+04  0.21915363588E+04 0.  0.
        2    1    3    3  502    0 -0.61955732983E+03  0.73076440124E+03 -0.41119634700E+03  0.10425691012E+04  0.25500000920E-02 0.  1.
       -2    1    3    3    0  502  0.61955732983E+03 -0.73076440124E+03  0.65924943971E+03  0.11629607555E+04  0.25500000920E-02 0. -1.
</event>
<event>
 5   0  0.4630615E-06  0.2199535E+04  0.7818609E-02  0.8518622E-01
       -1   -1    0    0    0  501  0.00000000000E+00  0.00000000000E+00  0.95406925296E+03  0.95406925297E+03  0.50400001928E-02 0.  1.
        1   -1    0    0  501    0  0.00000000000E+00  0.00000000000E+00 -0.12677158665E+04  0.12677158665E+04  0.50400001928E-02 0. -1.
    10030    2    1    2    0    0  0.00000000000E+00  0.00000000000E+00 -0.31364661350E+03  0.22217851194E+04  0.21995351597E+04 0.  0.
        2    1    3    3  502    0 -0.15569233019E+03 -0.69287798831E+03  0.69141457783E+03  0.99114788342E+03  0.25500000920E-02 0.  1.
       -2    1    3    3    0  502  0.15569233019E+03  0.69287798831E+03 -0.10050611913E+04  0.12306372360E+04  0.25500000920E-02 0. -1.
</event>
<event>
 5   0  0.4309945E-06  0.2200227E+04  0.7818609E-02  0.8518334E-01
        1   -1    0    0  501    0  0.00000000000E+00  0.00000000000E+00  0.11457392601E+04  0.11457392601E+04  0.50400001928E-02 0. -1.
       -1   -1    0    0    0  501  0.00000000000E+00  0.00000000000E+00 -0.10563045006E+04  0.10563045006E+04  0.50400001928E-02 0.  1.
    10030    2    1    2    0    0  0.00000000000E+00  0.00000000000E+00  0.89434759551E+02  0.22020437607E+04  0.22002268401E+04 0.  0.
        4    1    3    3  502    0  0.83761021246E+03  0.71115569807E+03  0.98749267253E+02  0.11032163548E+04  0.12699999809E+01 0.  1.
       -4    1    3    3    0  502 -0.83761021246E+03 -0.71115569807E+03 -0.93145077024E+01  0.10988274059E+04  0.12699999809E+01 0. -1.
</event>
<event>
 5   0  0.4794967E-06  0.2203016E+04  0.7818609E-02  0.8517174E-01
       -1   -1    0    0    0  501  0.00000000000E+00  0.00000000000E+00  0.73426013552E+03  0.73426013554E+03  0.50400001928E-02 0.  1.
        1   -1    0    0  501    0  0.00000000000E+00  0.00000000000E+00 -0.16524394382E+04  0.16524394382E+04  0.50400001928E-02 0. -1.
    10030    2    1    2    0    0  0.00000000000E+00  0.00000000000E+00 -0.91817930267E+03  0.23866995737E+04  0.22030164828E+04 0.  0.
        5    1    3    3  502    0  0.62227176090E+03 -0.36597799908E+03 -0.13604030244E+04  0.15400910749E+04  0.46999998093E+01 0. -1.
       -5    1    3    3    0  502 -0.62227176090E+03  0.36597799908E+03  0.44222372173E+03  0.84660849883E+03  0.46999998093E+01 0.  1.
</event>
<event>
 5   0  0.4794967E-06  0.2186714E+04  0.7818609E-02  0.8523978E-01
        1   -1    0    0  501    0  0.00000000000E+00  0.00000000000E+00  0.19568089193E+04  0.19568089193E+04  0.50400001928E-02 0.  1.
       -1   -1    0    0    0  501  0.00000000000E+00  0.00000000000E+00 -0.61090762734E+03  0.61090762736E+03  0.50400001928E-02 0. -1.
    10030    2    1    2    0    0  0.00000000000E+00  0.00000000000E+00  0.13459012919E+04  0.25677165466E+04  0.21867139676E+04 0.  0.
        5    1    3    3  502    0  0.36681572908E+03  0.69043119927E+03 -0.22452032041E+03  0.81343744953E+03  0.46999998093E+01 0. -1.
       -5    1    3    3    0  502 -0.36681572908E+03 -0.69043119927E+03  0.15704216123E+04  0.17542790971E+04  0.46999998093E+01 0.  1.
</event>
<event>
 5   0  0.1035928E-05  0.2209305E+04  0.7818609E-02  0.8514565E-01
       -2   -1    0    0    0  501  0.00000000000E+00  0.00000000000E+00  0.12161101960E+04  0.12161101960E+04  0.25500000920E-02 0. -1.
        2   -1    0    0  501    0  0.00000000000E+00  0.00000000000E+00 -0.10034099207E+04  0.10034099207E+04  0.25500000920E-02 0.  1.
    10030    2    1    2    0    0  0.00000000000E+00  0.00000000000E+00  0.21270027533E+03  0.22195201166E+04  0.22093049000E+04 0.  0.
        3    1    3    3  502    0 -0.82052940100E+02 -0.70225760399E+02  0.12107933999E+04  0.12156006786E+04  0.10100000352E+00 0. -1.
       -3    1    3    3    0  502  0.82052940100E+02  0.70225760399E+02 -0.99809312461E+03  0.10039194380E+04  0.10100000352E+00 0.  1.
</event>
<event>
 5   0  0.1035928E-05  0.2199091E+04  0.7818609E-02  0.8518807E-01
       -2   -1    0    0    0  501  0.00000000000E+00  0.00000000000E+00  0.94328915159E+03  0.94328915159E+03  0.25500000920E-02 0.  1.
        2   -1    0    0  501    0  0.00000000000E+00  0.00000000000E+00 -0.12816855650E+04  0.12816855650E+04  0.25500000920E-02 0. -1.
    10030    2    1    2    0    0  0.00000000000E+00  0.00000000000E+00 -0.33839641343E+03  0.22249747166E+04  0.21990908023E+04 0.  0.
        3    1    3    3  502    0  0.12459786786E+03 -0.92757597713E+03  0.41472409130E+03  0.10236786137E+04  0.10100000352E+00 0.  1.
       -3    1    3    3    0  502 -0.12459786786E+03  0.92757597713E+03 -0.75312050474E+03  0.12012961029E+04  0.10100000352E+00 0. -1.
</event>
<event>
 5   0  0.4794967E-06  0.2230117E+04  0.7818609E-02  0.8505996E-01
       -1   -1    0    0    0  501  0.00000000000E+00  0.00000000000E+00  0.13224099858E+04  0.13224099858E+04  0.50400001928E-02 0. -1.
        1   -1    0    0  501    0  0.00000000000E+00  0.00000000000E+00 -0.94021953260E+03  0.94021953261E+03  0.50400001928E-02 0.  1.
    10030    2    1    2    0    0  0.00000000000E+00  0.00000000000E+00  0.38219045324E+03  0.22626295185E+04  0.22301172156E+04 0.  0.
        5    1    3    3  502    0  0.10393095402E+04 -0.10550279668E+03 -0.20451041180E+03  0.10644913146E+04  0.46999998093E+01 0.  1.
       -5    1    3    3    0  502 -0.10393095402E+04  0.10550279668E+03  0.58670086504E+03  0.11981382038E+04  0.46999998093E+01 0. -1.
</event>
<event>
 5   0  0.1014015E-05  0.2194179E+04  0.7818609E-02  0.8520855E-01
        2   -1    0    0  501    0  0.00000000000E+00  0.00000000000E+00  0.16088690082E+04  0.16088690082E+04  0.25500000920E-02 0.  1.
       -2   -1    0    0    0  501  0.00000000000E+00  0.00000000000E+00 -0.74810636247E+03  0.74810636248E+03  0.25500000920E-02 0. -1.
    10030    2    1    2    0    0  0.00000000000E+00  0.00000000000E+00  0.86076264577E+03  0.23569753707E+04  0.21941787908E+04 0.  0.
        1    1    3    3  502    0 -0.32363100545E+02  0.10885553199E+04  0.57290995399E+03  0.12305388536E+04  0.50400001928E-02 0.  1.
       -1    1    3    3    0  502  0.32363100545E+02 -0.10885553199E+04  0.28785269178E+03  0.11264365171E+04  0.50400001928E-02 0. -1.
</event>
<event>
 5   0  0.4630615E-06  0.2205323E+04  0.7818609E-02  0.8516216E-01
       -1   -1    0    0    0  501  0.00000000000E+00  0.00000000000E+00  0.10939023564E+04  0.10939023564E+04  0.50400001928E-02 0.  1.
        1   -1    0    0  501    0  0.00000000000E+00  0.00000000000E+00 -0.11114905548E+04  0.11114905548E+04  0.50400001928E-02 0. -1.
    10030    2    1    2    0    0  0.00000000000E+00  0.00000000000E+00 -0.17588198426E+02  0.22053929112E+04  0.22053227764E+04 0.  0.
        2    1    3    3  502    0 -0.45635441393E+03 -0.16196614477E+03  0.98187848793E+03  0.10947957564E+04  0.25500000920E-02 0.  1.
       -2    1    3    3    0  502  0.45635441393E+03  0.16196614477E+03 -0.99946668636E+03  0.11105971548E+04  0.25500000920E-02 0. -1.
</event>
<event>
 5   0  0.1035928E-05  0.2199963E+04  0.7818609E-02  0.8518443E-01
        2   -1    0    0  501    0  0.00000000000E+00  0.00000000000E+00  0.13666183171E+04  0.13666183171E+04  0.25500000920E-02 0. -1.
       -2   -1    0    0    0  501  0.00000000000E+00  0.00000000000E+00 -0.88536763191E+03  0.88536763192E+03  0.25500000920E-02 0.  1.
    10030    2    1    2    0    0  0.00000000000E+00  0.00000000000E+00  0.48125068520E+03  0.22519859490E+04  0.21999632935E+04 0.  0.
        3    1    3    3  502    0  0.40642598072E+02 -0.48090990722E+03  0.12524493016E+04  0.13422203332E+04  0.10100000352E+00 0. -1.
       -3    1    3    3    0  502 -0.40642598072E+02  0.48090990722E+03 -0.77119861638E+03  0.90976561583E+03  0.10100000352E+00 0.  1.
</event>
<event>
 5   0  0.9963173E-06  0.2201698E+04  0.7818609E-02  0.8517722E-01
        2   -1    0    0  501    0  0.00000000000E+00  0.00000000000E+00  0.76623930227E+03  0.76623930227E+03  0.25500000920E-02 0. -1.
       -2   -1    0    0    0  501  0.00000000000E+00  0.00000000000E+00 -0.15815797788E+04  0.15815797788E+04  0.25500000920E-02 0.  1.
    10030    2    1    2    0    0  0.00000000000E+00  0.00000000000E+00 -0.81534047653E+03  0.23478190811E+04  0.22016980594E+04 0.  0.
        4    1    3    3  502    0 -0.82262115877E+03 -0.10756495386E+03  0.36394897077E+03  0.90594495218E+03  0.12699999809E+01 0. -1.
       -4    1    3    3    0  502  0.82262115877E+03  0.10756495386E+03 -0.11792894473E+04  0.14418741289E+04  0.12699999809E+01 0.  1.
</event>
<event>
 5   0  0.1015876E-05  0.2199966E+04  0.7818609E-02  0.8518442E-01
        2   -1    0    0  501    0  0.00000000000E+00  0.00000000000E+00  0.93964239774E+03  0.93964239774E+03  0.25500000920E-02 0.  1.
       -2   -1    0    0    0  501  0.00000000000E+00  0.00000000000E+00 -0.12876838285E+04  0.12876838285E+04  0.25500000920E-02 0. -1.
    10030    2    1    2    0    0  0.00000000000E+00  0.00000000000E+00 -0.34804143072E+03  0.22273262262E+04  0.21999657453E+04 0.  0.
        5    1    3    3  502    0  0.11977202623E+03 -0.82373157369E+03 -0.90203329089E+03  0.12274221734E+04  0.46999998093E+01 0. -1.
       -5    1    3    3    0  502 -0.11977202623E+03  0.82373157369E+03  0.55399186018E+03  0.99990405285E+03  0.46999998093E+01 0.  1.
</event>
<event>
 5   0  0.4408787E-06  0.2207817E+04  0.7818609E-02  0.8515182E-01
        1   -1    0    0  501    0  0.00000000000E+00  0.00000000000E+00  0.16840009511E+04  0.16840009511E+04  0.50400001928E-02 0. -1.
       -1   -1    0    0    0  501  0.00000000000E+00  0.00000000000E+00 -0.72364216107E+03  0.72364216109E+03  0.50400001928E-02 0.  1.
    10030    2    1    2    0    0  0.00000000000E+00  0.00000000000E+00  0.96035879001E+03  0.24076431122E+04  0.22078171007E+04 0.  0.
        1    1    3    3  502    0 -0.94091524517E+03 -0.34938708477E+02 -0.14823346800E+03  0.95316072779E+03  0.50400001928E-02 0.  1.
       -1    1    3    3    0  502  0.94091524517E+03  0.34938708477E+02  0.11085922580E+04  0.14544823844E+04  0.50400001928E-02 0. -1.
</event>
<event>
 5   0  0.4462201E-06  0.2189581E+04  0.7818609E-02  0.8522777E-01
        1   -1    0    0  501    0  0.00000000000E+00  0.00000000000E+00  0.21736687959E+04  0.21736687959E+04  0.50400001928E-02 0.  1.
       -1   -1    0    0    0  501  0.00000000000E+00  0.00000000000E+00 -0.55140246590E+03  0.55140246592E+03  0.50400001928E-02 0. -1.
    10030    2    1    2    0    0  0.00000000000E+00  0.00000000000E+00  0.16222663300E+04  0.27250712618E+04  0.21895810870E+04 0.  0.
        3    1    3    3  502    0 -0.56504423562E+03 -0.14404182069E+03 -0.34204903372E+03  0.67603297700E+03  0.10100000352E+00 0. -1.
       -3    1    3    3    0  502  0.56504423562E+03  0.14404182069E+03  0.19643153637E+04  0.20490382848E+04  0.10100000352E+00 0.  1.
</event>
<event>
 5   0  0.4309945E-06  0.2200612E+04  0.7818609E-02  0.8518173E-01
       -1   -1    0    0    0  501  0.00000000000E+00  0.00000000000E+00  0.55150402739E+03  0.55150402742E+03  0.50400001928E-02 0. -1.
        1   -1    0    0  501    0  0.00000000000E+00  0.00000000000E+00 -0.21952210172E+04  0.21952210172E+04  0.50400001928E-02 0.  1.
    10030    2    1    2    0    0  0.00000000000E+00  0.00000000000E+00 -0.16437169898E+04  0.27467250446E+04  0.22006119440E+04 0.  0.
        4    1    3    3  502    0 -0.50106572559E+03 -0.21058124537E+03  0.37225067483E+03  0.65877424060E+03  0.12699999809E+01 0. -1.
       -4    1    3    3    0  502  0.50106572559E+03  0.21058124537E+03 -0.20159676646E+04  0.20879508040E+04  0.12699999809E+01 0.  1.
</event>
<event>
 5   0  0.4794967E-06  0.2198962E+04  0.7818609E-02  0.8518860E-01
       -1   -1    0    0    0  501  0.00000000000E+00  0.00000000000E+00  0.89370413638E+03  0.89370413639E+03  0.50400001928E-02 0. -1.
        1   -1    0    0  501    0  0.00000000000E+00  0.00000000000E+00 -0.13526383929E+04  0.13526383929E+04  0.50400001928E-02 0.  1.
    10030    2    1    2    0    0  0.00000000000E+00  0.00000000000E+00 -0.45893425648E+03  0.22463425293E+04  0.21989620522E+04 0.  0.
        5    1    3    3  502    0  0.92045508895E+03 -0.60130054870E+03 -0.23564018808E+03  0.11244324386E+04  0.46999998093E+01 0. -1.
       -5    1    3    3    0  502 -0.92045508895E+03  0.60130054870E+03 -0.22329406840E+03  0.11219100907E+04  0.46999998093E+01 0.  1.
</event>
<event>
 5   0  0.1035928E-05  0.2201069E+04  0.7818609E-02  0.8517983E-01
        2   -1    0    0  501    0  0.00000000000E+00  0.00000000000E+00  0.16689923874E+04  0.16689923874E+04  0.25500000920E-02 0. -1.
       -2   -1    0    0    0  501  0.00000000000E+00  0.00000000000E+00 -0.72569325879E+03  0.72569325880E+03  0.25500000920E-02 0.  1.
    10030    2    1    2    0    0  0.00000000000E+00  0.00000000000E+00  0.94329912856E+03  0.23946856461E+04  0.22010693078E+04 0.  0.
        3    1    3    3  502    0 -0.63229545786E+03 -0.18219204996E+03 -0.48809625225E+03  0.81928593956E+03  0.10100000352E+00 0.  1.
       -3    1    3    3    0  502  0.63229545786E+03  0.18219204996E+03  0.14313953808E+04  0.15753997066E+04  0.10100000352E+00 0. -1.
</event>
<event>
 5   0  0.4630615E-06  0.2199461E+04  0.7818609E-02  0.8518652E-01
       -1   -1    0    0    0  501  0.00000000000E+00  0.00000000000E+00  0.63897296478E+03  0.63897296480E+03  0.50400001928E-02 0.  1.
        1   -1    0    0  501    0  0.00000000000E+00  0.00000000000E+00 -0.18927363461E+04  0.18927363461E+04  0.50400001928E-02 0. -1.
    10030    2    1    2    0    0  0.00000000000E+00  0.00000000000E+00 -0.12537633813E+04  0.25317093109E+04  0.21994611655E+04 0.  0.
        2    1    3    3  502    0 -0.73722001921E+03  0.57363629232E+03  0.41184200142E+02  0.93501234802E+03  0.25500000920E-02 0.  1.
       -2    1    3    3    0  502  0.73722001921E+03 -0.57363629232E+03 -0.12949475815E+04  0.15966969629E+04  0.25500000920E-02 0. -1.
</event>
<event>
 5   0  0.4309945E-06  0.2199898E+04  0.7818609E-02  0.8518471E-01
       -1   -1    0    0    0  501  0.00000000000E+00  0.00000000000E+00  0.11368675577E+04  0.11368675577E+04  0.50400001928E-02 0.  1.
        1   -1    0    0  501    0  0.00000000000E+00  0.00000000000E+00 -0.10642294075E+04  0.10642294075E+04  0.50400001928E-02 0. -1.
    10030    2    1    2    0    0  0.00000000000E+00  0.00000000000E+00  0.72638150144E+02  0.22010969652E+04  0.21998980771E+04 0.  0.
        4    1    3    3  502    0  0.78477007909E+03  0.10465325921E+03 -0.72768719602E+03  0.10753355987E+04  0.12699999809E+01 0. -1.
       -4    1    3    3    0  502 -0.78477007909E+03 -0.10465325921E+03  0.80032534617E+03  0.11257613665E+04  0.12699999809E+01 0.  1.
</event>
<event>
 5   0  0.4462201E-06  0.2200512E+04  0.7818609E-02  0.8518215E-01
        1   -1    0    0  501    0  0.00000000000E+00  0.00000000000E+00  0.23281418363E+04  0.23281418363E+04  0.50400001928E-02 0. -1.
       -1   -1    0    0    0  501  0.00000000000E+00  0.00000000000E+00 -0.51996949854E+03  0.51996949857E+03  0.50400001928E-02 0.  1.
    10030    2    1    2    0    0  0.00000000000E+00  0.00000000000E+00  0.18081723377E+04  0.28481113348E+04  0.22005115252E+04 0.  0.
        3    1    3    3  502    0 -0.19872282406E+03  0.49312042621E+03  0.21508519928E+04  0.22155863379E+04  0.10100000352E+00 0. -1.
       -3    1    3    3    0  502  0.19872282406E+03 -0.49312042621E+03 -0.34267965508E+03  0.63252499694E+03  0.10100000352E+00 0.  1.
</event>
<event>
 5   0  0.4309945E-06  0.2204998E+04  0.7818609E-02  0.8516351E-01
       -1   -1    0    0    0  501  0.00000000000E+00  0.00000000000E+00  0.13816819153E+04  0.13816819153E+04  0.50400001928E-02 0.  1.
        1   -1    0    0  501    0  0.00000000000E+00  0.00000000000E+00 -0.87972817872E+03  0.87972817874E+03  0.50400001928E-02 0. -1.
    10030    2    1    2    0    0  0.00000000000E+00  0.00000000000E+00  0.50195373656E+03  0.22614100940E+04  0.22049984262E+04 0.  0.
        4    1    3    3  502    0 -0.41325581238E+03  0.29227276135E+02 -0.79686053666E+03  0.89812188923E+03  0.12699999809E+01 0. -1.
       -4    1    3    3    0  502  0.41325581238E+03 -0.29227276135E+02  0.12988142732E+04  0.13632882048E+04  0.12699999809E+01 0.  1.
</event>
<event>
 5   0  0.9963573E-06  0.2201103E+04  0.7818609E-02  0.8517969E-01
       -2   -1    0    0    0  501  0.00000000000E+00  0.00000000000E+00  0.12490686189E+04  0.12490686189E+04  0.25500000920E-02 0. -1.
        2   -1    0    0  501    0  0.00000000000E+00  0.00000000000E+00 -0.96969322994E+03  0.96969322994E+03  0.25500000920E-02 0.  1.
    10030    2    1    2    0    0  0.00000000000E+00  0.00000000000E+00  0.27937538896E+03  0.22187618488E+04  0.22011027995E+04 0.  0.
        2    1    3    3  502    0  0.10451182153E+04 -0.25873767529E+03 -0.90168287500E+02  0.10804386094E+04  0.25500000920E-02 0.  1.
       -2    1    3    3    0  502 -0.10451182153E+04  0.25873767529E+03  0.36954367646E+03  0.11383232394E+04  0.25500000920E-02 0. -1.
</event>
<event>
 5   0  0.1015876E-05  0.2198125E+04  0.7818609E-02  0.8519209E-01
        2   -1    0    0  501    0  0.00000000000E+00  0.00000000000E+00  0.96971558593E+03  0.96971558593E+03  0.25500000920E-02 0. -1.
       -2   -1    0    0    0  501  0.00000000000E+00  0.00000000000E+00 -0.12456621887E+04  0.12456621887E+04  0.25500000920E-02 0.  1.
    10030    2    1    2    0    0  0.00000000000E+00  0.00000000000E+00 -0.27594660277E+03  0.22153777746E+04  0.21981246909E+04 0.  0.
        5    1    3    3  502    0 -0.98364335667E+03 -0.39787853412E+03 -0.42667299478E+03  0.11436492100E+04  0.46999998093E+01 0.  1.
       -5    1    3    3    0  502  0.98364335667E+03  0.39787853412E+03  0.15072639201E+03  0.10717285646E+04  0.46999998093E+01 0. -1.
</event>
<event>
 5   0  0.1035928E-05  0.2197265E+04  0.7818609E-02  0.8519567E-01
       -2   -1    0    0    0  501  0.00000000000E+00  0.00000000000E+00  0.53965675480E+03  0.53965675481E+03  0.25500000920E-02 0.  1.
        2   -1    0    0  501    0  0.00000000000E+00  0.00000000000E+00 -0.22365953989E+04  0.22365953989E+04  0.25500000920E-02 0. -1.
    10030    2    1    2    0    0  0.00000000000E+00  0.00000000000E+00 -0.16969386441E+04  0.27762521537E+04  0.21972654048E+04 0.  0.
        3    1    3    3  502    0  0.86162465289E+03  0.41492578855E+03 -0.16520327256E+03  0.97049089843E+03  0.10100000352E+00 0.  1.
       -3    1    3    3    0  502 -0.86162465289E+03 -0.41492578855E+03 -0.15317353715E+04  0.18057612553E+04  0.10100000352E+00 0. -1.
</event>
<event>
 5   0  0.1015876E-05  0.2198985E+04  0.7818609E-02  0.8518851E-01
       -2   -1    0    0    0  501  0.00000000000E+00  0.00000000000E+00  0.70768386970E+03  0.70768386971E+03  0.25500000920E-02 0.  1.
        2   -1    0    0  501    0  0.00000000000E+00  0.00000000000E+00 -0.17082250117E+04  0.17082250117E+04  0.25500000920E-02 0. -1.
    10030    2    1    2    0    0  0.00000000000E+00  0.00000000000E+00 -0.10005411420E+04  0.24159088814E+04  0.21989845717E+04 0.  0.
        5    1    3    3  502    0  0.27807831228E+03  0.78441082544E+03  0.28910081270E+03  0.88103873963E+03  0.46999998093E+01 0.  1.
       -5    1    3    3    0  502 -0.27807831228E+03 -0.78441082544E+03 -0.12896419547E+04  0.15348701418E+04  0.46999998093E+01 0. -1.
</event>
<event>
 5   0  0.4309945E-06  0.2198142E+04  0.7818609E-02  0.8519202E-01
       -1   -1    0    0    0  501  0.00000000000E+00  0.00000000000E+00  0.46664694424E+03  0.46664694427E+03  0.50400001928E-02 0.  1.
        1   -1    0    0  501    0  0.00000000000E+00  0.00000000000E+00 -0.25885882478E+04  0.25885882478E+04  0.50400001928E-02 0. -1.
    10030    2    1    2    0    0  0.00000000000E+00  0.00000000000E+00 -0.21219413036E+04  0.30552351921E+04  0.21981417568E+04 0.  0.
        4    1    3    3  502    0 -0.84638905744E+03 -0.55159356156E+03 -0.16625420193E+04  0.19454247538E+04  0.12699999809E+01 0. -1.
       -4    1    3    3    0  502  0.84638905744E+03  0.55159356156E+03 -0.45939928425E+03  0.11098104383E+04  0.12699999809E+01 0.  1.
</event>
<event>
 5   0  0.4462201E-06  0.2252987E+04  0.7818609E-02  0.8496692E-01
       -1   -1    0    0    0  501  0.00000000000E+00  0.00000000000E+00  0.72616759473E+03  0.72616759475E+03  0.50400001928E-02 0. -1.
        1   -1    0    0  501    0  0.00000000000E+00  0.00000000000E+00 -0.17475138480E+04  0.17475138480E+04  0.50400001928E-02 0.  1.
    10030    2    1    2    0    0  0.00000000000E+00  0.00000000000E+00 -0.10213462533E+04  0.24736814428E+04  0.22529872861E+04 0.  0.
        3    1    3    3  502    0 -0.28647834941E+03 -0.10141880139E+04 -0.73773802764E+02  0.10564514927E+04  0.10100000352E+00 0.  1.
       -3    1    3    3    0  502  0.28647834941E+03  0.10141880139E+04 -0.94757245055E+03  0.14172299501E+04  0.10100000352E+00 0. -1.
</event>
<event>
 5   0  0.4462201E-06  0.2200544E+04  0.7818609E-02  0.8518202E-01
       -1   -1    0    0    0  501  0.00000000000E+00  0.00000000000E+00  0.81466226279E+03  0.81466226281E+03  0.50400001928E-02 0. -1.
        1   -1    0    0  501    0  0.00000000000E+00  0.00000000000E+00 -0.14860127962E+04  0.14860127963E+04  0.50400001928E-02 0.  1.
    10030    2    1    2    0    0  0.00000000000E+00  0.00000000000E+00 -0.67135053345E+03  0.23006750591E+04  0.22005440665E+04 0.  0.
        3    1    3    3  502    0  0.20529474021E+03  0.96851726376E+03 -0.83754594017E+03  0.12967863481E+04  0.10100000352E+00 0. -1.
       -3    1    3    3    0  502 -0.20529474021E+03 -0.96851726376E+03  0.16619540672E+03  0.10038887109E+04  0.10100000352E+00 0.  1.
</event>
<event>
 5   0  0.4794967E-06  0.2199134E+04  0.7818609E-02  0.8518789E-01
       -1   -1    0    0    0  501  0.00000000000E+00  0.00000000000E+00  0.69447183174E+03  0.69447183175E+03  0.50400001928E-02 0. -1.
        1   -1    0    0  501    0  0.00000000000E+00  0.00000000000E+00 -0.17409599206E+04  0.17409599206E+04  0.50400001928E-02 0.  1.
    10030    2    1    2    0    0  0.00000000000E+00  0.00000000000E+00 -0.10464880889E+04  0.24354317524E+04  0.21991340342E+04 0.  0.
        5    1    3    3  502    0 -0.58667760869E+03  0.77975064055E+03  0.37987336246E+02  0.97655865451E+03  0.46999998093E+01 0. -1.
       -5    1    3    3    0  502  0.58667760869E+03 -0.77975064055E+03 -0.10844754251E+04  0.14588730979E+04  0.46999998093E+01 0.  1.
</event>
<event>
 5   0  0.9963573E-06  0.2203756E+04  0.7818609E-02  0.8516866E-01
        2   -1    0    0  501    0  0.00000000000E+00  0.00000000000E+00  0.84501717630E+03  0.84501717630E+03  0.25500000920E-02 0. -1.
       -2   -1    0    0    0  501  0.00000000000E+00  0.00000000000E+00 -0.14368172400E+04  0.14368172400E+04  0.25500000920E-02 0.  1.
    10030    2    1    2    0    0  0.00000000000E+00  0.00000000000E+00 -0.59180006373E+03  0.22818344163E+04  0.22037561090E+04 0.  0.
        2    1    3    3  502    0 -0.23381771333E+02  0.69367290188E+03 -0.11820284725E+04  0.13707370689E+04  0.25500000920E-02 0.  1.
       -2    1    3    3    0  502  0.23381771333E+02 -0.69367290188E+03  0.59022840880E+03  0.91109734749E+03  0.25500000920E-02 0. -1.
</event>
<event>
 5   0  0.1035928E-05  0.2199562E+04  0.7818609E-02  0.8518610E-01
        2   -1    0    0  501    0  0.00000000000E+00  0.00000000000E+00  0.12919516969E+04  0.12919516969E+04  0.25500000920E-02 0.  1.
       -2   -1    0    0    0  501  0.00000000000E+00  0.00000000000E+00 -0.93619486368E+03  0.93619486368E+03  0.25500000920E-02 0. -1.
    10030    2    1    2    0    0  0.00000000000E+00  0.00000000000E+00  0.35575683321E+03  0.22281465606E+04  0.21995622680E+04 0.  0.
        3    1    3    3  502    0  0.98508964676E+03  0.48053950970E+03  0.26960178419E+03  0.11287182841E+04  0.10100000352E+00 0.  1.
       -3    1    3    3    0  502 -0.98508964676E+03 -0.48053950970E+03  0.86155049022E+02  0.10994282765E+04  0.10100000352E+00 0. -1.
</event>
<event>
 5   0  0.1035928E-05  0.2199212E+04  0.7818609E-02  0.8518756E-01
       -2   -1    0    0    0  501  0.00000000000E+00  0.00000000000E+00  0.84769735853E+03  0.84769735853E+03  0.25500000920E-02 0. -1.
        2   -1    0    0  501    0  0.00000000000E+00  0.00000000000E+00 -0.14263742965E+04  0.14263742965E+04  0.25500000920E-02 0.  1.
    10030    2    1    2    0    0  0.00000000000E+00  0.00000000000E+00 -0.57867693800E+03  0.22740716551E+04  0.21992123349E+04 0.  0.
        3    1    3    3  502    0 -0.76736857741E+03 -0.23362179460E+03  0.48839374105E+03  0.93912839005E+03  0.10100000352E+00 0. -1.
       -3    1    3    3    0  502  0.76736857741E+03  0.23362179460E+03 -0.10670706790E+04  0.13349432650E+04  0.10100000352E+00 0.  1.
</event>
<event>
 5   0  0.4630615E-06  0.2203311E+04  0.7818609E-02  0.8517051E-01
        1   -1    0    0  501    0  0.00000000000E+00  0.00000000000E+00  0.14790137486E+04  0.14790137487E+04  0.50400001928E-02 0.  1.
       -1   -1    0    0    0  501  0.00000000000E+00  0.00000000000E+00 -0.82057704666E+03  0.82057704668E+03  0.50400001928E-02 0. -1.
    10030    2    1    2    0    0  0.00000000000E+00  0.00000000000E+00  0.65843670198E+03  0.22995907953E+04  0.22033109030E+04 0.  0.
        2    1    3    3  502    0 -0.78924622862E+03 -0.74053263913E+03  0.54399334581E+03  0.12112914428E+04  0.25500000920E-02 0.  1.
       -2    1    3    3    0  502  0.78924622862E+03  0.74053263913E+03  0.11444335617E+03  0.10882993526E+04  0.25500000920E-02 0. -1.
</event>
<event>
 5   0  0.9963173E-06  0.2201037E+04  0.7818609E-02  0.8517997E-01
        2   -1    0    0  501    0  0.00000000000E+00  0.00000000000E+00  0.94333618204E+03  0.94333618204E+03  0.25500000920E-02 0. -1.
       -2   -1    0    0    0  501  0.00000000000E+00  0.00000000000E+00 -0.12838911586E+04  0.12838911586E+04  0.25500000920E-02 0.  1.
    10030    2    1    2    0    0  0.00000000000E+00  0.00000000000E+00 -0.34055497652E+03  0.22272273406E+04  0.22010370135E+04 0.  0.
        4    1    3    3  502    0 -0.21469611100E+03  0.21997078276E+03 -0.12395717994E+04  0.12771144914E+04  0.12699999809E+01 0.  1.
       -4    1    3    3    0  502  0.21469611100E+03 -0.21997078276E+03  0.89901682293E+03  0.95011284917E+03  0.12699999809E+01 0. -1.
</event>
<event>
 5   0  0.1035928E-05  0.2205119E+04  0.7818609E-02  0.8516300E-01
        2   -1    0    0  501    0  0.00000000000E+00  0.00000000000E+00  0.15523738767E+04  0.15523738767E+04  0.25500000920E-02 0.  1.
       -2   -1    0    0    0  501  0.00000000000E+00  0.00000000000E+00 -0.78308315705E+03  0.78308315705E+03  0.25500000920E-02 0. -1.
    10030    2    1    2    0    0  0.00000000000E+00  0.00000000000E+00  0.76929071963E+03  0.23354570337E+04  0.22051193494E+04 0.  0.
        3    1    3    3  502    0 -0.21181015739E+03  0.76444572681E+03  0.11956730026E+04  0.14348779570E+04  0.10100000352E+00 0.  1.
       -3    1    3    3    0  502  0.21181015739E+03 -0.76444572681E+03 -0.42638228300E+03  0.90057907675E+03  0.10100000352E+00 0. -1.
</event>
<event>
 5   0  0.1035928E-05  0.2199422E+04  0.7818609E-02  0.8518669E-01
       -2   -1    0    0    0  501  0.00000000000E+00  0.00000000000E+00  0.11317010539E+04  0.11317010539E+04  0.25500000920E-02 0.  1.
        2   -1    0    0  501    0  0.00000000000E+00  0.00000000000E+00 -0.10686249333E+04  0.10686249333E+04  0.25500000920E-02 0. -1.
    10030    2    1    2    0    0  0.00000000000E+00  0.00000000000E+00  0.63076120667E+02  0.22003259872E+04  0.21994217088E+04 0.  0.
        3    1    3    3  502    0 -0.79841734955E+03  0.67152394938E+03  0.37945866899E+03  0.11101367350E+04  0.10100000352E+00 0.  1.
       -3    1    3    3    0  502  0.79841734955E+03 -0.67152394938E+03 -0.31638254832E+03  0.10901892523E+04  0.10100000352E+00 0. -1.
</event>
<event>
 5   0  0.1035928E-05  0.2188362E+04  0.7818609E-02  0.8523288E-01
       -2   -1    0    0    0  501  0.00000000000E+00  0.00000000000E+00  0.98607641412E+03  0.98607641413E+03  0.25500000920E-02 0. -1.
        2   -1    0    0  501    0  0.00000000000E+00  0.00000000000E+00 -0.12141376403E+04  0.12141376403E+04  0.25500000920E-02 0.  1.
    10030    2    1    2    0    0  0.00000000000E+00  0.00000000000E+00 -0.22806122616E+03  0.22002140544E+04  0.21883623928E+04 0.  0.
        3    1    3    3  502    0 -0.67758251010E+03  0.37059305154E+03 -0.89332526285E+03  0.11808841193E+04  0.10100000352E+00 0.  1.
       -3    1    3    3    0  502  0.67758251010E+03 -0.37059305154E+03  0.66526403669E+03  0.10193299351E+04  0.10100000352E+00 0. -1.
</event>
<event>
 5   0  0.1015876E-05  0.2201166E+04  0.7818609E-02  0.8517943E-01
        2   -1    0    0  501    0  0.00000000000E+00  0.00000000000E+00  0.19313204397E+04  0.19313204397E+04  0.25500000920E-02 0. -1.
       -2   -1    0    0    0  501  0.00000000000E+00  0.00000000000E+00 -0.62717847525E+03  0.62717847526E+03  0.25500000920E-02 0.  1.
    10030    2    1    2    0    0  0.00000000000E+00  0.00000000000E+00  0.13041419644E+04  0.25584989149E+04  0.22011656990E+04 0.  0.
        5    1    3    3  502    0 -0.51303175526E+03 -0.69721342882E+03 -0.13793631167E+03  0.87655956062E+03  0.46999998093E+01 0.  1.
       -5    1    3    3    0  502  0.51303175526E+03  0.69721342882E+03  0.14420782761E+04  0.16819393543E+04  0.46999998093E+01 0. -1.
</event>
<event>
 5   0  0.4462201E-06  0.2178437E+04  0.7818609E-02  0.8527457E-01
       -1   -1    0    0    0  501  0.00000000000E+00  0.00000000000E+00  0.64831681738E+03  0.64831681740E+03  0.50400001928E-02 0.  1.
        1   -1    0    0  501    0  0.00000000000E+00  0.00000000000E+00 -0.18299639874E+04  0.18299639874E+04  0.50400001928E-02 0. -1.
    10030    2    1    2    0    0  0.00000000000E+00  0.00000000000E+00 -0.11816471700E+04  0.24782808048E+04  0.21784365295E+04 0.  0.
        3    1    3    3  502    0  0.20032412680E+03  0.10493107455E+04 -0.83272602579E+03  0.13544797675E+04  0.10100000352E+00 0. -1.
       -3    1    3    3    0  502 -0.20032412680E+03 -0.10493107455E+04 -0.34892114421E+03  0.11238010373E+04  0.10100000352E+00 0.  1.
</event>
<event>
 5   0  0.4630615E-06  0.2200115E+04  0.7818609E-02  0.8518380E-01
       -1   -1    0    0    0  501  0.00000000000E+00  0.00000000000E+00  0.51743335163E+03  0.51743335165E+03  0.50400001928E-02 0.  1.
        1   -1    0    0  501    0  0.00000000000E+00  0.00000000000E+00 -0.23387108328E+04  0.23387108328E+04  0.50400001928E-02 0. -1.
    10030    2    1    2    0    0  0.00000000000E+00  0.00000000000E+00 -0.18212774812E+04  0.28561441845E+04  0.22001154377E+04 0.  0.
        2    1    3    3  502    0 -0.52860934660E+03 -0.28850593928E+03  0.28443623352E+03  0.66600862551E+03  0.25500000920E-02 0.  1.
       -2    1    3    3    0  502  0.52860934660E+03  0.28850593928E+03 -0.21057137147E+04  0.21901355590E+04  0.25500000920E-02 0. -1.
</event>
<event>
 5   0  0.4309945E-06  0.2207292E+04  0.7818609E-02  0.8515399E-01
       -1   -1    0    0    0  501  0.00000000000E+00  0.00000000000E+00  0.10838780496E+04  0.10838780496E+04  0.50400001928E-02 0. -1.
        1   -1    0    0  501    0  0.00000000000E+00  0.00000000000E+00 -0.11237744969E+04  0.11237744969E+04  0.50400001928E-02 0.  1.
    10030    2    1    2    0    0  0.00000000000E+00  0.00000000000E+00 -0.39896447260E+02  0.22076525465E+04  0.22072920150E+04 0.  0.
        4    1    3    3  502    0  0.20996807921E+03  0.10722799697E+04  0.13551837415E+03  0.11010166985E+04  0.12699999809E+01 0.  1.
       -4    1    3    3    0  502 -0.20996807921E+03 -0.10722799697E+04 -0.17541482141E+03  0.11066358480E+04  0.12699999809E+01 0. -1.
</event>
<event>
 5   0  0.1035928E-05  0.2206559E+04  0.7818609E-02  0.8515703E-01
       -2   -1    0    0    0  501  0.00000000000E+00  0.00000000000E+00  0.16845601441E+04  0.16845601441E+04  0.25500000920E-02 0.  1.
        2   -1    0    0  501    0  0.00000000000E+00  0.00000000000E+00 -0.72257761965E+03  0.72257761965E+03  0.25500000920E-02 0. -1.
    10030    2    1    2    0    0  0.00000000000E+00  0.00000000000E+00  0.96198252449E+03  0.24071377638E+04  0.22065588223E+04 0.  0.
        3    1    3    3  502    0 -0.49318685261E+02  0.49574246046E+03 -0.59288592078E+03  0.77440728631E+03  0.10100000352E+00 0. -1.
       -3    1    3    3    0  502  0.49318685261E+02 -0.49574246046E+03  0.15548684453E+04  0.16327304775E+04  0.10100000352E+00 0.  1.
</event>
<event>
 5   0  0.1035928E-05  0.2196313E+04  0.7818609E-02  0.8519964E-01
        2   -1    0    0  501    0  0.00000000000E+00  0.00000000000E+00  0.10093836713E+04  0.10093836713E+04  0.25500000920E-02 0. -1.
       -2   -1    0    0    0  501  0.00000000000E+00  0.00000000000E+00 -0.11947368534E+04  0.11947368534E+04  0.25500000920E-02 0.  1.
    10030    2    1    2    0    0  0.00000000000E+00  0.00000000000E+00 -0.18535318211E+03  0.22041205247E+04  0.21963131574E+04 0.  0.
        3    1    3    3  502    0 -0.35981592237E+03  0.96056889622E+03  0.30087525991E+03  0.10689649361E+04  0.10100000352E+00 0. -1.
       -3    1    3    3    0  502  0.35981592237E+03 -0.96056889622E+03 -0.48622844202E+03  0.11351555886E+04  0.10100000352E+00 0.  1.
</event>
<event>
 5   0  0.1014015E-05  0.2201903E+04  0.7818609E-02  0.8517637E-01
       -2   -1    0    0    0  501  0.00000000000E+00  0.00000000000E+00  0.93952379742E+03  0.93952379742E+03  0.25500000920E-02 0. -1.
        2   -1    0    0  501    0  0.00000000000E+00  0.00000000000E+00 -0.12901151621E+04  0.12901151621E+04  0.25500000920E-02 0.  1.
    10030    2    1    2    0    0  0.00000000000E+00  0.00000000000E+00 -0.35059136469E+03  0.22296389595E+04  0.22019027192E+04 0.  0.
        1    1    3    3  502    0 -0.35451134147E+02  0.67614389331E+03  0.70377953452E+03  0.97659253561E+03  0.50400001928E-02 0. -1.
       -1    1    3    3    0  502  0.35451134147E+02 -0.67614389331E+03 -0.10543708992E+04  0.12530464239E+04  0.50400001928E-02 0.  1.
</event>
<event>
 5   0  0.4408787E-06  0.2202601E+04  0.7818609E-02  0.8517346E-01
       -1   -1    0    0    0  501  0.00000000000E+00  0.00000000000E+00  0.13841373267E+04  0.13841373267E+04  0.50400001928E-02 0.  1.
        1   -1    0    0  501    0  0.00000000000E+00  0.00000000000E+00 -0.87625877844E+03  0.87625877845E+03  0.50400001928E-02 0. -1.
    10030    2    1    2    0    0  0.00000000000E+00  0.00000000000E+00  0.50787854825E+03  0.22603961051E+04  0.22026007201E+04 0.  0.
        1    1    3    3  502    0 -0.30476190275E+03  0.96220835368E+03 -0.19823283344E+03  0.10286014727E+04  0.50400001928E-02 0. -1.
       -1    1    3    3    0  502  0.30476190275E+03 -0.96220835368E+03  0.70611138168E+03  0.12317946325E+04  0.50400001928E-02 0.  1.
</event>
<event>
 5   0  0.9963573E-06  0.2198233E+04  0.7818609E-02  0.8519164E-01
       -2   -1    0    0    0  501  0.00000000000E+00  0.00000000000E+00  0.57111870277E+03  0.57111870277E+03  0.25500000920E-02 0.  1.
        2   -1    0    0  501    0  0.00000000000E+00  0.00000000000E+00 -0.21152468190E+04  0.21152468190E+04  0.25500000920E-02 0. -1.
    10030    2    1    2    0    0  0.00000000000E+00  0.00000000000E+00 -0.15441281163E+04  0.26863655218E+04  0.21982329443E+04 0.  0.
        2    1    3    3  502    0  0.62727355931E+03 -0.80603694370E+03 -0.27582871675E+03  0.10579457235E+04  0.25500000920E-02 0.  1.
       -2    1    3    3    0  502 -0.62727355931E+03  0.80603694370E+03 -0.12682993995E+04  0.16284197983E+04  0.25500000920E-02 0. -1.
</event>
<event>
 5   0  0.1035928E-05  0.2198528E+04  0.7818609E-02  0.8519041E-01
        2   -1    0    0  501    0  0.00000000000E+00  0.00000000000E+00  0.10001717269E+04  0.10001717269E+04  0.25500000920E-02 0. -1.
       -2   -1    0    0    0  501  0.00000000000E+00  0.00000000000E+00 -0.12081734617E+04  0.12081734617E+04  0.25500000920E-02 0.  1.
    10030    2    1    2    0    0  0.00000000000E+00  0.00000000000E+00 -0.20800173483E+03  0.22083451886E+04  0.21985276324E+04 0.  0.
        3    1    3    3  502    0  0.55721867490E+02 -0.41364006373E+03  0.91748569291E+03  0.10079598384E+04  0.10100000352E+00 0. -1.
       -3    1    3    3    0  502 -0.55721867490E+02  0.41364006373E+03 -0.11254874277E+04  0.12003853502E+04  0.10100000352E+00 0.  1.
</event>
<event>
 5   0  0.4408787E-06  0.2199553E+04  0.7818609E-02  0.8518614E-01
        1   -1    0    0  501    0  0.00000000000E+00  0.00000000000E+00  0.12373302929E+04  0.12373302929E+04  0.50400001928E-02 0.  1.
       -1   -1    0    0    0  501  0.00000000000E+00  0.00000000000E+00 -0.97751449502E+03  0.97751449504E+03  0.50400001928E-02 0. -1.
    10030    2    1    2    0    0  0.00000000000E+00  0.00000000000E+00  0.25981579786E+03  0.22148447879E+04  0.21995529513E+04 0.  0.
        1    1    3    3  502    0 -0.93349446764E+03  0.56589679273E+03 -0.46519526872E+01  0.10916376422E+04  0.50400001928E-02 0.  1.
       -1    1    3    3    0  502  0.93349446764E+03 -0.56589679273E+03  0.26446775054E+03  0.11232071457E+04  0.50400001928E-02 0. -1.
</event>
<event>
 5   0  0.9963173E-06  0.2185655E+04  0.7818609E-02  0.8524423E-01
       -2   -1    0    0    0  501  0.00000000000E+00  0.00000000000E+00  0.76827436020E+03  0.76827436021E+03  0.25500000920E-02 0. -1.
        2   -1    0    0  501    0  0.00000000000E+00  0.00000000000E+00 -0.15544858933E+04  0.15544858933E+04  0.25500000920E-02 0.  1.
    10030    2    1    2    0    0  0.00000000000E+00  0.00000000000E+00 -0.78621153310E+03  0.23227602535E+04  0.21856547350E+04 0.  0.
        4    1    3    3  502    0 -0.92421601312E+02 -0.99470852440E+03 -0.86393610396E+03  0.13207475177E+04  0.12699999809E+01 0.  1.
       -4    1    3    3    0  502  0.92421601312E+02  0.99470852440E+03  0.77724570862E+02  0.10020127358E+04  0.12699999809E+01 0. -1.
</event>
<event>
 5   0  0.4794967E-06  0.2205070E+04  0.7818609E-02  0.8516321E-01
       -1   -1    0    0    0  501  0.00000000000E+00  0.00000000000E+00  0.74195777855E+03  0.74195777856E+03  0.50400001928E-02 0.  1.
        1   -1    0    0  501    0  0.00000000000E+00  0.00000000000E+00 -0.16383451739E+04  0.16383451739E+04  0.50400001928E-02 0. -1.
    10030    2    1    2    0    0  0.00000000000E+00  0.00000000000E+00 -0.89638739536E+03  0.23803029525E+04  0.22050695642E+04 0.  0.
        5    1    3    3  502    0  0.11463781446E+03  0.90092710531E+03 -0.11229688598E+04  0.14442619664E+04  0.46999998093E+01 0. -1.
       -5    1    3    3    0  502 -0.11463781446E+03 -0.90092710531E+03  0.22658146441E+03  0.93604098607E+03  0.46999998093E+01 0.  1.
</event>
<event>
 5   0  0.1015876E-05  0.2197797E+04  0.7818609E-02  0.8519346E-01
       -2   -1    0    0    0  501  0.00000000000E+00  0.00000000000E+00  0.11421770461E+04  0.11421770461E+04  0.25500000920E-02 0. -1.
        2   -1    0    0  501    0  0.00000000000E+00  0.00000000000E+00 -0.10572599327E+04  0.10572599327E+04  0.25500000920E-02 0.  1.
    10030    2    1    2    0    0  0.00000000000E+00  0.00000000000E+00  0.84917113394E+02  0.21994369788E+04  0.21977971033E+04 0.  0.
        5    1    3    3  502    0  0.53829775490E+03  0.38549679729E+03  0.92014412491E+03  0.11336046728E+04  0.46999998093E+01 0. -1.
       -5    1    3    3    0  502 -0.53829775490E+03 -0.38549679729E+03 -0.83522701151E+03  0.10658323060E+04  0.46999998093E+01 0.  1.
</event>
<event>
 5   0  0.9963173E-06  0.2205229E+04  0.7818609E-02  0.8516255E-01
       -2   -1    0    0    0  501  0.00000000000E+00  0.00000000000E+00  0.65329266175E+03  0.65329266175E+03  0.25500000920E-02 0.  1.
        2   -1    0    0  501    0  0.00000000000E+00  0.00000000000E+00 -0.18609707042E+04  0.18609707042E+04  0.25500000920E-02 0. -1.
    10030    2    1    2    0    0  0.00000000000E+00  0.00000000000E+00 -0.12076780424E+04  0.25142633659E+04  0.22052287906E+04 0.  0.
        4    1    3    3  502    0  0.25181670701E+03 -0.38422496120E+03 -0.17466617339E+04  0.18060645892E+04  0.12699999809E+01 0. -1.
       -4    1    3    3    0  502 -0.25181670701E+03  0.38422496120E+03  0.53898369150E+03  0.70819877672E+03  0.12699999809E+01 0.  1.
</event>
<event>
 5   0  0.1035928E-05  0.2209085E+04  0.7818609E-02  0.8514656E-01
        2   -1    0    0  501    0  0.00000000000E+00  0.00000000000E+00  0.22068421250E+04  0.22068421250E+04  0.25500000920E-02 0. -1.
       -2   -1    0    0    0  501  0.00000000000E+00  0.00000000000E+00 -0.55283256512E+03  0.55283256512E+03  0.25500000920E-02 0.  1.
    10030    2    1    2    0    0  0.00000000000E+00  0.00000000000E+00  0.16540095599E+04  0.27596746901E+04  0.22090850529E+04 0.  0.
        3    1    3    3  502    0 -0.56633248305E+03  0.56147008497E+02  0.20095854376E+04  0.20886164341E+04  0.10100000352E+00 0. -1.
       -3    1    3    3    0  502  0.56633248305E+03 -0.56147008497E+02 -0.35557587768E+03  0.67105825598E+03  0.10100000352E+00 0.  1.
</event>
<event>
 5   0  0.1035928E-05  0.2197540E+04  0.7818609E-02  0.8519453E-01
       -2   -1    0    0    0  501  0.00000000000E+00  0.00000000000E+00  0.62328336348E+03  0.62328336348E+03  0.25500000920E-02 0.  1.
        2   -1    0    0  501    0  0.00000000000E+00  0.00000000000E+00 -0.19369937464E+04  0.19369937464E+04  0.25500000920E-02 0. -1.
    10030    2    1    2    0    0  0.00000000000E+00  0.00000000000E+00 -0.13137103830E+04  0.25602771099E+04  0.21975404227E+04 0.  0.
        3    1    3    3  502    0 -0.23674512317E+03 -0.73803950044E+03  0.25050926113E+03  0.81455844337E+03  0.10100000352E+00 0.  1.
       -3    1    3    3    0  502  0.23674512317E+03  0.73803950044E+03 -0.15642196441E+04  0.17457186665E+04  0.10100000352E+00 0. -1.
</event>
<event>
 5   0  0.9963173E-06  0.2201315E+04  0.7818609E-02  0.8517881E-01
        2   -1    0    0  501    0  0.00000000000E+00  0.00000000000E+00  0.10980773759E+04  0.10980773759E+04  0.25500000920E-02 0.  1.
       -2   -1    0    0    0  501  0.00000000000E+00  0.00000000000E+00 -0.11032441638E+04  0.11032441638E+04  0.25500000920E-02 0. -1.
    10030    2    1    2    0    0  0.00000000000E+00  0.00000000000E+00 -0.51667879491E+01  0.22013215397E+04  0.22013154762E+04 0.  0.
        4    1    3    3  502    0 -0.74096063486E+03 -0.81385184559E+03 -0.10851095138E+02  0.11006801752E+04  0.12699999809E+01 0. -1.
       -4    1    3    3    0  502  0.74096063486E+03  0.81385184559E+03  0.56843071885E+01  0.11006413645E+04  0.12699999809E+01 0.  1.
</event>
<event>
 5   0  0.1035928E-05  0.2202835E+04  0.7818609E-02  0.8517249E-01
       -2   -1    0    0    0  501  0.00000000000E+00  0.00000000000E+00  0.51682100601E+03  0.51682100601E+03  0.25500000920E-02 0.  1.
        2   -1    0    0  501    0  0.00000000000E+00  0.00000000000E+00 -0.23472741904E+04  0.23472741904E+04  0.25500000920E-02 0. -1.
    10030    2    1    2    0    0  0.00000000000E+00  0.00000000000E+00 -0.18304531844E+04  0.28640951965E+04  0.22028350901E+04 0.  0.
        3    1    3    3  502    0 -0.57115372746E+03 -0.56908682295E+03 -0.18908376403E+04  0.20555640065E+04  0.10100000352E+00 0. -1.
       -3    1    3    3    0  502  0.57115372746E+03  0.56908682295E+03  0.60384455903E+02  0.80853118997E+03  0.10100000352E+00 0.  1.
</event>
<event>
 5   0  0.4794967E-06  0.2194852E+04  0.7818609E-02  0.8520574E-01
        1   -1    0    0  501    0  0.00000000000E+00  0.00000000000E+00  0.88037201477E+03  0.88037201478E+03  0.50400001928E-02 0. -1.
       -1   -1    0    0    0  501  0.00000000000E+00  0.00000000000E+00 -0.13679947565E+04  0.13679947566E+04  0.50400001928E-02 0.  1.
    10030    2    1    2    0    0  0.00000000000E+00  0.00000000000E+00 -0.48762274178E+03  0.22483667713E+04  0.21948524324E+04 0.  0.
        5    1    3    3  502    0 -0.29696104507E+03  0.44109027146E+03 -0.12272048948E+04  0.13374604419E+04  0.46999998093E+01 0.  1.
       -5    1    3    3    0  502  0.29696104507E+03 -0.44109027146E+03  0.73958215304E+03  0.91090632941E+03  0.46999998093E+01 0. -1.
</event>
<event>
 5   0  0.1014015E-05  0.2198808E+04  0.7818609E-02  0.8518924E-01
       -2   -1    0    0    0  501  0.00000000000E+00  0.00000000000E+00  0.51104113131E+03  0.51104113131E+03  0.25500000920E-02 0.  1.
        2   -1    0    0  501    0  0.00000000000E+00  0.00000000000E+00 -0.23651514397E+04  0.23651514397E+04  0.25500000920E-02 0. -1.
    10030    2    1    2    0    0  0.00000000000E+00  0.00000000000E+00 -0.18541103084E+04  0.28761925710E+04  0.21988084659E+04 0.  0.
        1    1    3    3  502    0  0.83159843665E+03 -0.44537862136E+03 -0.16655889351E+04  0.19141850948E+04  0.50400001928E-02 0. -1.
       -1    1    3    3    0  502 -0.83159843665E+03  0.44537862136E+03 -0.18852137331E+03  0.96200747628E+03  0.50400001928E-02 0.  1.
</event>
<event>
 5   0  0.4408787E-06  0.2145223E+04  0.7818609E-02  0.8541580E-01
        1   -1    0    0  501    0  0.00000000000E+00  0.00000000000E+00  0.10523842202E+04  0.10523842202E+04  0.50400001928E-02 0. -1.
       -1   -1    0    0    0  501  0.00000000000E+00  0.00000000000E+00 -0.10932273438E+04  0.10932273438E+04  0.50400001928E-02 0.  1.
    10030    2    1    2    0    0  0.00000000000E+00  0.00000000000E+00 -0.40843123598E+02  0.21456115641E+04  0.21452227910E+04 0.  0.
        1    1    3    3  502    0  0.57896762660E+03  0.23253662786E+03 -0.89305799354E+03  0.10894169889E+04  0.50400001928E-02 0.  1.
       -1    1    3    3    0  502 -0.57896762660E+03 -0.23253662786E+03  0.85221486994E+03  0.10561945751E+04  0.50400001928E-02 0. -1.
</event>
<event>
 5   0  0.9963173E-06  0.2197457E+04  0.7818609E-02  0.8519487E-01
        2   -1    0    0  501    0  0.00000000000E+00  0.00000000000E+00  0.17835660239E+04  0.17835660239E+04  0.25500000920E-02 0. -1.
       -2   -1    0    0    0  501  0.00000000000E+00  0.00000000000E+00 -0.67684897743E+03  0.67684897743E+03  0.25500000920E-02 0.  1.
    10030    2    1    2    0    0  0.00000000000E+00  0.00000000000E+00  0.11067170465E+04  0.24604150013E+04  0.21974574758E+04 0.  0.
        4    1    3    3  502    0 -0.22925607419E+03 -0.76713915299E+02 -0.64670023725E+03  0.69041015499E+03  0.12699999809E+01 0.  1.
       -4    1    3    3    0  502  0.22925607419E+03  0.76713915299E+02  0.17534172837E+04  0.17700048464E+04  0.12699999809E+01 0. -1.
</event>
<event>
 5   0  0.9963173E-06  0.2200917E+04  0.7818609E-02  0.8518046E-01
        2   -1    0    0  501    0  0.00000000000E+00  0.00000000000E+00  0.18743857722E+04  0.18743857722E+04  0.25500000920E-02 0.  1.
       -2   -1    0    0    0  501  0.00000000000E+00  0.00000000000E+00 -0.64608318466E+03  0.64608318467E+03  0.25500000920E-02 0. -1.
    10030    2    1    2    0    0  0.00000000000E+00  0.00000000000E+00  0.12283025875E+04  0.25204689568E+04  0.22009171988E+04 0.  0.
        4    1    3    3  502    0  0.91126189625E+03 -0.56554533554E+03  0.89645346115E+03  0.13978090682E+04  0.12699999809E+01 0.  1.
       -4    1    3    3    0  502 -0.91126189625E+03  0.56554533554E+03  0.33184912635E+03  0.11226598887E+04  0.12699999809E+01 0. -1.
</event>
<event>
 5   0  0.3546750E-06  0.2194971E+04  0.7818609E-02  0.8520524E-01
       -3   -1    0    0    0  501  0.00000000000E+00  0.00000000000E+00  0.83829170188E+03  0.83829170796E+03  0.10100000352E+00 0.  1.
        3   -1    0    0  501    0  0.00000000000E+00  0.00000000000E+00 -0.14368203784E+04  0.14368203820E+04  0.10100000352E+00 0. -1.
    10030    2    1    2    0    0  0.00000000000E+00  0.00000000000E+00 -0.59852867656E+03  0.22751120899E+04  0.21949711718E+04 0.  0.
        3    1    3    3  502    0  0.59633378166E+02  0.94298188319E+03  0.27942423519E+03  0.98531664211E+03  0.10100000352E+00 0.  1.
       -3    1    3    3    0  502 -0.59633378166E+02 -0.94298188319E+03 -0.87795291175E+03  0.12897954478E+04  0.10100000352E+00 0. -1.
</event>
<event>
 5   0  0.9963173E-06  0.2201293E+04  0.7818609E-02  0.8517890E-01
        2   -1    0    0  501    0  0.00000000000E+00  0.00000000000E+00  0.16349879807E+04  0.16349879807E+04  0.25500000920E-02 0.  1.
       -2   -1    0    0    0  501  0.00000000000E+00  0.00000000000E+00 -0.74093692337E+03  0.74093692337E+03  0.25500000920E-02 0. -1.
    10030    2    1    2    0    0  0.00000000000E+00  0.00000000000E+00  0.89405105730E+03  0.23759249040E+04  0.22012932237E+04 0.  0.
        4    1    3    3  502    0 -0.65718904529E+03  0.66004772453E+03  0.10799417375E+04  0.14261262950E+04  0.12699999809E+01 0.  1.
       -4    1    3    3    0  502  0.65718904529E+03 -0.66004772453E+03 -0.18589068020E+03  0.94979860907E+03  0.12699999809E+01 0. -1.
</event>
<event>
 5   0  0.1014015E-05  0.2191207E+04  0.7818609E-02  0.8522097E-01
        2   -1    0    0  501    0  0.00000000000E+00  0.00000000000E+00  0.18031210226E+04  0.18031210226E+04  0.25500000920E-02 0. -1.
       -2   -1    0    0    0  501  0.00000000000E+00  0.00000000000E+00 -0.66570504868E+03  0.66570504868E+03  0.25500000920E-02 0.  1.
    10030    2    1    2    0    0  0.00000000000E+00  0.00000000000E+00  0.11374159739E+04  0.24688260713E+04  0.21912067617E+04 0.  0.
        1    1    3    3  502    0  0.25771594952E+03 -0.59573450337E+03 -0.42574471416E+03  0.77625747713E+03  0.50400001928E-02 0.  1.
       -1    1    3    3    0  502 -0.25771594952E+03  0.59573450337E+03  0.15631606881E+04  0.16925685942E+04  0.50400001928E-02 0. -1.
</event>
<event>
 5   0  0.4309945E-06  0.2144517E+04  0.7818609E-02  0.8541883E-01
        1   -1    0    0  501    0  0.00000000000E+00  0.00000000000E+00  0.20758658463E+04  0.20758658463E+04  0.50400001928E-02 0. -1.
       -1   -1    0    0    0  501  0.00000000000E+00  0.00000000000E+00 -0.55385970161E+03  0.55385970164E+03  0.50400001928E-02 0.  1.
    10030    2    1    2    0    0  0.00000000000E+00  0.00000000000E+00  0.15220061447E+04  0.26297255480E+04  0.21445171375E+04 0.  0.
        4    1    3    3  502    0 -0.17332964783E+03 -0.35846039289E+03 -0.45984468131E+03  0.60827277098E+03  0.12699999809E+01 0.  1.
       -4    1    3    3    0  502  0.17332964783E+03  0.35846039289E+03  0.19818508260E+04  0.20214527770E+04  0.12699999809E+01 0. -1.
</event>
<event>
 5   0  0.3546750E-06  0.2201220E+04  0.7818609E-02  0.8517921E-01
       -3   -1    0    0    0  501  0.00000000000E+00  0.00000000000E+00  0.10722770373E+04  0.10722770420E+04  0.10100000352E+00 0. -1.
        3   -1    0    0  501    0  0.00000000000E+00  0.00000000000E+00 -0.11296915117E+04  0.11296915162E+04  0.10100000352E+00 0.  1.
    10030    2    1    2    0    0  0.00000000000E+00  0.00000000000E+00 -0.57414474387E+02  0.22019685582E+04  0.22012199139E+04 0.  0.
        5    1    3    3  502    0  0.25499240972E+03 -0.10671099340E+04 -0.11577388287E+03  0.11032544685E+04  0.46999998093E+01 0.  1.
       -5    1    3    3    0  502 -0.25499240972E+03  0.10671099340E+04  0.58359408484E+02  0.10987140897E+04  0.46999998093E+01 0. -1.
</event>
<event>
 5   0  0.4794967E-06  0.2199191E+04  0.7818609E-02  0.8518765E-01
       -1   -1    0    0    0  501  0.00000000000E+00  0.00000000000E+00  0.76542967384E+03  0.76542967386E+03  0.50400001928E-02 0. -1.
        1   -1    0    0  501    0  0.00000000000E+00  0.00000000000E+00 -0.15796486740E+04  0.15796486740E+04  0.50400001928E-02 0.  1.
    10030    2    1    2    0    0  0.00000000000E+00  0.00000000000E+00 -0.81421900017E+03  0.23450783479E+04  0.21991907324E+04 0.  0.
        5    1    3    3  502    0  0.95599715936E+03 -0.48702581282E+03 -0.66383589264E+03  0.12616754311E+04  0.46999998093E+01 0.  1.
       -5    1    3    3    0  502 -0.95599715936E+03  0.48702581282E+03 -0.15038310753E+03  0.10834029168E+04  0.46999998093E+01 0. -1.
</event>
<event>
 5   0  0.9963173E-06  0.2169621E+04  0.7818609E-02  0.8531180E-01
        2   -1    0    0  501    0  0.00000000000E+00  0.00000000000E+00  0.19546831819E+04  0.19546831819E+04  0.25500000920E-02 0. -1.
       -2   -1    0    0    0  501  0.00000000000E+00  0.00000000000E+00 -0.60204838829E+03  0.60204838829E+03  0.25500000920E-02 0.  1.
    10030    2    1    2    0    0  0.00000000000E+00  0.00000000000E+00  0.13526347937E+04  0.25567315702E+04  0.21696210354E+04 0.  0.
        4    1    3    3  502    0 -0.25985708589E+03  0.17533869652E+03  0.19001441982E+04  0.19258294189E+04  0.12699999809E+01 0. -1.
       -4    1    3    3    0  502  0.25985708589E+03 -0.17533869652E+03 -0.54750940459E+03  0.63090215137E+03  0.12699999809E+01 0.  1.
</event>
<event>
 5   0  0.1014015E-05  0.2202342E+04  0.7818609E-02  0.8517454E-01
        2   -1    0    0  501    0  0.00000000000E+00  0.00000000000E+00  0.84485702245E+03  0.84485702245E+03  0.25500000920E-02 0. -1.
       -2   -1    0    0    0  501  0.00000000000E+00  0.00000000000E+00 -0.14352463060E+04  0.14352463060E+04  0.25500000920E-02 0.  1.
    10030    2    1    2    0    0  0.00000000000E+00  0.00000000000E+00 -0.59038928355E+03  0.22801033285E+04  0.22023423172E+04 0.  0.
        1    1    3    3  502    0 -0.99387489996E+03 -0.35525627411E+03  0.29871700997E+02  0.10558819326E+04  0.50400001928E-02 0. -1.
       -1    1    3    3    0  502  0.99387489996E+03  0.35525627411E+03 -0.62026098454E+03  0.12242213958E+04  0.50400001928E-02 0.  1.
</event>
<event>
 5   0  0.9963573E-06  0.2208857E+04  0.7818609E-02  0.8514751E-01
       -2   -1    0    0    0  501  0.00000000000E+00  0.00000000000E+00  0.89481723760E+03  0.89481723761E+03  0.25500000920E-02 0. -1.
        2   -1    0    0  501    0  0.00000000000E+00  0.00000000000E+00 -0.13631414149E+04  0.13631414149E+04  0.25500000920E-02 0.  1.
    10030    2    1    2    0    0  0.00000000000E+00  0.00000000000E+00 -0.46832417725E+03  0.22579586525E+04  0.22088571120E+04 0.  0.
        2    1    3    3  502    0 -0.35625379706E+03 -0.98658905647E+03 -0.58751605019E+03  0.12022686237E+04  0.25500000920E-02 0. -1.
       -2    1    3    3    0  502  0.35625379706E+03  0.98658905647E+03  0.11919187294E+03  0.10556900288E+04  0.25500000920E-02 0.  1.
</event>
<event>
 5   0  0.1015876E-05  0.2197391E+04  0.7818609E-02  0.8519515E-01
        2   -1    0    0  501    0  0.00000000000E+00  0.00000000000E+00  0.12509912056E+04  0.12509912056E+04  0.25500000920E-02 0. -1.
       -2   -1    0    0    0  501  0.00000000000E+00  0.00000000000E+00 -0.96494067605E+03  0.96494067605E+03  0.25500000920E-02 0.  1.
    10030    2    1    2    0    0  0.00000000000E+00  0.00000000000E+00  0.28605052955E+03  0.22159318817E+04  0.21973914532E+04 0.  0.
        5    1    3    3  502    0  0.47674469387E+03  0.15041488210E+03 -0.84359569129E+03  0.98060487468E+03  0.46999998093E+01 0.  1.
       -5    1    3    3    0  502 -0.47674469387E+03 -0.15041488210E+03  0.11296462208E+04  0.12353270070E+04  0.46999998093E+01 0. -1.
</event>
<event>
 5   0  0.9963573E-06  0.2207610E+04  0.7818609E-02  0.8515267E-01
        2   -1    0    0  501    0  0.00000000000E+00  0.00000000000E+00  0.19252476117E+04  0.19252476117E+04  0.25500000920E-02 0. -1.
       -2   -1    0    0    0  501  0.00000000000E+00  0.00000000000E+00 -0.63284599875E+03  0.63284599876E+03  0.25500000920E-02 0.  1.
    10030    2    1    2    0    0  0.00000000000E+00  0.00000000000E+00  0.12924016130E+04  0.25580936105E+04  0.22076097913E+04 0.  0.
        2    1    3    3  502    0 -0.87067223717E+03  0.56176865478E+03  0.10870347480E+04  0.15017651979E+04  0.25500000920E-02 0. -1.
       -2    1    3    3    0  502  0.87067223717E+03 -0.56176865478E+03  0.20536686493E+03  0.10563284126E+04  0.25500000920E-02 0.  1.
</event>
<event>
 5   0  0.4462201E-06  0.2177480E+04  0.7818609E-02  0.8527860E-01
        1   -1    0    0  501    0  0.00000000000E+00  0.00000000000E+00  0.16035727955E+04  0.16035727955E+04  0.50400001928E-02 0. -1.
       -1   -1    0    0    0  501  0.00000000000E+00  0.00000000000E+00 -0.73919581751E+03  0.73919581753E+03  0.50400001928E-02 0.  1.
    10030    2    1    2    0    0  0.00000000000E+00  0.00000000000E+00  0.86437697801E+03  0.23427686131E+04  0.21774795554E+04 0.  0.
        3    1    3    3  502    0  0.84263733134E+03  0.10798896707E+02 -0.30948632131E+03  0.89773942857E+03  0.10100000352E+00 0.  1.
       -3    1    3    3    0  502 -0.84263733134E+03 -0.10798896707E+02  0.11738632993E+04  0.14450291845E+04  0.10100000352E+00 0. -1.
</event>
<event>
 5   0  0.1014015E-05  0.2200885E+04  0.7818609E-02  0.8518060E-01
        2   -1    0    0  501    0  0.00000000000E+00  0.00000000000E+00  0.70131915742E+03  0.70131915742E+03  0.25500000920E-02 0. -1.
       -2   -1    0    0    0  501  0.00000000000E+00  0.00000000000E+00 -0.17267091070E+04  0.17267091070E+04  0.25500000920E-02 0.  1.
    10030    2    1    2    0    0  0.00000000000E+00  0.00000000000E+00 -0.10253899495E+04  0.24280282644E+04  0.22008854364E+04 0.  0.
        1    1    3    3  502    0  0.38312956304E+03 -0.66760718882E+03  0.35490880038E+03  0.84761304689E+03  0.50400001928E-02 0. -1.
       -1    1    3    3    0  502 -0.38312956304E+03  0.66760718882E+03 -0.13802987499E+04  0.15804152175E+04  0.50400001928E-02 0.  1.
</event>
<event>
 5   0  0.4630615E-06  0.2198437E+04  0.7818609E-02  0.8519079E-01
       -1   -1    0    0    0  501  0.00000000000E+00  0.00000000000E+00  0.51191742430E+03  0.51191742432E+03  0.50400001928E-02 0.  1.
        1   -1    0    0  501    0  0.00000000000E+00  0.00000000000E+00 -0.23603051752E+04  0.23603051752E+04  0.50400001928E-02 0. -1.
    10030    2    1    2    0    0  0.00000000000E+00  0.00000000000E+00 -0.18483877509E+04  0.28722225995E+04  0.21984370320E+04 0.  0.
        2    1    3    3  502    0 -0.37666558751E+03  0.37514503404E+03 -0.21811852443E+04  0.22450344833E+04  0.25500000920E-02 0. -1.
       -2    1    3    3    0  502  0.37666558751E+03 -0.37514503404E+03  0.33279749345E+03  0.62718811615E+03  0.25500000920E-02 0.  1.
</event>
<event>
 5   0  0.4309945E-06  0.2222175E+04  0.7818609E-02  0.8509255E-01
        1   -1    0    0  501    0  0.00000000000E+00  0.00000000000E+00  0.97762910413E+03  0.97762910414E+03  0.50400001928E-02 0. -1.
       -1   -1    0    0    0  501  0.00000000000E+00  0.00000000000E+00 -0.12627648277E+04  0.12627648277E+04  0.50400001928E-02 0.  1.
    10030    2    1    2    0    0  0.00000000000E+00  0.00000000000E+00 -0.28513572354E+03  0.22403939318E+04  0.22221751931E+04 0.  0.
        4    1    3    3  502    0 -0.82885408942E+03  0.83927565348E+02  0.59862687954E+03  0.10258648505E+04  0.12699999809E+01 0. -1.
       -4    1    3    3    0  502  0.82885408942E+03 -0.83927565348E+02 -0.88376260308E+03  0.12145290813E+04  0.12699999809E+01 0.  1.
</event>
<event>
 5   0  0.1035928E-05  0.2207729E+04  0.7818609E-02  0.8515218E-01
       -2   -1    0    0    0  501  0.00000000000E+00  0.00000000000E+00  0.13145143856E+04  0.13145143856E+04  0.25500000920E-02 0. -1.
        2   -1    0    0  501    0  0.00000000000E+00  0.00000000000E+00 -0.92697148478E+03  0.92697148478E+03  0.25500000920E-02 0.  1.
    10030    2    1    2    0    0  0.00000000000E+00  0.00000000000E+00  0.38754290079E+03  0.22414858703E+04  0.22077294687E+04 0.  0.
        3    1    3    3  502    0  0.95094730371E+03 -0.17152958993E+03 -0.34804937792E+03  0.10270645327E+04  0.10100000352E+00 0.  1.
       -3    1    3    3    0  502 -0.95094730371E+03  0.17152958993E+03  0.73559227871E+03  0.12144213377E+04  0.10100000352E+00 0. -1.
</event>
<event>
 5   0  0.1015876E-05  0.2200639E+04  0.7818609E-02  0.8518162E-01
        2   -1    0    0  501    0  0.00000000000E+00  0.00000000000E+00  0.91313494505E+03  0.91313494506E+03  0.25500000920E-02 0.  1.
       -2   -1    0    0    0  501  0.00000000000E+00  0.00000000000E+00 -0.13258755959E+04  0.13258755959E+04  0.25500000920E-02 0. -1.
    10030    2    1    2    0    0  0.00000000000E+00  0.00000000000E+00 -0.41274065085E+03  0.22390105410E+04  0.22006393066E+04 0.  0.
        5    1    3    3  502    0  0.86705580992E+03 -0.59422066924E+03 -0.53730669570E+03  0.11805102950E+04  0.46999998093E+01 0. -1.
       -5    1    3    3    0  502 -0.86705580992E+03  0.59422066924E+03  0.12456604485E+03  0.10585002460E+04  0.46999998093E+01 0.  1.
</event>
<event>
 5   0  0.3546750E-06  0.2261897E+04  0.7818609E-02  0.8493098E-01
        3   -1    0    0  501    0  0.00000000000E+00  0.00000000000E+00  0.13065095726E+04  0.13065095765E+04  0.10100000352E+00 0.  1.
       -3   -1    0    0    0  501  0.00000000000E+00  0.00000000000E+00 -0.97897850440E+03  0.97897850961E+03  0.10100000352E+00 0. -1.
    10030    2    1    2    0    0  0.00000000000E+00  0.00000000000E+00  0.32753106822E+03  0.22854880861E+04  0.22618972548E+04 0.  0.
        3    1    3    3  502    0  0.10128876833E+04 -0.31064493627E+03  0.56362391160E+03  0.12000473571E+04  0.10100000352E+00 0. -1.
       -3    1    3    3    0  502 -0.10128876833E+04  0.31064493627E+03 -0.23609284337E+03  0.10854407290E+04  0.10100000352E+00 0.  1.
</event>
<event>
 5   0  0.1015876E-05  0.2199670E+04  0.7818609E-02  0.8518566E-01
       -2   -1    0    0    0  501  0.00000000000E+00  0.00000000000E+00  0.81860780404E+03  0.81860780404E+03  0.25500000920E-02 0. -1.
        2   -1    0    0  501    0  0.00000000000E+00  0.00000000000E+00 -0.14776753509E+04  0.14776753509E+04  0.25500000920E-02 0.  1.
    10030    2    1    2    0    0  0.00000000000E+00  0.00000000000E+00 -0.65906754682E+03  0.22962831549E+04  0.21996695880E+04 0.  0.
        5    1    3    3  502    0 -0.55131693687E+03  0.41196865132E+03  0.56601851751E+03  0.89110470020E+03  0.46999998093E+01 0. -1.
       -5    1    3    3    0  502  0.55131693687E+03 -0.41196865132E+03 -0.12250860643E+04  0.14051784547E+04  0.46999998093E+01 0.  1.
</event>
<event>
 5   0  0.1014015E-05  0.2205921E+04  0.7818609E-02  0.8515968E-01
        2   -1    0    0  501    0  0.00000000000E+00  0.00000000000E+00  0.22984351507E+04  0.22984351507E+04  0.25500000920E-02 0.  1.
       -2   -1    0    0    0  501  0.00000000000E+00  0.00000000000E+00 -0.52928279530E+03  0.52928279531E+03  0.25500000920E-02 0. -1.
    10030    2    1    2    0    0  0.00000000000E+00  0.00000000000E+00  0.17691523554E+04  0.28277179460E+04  0.22059212873E+04 0.  0.
        1    1    3    3  502    0 -0.58618618890E+03 -0.19271967669E+03  0.20564711781E+04  0.21470511937E+04  0.50400001928E-02 0.  1.
       -1    1    3    3    0  502  0.58618618890E+03  0.19271967669E+03 -0.28731882270E+03  0.68066675234E+03  0.50400001928E-02 0. -1.
</event>
<event>
 5   0  0.4309945E-06  0.2195133E+04  0.7818609E-02  0.8520457E-01
        1   -1    0    0  501    0  0.00000000000E+00  0.00000000000E+00  0.22682743160E+04  0.22682743161E+04  0.50400001928E-02 0. -1.
       -1   -1    0    0    0  501  0.00000000000E+00  0.00000000000E+00 -0.53108739821E+03  0.53108739824E+03  0.50400001928E-02 0.  1.
    10030    2    1    2    0    0  0.00000000000E+00  0.00000000000E+00  0.17371869178E+04  0.27993617143E+04  0.21951327112E+04 0.  0.
        4    1    3    3  502    0 -0.77075380158E+03  0.11333642658E+03  0.18545454072E+04  0.20115284856E+04  0.12699999809E+01 0. -1.
       -4    1    3    3    0  502  0.77075380158E+03 -0.11333642658E+03 -0.11735848938E+03  0.78783322865E+03  0.12699999809E+01 0.  1.
</event>
<event>
 5   0  0.4794967E-06  0.2208794E+04  0.7818609E-02  0.8514777E-01
        1   -1    0    0  501    0  0.00000000000E+00  0.00000000000E+00  0.15596934384E+04  0.15596934384E+04  0.50400001928E-02 0. -1.
       -1   -1    0    0    0  501  0.00000000000E+00  0.00000000000E+00 -0.78200831356E+03  0.78200831358E+03  0.50400001928E-02 0.  1.
    10030    2    1    2    0    0  0.00000000000E+00  0.00000000000E+00  0.77768512488E+03  0.23417017520E+04  0.22087944544E+04 0.  0.
        5    1    3    3  502    0  0.31769071786E+03  0.39993298723E+03  0.14269437603E+04  0.15156069317E+04  0.46999998093E+01 0. -1.
       -5    1    3    3    0  502 -0.31769071786E+03 -0.39993298723E+03 -0.64925863540E+03  0.82609482030E+03  0.46999998093E+01 0.  1.
</event>
<event>
 5   0  0.1015876E-05  0.2202532E+04  0.7818609E-02  0.8517375E-01
        2   -1    0    0  501    0  0.00000000000E+00  0.00000000000E+00  0.13389148996E+04  0.13389148996E+04  0.25500000920E-02 0.  1.
       -2   -1    0    0    0  501  0.00000000000E+00  0.00000000000E+00 -0.90579827861E+03  0.90579827861E+03  0.25500000920E-02 0. -1.
    10030    2    1    2    0    0  0.00000000000E+00  0.00000000000E+00  0.43311662103E+03  0.22447131783E+04  0.22025320078E+04 0.  0.
        5    1    3    3  502    0  0.23416440091E+03 -0.78872053127E+02  0.13102889450E+04  0.13333915317E+04  0.46999998093E+01 0.  1.
       -5    1    3    3    0  502 -0.23416440091E+03  0.78872053127E+02 -0.87717232401E+03  0.91132164652E+03  0.46999998093E+01 0. -1.
</event>
<event>
 5   0  0.9963573E-06  0.2199320E+04  0.7818609E-02  0.8518711E-01
        2   -1    0    0  501    0  0.00000000000E+00  0.00000000000E+00  0.78656344101E+03  0.78656344101E+03  0.25500000920E-02 0. -1.
       -2   -1    0    0    0  501  0.00000000000E+00  0.00000000000E+00 -0.15373866936E+04  0.15373866936E+04  0.25500000920E-02 0.  1.
    10030    2    1    2    0    0  0.00000000000E+00  0.00000000000E+00 -0.75082325260E+03  0.23239501346E+04  0.21993200476E+04 0.  0.
        2    1    3    3  502    0  0.46327059903E+03 -0.83894944660E+03  0.19440201847E+03  0.97787932112E+03  0.25500000920E-02 0. -1.
       -2    1    3    3    0  502 -0.46327059903E+03  0.83894944660E+03 -0.94522527107E+03  0.13460708135E+04  0.25500000920E-02 0.  1.
</event>
<event>
 5   0  0.1035928E-05  0.2202316E+04  0.7818609E-02  0.8517465E-01
       -2   -1    0    0    0  501  0.00000000000E+00  0.00000000000E+00  0.11677336783E+04  0.11677336783E+04  0.25500000920E-02 0.  1.
        2   -1    0    0  501    0  0.00000000000E+00  0.00000000000E+00 -0.10383778910E+04  0.10383778910E+04  0.25500000920E-02 0. -1.
    10030    2    1    2    0    0  0.00000000000E+00  0.00000000000E+00  0.12935578724E+03  0.22061115693E+04  0.22023159030E+04 0.  0.
        3    1    3    3  502    0 -0.87195995509E+03  0.33810968468E+03  0.64698562671E+03  0.11371995135E+04  0.10100000352E+00 0. -1.
       -3    1    3    3    0  502  0.87195995509E+03 -0.33810968468E+03 -0.51762983947E+03  0.10689120558E+04  0.10100000352E+00 0.  1.
</event>
<event>
 5   0  0.4408787E-06  0.2198706E+04  0.7818609E-02  0.8518967E-01
       -1   -1    0    0    0  501  0.00000000000E+00  0.00000000000E+00  0.46842187009E+03  0.46842187012E+03  0.50400001928E-02 0. -1.
        1   -1    0    0  501    0  0.00000000000E+00  0.00000000000E+00 -0.25801025897E+04  0.25801025897E+04  0.50400001928E-02 0.  1.
    10030    2    1    2    0    0  0.00000000000E+00  0.00000000000E+00 -0.21116807196E+04  0.30485244599E+04  0.21987055102E+04 0.  0.
        1    1    3    3  502    0  0.11688068869E+03 -0.36187628442E+03 -0.24860031067E+04  0.25149208709E+04  0.50400001928E-02 0.  1.
       -1    1    3    3    0  502 -0.11688068869E+03  0.36187628442E+03  0.37432238706E+03  0.53360358891E+03  0.50400001928E-02 0. -1.
</event>
<event>
 5   0  0.1035928E-05  0.2197421E+04  0.7818609E-02  0.8519502E-01
       -2   -1    0    0    0  501  0.00000000000E+00  0.00000000000E+00  0.83619522973E+03  0.83619522973E+03  0.25500000920E-02 0. -1.
        2   -1    0    0  501    0  0.00000000000E+00  0.00000000000E+00 -0.14436402605E+04  0.14436402605E+04  0.25500000920E-02 0.  1.
    10030    2    1    2    0    0  0.00000000000E+00  0.00000000000E+00 -0.60744503079E+03  0.22798354903E+04  0.21974213063E+04 0.  0.
        3    1    3    3  502    0 -0.10208830762E+04  0.23414163481E+03 -0.64804371074E+03  0.12316595397E+04  0.10100000352E+00 0.  1.
       -3    1    3    3    0  502  0.10208830762E+04 -0.23414163481E+03  0.40598679953E+02  0.10481759506E+04  0.10100000352E+00 0. -1.
</event>
<event>
 5   0  0.1015876E-05  0.2198859E+04  0.7818609E-02  0.8518903E-01
       -2   -1    0    0    0  501  0.00000000000E+00  0.00000000000E+00  0.87349883672E+03  0.87349883672E+03  0.25500000920E-02 0.  1.
        2   -1    0    0  501    0  0.00000000000E+00  0.00000000000E+00 -0.13837966739E+04  0.13837966739E+04  0.25500000920E-02 0. -1.
    10030    2    1    2    0    0  0.00000000000E+00  0.00000000000E+00 -0.51029783723E+03  0.22572955107E+04  0.21988585993E+04 0.  0.
        5    1    3    3  502    0  0.10908365656E+04  0.38073246360E+02 -0.39036386742E+03  0.11592152622E+04  0.46999998093E+01 0. -1.
       -5    1    3    3    0  502 -0.10908365656E+04 -0.38073246360E+02 -0.11993396981E+03  0.10980802485E+04  0.46999998093E+01 0.  1.
</event>
<event>
 5   0  0.4408787E-06  0.2207465E+04  0.7818609E-02  0.8515328E-01
        1   -1    0    0  501    0  0.00000000000E+00  0.00000000000E+00  0.13869719062E+04  0.13869719062E+04  0.50400001928E-02 0.  1.
       -1   -1    0    0    0  501  0.00000000000E+00  0.00000000000E+00 -0.87833434971E+03  0.87833434973E+03  0.50400001928E-02 0. -1.
    10030    2    1    2    0    0  0.00000000000E+00  0.00000000000E+00  0.50863755649E+03  0.22653062559E+04  0.22074646700E+04 0.  0.
        1    1    3    3  502    0  0.26623661330E+03 -0.50259184043E+02  0.13523159608E+04  0.13791904792E+04  0.50400001928E-02 0.  1.
       -1    1    3    3    0  502 -0.26623661330E+03  0.50259184043E+02 -0.84367840435E+03  0.88611577677E+03  0.50400001928E-02 0. -1.
</event>
<event>
 5   0  0.4630615E-06  0.2193973E+04  0.7818609E-02  0.8520941E-01
        1   -1    0    0  501    0  0.00000000000E+00  0.00000000000E+00  0.70479179387E+03  0.70479179389E+03  0.50400001928E-02 0. -1.
       -1   -1    0    0    0  501  0.00000000000E+00  0.00000000000E+00 -0.17074252620E+04  0.17074252620E+04  0.50400001928E-02 0.  1.
    10030    2    1    2    0    0  0.00000000000E+00  0.00000000000E+00 -0.10026334681E+04  0.24122170559E+04  0.21939729382E+04 0.  0.
        2    1    3    3  502    0  0.10050967444E+04  0.27003653068E+03 -0.88256670356E+03  0.13645743585E+04  0.25500000920E-02 0.  1.
       -2    1    3    3    0  502 -0.10050967444E+04 -0.27003653068E+03 -0.12006676459E+03  0.10476426974E+04  0.25500000920E-02 0. -1.
</event>
<event>
 5   0  0.9963173E-06  0.2193022E+04  0.7818609E-02  0.8521338E-01
        2   -1    0    0  501    0  0.00000000000E+00  0.00000000000E+00  0.15278019591E+04  0.15278019591E+04  0.25500000920E-02 0.  1.
       -2   -1    0    0    0  501  0.00000000000E+00  0.00000000000E+00 -0.78697102389E+03  0.78697102390E+03  0.25500000920E-02 0. -1.
    10030    2    1    2    0    0  0.00000000000E+00  0.00000000000E+00  0.74083093520E+03  0.23147729830E+04  0.21930215430E+04 0.  0.
        4    1    3    3  502    0  0.21612127324E+03  0.73718077365E+03  0.11962798771E+04  0.14217000580E+04  0.12699999809E+01 0.  1.
       -4    1    3    3    0  502 -0.21612127324E+03 -0.73718077365E+03 -0.45544894186E+03  0.89307292498E+03  0.12699999809E+01 0. -1.
</event>
<event>
 5   0  0.9963173E-06  0.2214749E+04  0.7818609E-02  0.8512314E-01
       -2   -1    0    0    0  501  0.00000000000E+00  0.00000000000E+00  0.51904769365E+03  0.51904769366E+03  0.25500000920E-02 0. -1.
        2   -1    0    0  501    0  0.00000000000E+00  0.00000000000E+00 -0.23625543579E+04  0.23625543579E+04  0.25500000920E-02 0.  1.
    10030    2    1    2    0    0  0.00000000000E+00  0.00000000000E+00 -0.18435066642E+04  0.28816020515E+04  0.22147490969E+04 0.  0.
        4    1    3    3  502    0  0.79082027651E+03 -0.23298699146E+02 -0.19298614525E+04  0.20857388086E+04  0.12699999809E+01 0.  1.
       -4    1    3    3    0  502 -0.79082027651E+03  0.23298699146E+02  0.86354788226E+02  0.79586324294E+03  0.12699999809E+01 0. -1.
</event>
<event>
 5   0  0.9963573E-06  0.2196558E+04  0.7818609E-02  0.8519862E-01
        2   -1    0    0  501    0  0.00000000000E+00  0.00000000000E+00  0.16937790026E+04  0.16937790026E+04  0.25500000920E-02 0. -1.
       -2   -1    0    0    0  501  0.00000000000E+00  0.00000000000E+00 -0.71214526033E+03  0.71214526033E+03  0.25500000920E-02 0.  1.
    10030    2    1    2    0    0  0.00000000000E+00  0.00000000000E+00  0.98163374226E+03  0.24059242629E+04  0.21965579334E+04 0.  0.
        2    1    3    3  502    0  0.53286993566E+03 -0.36284569133E+03  0.14647300796E+04  0.16003254576E+04  0.25500000920E-02 0. -1.
       -2    1    3    3    0  502 -0.53286993566E+03  0.36284569133E+03 -0.48309633733E+03  0.80559880536E+03  0.25500000920E-02 0.  1.
</event>
<event>
 5   0  0.1014015E-05  0.2199972E+04  0.7818609E-02  0.8518440E-01
        2   -1    0    0  501    0  0.00000000000E+00  0.00000000000E+00  0.21055473708E+04  0.21055473708E+04  0.25500000920E-02 0. -1.
       -2   -1    0    0    0  501  0.00000000000E+00  0.00000000000E+00 -0.57465803443E+03  0.57465803443E+03  0.25500000920E-02 0.  1.
    10030    2    1    2    0    0  0.00000000000E+00  0.00000000000E+00  0.15308893363E+04  0.26802054052E+04  0.21999724666E+04 0.  0.
        1    1    3    3  502    0 -0.54866040017E+03  0.31999620508E+03  0.18595643755E+04  0.19650459213E+04  0.50400001928E-02 0. -1.
       -1    1    3    3    0  502  0.54866040017E+03 -0.31999620508E+03 -0.32867503921E+03  0.71515948390E+03  0.50400001928E-02 0.  1.
</event>
<event>
 5   0  0.9963173E-06  0.2196033E+04  0.7818609E-02  0.8520081E-01
       -2   -1    0    0    0  501  0.00000000000E+00  0.00000000000E+00  0.10171129352E+04  0.10171129352E+04  0.25500000920E-02 0.  1.
        2   -1    0    0  501    0  0.00000000000E+00  0.00000000000E+00 -0.11853548818E+04  0.11853548818E+04  0.25500000920E-02 0. -1.
    10030    2    1    2    0    0  0.00000000000E+00  0.00000000000E+00 -0.16824194659E+03  0.22024678171E+04  0.21960325892E+04 0.  0.
        4    1    3    3  502    0  0.58830657028E+03  0.38205740506E+03 -0.93132452930E+03  0.11659500303E+04  0.12699999809E+01 0. -1.
       -4    1    3    3    0  502 -0.58830657028E+03 -0.38205740506E+03  0.76308258271E+03  0.10365177868E+04  0.12699999809E+01 0.  1.
</event>
<event>
 5   0  0.1035928E-05  0.2156400E+04  0.7818609E-02  0.8536798E-01
       -2   -1    0    0    0  501  0.00000000000E+00  0.00000000000E+00  0.56510791063E+03  0.56510791063E+03  0.25500000920E-02 0.  1.
        2   -1    0    0  501    0  0.00000000000E+00  0.00000000000E+00 -0.20571553917E+04  0.20571553917E+04  0.25500000920E-02 0. -1.
    10030    2    1    2    0    0  0.00000000000E+00  0.00000000000E+00 -0.14920474811E+04  0.26222633023E+04  0.21563995782E+04 0.  0.
        3    1    3    3  502    0  0.13403551346E+03  0.60243464734E+03 -0.18211151149E+04  0.19228503049E+04  0.10100000352E+00 0. -1.
       -3    1    3    3    0  502 -0.13403551346E+03 -0.60243464734E+03  0.32906763380E+03  0.69941299745E+03  0.10100000352E+00 0.  1.
</event>
<event>
 5   0  0.4408787E-06  0.2199168E+04  0.7818609E-02  0.8518774E-01
       -1   -1    0    0    0  501  0.00000000000E+00  0.00000000000E+00  0.98543628361E+03  0.98543628362E+03  0.50400001928E-02 0.  1.
        1   -1    0    0  501    0  0.00000000000E+00  0.00000000000E+00 -0.12269543030E+04  0.12269543030E+04  0.50400001928E-02 0. -1.
    10030    2    1    2    0    0  0.00000000000E+00  0.00000000000E+00 -0.24151801942E+03  0.22123905867E+04  0.21991682869E+04 0.  0.
        1    1    3    3  502    0  0.71857686044E+03  0.54500359880E+02 -0.95627172391E+03  0.11974049455E+04  0.50400001928E-02 0. -1.
       -1    1    3    3    0  502 -0.71857686044E+03 -0.54500359880E+02  0.71475370450E+03  0.10149856411E+04  0.50400001928E-02 0.  1.
</event>
<event>
 5   0  0.4462201E-06  0.2201442E+04  0.7818609E-02  0.8517828E-01
        1   -1    0    0  501    0  0.00000000000E+00  0.00000000000E+00  0.10546854771E+04  0.10546854771E+04  0.50400001928E-02 0.  1.
       -1   -1    0    0    0  501  0.00000000000E+00  0.00000000000E+00 -0.11487664081E+04  0.11487664082E+04  0.50400001928E-02 0. -1.
    10030    2    1    2    0    0  0.00000000000E+00  0.00000000000E+00 -0.94080931053E+02  0.22034518853E+04  0.22014424792E+04 0.  0.
        3    1    3    3  502    0  0.57000165132E+03  0.91597272211E+03  0.17151480655E+03  0.10923942737E+04  0.10100000352E+00 0. -1.
       -3    1    3    3    0  502 -0.57000165132E+03 -0.91597272211E+03 -0.26559573760E+03  0.11110576116E+04  0.10100000352E+00 0.  1.
</event>
<event>
 5   0  0.4309945E-06  0.2202381E+04  0.7818609E-02  0.8517438E-01
       -1   -1    0    0    0  501  0.00000000000E+00  0.00000000000E+00  0.99710118319E+03  0.99710118320E+03  0.50400001928E-02 0.  1.
        1   -1    0    0  501    0  0.00000000000E+00  0.00000000000E+00 -0.12161458835E+04  0.12161458835E+04  0.50400001928E-02 0. -1.
    10030    2    1    2    0    0  0.00000000000E+00  0.00000000000E+00 -0.21904470027E+03  0.22132470667E+04  0.22023809837E+04 0.  0.
        4    1    3    3  502    0 -0.61689089303E+03  0.84616388687E+03 -0.45189547413E+03  0.11405081454E+04  0.12699999809E+01 0. -1.
       -4    1    3    3    0  502  0.61689089303E+03 -0.84616388687E+03  0.23285077386E+03  0.10727389212E+04  0.12699999809E+01 0.  1.
</event>
<event>
 5   0  0.4408787E-06  0.2201501E+04  0.7818609E-02  0.8517804E-01
       -1   -1    0    0    0  501  0.00000000000E+00  0.00000000000E+00  0.71809135495E+03  0.71809135497E+03  0.50400001928E-02 0. -1.
        1   -1    0    0  501    0  0.00000000000E+00  0.00000000000E+00 -0.16873227878E+04  0.16873227878E+04  0.50400001928E-02 0.  1.
    10030    2    1    2    0    0  0.00000000000E+00  0.00000000000E+00 -0.96923143281E+03  0.24054141427E+04  0.22015012214E+04 0.  0.
        1    1    3    3  502    0 -0.96614290709E+03  0.51977295278E+03 -0.38654776851E+03  0.11631918228E+04  0.50400001928E-02 0.  1.
       -1    1    3    3    0  502  0.96614290709E+03 -0.51977295278E+03 -0.58268366430E+03  0.12422223199E+04  0.50400001928E-02 0. -1.
</event>
<event>
 5   0  0.1014015E-05  0.2204494E+04  0.7818609E-02  0.8516560E-01
       -2   -1    0    0    0  501  0.00000000000E+00  0.00000000000E+00  0.13939330193E+04  0.13939330193E+04  0.25500000920E-02 0.  1.
        2   -1    0    0  501    0  0.00000000000E+00  0.00000000000E+00 -0.87159743467E+03  0.87159743467E+03  0.25500000920E-02 0. -1.
    10030    2    1    2    0    0  0.00000000000E+00  0.00000000000E+00  0.52233558462E+03  0.22655304540E+04  0.22044939952E+04 0.  0.
        1    1    3    3  502    0  0.90093074716E+03  0.63470362846E+03  0.28231759994E+03  0.11376414789E+04  0.50400001928E-02 0.  1.
       -1    1    3    3    0  502 -0.90093074716E+03 -0.63470362846E+03  0.24001798468E+03  0.11278889751E+04  0.50400001928E-02 0. -1.
</event>
<event>
 5   0  0.9963173E-06  0.2199152E+04  0.7818609E-02  0.8518781E-01
        2   -1    0    0  501    0  0.00000000000E+00  0.00000000000E+00  0.10807341862E+04  0.10807341862E+04  0.25500000920E-02 0.  1.
       -2   -1    0    0    0  501  0.00000000000E+00  0.00000000000E+00 -0.11187463564E+04  0.11187463564E+04  0.25500000920E-02 0. -1.
    10030    2    1    2    0    0  0.00000000000E+00  0.00000000000E+00 -0.38012170209E+02  0.21994805426E+04  0.21991520484E+04 0.  0.
        4    1    3    3  502    0 -0.53783403682E+03 -0.92497387850E+03 -0.27246787919E+03  0.11041206842E+04  0.12699999809E+01 0. -1.
       -4    1    3    3    0  502  0.53783403682E+03  0.92497387850E+03  0.23445570898E+03  0.10953598584E+04  0.12699999809E+01 0.  1.
</event>
<event>
 5   0  0.9963573E-06  0.2201136E+04  0.7818609E-02  0.8517955E-01
        2   -1    0    0  501    0  0.00000000000E+00  0.00000000000E+00  0.18725134095E+04  0.18725134095E+04  0.25500000920E-02 0. -1.
       -2   -1    0    0    0  501  0.00000000000E+00  0.00000000000E+00 -0.64685792005E+03  0.64685792006E+03  0.25500000920E-02 0.  1.
    10030    2    1    2    0    0  0.00000000000E+00  0.00000000000E+00  0.12256554894E+04  0.25193713295E+04  0.22011361878E+04 0.  0.
        2    1    3    3  502    0 -0.65448926346E+02  0.90731077174E+03  0.13218691128E+04  0.16046290381E+04  0.25500000920E-02 0. -1.
       -2    1    3    3    0  502  0.65448926346E+02 -0.90731077174E+03 -0.96213623350E+02  0.91474229147E+03  0.25500000920E-02 0.  1.
</event>
<event>
 5   0  0.4794967E-06  0.2200031E+04  0.7818609E-02  0.8518415E-01
        1   -1    0    0  501    0  0.00000000000E+00  0.00000000000E+00  0.12797368082E+04  0.12797368082E+04  0.50400001928E-02 0. -1.
       -1   -1    0    0    0  501  0.00000000000E+00  0.00000000000E+00 -0.94553318558E+03  0.94553318560E+03  0.50400001928E-02 0.  1.
    10030    2    1    2    0    0  0.00000000000E+00  0.00000000000E+00  0.33420362258E+03  0.22252699938E+04  0.22000305643E+04 0.  0.
        5    1    3    3  502    0 -0.62168701501E+03 -0.77497150080E+03 -0.31047591114E+03  0.10409096758E+04  0.46999998093E+01 0.  1.
       -5    1    3    3    0  502  0.62168701501E+03  0.77497150080E+03  0.64467953373E+03  0.11843603180E+04  0.46999998093E+01 0. -1.
</event>
<event>
 5   0  0.4462201E-06  0.2213937E+04  0.7818609E-02  0.8512650E-01
        1   -1    0    0  501    0  0.00000000000E+00  0.00000000000E+00  0.12284163446E+04  0.12284163446E+04  0.50400001928E-02 0.  1.
       -1   -1    0    0    0  501  0.00000000000E+00  0.00000000000E+00 -0.99752741093E+03  0.99752741094E+03  0.50400001928E-02 0. -1.
    10030    2    1    2    0    0  0.00000000000E+00  0.00000000000E+00  0.23088893364E+03  0.22259437555E+04  0.22139367432E+04 0.  0.
        3    1    3    3  502    0 -0.58765142179E+03  0.93794759613E+03  0.98056776112E+02  0.11111683168E+04  0.10100000352E+00 0.  1.
       -3    1    3    3    0  502  0.58765142179E+03 -0.93794759613E+03  0.13283215753E+03  0.11147754388E+04  0.10100000352E+00 0. -1.
</event>
<event>
 5   0  0.1014015E-05  0.2204728E+04  0.7818609E-02  0.8516463E-01
        2   -1    0    0  501    0  0.00000000000E+00  0.00000000000E+00  0.18426899976E+04  0.18426899976E+04  0.25500000920E-02 0.  1.
       -2   -1    0    0    0  501  0.00000000000E+00  0.00000000000E+00 -0.65947404621E+03  0.65947404622E+03  0.25500000920E-02 0. -1.
    10030    2    1    2    0    0  0.00000000000E+00  0.00000000000E+00  0.11832159513E+04  0.25021640438E+04  0.22047278550E+04 0.  0.
        1    1    3    3  502    0 -0.63673888415E+03 -0.13076328834E+03 -0.41882431278E+03  0.77327178222E+03  0.50400001928E-02 0.  1.
       -1    1    3    3    0  502  0.63673888415E+03  0.13076328834E+03  0.16020402641E+04  0.17288922616E+04  0.50400001928E-02 0. -1.
</event>
<event>
 5   0  0.4309945E-06  0.2199665E+04  0.7818609E-02  0.8518568E-01
        1   -1    0    0  501    0  0.00000000000E+00  0.00000000000E+00  0.11059914824E+04  0.11059914824E+04  0.50400001928E-02 0.  1.
       -1   -1    0    0    0  501  0.00000000000E+00  0.00000000000E+00 -0.10937078986E+04  0.10937078987E+04  0.50400001928E-02 0. -1.
    10030    2    1    2    0    0  0.00000000000E+00  0.00000000000E+00  0.12283583794E+02  0.21996993811E+04  0.21996650838E+04 0.  0.
        4    1    3    3  502    0  0.82426407481E+03 -0.30122899430E+03 -0.65680129780E+03  0.10961476770E+04  0.12699999809E+01 0. -1.
       -4    1    3    3    0  502 -0.82426407481E+03  0.30122899430E+03  0.66908488159E+03  0.11035517041E+04  0.12699999809E+01 0.  1.
</event>
<event>
 5   0  0.4462201E-06  0.2202031E+04  0.7818609E-02  0.8517583E-01
       -1   -1    0    0    0  501  0.00000000000E+00  0.00000000000E+00  0.84004213195E+03  0.84004213197E+03  0.50400001928E-02 0.  1.
        1   -1    0    0  501    0  0.00000000000E+00  0.00000000000E+00 -0.14430645417E+04  0.14430645417E+04  0.50400001928E-02 0. -1.
    10030    2    1    2    0    0  0.00000000000E+00  0.00000000000E+00 -0.60302240971E+03  0.22831066736E+04  0.22020308937E+04 0.  0.
        3    1    3    3  502    0 -0.43641895963E+03  0.79890555183E+03 -0.94360539111E+03  0.13111455806E+04  0.10100000352E+00 0. -1.
       -3    1    3    3    0  502  0.43641895963E+03 -0.79890555183E+03  0.34058298140E+03  0.97196109309E+03  0.10100000352E+00 0.  1.
</event>
<event>
 5   0  0.4408787E-06  0.2180036E+04  0.7818609E-02  0.8526784E-01
        1   -1    0    0  501    0  0.00000000000E+00  0.00000000000E+00  0.11992777573E+04  0.11992777573E+04  0.50400001928E-02 0. -1.
       -1   -1    0    0    0  501  0.00000000000E+00  0.00000000000E+00 -0.99071266886E+03  0.99071266888E+03  0.50400001928E-02 0.  1.
    10030    2    1    2    0    0  0.00000000000E+00  0.00000000000E+00  0.20856508844E+03  0.21899904262E+04  0.21800363921E+04 0.  0.
        1    1    3    3  502    0  0.27254185288E+03  0.22948002612E+03  0.11391315720E+04  0.11935496983E+04  0.50400001928E-02 0. -1.
       -1    1    3    3    0  502 -0.27254185288E+03 -0.22948002612E+03 -0.93056648353E+03  0.99644072792E+03  0.50400001928E-02 0.  1.
</event>
<event>
 5   0  0.4794967E-06  0.2195147E+04  0.7818609E-02  0.8520451E-01
       -1   -1    0    0    0  501  0.00000000000E+00  0.00000000000E+00  0.28412161346E+04  0.28412161346E+04  0.50400001928E-02 0. -1.
        1   -1    0    0  501    0  0.00000000000E+00  0.00000000000E+00 -0.42399725508E+03  0.42399725511E+03  0.50400001928E-02 0.  1.
    10030    2    1    2    0    0  0.00000000000E+00  0.00000000000E+00  0.24172188795E+04  0.32652133897E+04  0.21951472317E+04 0.  0.
        5    1    3    3  502    0 -0.94701142361E+03  0.14208316996E+03  0.20063526363E+04  0.22231714407E+04  0.46999998093E+01 0. -1.
       -5    1    3    3    0  502  0.94701142361E+03 -0.14208316996E+03  0.41086624321E+03  0.10420419490E+04  0.46999998093E+01 0.  1.
</event>
<event>
 5   0  0.4462201E-06  0.2213710E+04  0.7818609E-02  0.8512743E-01
       -1   -1    0    0    0  501  0.00000000000E+00  0.00000000000E+00  0.80275254170E+03  0.80275254171E+03  0.50400001928E-02 0. -1.
        1   -1    0    0  501    0  0.00000000000E+00  0.00000000000E+00 -0.15261585120E+04  0.15261585120E+04  0.50400001928E-02 0.  1.
    10030    2    1    2    0    0  0.00000000000E+00  0.00000000000E+00 -0.72340597031E+03  0.23289110537E+04  0.22137096689E+04 0.  0.
        3    1    3    3  502    0  0.19323890575E+03 -0.10639387356E+04 -0.61026222078E+03  0.12416629560E+04  0.10100000352E+00 0.  1.
       -3    1    3    3    0  502 -0.19323890575E+03  0.10639387356E+04 -0.11314374953E+03  0.10872480978E+04  0.10100000352E+00 0. -1.
</event>
<event>
 5   0  0.9963173E-06  0.2196246E+04  0.7818609E-02  0.8519992E-01
       -2   -1    0    0    0  501  0.00000000000E+00  0.00000000000E+00  0.73619441672E+03  0.73619441673E+03  0.25500000920E-02 0. -1.
        2   -1    0    0  501    0  0.00000000000E+00  0.00000000000E+00 -0.16379830786E+04  0.16379830786E+04  0.25500000920E-02 0.  1.
    10030    2    1    2    0    0  0.00000000000E+00  0.00000000000E+00 -0.90178866185E+03  0.23741774953E+04  0.21962458853E+04 0.  0.
        4    1    3    3  502    0 -0.80184718846E+03 -0.43026542964E+03  0.21354396140E+03  0.93471380108E+03  0.12699999809E+01 0. -1.
       -4    1    3    3    0  502  0.80184718846E+03  0.43026542964E+03 -0.11153326233E+04  0.14394636942E+04  0.12699999809E+01 0.  1.
</event>
<event>
 5   0  0.1014015E-05  0.2199332E+04  0.7818609E-02  0.8518706E-01
        2   -1    0    0  501    0  0.00000000000E+00  0.00000000000E+00  0.13780418939E+04  0.13780418939E+04  0.25500000920E-02 0.  1.
       -2   -1    0    0    0  501  0.00000000000E+00  0.00000000000E+00 -0.87752436876E+03  0.87752436876E+03  0.25500000920E-02 0. -1.
    10030    2    1    2    0    0  0.00000000000E+00  0.00000000000E+00  0.50051752517E+03  0.22555662627E+04  0.21993320287E+04 0.  0.
        1    1    3    3  502    0 -0.87511249567E+03  0.61024239355E+03 -0.23104251484E+02  0.10671229851E+04  0.50400001928E-02 0. -1.
       -1    1    3    3    0  502  0.87511249567E+03 -0.61024239355E+03  0.52362177666E+03  0.11884432776E+04  0.50400001928E-02 0.  1.
</event>
<event>
 5   0  0.4309945E-06  0.2197233E+04  0.7818609E-02  0.8519581E-01
        1   -1    0    0  501    0  0.00000000000E+00  0.00000000000E+00  0.21839103004E+04  0.21839103005E+04  0.50400001928E-02 0. -1.
       -1   -1    0    0    0  501  0.00000000000E+00  0.00000000000E+00 -0.55265926285E+03  0.55265926287E+03  0.50400001928E-02 0.  1.
    10030    2    1    2    0    0  0.00000000000E+00  0.00000000000E+00  0.16312510376E+04  0.27365695633E+04  0.21972330389E+04 0.  0.
        4    1    3    3  502    0  0.94000948334E+03  0.47009501481E+03  0.41717608156E+03  0.11307717045E+04  0.12699999809E+01 0. -1.
       -4    1    3    3    0  502 -0.94000948334E+03 -0.47009501481E+03  0.12140749560E+04  0.16057978589E+04  0.12699999809E+01 0.  1.
</event>
<event>
 5   0  0.1015876E-05  0.2202048E+04  0.7818609E-02  0.8517576E-01
       -2   -1    0    0    0  501  0.00000000000E+00  0.00000000000E+00  0.11204348513E+04  0.11204348513E+04  0.25500000920E-02 0. -1.
        2   -1    0    0  501    0  0.00000000000E+00  0.00000000000E+00 -0.10819492549E+04  0.10819492549E+04  0.25500000920E-02 0.  1.
    10030    2    1    2    0    0  0.00000000000E+00  0.00000000000E+00  0.38485596409E+02  0.22023841061E+04  0.22020478219E+04 0.  0.
        5    1    3    3  502    0 -0.89992786268E+01  0.15033908521E+03 -0.10715881167E+04  0.10821303107E+04  0.46999998093E+01 0.  1.
       -5    1    3    3    0  502  0.89992786268E+01 -0.15033908521E+03  0.11100737131E+04  0.11202537954E+04  0.46999998093E+01 0. -1.
</event>
<event>
 5   0  0.4309945E-06  0.2198284E+04  0.7818609E-02  0.8519143E-01
        1   -1    0    0  501    0  0.00000000000E+00  0.00000000000E+00  0.11332134223E+04  0.11332134223E+04  0.50400001928E-02 0. -1.
       -1   -1    0    0    0  501  0.00000000000E+00  0.00000000000E+00 -0.10660947947E+04  0.10660947947E+04  0.50400001928E-02 0.  1.
    10030    2    1    2    0    0  0.00000000000E+00  0.00000000000E+00  0.67118627615E+02  0.21993082170E+04  0.21982838132E+04 0.  0.
        4    1    3    3  502    0  0.10161550314E+04 -0.12513584496E+03 -0.36647860308E+03  0.10874457260E+04  0.12699999809E+01 0.  1.
       -4    1    3    3    0  502 -0.10161550314E+04  0.12513584496E+03  0.43359723069E+03  0.11118624910E+04  0.12699999809E+01 0. -1.
</event>
<event>
 5   0  0.4408787E-06  0.2201713E+04  0.7818609E-02  0.8517715E-01
       -1   -1    0    0    0  501  0.00000000000E+00  0.00000000000E+00  0.86328267818E+03  0.86328267819E+03  0.50400001928E-02 0.  1.
        1   -1    0    0  501    0  0.00000000000E+00  0.00000000000E+00 -0.14038101155E+04  0.14038101155E+04  0.50400001928E-02 0. -1.
    10030    2    1    2    0    0  0.00000000000E+00  0.00000000000E+00 -0.54052743733E+03  0.22670927937E+04  0.22017129297E+04 0.  0.
        1    1    3    3  502    0 -0.35809194683E+03  0.67458316036E+03 -0.10866454187E+04  0.13281907050E+04  0.50400001928E-02 0. -1.
       -1    1    3    3    0  502  0.35809194683E+03 -0.67458316036E+03  0.54611798141E+03  0.93890208876E+03  0.50400001928E-02 0.  1.
</event>
<event>
 5   0  0.4408787E-06  0.2196651E+04  0.7818609E-02  0.8519823E-01
        1   -1    0    0  501    0  0.00000000000E+00  0.00000000000E+00  0.14750285159E+04  0.14750285159E+04  0.50400001928E-02 0. -1.
       -1   -1    0    0    0  501  0.00000000000E+00  0.00000000000E+00 -0.81782769809E+03  0.81782769811E+03  0.50400001928E-02 0.  1.
    10030    2    1    2    0    0  0.00000000000E+00  0.00000000000E+00  0.65720081776E+03  0.22928562140E+04  0.21966512475E+04 0.  0.
        1    1    3    3  502    0  0.66401545368E+03 -0.76103301775E+03  0.77904581506E+03  0.12755391640E+04  0.50400001928E-02 0. -1.
       -1    1    3    3    0  502 -0.66401545368E+03  0.76103301775E+03 -0.12184499730E+03  0.10173170500E+04  0.50400001928E-02 0.  1.
</event>
<event>
 5   0  0.4462201E-06  0.2199084E+04  0.7818609E-02  0.8518810E-01
       -1   -1    0    0    0  501  0.00000000000E+00  0.00000000000E+00  0.82843609755E+03  0.82843609756E+03  0.50400001928E-02 0.  1.
        1   -1    0    0  501    0  0.00000000000E+00  0.00000000000E+00 -0.14593670243E+04  0.14593670243E+04  0.50400001928E-02 0. -1.
    10030    2    1    2    0    0  0.00000000000E+00  0.00000000000E+00 -0.63093092675E+03  0.22878031219E+04  0.21990837388E+04 0.  0.
        3    1    3    3  502    0  0.10450514658E+03 -0.78130154997E+03  0.48203719672E+03  0.92396607452E+03  0.10100000352E+00 0.  1.
       -3    1    3    3    0  502 -0.10450514658E+03  0.78130154997E+03 -0.11129681235E+04  0.13638370473E+04  0.10100000352E+00 0. -1.
</event>
<event>
 5   0  0.1015876E-05  0.2194876E+04  0.7818609E-02  0.8520564E-01
        2   -1    0    0  501    0  0.00000000000E+00  0.00000000000E+00  0.10432010448E+04  0.10432010448E+04  0.25500000920E-02 0.  1.
       -2   -1    0    0    0  501  0.00000000000E+00  0.00000000000E+00 -0.11544951119E+04  0.11544951119E+04  0.25500000920E-02 0. -1.
    10030    2    1    2    0    0  0.00000000000E+00  0.00000000000E+00 -0.11129406707E+03  0.21976961566E+04  0.21948763126E+04 0.  0.
        5    1    3    3  502    0  0.50904991084E+03  0.15591517699E+03 -0.10165189469E+04  0.11475078272E+04  0.46999998093E+01 0. -1.
       -5    1    3    3    0  502 -0.50904991084E+03 -0.15591517699E+03  0.90522487984E+03  0.10501883294E+04  0.46999998093E+01 0.  1.
</event>
<event>
 5   0  0.1014015E-05  0.2197845E+04  0.7818609E-02  0.8519326E-01
        2   -1    0    0  501    0  0.00000000000E+00  0.00000000000E+00  0.18143561833E+04  0.18143561833E+04  0.25500000920E-02 0.  1.
       -2   -1    0    0    0  501  0.00000000000E+00  0.00000000000E+00 -0.66559733476E+03  0.66559733476E+03  0.25500000920E-02 0. -1.
    10030    2    1    2    0    0  0.00000000000E+00  0.00000000000E+00  0.11487588485E+04  0.24799535180E+04  0.21978449808E+04 0.  0.
        1    1    3    3  502    0 -0.52152125667E+03 -0.61748337642E+03 -0.26574308700E+03  0.85081697775E+03  0.50400001928E-02 0. -1.
       -1    1    3    3    0  502  0.52152125667E+03  0.61748337642E+03  0.14145019355E+04  0.16291365403E+04  0.50400001928E-02 0.  1.
</event>
<event>
 5   0  0.4309945E-06  0.2193224E+04  0.7818609E-02  0.8521254E-01
       -1   -1    0    0    0  501  0.00000000000E+00  0.00000000000E+00  0.55965020628E+03  0.55965020630E+03  0.50400001928E-02 0.  1.
        1   -1    0    0  501    0  0.00000000000E+00  0.00000000000E+00 -0.21487674344E+04  0.21487674344E+04  0.50400001928E-02 0. -1.
    10030    2    1    2    0    0  0.00000000000E+00  0.00000000000E+00 -0.15891172281E+04  0.27084176407E+04  0.21932242365E+04 0.  0.
        4    1    3    3  502    0  0.10097129492E+04 -0.10476819245E+03 -0.13067973821E+04  0.16547560620E+04  0.12699999809E+01 0. -1.
       -4    1    3    3    0  502 -0.10097129492E+04  0.10476819245E+03 -0.28231984595E+03  0.10536615786E+04  0.12699999809E+01 0.  1.
</event>
<event>
 5   0  0.4462201E-06  0.2203657E+04  0.7818609E-02  0.8516907E-01
        1   -1    0    0  501    0  0.00000000000E+00  0.00000000000E+00  0.85621791702E+03  0.85621791703E+03  0.50400001928E-02 0. -1.
       -1   -1    0    0    0  501  0.00000000000E+00  0.00000000000E+00 -0.14178939282E+04  0.14178939282E+04  0.50400001928E-02 0.  1.
    10030    2    1    2    0    0  0.00000000000E+00  0.00000000000E+00 -0.56167601118E+03  0.22741118452E+04  0.22036571292E+04 0.  0.
        3    1    3    3  502    0  0.66494532276E+03 -0.53755526420E+03 -0.99797165594E+03  0.13141785954E+04  0.10100000352E+00 0.  1.
       -3    1    3    3    0  502 -0.66494532276E+03  0.53755526420E+03  0.43629564476E+03  0.95993324985E+03  0.10100000352E+00 0. -1.
</event>
<event>
 5   0  0.1015876E-05  0.2198591E+04  0.7818609E-02  0.8519015E-01
       -2   -1    0    0    0  501  0.00000000000E+00  0.00000000000E+00  0.10488864295E+04  0.10488864295E+04  0.25500000920E-02 0. -1.
        2   -1    0    0  501    0  0.00000000000E+00  0.00000000000E+00 -0.11521272387E+04  0.11521272387E+04  0.25500000920E-02 0.  1.
    10030    2    1    2    0    0  0.00000000000E+00  0.00000000000E+00 -0.10324080922E+03  0.22010136682E+04  0.21985910267E+04 0.  0.
        5    1    3    3  502    0  0.10229852458E+04  0.13492978527E+03  0.32790639306E+03  0.10827047394E+04  0.46999998093E+01 0. -1.
       -5    1    3    3    0  502 -0.10229852458E+04 -0.13492978527E+03 -0.43114720227E+03  0.11183089288E+04  0.46999998093E+01 0.  1.
</event>
<event>
 5   0  0.4462201E-06  0.2203390E+04  0.7818609E-02  0.8517018E-01
        1   -1    0    0  501    0  0.00000000000E+00  0.00000000000E+00  0.11513007280E+04  0.11513007280E+04  0.50400001928E-02 0.  1.
       -1   -1    0    0    0  501  0.00000000000E+00  0.00000000000E+00 -0.10542267821E+04  0.10542267821E+04  0.50400001928E-02 0. -1.
    10030    2    1    2    0    0  0.00000000000E+00  0.00000000000E+00  0.97073945857E+02  0.22055275102E+04  0.22033901713E+04 0.  0.
        3    1    3    3  502    0 -0.88969668704E+03  0.60130142245E+03  0.29496362775E+03  0.11136099620E+04  0.10100000352E+00 0.  1.
       -3    1    3    3    0  502  0.88969668704E+03 -0.60130142245E+03 -0.19788968189E+03  0.10919175482E+04  0.10100000352E+00 0. -1.
</event>
<event>
 5   0  0.4462201E-06  0.2198595E+04  0.7818609E-02  0.8519013E-01
       -1   -1    0    0    0  501  0.00000000000E+00  0.00000000000E+00  0.16849159359E+04  0.16849159359E+04  0.50400001928E-02 0. -1.
        1   -1    0    0  501    0  0.00000000000E+00  0.00000000000E+00 -0.71722001138E+03  0.71722001139E+03  0.50400001928E-02 0.  1.
    10030    2    1    2    0    0  0.00000000000E+00  0.00000000000E+00  0.96769592448E+03  0.24021359473E+04  0.21985953941E+04 0.  0.
        3    1    3    3  502    0 -0.31043937501E+03  0.41121145636E+03 -0.57712750014E+03  0.77365601466E+03  0.10100000352E+00 0.  1.
       -3    1    3    3    0  502  0.31043937501E+03 -0.41121145636E+03  0.15448234246E+04  0.16284799326E+04  0.10100000352E+00 0. -1.
</event>
<event>
 5   0  0.9963173E-06  0.2197581E+04  0.7818609E-02  0.8519436E-01
        2   -1    0    0  501    0  0.00000000000E+00  0.00000000000E+00  0.14500087664E+04  0.14500087664E+04  0.25500000920E-02 0. -1.
       -2   -1    0    0    0  501  0.00000000000E+00  0.00000000000E+00 -0.83264349257E+03  0.83264349258E+03  0.25500000920E-02 0.  1.
    10030    2    1    2    0    0  0.00000000000E+00  0.00000000000E+00  0.61736527384E+03  0.22826522590E+04  0.21975808186E+04 0.  0.
        4    1    3    3  502    0 -0.48069024780E+03 -0.79371504694E+02 -0.71431669420E+03  0.86464611408E+03  0.12699999809E+01 0.  1.
       -4    1    3    3    0  502  0.48069024780E+03  0.79371504694E+02  0.13316819680E+04  0.14180061449E+04  0.12699999809E+01 0. -1.
</event>
<event>
 5   0  0.9963573E-06  0.2198966E+04  0.7818609E-02  0.8518858E-01
       -2   -1    0    0    0  501  0.00000000000E+00  0.00000000000E+00  0.66809304401E+03  0.66809304402E+03  0.25500000920E-02 0.  1.
        2   -1    0    0  501    0  0.00000000000E+00  0.00000000000E+00 -0.18094236318E+04  0.18094236319E+04  0.25500000920E-02 0. -1.
    10030    2    1    2    0    0  0.00000000000E+00  0.00000000000E+00 -0.11413305878E+04  0.24775166759E+04  0.21989664319E+04 0.  0.
        2    1    3    3  502    0  0.64524463667E+03  0.72784945604E+03 -0.11481970286E+04  0.15048129081E+04  0.25500000920E-02 0. -1.
       -2    1    3    3    0  502 -0.64524463667E+03 -0.72784945604E+03  0.68664408086E+01  0.97270376776E+03  0.25500000920E-02 0.  1.
</event>
<event>
 5   0  0.4630615E-06  0.2203470E+04  0.7818609E-02  0.8516985E-01
       -1   -1    0    0    0  501  0.00000000000E+00  0.00000000000E+00  0.81255010113E+03  0.81255010115E+03  0.50400001928E-02 0.  1.
        1   -1    0    0  501    0  0.00000000000E+00  0.00000000000E+00 -0.14938408590E+04  0.14938408590E+04  0.50400001928E-02 0. -1.
    10030    2    1    2    0    0  0.00000000000E+00  0.00000000000E+00 -0.68129075787E+03  0.23063909602E+04  0.22034704818E+04 0.  0.
        2    1    3    3  502    0 -0.60292481971E+03 -0.67948562040E+03  0.31185072593E+03  0.96045297741E+03  0.25500000920E-02 0.  1.
       -2    1    3    3    0  502  0.60292481971E+03  0.67948562040E+03 -0.99314148380E+03  0.13459379827E+04  0.25500000920E-02 0. -1.
</event>
<event>
 5   0  0.9963573E-06  0.2200251E+04  0.7818609E-02  0.8518324E-01
        2   -1    0    0  501    0  0.00000000000E+00  0.00000000000E+00  0.10134947401E+04  0.10134947402E+04  0.25500000920E-02 0.  1.
       -2   -1    0    0    0  501  0.00000000000E+00  0.00000000000E+00 -0.11941613457E+04  0.11941613457E+04  0.25500000920E-02 0. -1.
    10030    2    1    2    0    0  0.00000000000E+00  0.00000000000E+00 -0.18066660555E+03  0.22076560859E+04  0.22002511154E+04 0.  0.
        2    1    3    3  502    0 -0.25626395322E+02 -0.12004966214E+03 -0.11872681763E+04  0.11935972336E+04  0.25500000920E-02 0. -1.
       -2    1    3    3    0  502  0.25626395322E+02  0.12004966214E+03  0.10066015708E+04  0.10140588522E+04  0.25500000920E-02 0.  1.
</event>
<event>
 5   0  0.4630615E-06  0.2198185E+04  0.7818609E-02  0.8519184E-01
       -1   -1    0    0    0  501  0.00000000000E+00  0.00000000000E+00  0.75142004761E+03  0.75142004762E+03  0.50400001928E-02 0.  1.
        1   -1    0    0  501    0  0.00000000000E+00  0.00000000000E+00 -0.16076283028E+04  0.16076283028E+04  0.50400001928E-02 0. -1.
    10030    2    1    2    0    0  0.00000000000E+00  0.00000000000E+00 -0.85620825523E+03  0.23590483505E+04  0.21981848292E+04 0.  0.
        2    1    3    3  502    0  0.42506358109E+03 -0.48741754912E+03  0.52560785434E+03  0.83337778451E+03  0.25500000920E-02 0.  1.
       -2    1    3    3    0  502 -0.42506358109E+03  0.48741754912E+03 -0.13818161096E+04  0.15256705660E+04  0.25500000920E-02 0. -1.
</event>
<event>
 5   0  0.3546750E-06  0.2196378E+04  0.7818609E-02  0.8519937E-01
        3   -1    0    0  501    0  0.00000000000E+00  0.00000000000E+00  0.70226215557E+03  0.70226216284E+03  0.10100000352E+00 0. -1.
       -3   -1    0    0    0  501  0.00000000000E+00  0.00000000000E+00 -0.17173351128E+04  0.17173351158E+04  0.10100000352E+00 0.  1.
    10030    2    1    2    0    0  0.00000000000E+00  0.00000000000E+00 -0.10150729572E+04  0.24195972786E+04  0.21963783559E+04 0.  0.
        1    1    3    3  502    0 -0.69597692418E+03 -0.71564220650E+03 -0.33171719401E+01  0.99826782497E+03  0.50400001928E-02 0. -1.
       -1    1    3    3    0  502  0.69597692418E+03  0.71564220650E+03 -0.10117557853E+04  0.14213294537E+04  0.50400001928E-02 0.  1.
</event>
<event>
 5   0  0.4408787E-06  0.2200442E+04  0.7818609E-02  0.8518244E-01
       -1   -1    0    0    0  501  0.00000000000E+00  0.00000000000E+00  0.86345860414E+03  0.86345860415E+03  0.50400001928E-02 0.  1.
        1   -1    0    0  501    0  0.00000000000E+00  0.00000000000E+00 -0.14019047631E+04  0.14019047631E+04  0.50400001928E-02 0. -1.
    10030    2    1    2    0    0  0.00000000000E+00  0.00000000000E+00 -0.53844615897E+03  0.22653633673E+04  0.22004424372E+04 0.  0.
        1    1    3    3  502    0  0.10949288079E+04 -0.26828310873E+02 -0.37669594194E+03  0.11582265259E+04  0.50400001928E-02 0. -1.
       -1    1    3    3    0  502 -0.10949288079E+04  0.26828310873E+02 -0.16175021703E+03  0.11071368413E+04  0.50400001928E-02 0.  1.
</event>
<event>
 5   0  0.9963573E-06  0.2200607E+04  0.7818609E-02  0.8518175E-01
        2   -1    0    0  501    0  0.00000000000E+00  0.00000000000E+00  0.17842542989E+04  0.17842542989E+04  0.25500000920E-02 0. -1.
       -2   -1    0    0    0  501  0.00000000000E+00  0.00000000000E+00 -0.67852887776E+03  0.67852887777E+03  0.25500000920E-02 0.  1.
    10030    2    1    2    0    0  0.00000000000E+00  0.00000000000E+00  0.11057254212E+04  0.24627831767E+04  0.22006072499E+04 0.  0.
        2    1    3    3  502    0 -0.10335443012E+04  0.27647621852E+03  0.84040745221E+03  0.13604916787E+04  0.25500000920E-02 0. -1.
       -2    1    3    3    0  502  0.10335443012E+04 -0.27647621852E+03  0.26531796896E+03  0.11022914980E+04  0.25500000920E-02 0.  1.
</event>
<event>
 5   0  0.9963173E-06  0.2199872E+04  0.7818609E-02  0.8518481E-01
       -2   -1    0    0    0  501  0.00000000000E+00  0.00000000000E+00  0.10183182029E+04  0.10183182029E+04  0.25500000920E-02 0. -1.
        2   -1    0    0  501    0  0.00000000000E+00  0.00000000000E+00 -0.11880956040E+04  0.11880956040E+04  0.25500000920E-02 0.  1.
    10030    2    1    2    0    0  0.00000000000E+00  0.00000000000E+00 -0.16977740113E+03  0.22064138069E+04  0.21998721602E+04 0.  0.
        4    1    3    3  502    0  0.17875940883E+03  0.75011443661E+03 -0.87158786544E+03  0.11637412145E+04  0.12699999809E+01 0.  1.
       -4    1    3    3    0  502 -0.17875940883E+03 -0.75011443661E+03  0.70181046431E+03  0.10426725924E+04  0.12699999809E+01 0. -1.
</event>
<event>
 5   0  0.1014015E-05  0.2200575E+04  0.7818609E-02  0.8518189E-01
        2   -1    0    0  501    0  0.00000000000E+00  0.00000000000E+00  0.14719064015E+04  0.14719064015E+04  0.25500000920E-02 0. -1.
       -2   -1    0    0    0  501  0.00000000000E+00  0.00000000000E+00 -0.82249279090E+03  0.82249279091E+03  0.25500000920E-02 0.  1.
    10030    2    1    2    0    0  0.00000000000E+00  0.00000000000E+00  0.64941361061E+03  0.22943991924E+04  0.22005748377E+04 0.  0.
        1    1    3    3  502    0  0.52103445222E+03 -0.62101331426E+03  0.11004015578E+04  0.13667545593E+04  0.50400001928E-02 0. -1.
       -1    1    3    3    0  502 -0.52103445222E+03  0.62101331426E+03 -0.45098794717E+03  0.92764463315E+03  0.50400001928E-02 0.  1.
</event>
<event>
 5   0  0.1014015E-05  0.2199517E+04  0.7818609E-02  0.8518629E-01
       -2   -1    0    0    0  501  0.00000000000E+00  0.00000000000E+00  0.69738809030E+03  0.69738809031E+03  0.25500000920E-02 0.  1.
        2   -1    0    0  501    0  0.00000000000E+00  0.00000000000E+00 -0.17342831290E+04  0.17342831290E+04  0.25500000920E-02 0. -1.
    10030    2    1    2    0    0  0.00000000000E+00  0.00000000000E+00 -0.10368950387E+04  0.24316712193E+04  0.21995166736E+04 0.  0.
        1    1    3    3  502    0  0.52450408390E+03 -0.58711228562E+03  0.33049746288E+03  0.85383484524E+03  0.50400001928E-02 0.  1.
       -1    1    3    3    0  502 -0.52450408390E+03  0.58711228562E+03 -0.13673925016E+04  0.15778363741E+04  0.50400001928E-02 0. -1.
</event>
<event>
 5   0  0.4630615E-06  0.2181313E+04  0.7818609E-02  0.8526247E-01
        1   -1    0    0  501    0  0.00000000000E+00  0.00000000000E+00  0.20536098458E+04  0.20536098458E+04  0.50400001928E-02 0.  1.
       -1   -1    0    0    0  501  0.00000000000E+00  0.00000000000E+00 -0.57923922891E+03  0.57923922893E+03  0.50400001928E-02 0. -1.
    10030    2    1    2    0    0  0.00000000000E+00  0.00000000000E+00  0.14743706169E+04  0.26328490747E+04  0.21813128007E+04 0.  0.
        2    1    3    3  502    0 -0.10727876097E+04 -0.14602649910E+03  0.57827125952E+03  0.12274341708E+04  0.25500000920E-02 0. -1.
       -2    1    3    3    0  502  0.10727876097E+04  0.14602649910E+03  0.89609935737E+03  0.14054149040E+04  0.25500000920E-02 0.  1.
</event>
<event>
 5   0  0.3546750E-06  0.2206450E+04  0.7818609E-02  0.8515748E-01
       -4   -1    0    0    0  501  0.00000000000E+00  0.00000000000E+00  0.21029430689E+04  0.21029434524E+04  0.12699999809E+01 0.  1.
        4   -1    0    0  501    0  0.00000000000E+00  0.00000000000E+00 -0.57876176042E+03  0.57876315382E+03  0.12699999809E+01 0. -1.
    10030    2    1    2    0    0  0.00000000000E+00  0.00000000000E+00  0.15241813085E+04  0.26817066062E+04  0.22064500132E+04 0.  0.
        5    1    3    3  502    0 -0.24532244439E+03  0.74225515509E+03  0.17081932943E+04  0.18785825076E+04  0.46999998093E+01 0.  1.
       -5    1    3    3    0  502  0.24532244439E+03 -0.74225515509E+03 -0.18401198579E+03  0.80312409869E+03  0.46999998093E+01 0. -1.
</event>
<event>
 5   0  0.1014015E-05  0.2192389E+04  0.7818609E-02  0.8521603E-01
        2   -1    0    0  501    0  0.00000000000E+00  0.00000000000E+00  0.12278530062E+04  0.12278530062E+04  0.25500000920E-02 0. -1.
       -2   -1    0    0    0  501  0.00000000000E+00  0.00000000000E+00 -0.97865327481E+03  0.97865327481E+03  0.25500000920E-02 0.  1.
    10030    2    1    2    0    0  0.00000000000E+00  0.00000000000E+00  0.24919973143E+03  0.22065062811E+04  0.21923889852E+04 0.  0.
        1    1    3    3  502    0  0.94494553153E+03 -0.23535164728E+03 -0.38196001521E+03  0.10460429765E+04  0.50400001928E-02 0.  1.
       -1    1    3    3    0  502 -0.94494553153E+03  0.23535164728E+03  0.63115974665E+03  0.11604633046E+04  0.50400001928E-02 0. -1.
</event>
<event>
 5   0  0.1015876E-05  0.2202345E+04  0.7818609E-02  0.8517453E-01
       -2   -1    0    0    0  501  0.00000000000E+00  0.00000000000E+00  0.97317931664E+03  0.97317931665E+03  0.25500000920E-02 0.  1.
        2   -1    0    0  501    0  0.00000000000E+00  0.00000000000E+00 -0.12459998894E+04  0.12459998894E+04  0.25500000920E-02 0. -1.
    10030    2    1    2    0    0  0.00000000000E+00  0.00000000000E+00 -0.27282057272E+03  0.22191792060E+04  0.22023454051E+04 0.  0.
        5    1    3    3  502    0 -0.78675177392E+03 -0.36420614183E+03 -0.82052144371E+03  0.11936925890E+04  0.46999998093E+01 0. -1.
       -5    1    3    3    0  502  0.78675177392E+03  0.36420614183E+03  0.54770087099E+03  0.10254866170E+04  0.46999998093E+01 0.  1.
</event>
<event>
 5   0  0.9963173E-06  0.2197521E+04  0.7818609E-02  0.8519461E-01
        2   -1    0    0  501    0  0.00000000000E+00  0.00000000000E+00  0.16954319780E+04  0.16954319780E+04  0.25500000920E-02 0. -1.
       -2   -1    0    0    0  501  0.00000000000E+00  0.00000000000E+00 -0.71207493992E+03  0.71207493993E+03  0.25500000920E-02 0.  1.
    10030    2    1    2    0    0  0.00000000000E+00  0.00000000000E+00  0.98335703807E+03  0.24075069179E+04  0.21975209886E+04 0.  0.
        4    1    3    3  502    0  0.52191167975E+03  0.33889433016E+03 -0.50040873578E+03  0.79853095383E+03  0.12699999809E+01 0.  1.
       -4    1    3    3    0  502 -0.52191167975E+03 -0.33889433016E+03  0.14837657739E+04  0.16089759641E+04  0.12699999809E+01 0. -1.
</event>
<event>
 5   0  0.4408787E-06  0.2203373E+04  0.7818609E-02  0.8517025E-01
        1   -1    0    0  501    0  0.00000000000E+00  0.00000000000E+00  0.22465490728E+04  0.22465490728E+04  0.50400001928E-02 0. -1.
       -1   -1    0    0    0  501  0.00000000000E+00  0.00000000000E+00 -0.54025670446E+03  0.54025670448E+03  0.50400001928E-02 0.  1.
    10030    2    1    2    0    0  0.00000000000E+00  0.00000000000E+00  0.17062923684E+04  0.27868057773E+04  0.22033730492E+04 0.  0.
        1    1    3    3  502    0 -0.72995796819E+03 -0.81285304566E+03  0.10326595544E+04  0.15033144929E+04  0.50400001928E-02 0. -1.
       -1    1    3    3    0  502  0.72995796819E+03  0.81285304566E+03  0.67363281397E+03  0.12834912844E+04  0.50400001928E-02 0.  1.
</event>
<event>
 5   0  0.1035928E-05  0.2197995E+04  0.7818609E-02  0.8519263E-01
       -2   -1    0    0    0  501  0.00000000000E+00  0.00000000000E+00  0.10269931157E+04  0.10269931157E+04  0.25500000920E-02 0.  1.
        2   -1    0    0  501    0  0.00000000000E+00  0.00000000000E+00 -0.11760501123E+04  0.11760501123E+04  0.25500000920E-02 0. -1.
    10030    2    1    2    0    0  0.00000000000E+00  0.00000000000E+00 -0.14905699658E+03  0.22030432280E+04  0.21979948763E+04 0.  0.
        3    1    3    3  502    0  0.54287104607E+03 -0.49197248873E+03  0.74652906822E+03  0.10459691976E+04  0.10100000352E+00 0.  1.
       -3    1    3    3    0  502 -0.54287104607E+03  0.49197248873E+03 -0.89558606480E+03  0.11570740305E+04  0.10100000352E+00 0. -1.
</event>
<event>
 5   0  0.1014015E-05  0.2202896E+04  0.7818609E-02  0.8517224E-01
       -2   -1    0    0    0  501  0.00000000000E+00  0.00000000000E+00  0.10217996095E+04  0.10217996095E+04  0.25500000920E-02 0.  1.
        2   -1    0    0  501    0  0.00000000000E+00  0.00000000000E+00 -0.11873053128E+04  0.11873053128E+04  0.25500000920E-02 0. -1.
    10030    2    1    2    0    0  0.00000000000E+00  0.00000000000E+00 -0.16550570330E+03  0.22091049223E+04  0.22028963707E+04 0.  0.
        1    1    3    3  502    0 -0.86036889752E+02  0.78666129300E+02  0.10155953255E+04  0.10222644332E+04  0.50400001928E-02 0.  1.
       -1    1    3    3    0  502  0.86036889752E+02 -0.78666129300E+02 -0.11811010288E+04  0.11868404891E+04  0.50400001928E-02 0. -1.
</event>
<event>
 5   0  0.4309945E-06  0.2216608E+04  0.7818609E-02  0.8511547E-01
        1   -1    0    0  501    0  0.00000000000E+00  0.00000000000E+00  0.15727213921E+04  0.15727213922E+04  0.50400001928E-02 0. -1.
       -1   -1    0    0    0  501  0.00000000000E+00  0.00000000000E+00 -0.78102673459E+03  0.78102673461E+03  0.50400001928E-02 0.  1.
    10030    2    1    2    0    0  0.00000000000E+00  0.00000000000E+00  0.79169465755E+03  0.23537481268E+04  0.22166077266E+04 0.  0.
        4    1    3    3  502    0  0.15767714542E+03 -0.10851619315E+04  0.56673027735E+03  0.12343513762E+04  0.12699999809E+01 0.  1.
       -4    1    3    3    0  502 -0.15767714542E+03  0.10851619315E+04  0.22496438020E+03  0.11193967505E+04  0.12699999809E+01 0. -1.
</event>
<event>
 5   0  0.1035928E-05  0.2204957E+04  0.7818609E-02  0.8516368E-01
       -2   -1    0    0    0  501  0.00000000000E+00  0.00000000000E+00  0.93125819996E+03  0.93125819996E+03  0.25500000920E-02 0. -1.
        2   -1    0    0  501    0  0.00000000000E+00  0.00000000000E+00 -0.13051793380E+04  0.13051793380E+04  0.25500000920E-02 0.  1.
    10030    2    1    2    0    0  0.00000000000E+00  0.00000000000E+00 -0.37392113803E+03  0.22364375380E+04  0.22049571070E+04 0.  0.
        3    1    3    3  502    0  0.81474258979E+02  0.27680373567E+03 -0.12662012706E+04  0.12986624006E+04  0.10100000352E+00 0.  1.
       -3    1    3    3    0  502 -0.81474258979E+02 -0.27680373567E+03  0.89228013258E+03  0.93777513731E+03  0.10100000352E+00 0. -1.
</event>
<event>
 5   0  0.1014015E-05  0.2203749E+04  0.7818609E-02  0.8516869E-01
       -2   -1    0    0    0  501  0.00000000000E+00  0.00000000000E+00  0.81592131351E+03  0.81592131352E+03  0.25500000920E-02 0.  1.
        2   -1    0    0  501    0  0.00000000000E+00  0.00000000000E+00 -0.14880449439E+04  0.14880449439E+04  0.25500000920E-02 0. -1.
    10030    2    1    2    0    0  0.00000000000E+00  0.00000000000E+00 -0.67212363043E+03  0.23039662575E+04  0.22037491556E+04 0.  0.
        1    1    3    3  502    0  0.28580453462E+03  0.52308023773E+03  0.63281299409E+03  0.86933851441E+03  0.50400001928E-02 0.  1.
       -1    1    3    3    0  502 -0.28580453462E+03 -0.52308023773E+03 -0.13049366245E+04  0.14346277431E+04  0.50400001928E-02 0. -1.
</event>
<event>
 5   0  0.4630615E-06  0.2202499E+04  0.7818609E-02  0.8517389E-01
       -1   -1    0    0    0  501  0.00000000000E+00  0.00000000000E+00  0.91455970018E+03  0.91455970019E+03  0.50400001928E-02 0. -1.
        1   -1    0    0  501    0  0.00000000000E+00  0.00000000000E+00 -0.13260484085E+04  0.13260484085E+04  0.50400001928E-02 0.  1.
    10030    2    1    2    0    0  0.00000000000E+00  0.00000000000E+00 -0.41148870832E+03  0.22406081087E+04  0.22024989761E+04 0.  0.
        2    1    3    3  502    0 -0.77643253578E+03 -0.52956642961E+03  0.37817528650E+03  0.10130669441E+04  0.25500000920E-02 0.  1.
       -2    1    3    3    0  502  0.77643253578E+03  0.52956642961E+03 -0.78966399482E+03  0.12275411646E+04  0.25500000920E-02 0. -1.
</event>
<event>
 5   0  0.1015876E-05  0.2202795E+04  0.7818609E-02  0.8517266E-01
       -2   -1    0    0    0  501  0.00000000000E+00  0.00000000000E+00  0.65568893146E+03  0.65568893147E+03  0.25500000920E-02 0. -1.
        2   -1    0    0  501    0  0.00000000000E+00  0.00000000000E+00 -0.18500789176E+04  0.18500789176E+04  0.25500000920E-02 0.  1.
    10030    2    1    2    0    0  0.00000000000E+00  0.00000000000E+00 -0.11943899861E+04  0.25057678490E+04  0.22027948326E+04 0.  0.
        5    1    3    3  502    0  0.32982473443E+03 -0.61749884166E+03 -0.15644153336E+04  0.17139155758E+04  0.46999998093E+01 0.  1.
       -5    1    3    3    0  502 -0.32982473443E+03  0.61749884166E+03  0.37002534748E+03  0.79185227326E+03  0.46999998093E+01 0. -1.
</event>
<event>
 5   0  0.4408787E-06  0.2199110E+04  0.7818609E-02  0.8518799E-01
       -1   -1    0    0    0  501  0.00000000000E+00  0.00000000000E+00  0.12886984866E+04  0.12886984866E+04  0.50400001928E-02 0.  1.
        1   -1    0    0  501    0  0.00000000000E+00  0.00000000000E+00 -0.93817207193E+03  0.93817207194E+03  0.50400001928E-02 0. -1.
    10030    2    1    2    0    0  0.00000000000E+00  0.00000000000E+00  0.35052641464E+03  0.22268705585E+04  0.21991097556E+04 0.  0.
        1    1    3    3  502    0  0.11870002951E+03 -0.96463210425E+03  0.69596856386E+03  0.11953982748E+04  0.50400001928E-02 0.  1.
       -1    1    3    3    0  502 -0.11870002951E+03  0.96463210425E+03 -0.34544214922E+03  0.10314722837E+04  0.50400001928E-02 0. -1.
</event>
<event>
 5   0  0.1014015E-05  0.2199901E+04  0.7818609E-02  0.8518469E-01
        2   -1    0    0  501    0  0.00000000000E+00  0.00000000000E+00  0.15355949958E+04  0.15355949958E+04  0.25500000920E-02 0. -1.
       -2   -1    0    0    0  501  0.00000000000E+00  0.00000000000E+00 -0.78789708032E+03  0.78789708032E+03  0.25500000920E-02 0.  1.
    10030    2    1    2    0    0  0.00000000000E+00  0.00000000000E+00  0.74769791551E+03  0.23234920762E+04  0.21999007376E+04 0.  0.
        1    1    3    3  502    0 -0.14805127567E+03 -0.88366419867E+03 -0.30004812783E+03  0.94488648804E+03  0.50400001928E-02 0.  1.
       -1    1    3    3    0  502  0.14805127567E+03  0.88366419867E+03  0.10477460433E+04  0.13786055881E+04  0.50400001928E-02 0. -1.
</event>
<event>
 5   0  0.9963573E-06  0.2195319E+04  0.7818609E-02  0.8520379E-01
        2   -1    0    0  501    0  0.00000000000E+00  0.00000000000E+00  0.62227370610E+03  0.62227370611E+03  0.25500000920E-02 0. -1.
       -2   -1    0    0    0  501  0.00000000000E+00  0.00000000000E+00 -0.19362169876E+04  0.19362169876E+04  0.25500000920E-02 0.  1.
    10030    2    1    2    0    0  0.00000000000E+00  0.00000000000E+00 -0.13139432815E+04  0.25584906937E+04  0.21953194945E+04 0.  0.
        2    1    3    3  502    0 -0.82506693062E+03 -0.72396110620E+03 -0.65853410762E+03  0.12800477703E+04  0.25500000920E-02 0. -1.
       -2    1    3    3    0  502  0.82506693062E+03  0.72396110620E+03 -0.65540917391E+03  0.12784429235E+04  0.25500000920E-02 0.  1.
</event>
<event>
 5   0  0.4794967E-06  0.2203686E+04  0.7818609E-02  0.8516896E-01
       -1   -1    0    0    0  501  0.00000000000E+00  0.00000000000E+00  0.95462151980E+03  0.95462151981E+03  0.50400001928E-02 0. -1.
        1   -1    0    0  501    0  0.00000000000E+00  0.00000000000E+00 -0.12717683741E+04  0.12717683741E+04  0.50400001928E-02 0.  1.
    10030    2    1    2    0    0  0.00000000000E+00  0.00000000000E+00 -0.31714685427E+03  0.22263898939E+04  0.22036855112E+04 0.  0.
        5    1    3    3  502    0  0.75517038190E+03 -0.58146424102E+03  0.39998101488E+03  0.10336294653E+04  0.46999998093E+01 0. -1.
       -5    1    3    3    0  502 -0.75517038190E+03  0.58146424102E+03 -0.71712786915E+03  0.11927604286E+04  0.46999998093E+01 0.  1.
</event>
<event>
 5   0  0.4462201E-06  0.2203344E+04  0.7818609E-02  0.8517037E-01
       -1   -1    0    0    0  501  0.00000000000E+00  0.00000000000E+00  0.67319120437E+03  0.67319120439E+03  0.50400001928E-02 0. -1.
        1   -1    0    0  501    0  0.00000000000E+00  0.00000000000E+00 -0.18028780209E+04  0.18028780209E+04  0.50400001928E-02 0.  1.
    10030    2    1    2    0    0  0.00000000000E+00  0.00000000000E+00 -0.11296868166E+04  0.24760692253E+04  0.22033443910E+04 0.  0.
        3    1    3    3  502    0 -0.47427398344E+03 -0.65195332801E+03  0.27889038002E+03  0.85308780764E+03  0.10100000352E+00 0. -1.
       -3    1    3    3    0  502  0.47427398344E+03  0.65195332801E+03 -0.14085771966E+04  0.16229814177E+04  0.10100000352E+00 0.  1.
</event>
<event>
 5   0  0.1035928E-05  0.2202575E+04  0.7818609E-02  0.8517357E-01
       -2   -1    0    0    0  501  0.00000000000E+00  0.00000000000E+00  0.66282080847E+03  0.66282080847E+03  0.25500000920E-02 0. -1.
        2   -1    0    0  501    0  0.00000000000E+00  0.00000000000E+00 -0.18298069452E+04  0.18298069452E+04  0.25500000920E-02 0.  1.
    10030    2    1    2    0    0  0.00000000000E+00  0.00000000000E+00 -0.11669861368E+04  0.24926277537E+04  0.22025749647E+04 0.  0.
        3    1    3    3  502    0 -0.85118729299E+02  0.71788374185E+03  0.35671554061E+03  0.80613165922E+03  0.10100000352E+00 0. -1.
       -3    1    3    3    0  502  0.85118729299E+02 -0.71788374185E+03 -0.15237016774E+04  0.16864960945E+04  0.10100000352E+00 0.  1.
</event>
<event>
 5   0  0.1015876E-05  0.2203194E+04  0.7818609E-02  0.8517100E-01
        2   -1    0    0  501    0  0.00000000000E+00  0.00000000000E+00  0.29857011869E+04  0.29857011869E+04  0.25500000920E-02 0. -1.
       -2   -1    0    0    0  501  0.00000000000E+00  0.00000000000E+00 -0.40644244505E+03  0.40644244506E+03  0.25500000920E-02 0.  1.
    10030    2    1    2    0    0  0.00000000000E+00  0.00000000000E+00  0.25792587418E+04  0.33921436319E+04  0.22031937641E+04 0.  0.
        5    1    3    3  502    0  0.22233366551E+03  0.49083103734E+03 -0.18967244609E+03  0.57126621889E+03  0.46999998093E+01 0.  1.
       -5    1    3    3    0  502 -0.22233366551E+03 -0.49083103734E+03  0.27689311879E+04  0.28208774130E+04  0.46999998093E+01 0. -1.
</event>
<event>
 5   0  0.4794967E-06  0.2200492E+04  0.7818609E-02  0.8518223E-01
        1   -1    0    0  501    0  0.00000000000E+00  0.00000000000E+00  0.10339282570E+04  0.10339282570E+04  0.50400001928E-02 0.  1.
       -1   -1    0    0    0  501  0.00000000000E+00  0.00000000000E+00 -0.11708173633E+04  0.11708173634E+04  0.50400001928E-02 0. -1.
    10030    2    1    2    0    0  0.00000000000E+00  0.00000000000E+00 -0.13688910631E+03  0.22047456204E+04  0.22004919048E+04 0.  0.
        5    1    3    3  502    0 -0.38361357658E+03  0.10072724289E+04  0.15280337749E+03  0.10886358824E+04  0.46999998093E+01 0.  1.
       -5    1    3    3    0  502  0.38361357658E+03 -0.10072724289E+04 -0.28969248380E+03  0.11161097380E+04  0.46999998093E+01 0. -1.
</event>
<event>
 5   0  0.1014015E-05  0.2208791E+04  0.7818609E-02  0.8514778E-01
       -2   -1    0    0    0  501  0.00000000000E+00  0.00000000000E+00  0.11067586467E+04  0.11067586467E+04  0.25500000920E-02 0. -1.
        2   -1    0    0  501    0  0.00000000000E+00  0.00000000000E+00 -0.11020372407E+04  0.11020372407E+04  0.25500000920E-02 0.  1.
    10030    2    1    2    0    0  0.00000000000E+00  0.00000000000E+00  0.47214059532E+01  0.22087958874E+04  0.22087908412E+04 0.  0.
        1    1    3    3  502    0 -0.45598188281E+03 -0.50271959340E+03 -0.86887189868E+03  0.11025356427E+04  0.50400001928E-02 0.  1.
       -1    1    3    3    0  502  0.45598188281E+03  0.50271959340E+03  0.87359330464E+03  0.11062602447E+04  0.50400001928E-02 0. -1.
</event>
<event>
 5   0  0.4408787E-06  0.2196168E+04  0.7818609E-02  0.8520025E-01
       -1   -1    0    0    0  501  0.00000000000E+00  0.00000000000E+00  0.81210126447E+03  0.81210126448E+03  0.50400001928E-02 0. -1.
        1   -1    0    0  501    0  0.00000000000E+00  0.00000000000E+00 -0.14847766628E+04  0.14847766628E+04  0.50400001928E-02 0.  1.
    10030    2    1    2    0    0  0.00000000000E+00  0.00000000000E+00 -0.67267539836E+03  0.22968779273E+04  0.21961684866E+04 0.  0.
        1    1    3    3  502    0 -0.69648390465E+02  0.10651436095E+04 -0.66824625301E+02  0.10695079886E+04  0.50400001928E-02 0. -1.
       -1    1    3    3    0  502  0.69648390465E+02 -0.10651436095E+04 -0.60585077305E+03  0.12273699387E+04  0.50400001928E-02 0.  1.
</event>
<event>
 5   0  0.1035928E-05  0.2202106E+04  0.7818609E-02  0.8517552E-01
        2   -1    0    0  501    0  0.00000000000E+00  0.00000000000E+00  0.12489646561E+04  0.12489646561E+04  0.25500000920E-02 0. -1.
       -2   -1    0    0    0  501  0.00000000000E+00  0.00000000000E+00 -0.97065810523E+03  0.97065810523E+03  0.25500000920E-02 0.  1.
    10030    2    1    2    0    0  0.00000000000E+00  0.00000000000E+00  0.27830655086E+03  0.22196227613E+04  0.22021059616E+04 0.  0.
        3    1    3    3  502    0  0.24702660321E+03  0.32394744910E+03 -0.89189781515E+03  0.98053343408E+03  0.10100000352E+00 0.  1.
       -3    1    3    3    0  502 -0.24702660321E+03 -0.32394744910E+03  0.11702043660E+04  0.12390893272E+04  0.10100000352E+00 0. -1.
</event>
<event>
 5   0  0.9963173E-06  0.2200949E+04  0.7818609E-02  0.8518033E-01
        2   -1    0    0  501    0  0.00000000000E+00  0.00000000000E+00  0.11617744401E+04  0.11617744401E+04  0.25500000920E-02 0. -1.
       -2   -1    0    0    0  501  0.00000000000E+00  0.00000000000E+00 -0.10424090952E+04  0.10424090952E+04  0.25500000920E-02 0.  1.
    10030    2    1    2    0    0  0.00000000000E+00  0.00000000000E+00  0.11936534491E+03  0.22041835353E+04  0.22009491070E+04 0.  0.
        4    1    3    3  502    0 -0.95849299088E+03 -0.45637127795E+03 -0.23067282421E+03  0.10863678574E+04  0.12699999809E+01 0.  1.
       -4    1    3    3    0  502  0.95849299088E+03  0.45637127795E+03  0.35003816912E+03  0.11178156778E+04  0.12699999809E+01 0. -1.
</event>
<event>
 5   0  0.9963573E-06  0.2201385E+04  0.7818609E-02  0.8517852E-01
       -2   -1    0    0    0  501  0.00000000000E+00  0.00000000000E+00  0.80017733214E+03  0.80017733215E+03  0.25500000920E-02 0. -1.
        2   -1    0    0  501    0  0.00000000000E+00  0.00000000000E+00 -0.15140692913E+04  0.15140692913E+04  0.25500000920E-02 0.  1.
    10030    2    1    2    0    0  0.00000000000E+00  0.00000000000E+00 -0.71389195915E+03  0.23142466234E+04  0.22013849515E+04 0.  0.
        2    1    3    3  502    0  0.61462869500E+03 -0.49695232433E+03 -0.11622436329E+04  0.14055391519E+04  0.25500000920E-02 0.  1.
       -2    1    3    3    0  502 -0.61462869500E+03  0.49695232433E+03  0.44835167377E+03  0.90870747150E+03  0.25500000920E-02 0. -1.
</event>
<event>
 5   0  0.9963573E-06  0.2216583E+04  0.7818609E-02  0.8511557E-01
       -2   -1    0    0    0  501  0.00000000000E+00  0.00000000000E+00  0.49397638514E+03  0.49397638515E+03  0.25500000920E-02 0. -1.
        2   -1    0    0  501    0  0.00000000000E+00  0.00000000000E+00 -0.24865764330E+04  0.24865764330E+04  0.25500000920E-02 0.  1.
    10030    2    1    2    0    0  0.00000000000E+00  0.00000000000E+00 -0.19926000478E+04  0.29805528181E+04  0.22165829899E+04 0.  0.
        2    1    3    3  502    0 -0.54974497397E+03 -0.88506182658E+03 -0.48824574948E+03  0.11506249976E+04  0.25500000920E-02 0. -1.
       -2    1    3    3    0  502  0.54974497397E+03  0.88506182658E+03 -0.15043542984E+04  0.18299278205E+04  0.25500000920E-02 0.  1.
</event>
<event>
 5   0  0.1014015E-05  0.2193882E+04  0.7818609E-02  0.8520979E-01
        2   -1    0    0  501    0  0.00000000000E+00  0.00000000000E+00  0.15548998286E+04  0.15548998286E+04  0.25500000920E-02 0. -1.
       -2   -1    0    0    0  501  0.00000000000E+00  0.00000000000E+00 -0.77386339471E+03  0.77386339472E+03  0.25500000920E-02 0.  1.
    10030    2    1    2    0    0  0.00000000000E+00  0.00000000000E+00  0.78103643391E+03  0.23287632233E+04  0.21938824579E+04 0.  0.
        1    1    3    3  502    0 -0.65365849491E+02 -0.96766781125E+03 -0.15345954507E+03  0.98193865349E+03  0.50400001928E-02 0.  1.
       -1    1    3    3    0  502  0.65365849491E+02  0.96766781125E+03  0.93449597897E+03  0.13468245699E+04  0.50400001928E-02 0. -1.
</event>
<event>
 5   0  0.4794967E-06  0.2198642E+04  0.7818609E-02  0.8518994E-01
        1   -1    0    0  501    0  0.00000000000E+00  0.00000000000E+00  0.10985164494E+04  0.10985164494E+04  0.50400001928E-02 0. -1.
       -1   -1    0    0    0  501  0.00000000000E+00  0.00000000000E+00 -0.11001260226E+04  0.11001260226E+04  0.50400001928E-02 0.  1.
    10030    2    1    2    0    0  0.00000000000E+00  0.00000000000E+00 -0.16095731136E+01  0.21986424720E+04  0.21986418828E+04 0.  0.
        5    1    3    3  502    0  0.74850808816E+03  0.11866140074E+03  0.79552422588E+03  0.10987382627E+04  0.46999998093E+01 0. -1.
       -5    1    3    3    0  502 -0.74850808816E+03 -0.11866140074E+03 -0.79713379899E+03  0.10999042093E+04  0.46999998093E+01 0.  1.
</event>
<event>
 5   0  0.4408787E-06  0.2200555E+04  0.7818609E-02  0.8518197E-01
        1   -1    0    0  501    0  0.00000000000E+00  0.00000000000E+00  0.16177186112E+04  0.16177186113E+04  0.50400001928E-02 0.  1.
       -1   -1    0    0    0  501  0.00000000000E+00  0.00000000000E+00 -0.74834449798E+03  0.74834449800E+03  0.50400001928E-02 0. -1.
    10030    2    1    2    0    0  0.00000000000E+00  0.00000000000E+00  0.86937411326E+03  0.23660631092E+04  0.22005552227E+04 0.  0.
        1    1    3    3  502    0  0.26861865777E+03 -0.70360873698E+03 -0.42775726174E+03  0.86613943049E+03  0.50400001928E-02 0. -1.
       -1    1    3    3    0  502 -0.26861865777E+03  0.70360873698E+03  0.12971313750E+04  0.14999236788E+04  0.50400001928E-02 0.  1.
</event>
<event>
 5   0  0.1014015E-05  0.2196276E+04  0.7818609E-02  0.8519980E-01
       -2   -1    0    0    0  501  0.00000000000E+00  0.00000000000E+00  0.49091563847E+03  0.49091563848E+03  0.25500000920E-02 0. -1.
        2   -1    0    0  501    0  0.00000000000E+00  0.00000000000E+00 -0.24564456803E+04  0.24564456803E+04  0.25500000920E-02 0.  1.
    10030    2    1    2    0    0  0.00000000000E+00  0.00000000000E+00 -0.19655300418E+04  0.29473613188E+04  0.21962764849E+04 0.  0.
        1    1    3    3  502    0 -0.48632469019E+03 -0.95207497999E+03 -0.13194635553E+04  0.16982174612E+04  0.50400001928E-02 0.  1.
       -1    1    3    3    0  502  0.48632469019E+03  0.95207497999E+03 -0.64606648651E+03  0.12491438575E+04  0.50400001928E-02 0. -1.
</event>
<event>
 5   0  0.4630615E-06  0.2206018E+04  0.7818609E-02  0.8515927E-01
       -1   -1    0    0    0  501  0.00000000000E+00  0.00000000000E+00  0.84047035895E+03  0.84047035896E+03  0.50400001928E-02 0.  1.
        1   -1    0    0  501    0  0.00000000000E+00  0.00000000000E+00 -0.14475574924E+04  0.14475574924E+04  0.50400001928E-02 0. -1.
    10030    2    1    2    0    0  0.00000000000E+00  0.00000000000E+00 -0.60708713341E+03  0.22880278513E+04  0.22060182821E+04 0.  0.
        2    1    3    3  502    0  0.86803558583E+03  0.64120405506E+03 -0.54005764094E+03  0.12067686912E+04  0.25500000920E-02 0. -1.
       -2    1    3    3    0  502 -0.86803558583E+03 -0.64120405506E+03 -0.67029492462E+02  0.10812591601E+04  0.25500000920E-02 0.  1.
</event>
<event>
 5   0  0.4462201E-06  0.2203386E+04  0.7818609E-02  0.8517020E-01
       -1   -1    0    0    0  501  0.00000000000E+00  0.00000000000E+00  0.13818480646E+04  0.13818480646E+04  0.50400001928E-02 0.  1.
        1   -1    0    0  501    0  0.00000000000E+00  0.00000000000E+00 -0.87833624088E+03  0.87833624090E+03  0.50400001928E-02 0. -1.
    10030    2    1    2    0    0  0.00000000000E+00  0.00000000000E+00  0.50351182371E+03  0.22601843055E+04  0.22033857897E+04 0.  0.
        3    1    3    3  502    0 -0.14318122365E+03 -0.62886673896E+03  0.11679500946E+04  0.13341970139E+04  0.10100000352E+00 0.  1.
       -3    1    3    3    0  502  0.14318122365E+03  0.62886673896E+03 -0.66443827091E+03  0.92598729161E+03  0.10100000352E+00 0. -1.
</event>
<event>
 5   0  0.4309945E-06  0.2195992E+04  0.7818609E-02  0.8520098E-01
       -1   -1    0    0    0  501  0.00000000000E+00  0.00000000000E+00  0.10239132009E+04  0.10239132009E+04  0.50400001928E-02 0.  1.
        1   -1    0    0  501    0  0.00000000000E+00  0.00000000000E+00 -0.11774387994E+04  0.11774387994E+04  0.50400001928E-02 0. -1.
    10030    2    1    2    0    0  0.00000000000E+00  0.00000000000E+00 -0.15352559848E+03  0.22013520003E+04  0.21959919217E+04 0.  0.
        4    1    3    3  502    0  0.77190354017E+03 -0.67562613134E+03 -0.46923826274E+03  0.11280478291E+04  0.12699999809E+01 0. -1.
       -4    1    3    3    0  502 -0.77190354017E+03  0.67562613134E+03  0.31571266426E+03  0.10733041712E+04  0.12699999809E+01 0.  1.
</event>
<event>
 5   0  0.1014015E-05  0.2204763E+04  0.7818609E-02  0.8516448E-01
        2   -1    0    0  501    0  0.00000000000E+00  0.00000000000E+00  0.14914444066E+04  0.14914444066E+04  0.25500000920E-02 0.  1.
       -2   -1    0    0    0  501  0.00000000000E+00  0.00000000000E+00 -0.81481075972E+03  0.81481075972E+03  0.25500000920E-02 0. -1.
    10030    2    1    2    0    0  0.00000000000E+00  0.00000000000E+00  0.67663364688E+03  0.23062551663E+04  0.22047629805E+04 0.  0.
        1    1    3    3  502    0  0.53555939599E+03  0.37064589990E+03  0.12686647880E+04  0.14260829549E+04  0.50400001928E-02 0.  1.
       -1    1    3    3    0  502 -0.53555939599E+03 -0.37064589990E+03 -0.59203114114E+03  0.88017221147E+03  0.50400001928E-02 0. -1.
</event>
<event>
 5   0  0.4630615E-06  0.2194809E+04  0.7818609E-02  0.8520592E-01
       -1   -1    0    0    0  501  0.00000000000E+00  0.00000000000E+00  0.14882221690E+04  0.14882221690E+04  0.50400001928E-02 0.  1.
        1   -1    0    0  501    0  0.00000000000E+00  0.00000000000E+00 -0.80921836520E+03  0.80921836522E+03  0.50400001928E-02 0. -1.
    10030    2    1    2    0    0  0.00000000000E+00  0.00000000000E+00  0.67900380383E+03  0.22974405343E+04  0.21948090675E+04 0.  0.
        2    1    3    3  502    0 -0.46217264125E+03 -0.19851259696E+03 -0.68144478783E+03  0.84698158205E+03  0.25500000920E-02 0. -1.
       -2    1    3    3    0  502  0.46217264125E+03  0.19851259696E+03  0.13604485917E+04  0.14504589522E+04  0.25500000920E-02 0.  1.
</event>
<event>
 5   0  0.4462201E-06  0.2199817E+04  0.7818609E-02  0.8518504E-01
       -1   -1    0    0    0  501  0.00000000000E+00  0.00000000000E+00  0.13177002508E+04  0.13177002508E+04  0.50400001928E-02 0. -1.
        1   -1    0    0  501    0  0.00000000000E+00  0.00000000000E+00 -0.91811385799E+03  0.91811385801E+03  0.50400001928E-02 0.  1.
    10030    2    1    2    0    0  0.00000000000E+00  0.00000000000E+00  0.39958639281E+03  0.22358141088E+04  0.21998171387E+04 0.  0.
        3    1    3    3  502    0 -0.17917261052E+03 -0.46089051787E+03 -0.79876839081E+03  0.93944337039E+03  0.10100000352E+00 0.  1.
       -3    1    3    3    0  502  0.17917261052E+03  0.46089051787E+03  0.11983547836E+04  0.12963707384E+04  0.10100000352E+00 0. -1.
</event>
<event>
 5   0  0.4794967E-06  0.2202650E+04  0.7818609E-02  0.8517326E-01
       -1   -1    0    0    0  501  0.00000000000E+00  0.00000000000E+00  0.11974782885E+04  0.11974782885E+04  0.50400001928E-02 0. -1.
        1   -1    0    0  501    0  0.00000000000E+00  0.00000000000E+00 -0.10128921500E+04  0.10128921501E+04  0.50400001928E-02 0.  1.
    10030    2    1    2    0    0  0.00000000000E+00  0.00000000000E+00  0.18458613841E+03  0.22103704385E+04  0.22026496392E+04 0.  0.
        5    1    3    3  502    0  0.91150054931E+03 -0.61759345704E+03  0.66919291586E+02  0.11030662769E+04  0.46999998093E+01 0.  1.
       -5    1    3    3    0  502 -0.91150054931E+03  0.61759345704E+03  0.11766684683E+03  0.11073041617E+04  0.46999998093E+01 0. -1.
</event>
<event>
 5   0  0.1014015E-05  0.2199656E+04  0.7818609E-02  0.8518571E-01
       -2   -1    0    0    0  501  0.00000000000E+00  0.00000000000E+00  0.98687738679E+03  0.98687738680E+03  0.25500000920E-02 0. -1.
        2   -1    0    0  501    0  0.00000000000E+00  0.00000000000E+00 -0.12257061751E+04  0.12257061751E+04  0.25500000920E-02 0.  1.
    10030    2    1    2    0    0  0.00000000000E+00  0.00000000000E+00 -0.23882878830E+03  0.22125835619E+04  0.21996560704E+04 0.  0.
        1    1    3    3  502    0  0.10124121079E+03  0.10654802549E+04 -0.37412929870E+03  0.11337859977E+04  0.50400001928E-02 0.  1.
       -1    1    3    3    0  502 -0.10124121079E+03 -0.10654802549E+04  0.13530051040E+03  0.10787975642E+04  0.50400001928E-02 0. -1.
</event>
<event>
 5   0  0.4794967E-06  0.2199885E+04  0.7818609E-02  0.8518476E-01
        1   -1    0    0  501    0  0.00000000000E+00  0.00000000000E+00  0.10048789797E+04  0.10048789797E+04  0.50400001928E-02 0.  1.
       -1   -1    0    0    0  501  0.00000000000E+00  0.00000000000E+00 -0.12039991044E+04  0.12039991044E+04  0.50400001928E-02 0. -1.
    10030    2    1    2    0    0  0.00000000000E+00  0.00000000000E+00 -0.19912012466E+03  0.22088780841E+04  0.21998848985E+04 0.  0.
        5    1    3    3  502    0 -0.38275170335E+03 -0.31182050027E+03 -0.10864924848E+04  0.11934064271E+04  0.46999998093E+01 0. -1.
       -5    1    3    3    0  502  0.38275170335E+03  0.31182050027E+03  0.88737236009E+03  0.10154716570E+04  0.46999998093E+01 0.  1.
</event>
<event>
 5   0  0.9963573E-06  0.2198483E+04  0.7818609E-02  0.8519060E-01
        2   -1    0    0  501    0  0.00000000000E+00  0.00000000000E+00  0.28305087903E+04  0.28305087903E+04  0.25500000920E-02 0. -1.
       -2   -1    0    0    0  501  0.00000000000E+00  0.00000000000E+00 -0.42689558456E+03  0.42689558457E+03  0.25500000920E-02 0.  1.
    10030    2    1    2    0    0  0.00000000000E+00  0.00000000000E+00  0.24036132058E+04  0.32574043749E+04  0.21984828448E+04 0.  0.
        2    1    3    3  502    0 -0.69649720612E+03 -0.13587843563E+03 -0.42047205193E+02  0.71087219306E+03  0.25500000920E-02 0.  1.
       -2    1    3    3    0  502  0.69649720612E+03  0.13587843563E+03  0.24456604110E+04  0.25465321818E+04  0.25500000920E-02 0. -1.
</event>
<event>
 5   0  0.4630615E-06  0.2189356E+04  0.7818609E-02  0.8522871E-01
       -1   -1    0    0    0  501  0.00000000000E+00  0.00000000000E+00  0.11225132759E+04  0.11225132759E+04  0.50400001928E-02 0. -1.
        1   -1    0    0  501    0  0.00000000000E+00  0.00000000000E+00 -0.10675333731E+04  0.10675333731E+04  0.50400001928E-02 0.  1.
    10030    2    1    2    0    0  0.00000000000E+00  0.00000000000E+00  0.54979902757E+02  0.21900466490E+04  0.21893564203E+04 0.  0.
        2    1    3    3  502    0  0.74262499143E+03 -0.78355129093E+03 -0.15388428300E+03  0.10904700252E+04  0.25500000920E-02 0. -1.
       -2    1    3    3    0  502 -0.74262499143E+03  0.78355129093E+03  0.20886418575E+03  0.10995766238E+04  0.25500000920E-02 0.  1.
</event>
<event>
 5   0  0.1015876E-05  0.2197798E+04  0.7818609E-02  0.8519345E-01
       -2   -1    0    0    0  501  0.00000000000E+00  0.00000000000E+00  0.61138733268E+03  0.61138733268E+03  0.25500000920E-02 0.  1.
        2   -1    0    0  501    0  0.00000000000E+00  0.00000000000E+00 -0.19751463341E+04  0.19751463341E+04  0.25500000920E-02 0. -1.
    10030    2    1    2    0    0  0.00000000000E+00  0.00000000000E+00 -0.13637590015E+04  0.25865336668E+04  0.21977983974E+04 0.  0.
        5    1    3    3  502    0  0.10336248581E+04  0.71479796552E+02 -0.11127951656E+04  0.15204686381E+04  0.46999998093E+01 0. -1.
       -5    1    3    3    0  502 -0.10336248581E+04 -0.71479796552E+02 -0.25096383582E+03  0.10660650288E+04  0.46999998093E+01 0.  1.
</event>
<event>
 5   0  0.9963173E-06  0.2200706E+04  0.7818609E-02  0.8518134E-01
        2   -1    0    0  501    0  0.00000000000E+00  0.00000000000E+00  0.18935420992E+04  0.18935420992E+04  0.25500000920E-02 0. -1.
       -2   -1    0    0    0  501  0.00000000000E+00  0.00000000000E+00 -0.63942428644E+03  0.63942428645E+03  0.25500000920E-02 0.  1.
    10030    2    1    2    0    0  0.00000000000E+00  0.00000000000E+00  0.12541178127E+04  0.25329663856E+04  0.22007060736E+04 0.  0.
        4    1    3    3  502    0  0.38028509742E+03  0.10273202032E+04  0.74651498354E+03  0.13256280733E+04  0.12699999809E+01 0. -1.
       -4    1    3    3    0  502 -0.38028509742E+03 -0.10273202032E+04  0.50760282919E+03  0.12073383123E+04  0.12699999809E+01 0.  1.
</event>
<event>
 5   0  0.9963173E-06  0.2199497E+04  0.7818609E-02  0.8518637E-01
       -2   -1    0    0    0  501  0.00000000000E+00  0.00000000000E+00  0.56480109217E+03  0.56480109218E+03  0.25500000920E-02 0.  1.
        2   -1    0    0  501    0  0.00000000000E+00  0.00000000000E+00 -0.21413676224E+04  0.21413676224E+04  0.25500000920E-02 0. -1.
    10030    2    1    2    0    0  0.00000000000E+00  0.00000000000E+00 -0.15765665302E+04  0.27061687146E+04  0.21994970078E+04 0.  0.
        4    1    3    3  502    0  0.89874888258E+03 -0.56488240492E+03 -0.43466828974E+03  0.11470744615E+04  0.12699999809E+01 0.  1.
       -4    1    3    3    0  502 -0.89874888258E+03  0.56488240492E+03 -0.11418982405E+04  0.15590942530E+04  0.12699999809E+01 0. -1.
</event>
<event>
 5   0  0.4794967E-06  0.2189774E+04  0.7818609E-02  0.8522696E-01
       -1   -1    0    0    0  501  0.00000000000E+00  0.00000000000E+00  0.19453406145E+04  0.19453406145E+04  0.50400001928E-02 0.  1.
        1   -1    0    0  501    0  0.00000000000E+00  0.00000000000E+00 -0.61623020764E+03  0.61623020767E+03  0.50400001928E-02 0. -1.
    10030    2    1    2    0    0  0.00000000000E+00  0.00000000000E+00  0.13291104069E+04  0.25615708222E+04  0.21897740987E+04 0.  0.
        5    1    3    3  502    0  0.49076679968E+03  0.30914617223E+03 -0.42173119850E+03  0.71714900911E+03  0.46999998093E+01 0. -1.
       -5    1    3    3    0  502 -0.49076679968E+03 -0.30914617223E+03  0.17508416054E+04  0.18444218131E+04  0.46999998093E+01 0.  1.
</event>
<event>
 5   0  0.3546750E-06  0.2196027E+04  0.7818609E-02  0.8520084E-01
       -3   -1    0    0    0  501  0.00000000000E+00  0.00000000000E+00  0.62092985004E+03  0.62092985825E+03  0.10100000352E+00 0. -1.
        3   -1    0    0  501    0  0.00000000000E+00  0.00000000000E+00 -0.19416585251E+04  0.19416585277E+04  0.10100000352E+00 0.  1.
    10030    2    1    2    0    0  0.00000000000E+00  0.00000000000E+00 -0.13207286751E+04  0.25625883860E+04  0.21960270952E+04 0.  0.
        2    1    3    3  502    0 -0.97277444299E+03  0.34309009283E+03 -0.10995246783E+04  0.15076323978E+04  0.25500000920E-02 0.  1.
       -2    1    3    3    0  502  0.97277444299E+03 -0.34309009283E+03 -0.22120399672E+03  0.10549559881E+04  0.25500000920E-02 0. -1.
</event>
<event>
 5   0  0.4794967E-06  0.2200818E+04  0.7818609E-02  0.8518088E-01
        1   -1    0    0  501    0  0.00000000000E+00  0.00000000000E+00  0.98309593360E+03  0.98309593361E+03  0.50400001928E-02 0.  1.
       -1   -1    0    0    0  501  0.00000000000E+00  0.00000000000E+00 -0.12317211409E+04  0.12317211409E+04  0.50400001928E-02 0. -1.
    10030    2    1    2    0    0  0.00000000000E+00  0.00000000000E+00 -0.24862520730E+03  0.22148170745E+04  0.22008180706E+04 0.  0.
        5    1    3    3  502    0 -0.97131942539E+03 -0.50493147753E+03 -0.11974912373E+02  0.10947980232E+04  0.46999998093E+01 0. -1.
       -5    1    3    3    0  502  0.97131942539E+03  0.50493147753E+03 -0.23665029493E+03  0.11200190513E+04  0.46999998093E+01 0.  1.
</event>
<event>
 5   0  0.9963173E-06  0.2199960E+04  0.7818609E-02  0.8518445E-01
        2   -1    0    0  501    0  0.00000000000E+00  0.00000000000E+00  0.10959101122E+04  0.10959101122E+04  0.25500000920E-02 0.  1.
       -2   -1    0    0    0  501  0.00000000000E+00  0.00000000000E+00 -0.11040646682E+04  0.11040646682E+04  0.25500000920E-02 0. -1.
    10030    2    1    2    0    0  0.00000000000E+00  0.00000000000E+00 -0.81545559965E+01  0.21999747804E+04  0.21999596672E+04 0.  0.
        4    1    3    3  502    0  0.65406019413E+03  0.48775106886E+03  0.73366634724E+03  0.10972528262E+04  0.12699999809E+01 0.  1.
       -4    1    3    3    0  502 -0.65406019413E+03 -0.48775106886E+03 -0.74182090324E+03  0.11027219541E+04  0.12699999809E+01 0. -1.
</event>
<event>
 5   0  0.1015876E-05  0.2211401E+04  0.7818609E-02  0.8513698E-01
       -2   -1    0    0    0  501  0.00000000000E+00  0.00000000000E+00  0.11768569472E+04  0.11768569472E+04  0.25500000920E-02 0. -1.
        2   -1    0    0  501    0  0.00000000000E+00  0.00000000000E+00 -0.10388460911E+04  0.10388460911E+04  0.25500000920E-02 0.  1.
    10030    2    1    2    0    0  0.00000000000E+00  0.00000000000E+00  0.13801085613E+03  0.22157030383E+04  0.22114006777E+04 0.  0.
        5    1    3    3  502    0 -0.75145328189E+03 -0.29635714394E+03  0.82548529472E+03  0.11549708453E+04  0.46999998093E+01 0. -1.
       -5    1    3    3    0  502  0.75145328189E+03  0.29635714394E+03 -0.68747443858E+03  0.10607321930E+04  0.46999998093E+01 0.  1.
</event>
<event>
 5   0  0.4462201E-06  0.2198656E+04  0.7818609E-02  0.8518988E-01
       -1   -1    0    0    0  501  0.00000000000E+00  0.00000000000E+00  0.81293831775E+03  0.81293831777E+03  0.50400001928E-02 0. -1.
        1   -1    0    0  501    0  0.00000000000E+00  0.00000000000E+00 -0.14866095215E+04  0.14866095215E+04  0.50400001928E-02 0.  1.
    10030    2    1    2    0    0  0.00000000000E+00  0.00000000000E+00 -0.67367120378E+03  0.22995478393E+04  0.21986558108E+04 0.  0.
        3    1    3    3  502    0 -0.70422523177E+02  0.27649102682E+03 -0.14472097885E+04  0.14750670500E+04  0.10100000352E+00 0.  1.
       -3    1    3    3    0  502  0.70422523177E+02 -0.27649102682E+03  0.77353858475E+03  0.82448078933E+03  0.10100000352E+00 0. -1.
</event>
<event>
 5   0  0.9963173E-06  0.2203294E+04  0.7818609E-02  0.8517058E-01
       -2   -1    0    0    0  501  0.00000000000E+00  0.00000000000E+00  0.50650409366E+03  0.50650409367E+03  0.25500000920E-02 0. -1.
        2   -1    0    0  501    0  0.00000000000E+00  0.00000000000E+00 -0.23960836130E+04  0.23960836130E+04  0.25500000920E-02 0.  1.
    10030    2    1    2    0    0  0.00000000000E+00  0.00000000000E+00 -0.18895795194E+04  0.29025877067E+04  0.22032940419E+04 0.  0.
        4    1    3    3  502    0 -0.35273029774E+03 -0.94030326568E+03 -0.34826622477E+03  0.10629580757E+04  0.12699999809E+01 0. -1.
       -4    1    3    3    0  502  0.35273029774E+03  0.94030326568E+03 -0.15413132946E+04  0.18396296310E+04  0.12699999809E+01 0.  1.
</event>
<event>
 5   0  0.1014015E-05  0.2198433E+04  0.7818609E-02  0.8519081E-01
        2   -1    0    0  501    0  0.00000000000E+00  0.00000000000E+00  0.13063094053E+04  0.13063094053E+04  0.25500000920E-02 0. -1.
       -2   -1    0    0    0  501  0.00000000000E+00  0.00000000000E+00 -0.92495472498E+03  0.92495472499E+03  0.25500000920E-02 0.  1.
    10030    2    1    2    0    0  0.00000000000E+00  0.00000000000E+00  0.38135468029E+03  0.22312641303E+04  0.21984331299E+04 0.  0.
        1    1    3    3  502    0  0.77580664022E+02  0.68868822899E+03  0.10566287354E+04  0.12636354382E+04  0.50400001928E-02 0. -1.
       -1    1    3    3    0  502 -0.77580664022E+02 -0.68868822899E+03 -0.67527405511E+03  0.96762869206E+03  0.50400001928E-02 0.  1.
</event>
<event>
 5   0  0.4408787E-06  0.2203309E+04  0.7818609E-02  0.8517052E-01
       -1   -1    0    0    0  501  0.00000000000E+00  0.00000000000E+00  0.10998135430E+04  0.10998135430E+04  0.50400001928E-02 0.  1.
        1   -1    0    0  501    0  0.00000000000E+00  0.00000000000E+00 -0.11034984381E+04  0.11034984381E+04  0.50400001928E-02 0. -1.
    10030    2    1    2    0    0  0.00000000000E+00  0.00000000000E+00 -0.36848951162E+01  0.22033119811E+04  0.22033088997E+04 0.  0.
        1    1    3    3  502    0 -0.42129108746E+03 -0.79825063288E+03 -0.63347001937E+03  0.11027123463E+04  0.50400001928E-02 0. -1.
       -1    1    3    3    0  502  0.42129108746E+03  0.79825063288E+03  0.62978512425E+03  0.11005996348E+04  0.50400001928E-02 0.  1.
</event>
<event>
 5   0  0.1035928E-05  0.2199537E+04  0.7818609E-02  0.8518621E-01
       -2   -1    0    0    0  501  0.00000000000E+00  0.00000000000E+00  0.13873485136E+04  0.13873485136E+04  0.25500000920E-02 0. -1.
        2   -1    0    0  501    0  0.00000000000E+00  0.00000000000E+00 -0.87180021845E+03  0.87180021846E+03  0.25500000920E-02 0.  1.
    10030    2    1    2    0    0  0.00000000000E+00  0.00000000000E+00  0.51554829517E+03  0.22591487321E+04  0.21995369851E+04 0.  0.
        3    1    3    3  502    0  0.66448112892E+03  0.87625539892E+03  0.24597220497E+03  0.11268811076E+04  0.10100000352E+00 0. -1.
       -3    1    3    3    0  502 -0.66448112892E+03 -0.87625539892E+03  0.26957609020E+03  0.11322676245E+04  0.10100000352E+00 0.  1.
</event>
<event>
 5   0  0.4462201E-06  0.2199672E+04  0.7818609E-02  0.8518565E-01
        1   -1    0    0  501    0  0.00000000000E+00  0.00000000000E+00  0.18366408853E+04  0.18366408853E+04  0.50400001928E-02 0.  1.
       -1   -1    0    0    0  501  0.00000000000E+00  0.00000000000E+00 -0.65861486596E+03  0.65861486597E+03  0.50400001928E-02 0. -1.
    10030    2    1    2    0    0  0.00000000000E+00  0.00000000000E+00  0.11780260194E+04  0.24952557513E+04  0.21996717851E+04 0.  0.
        3    1    3    3  502    0  0.71872081556E+03  0.20103619805E+03  0.15054486048E+04  0.16802829154E+04  0.10100000352E+00 0.  1.
       -3    1    3    3    0  502 -0.71872081556E+03 -0.20103619805E+03 -0.32742258547E+03  0.81497283594E+03  0.10100000352E+00 0. -1.
</event>
<event>
 5   0  0.4794967E-06  0.2197411E+04  0.7818609E-02  0.8519506E-01
        1   -1    0    0  501    0  0.00000000000E+00  0.00000000000E+00  0.50349224404E+03  0.50349224406E+03  0.50400001928E-02 0. -1.
       -1   -1    0    0    0  501  0.00000000000E+00  0.00000000000E+00 -0.23975626735E+04  0.23975626735E+04  0.50400001928E-02 0.  1.
    10030    2    1    2    0    0  0.00000000000E+00  0.00000000000E+00 -0.18940704295E+04  0.29010549176E+04  0.21974113960E+04 0.  0.
        5    1    3    3  502    0  0.13282091998E+02 -0.40611597201E+03 -0.22947058211E+04  0.23304084389E+04  0.46999998093E+01 0.  1.
       -5    1    3    3    0  502 -0.13282091998E+02  0.40611597201E+03  0.40063539159E+03  0.57064647872E+03  0.46999998093E+01 0. -1.
</event>
<event>
 5   0  0.4408787E-06  0.2199176E+04  0.7818609E-02  0.8518771E-01
        1   -1    0    0  501    0  0.00000000000E+00  0.00000000000E+00  0.14098980732E+04  0.14098980732E+04  0.50400001928E-02 0.  1.
       -1   -1    0    0    0  501  0.00000000000E+00  0.00000000000E+00 -0.85757569458E+03  0.85757569460E+03  0.50400001928E-02 0. -1.
    10030    2    1    2    0    0  0.00000000000E+00  0.00000000000E+00  0.55232237862E+03  0.22674737678E+04  0.21991764999E+04 0.  0.
        1    1    3    3  502    0  0.23433266418E+03  0.10136922680E+04  0.64303529560E+03  0.12231018776E+04  0.50400001928E-02 0.  1.
       -1    1    3    3    0  502 -0.23433266418E+03 -0.10136922680E+04 -0.90712916985E+02  0.10443718902E+04  0.50400001928E-02 0. -1.
</event>
<event>
 5   0  0.4408787E-06  0.2214539E+04  0.7818609E-02  0.8512401E-01
        1   -1    0    0  501    0  0.00000000000E+00  0.00000000000E+00  0.27595312554E+04  0.27595312554E+04  0.50400001928E-02 0.  1.
       -1   -1    0    0    0  501  0.00000000000E+00  0.00000000000E+00 -0.44429494107E+03  0.44429494110E+03  0.50400001928E-02 0. -1.
    10030    2    1    2    0    0  0.00000000000E+00  0.00000000000E+00  0.23152363143E+04  0.32038261965E+04  0.22145390279E+04 0.  0.
        1    1    3    3  502    0 -0.35562205856E+03  0.49885075270E+03 -0.17676524004E+03  0.63762455420E+03  0.50400001928E-02 0. -1.
       -1    1    3    3    0  502  0.35562205856E+03 -0.49885075270E+03  0.24920015544E+04  0.25662016423E+04  0.50400001928E-02 0.  1.
</event>
<event>
 5   0  0.1035928E-05  0.2206396E+04  0.7818609E-02  0.8515771E-01
       -2   -1    0    0    0  501  0.00000000000E+00  0.00000000000E+00  0.99982518975E+03  0.99982518975E+03  0.25500000920E-02 0. -1.
        2   -1    0    0  501    0  0.00000000000E+00  0.00000000000E+00 -0.12172584642E+04  0.12172584642E+04  0.25500000920E-02 0.  1.
    10030    2    1    2    0    0  0.00000000000E+00  0.00000000000E+00 -0.21743327441E+03  0.22170836539E+04  0.22063958619E+04 0.  0.
        3    1    3    3  502    0 -0.52056854912E+03 -0.96743975420E+03 -0.20977403582E+03  0.11184527029E+04  0.10100000352E+00 0.  1.
       -3    1    3    3    0  502  0.52056854912E+03  0.96743975420E+03 -0.76592385830E+01  0.10986309510E+04  0.10100000352E+00 0. -1.
</event>
<event>
 5   0  0.4408787E-06  0.2195099E+04  0.7818609E-02  0.8520471E-01
        1   -1    0    0  501    0  0.00000000000E+00  0.00000000000E+00  0.17713922718E+04  0.17713922718E+04  0.50400001928E-02 0.  1.
       -1   -1    0    0    0  501  0.00000000000E+00  0.00000000000E+00 -0.68003861048E+03  0.68003861050E+03  0.50400001928E-02 0. -1.
    10030    2    1    2    0    0  0.00000000000E+00  0.00000000000E+00  0.10913536613E+04  0.24514308823E+04  0.21950992134E+04 0.  0.
        1    1    3    3  502    0 -0.30306629443E+03  0.97742044490E+03  0.98876369858E+03  0.14229734912E+04  0.50400001928E-02 0.  1.
       -1    1    3    3    0  502  0.30306629443E+03 -0.97742044490E+03  0.10258996277E+03  0.10284573912E+04  0.50400001928E-02 0. -1.
</event>
<event>
 5   0  0.4630615E-06  0.2207298E+04  0.7818609E-02  0.8515397E-01
       -1   -1    0    0    0  501  0.00000000000E+00  0.00000000000E+00  0.91209648275E+03  0.91209648276E+03  0.50400001928E-02 0. -1.
        1   -1    0    0  501    0  0.00000000000E+00  0.00000000000E+00 -0.13354295980E+04  0.13354295980E+04  0.50400001928E-02 0.  1.
    10030    2    1    2    0    0  0.00000000000E+00  0.00000000000E+00 -0.42333311526E+03  0.22475260808E+04  0.22072975688E+04 0.  0.
        2    1    3    3  502    0  0.84533356216E+03  0.66908902611E+03  0.28797809838E+02  0.10784703380E+04  0.25500000920E-02 0. -1.
       -2    1    3    3    0  502 -0.84533356216E+03 -0.66908902611E+03 -0.45213092510E+03  0.11690557427E+04  0.25500000920E-02 0.  1.
</event>
<event>
 5   0  0.4794967E-06  0.2201492E+04  0.7818609E-02  0.8517807E-01
       -1   -1    0    0    0  501  0.00000000000E+00  0.00000000000E+00  0.68954324842E+03  0.68954324844E+03  0.50400001928E-02 0. -1.
        1   -1    0    0  501    0  0.00000000000E+00  0.00000000000E+00 -0.17571661019E+04  0.17571661019E+04  0.50400001928E-02 0.  1.
    10030    2    1    2    0    0  0.00000000000E+00  0.00000000000E+00 -0.10676228535E+04  0.24467093504E+04  0.22014922412E+04 0.  0.
        5    1    3    3  502    0 -0.25750941619E+03 -0.98297808513E+03 -0.63518930244E+02  0.10181423082E+04  0.46999998093E+01 0.  1.
       -5    1    3    3    0  502  0.25750941619E+03  0.98297808513E+03 -0.10041039233E+04  0.14285670422E+04  0.46999998093E+01 0. -1.
</event>
<event>
 5   0  0.9963173E-06  0.2192530E+04  0.7818609E-02  0.8521544E-01
        2   -1    0    0  501    0  0.00000000000E+00  0.00000000000E+00  0.11730095763E+04  0.11730095763E+04  0.25500000920E-02 0.  1.
       -2   -1    0    0    0  501  0.00000000000E+00  0.00000000000E+00 -0.10245411092E+04  0.10245411092E+04  0.25500000920E-02 0. -1.
    10030    2    1    2    0    0  0.00000000000E+00  0.00000000000E+00  0.14846846711E+03  0.21975506856E+04  0.21925296189E+04 0.  0.
        4    1    3    3  502    0  0.57461328399E+03 -0.92465121865E+03  0.20350485553E+03  0.11075089803E+04  0.12699999809E+01 0.  1.
       -4    1    3    3    0  502 -0.57461328399E+03  0.92465121865E+03 -0.55036388412E+02  0.10900417053E+04  0.12699999809E+01 0. -1.
</event>
<event>
 5   0  0.1035928E-05  0.2202359E+04  0.7818609E-02  0.8517447E-01
        2   -1    0    0  501    0  0.00000000000E+00  0.00000000000E+00  0.82860670974E+03  0.82860670974E+03  0.25500000920E-02 0.  1.
       -2   -1    0    0    0  501  0.00000000000E+00  0.00000000000E+00 -0.14634156107E+04  0.14634156107E+04  0.25500000920E-02 0. -1.
    10030    2    1    2    0    0  0.00000000000E+00  0.00000000000E+00 -0.63480890098E+03  0.22920223205E+04  0.22023587303E+04 0.  0.
        3    1    3    3  502    0 -0.54983286984E+03  0.48309078228E+03  0.53883263148E+03  0.90886385319E+03  0.10100000352E+00 0.  1.
       -3    1    3    3    0  502  0.54983286984E+03 -0.48309078228E+03 -0.11736415325E+04  0.13831584673E+04  0.10100000352E+00 0. -1.
</event>
<event>
 5   0  0.4309945E-06  0.2203657E+04  0.7818609E-02  0.8516908E-01
        1   -1    0    0  501    0  0.00000000000E+00  0.00000000000E+00  0.66476529454E+03  0.66476529456E+03  0.50400001928E-02 0.  1.
       -1   -1    0    0    0  501  0.00000000000E+00  0.00000000000E+00 -0.18262474711E+04  0.18262474711E+04  0.50400001928E-02 0. -1.
    10030    2    1    2    0    0  0.00000000000E+00  0.00000000000E+00 -0.11614821766E+04  0.24910127657E+04  0.22036569044E+04 0.  0.
        4    1    3    3  502    0  0.10174995272E+03 -0.65292390580E+03  0.41591088091E+03  0.78079840766E+03  0.12699999809E+01 0.  1.
       -4    1    3    3    0  502 -0.10174995272E+03  0.65292390580E+03 -0.15773930575E+04  0.17102143580E+04  0.12699999809E+01 0. -1.
</event>
<event>
 5   0  0.4630615E-06  0.2196107E+04  0.7818609E-02  0.8520050E-01
        1   -1    0    0  501    0  0.00000000000E+00  0.00000000000E+00  0.97205571876E+03  0.97205571877E+03  0.50400001928E-02 0.  1.
       -1   -1    0    0    0  501  0.00000000000E+00  0.00000000000E+00 -0.12403832684E+04  0.12403832684E+04  0.50400001928E-02 0. -1.
    10030    2    1    2    0    0  0.00000000000E+00  0.00000000000E+00 -0.26832754965E+03  0.22124389872E+04  0.21961071463E+04 0.  0.
        2    1    3    3  502    0 -0.21964973172E+02  0.37192464254E+02  0.97119950275E+03  0.97215956179E+03  0.25500000920E-02 0.  1.
       -2    1    3    3    0  502  0.21964973172E+02 -0.37192464254E+02 -0.12395270524E+04  0.12402794254E+04  0.25500000920E-02 0. -1.
</event>
<event>
 5   0  0.4309945E-06  0.2198666E+04  0.7818609E-02  0.8518984E-01
        1   -1    0    0  501    0  0.00000000000E+00  0.00000000000E+00  0.10010942628E+04  0.10010942628E+04  0.50400001928E-02 0. -1.
       -1   -1    0    0    0  501  0.00000000000E+00  0.00000000000E+00 -0.12072120921E+04  0.12072120921E+04  0.50400001928E-02 0.  1.
    10030    2    1    2    0    0  0.00000000000E+00  0.00000000000E+00 -0.20611782933E+03  0.22083063549E+04  0.21986660496E+04 0.  0.
        4    1    3    3  502    0  0.24900251849E+03  0.53036141503E+03 -0.10373234265E+04  0.11913551061E+04  0.12699999809E+01 0.  1.
       -4    1    3    3    0  502 -0.24900251849E+03 -0.53036141503E+03  0.83120559719E+03  0.10169512488E+04  0.12699999809E+01 0. -1.
</event>
<event>
 5   0  0.4408787E-06  0.2198261E+04  0.7818609E-02  0.8519152E-01
        1   -1    0    0  501    0  0.00000000000E+00  0.00000000000E+00  0.18472233500E+04  0.18472233500E+04  0.50400001928E-02 0.  1.
       -1   -1    0    0    0  501  0.00000000000E+00  0.00000000000E+00 -0.65400193352E+03  0.65400193354E+03  0.50400001928E-02 0. -1.
    10030    2    1    2    0    0  0.00000000000E+00  0.00000000000E+00  0.11932214165E+04  0.25012252835E+04  0.21982608058E+04 0.  0.
        1    1    3    3  502    0  0.28021215236E+03  0.90362162000E+03 -0.39996077303E+02  0.94691634725E+03  0.50400001928E-02 0. -1.
       -1    1    3    3    0  502 -0.28021215236E+03 -0.90362162000E+03  0.12332174938E+04  0.15543089363E+04  0.50400001928E-02 0.  1.
</event>
<event>
 5   0  0.3546750E-06  0.2204718E+04  0.7818609E-02  0.8516467E-01
        3   -1    0    0  501    0  0.00000000000E+00  0.00000000000E+00  0.23504482974E+04  0.23504482996E+04  0.10100000352E+00 0. -1.
       -3   -1    0    0    0  501  0.00000000000E+00  0.00000000000E+00 -0.51700578175E+03  0.51700579162E+03  0.10100000352E+00 0.  1.
    10030    2    1    2    0    0  0.00000000000E+00  0.00000000000E+00  0.18334425157E+04  0.28674540912E+04  0.22047180108E+04 0.  0.
        3    1    3    3  502    0 -0.21836803670E+03  0.99139056635E+03  0.14756089704E+04  0.17910783618E+04  0.10100000352E+00 0. -1.
       -3    1    3    3    0  502  0.21836803670E+03 -0.99139056635E+03  0.35783354528E+03  0.10763757294E+04  0.10100000352E+00 0.  1.
</event>
<event>
 5   0  0.4309945E-06  0.2197200E+04  0.7818609E-02  0.8519595E-01
        1   -1    0    0  501    0  0.00000000000E+00  0.00000000000E+00  0.11607601987E+04  0.11607601987E+04  0.50400001928E-02 0. -1.
       -1   -1    0    0    0  501  0.00000000000E+00  0.00000000000E+00 -0.10397683714E+04  0.10397683714E+04  0.50400001928E-02 0.  1.
    10030    2    1    2    0    0  0.00000000000E+00  0.00000000000E+00  0.12099182726E+03  0.22005285701E+04  0.21971998010E+04 0.  0.
        4    1    3    3  502    0 -0.40505898469E+03 -0.57490047228E+03  0.90577504935E+03  0.11467403311E+04  0.12699999809E+01 0. -1.
       -4    1    3    3    0  502  0.40505898469E+03  0.57490047228E+03 -0.78478322209E+03  0.10537882390E+04  0.12699999809E+01 0.  1.
</event>
<event>
 5   0  0.9963173E-06  0.2199511E+04  0.7818609E-02  0.8518632E-01
        2   -1    0    0  501    0  0.00000000000E+00  0.00000000000E+00  0.16191574114E+04  0.16191574114E+04  0.25500000920E-02 0.  1.
       -2   -1    0    0    0  501  0.00000000000E+00  0.00000000000E+00 -0.74696999540E+03  0.74696999540E+03  0.25500000920E-02 0. -1.
    10030    2    1    2    0    0  0.00000000000E+00  0.00000000000E+00  0.87218741596E+03  0.23661274068E+04  0.21995108585E+04 0.  0.
        4    1    3    3  502    0 -0.88919440540E+03 -0.51356546303E+03  0.85967795462E+03  0.13392027382E+04  0.12699999809E+01 0.  1.
       -4    1    3    3    0  502  0.88919440540E+03  0.51356546303E+03  0.12509461344E+02  0.10269246686E+04  0.12699999809E+01 0. -1.
</event>
<event>
 5   0  0.9963173E-06  0.2187537E+04  0.7818609E-02  0.8523633E-01
        2   -1    0    0  501    0  0.00000000000E+00  0.00000000000E+00  0.80260623427E+03  0.80260623427E+03  0.25500000920E-02 0. -1.
       -2   -1    0    0    0  501  0.00000000000E+00  0.00000000000E+00 -0.14905565295E+04  0.14905565295E+04  0.25500000920E-02 0.  1.
    10030    2    1    2    0    0  0.00000000000E+00  0.00000000000E+00 -0.68795029524E+03  0.22931627638E+04  0.21875373945E+04 0.  0.
        4    1    3    3  502    0 -0.24549518216E+02 -0.97451434279E+03  0.17600749240E+03  0.99058625744E+03  0.12699999809E+01 0. -1.
       -4    1    3    3    0  502  0.24549518216E+02  0.97451434279E+03 -0.86395778764E+03  0.13025765063E+04  0.12699999809E+01 0.  1.
</event>
<event>
 5   0  0.4408787E-06  0.2234935E+04  0.7818609E-02  0.8504027E-01
        1   -1    0    0  501    0  0.00000000000E+00  0.00000000000E+00  0.14545473657E+04  0.14545473657E+04  0.50400001928E-02 0.  1.
       -1   -1    0    0    0  501  0.00000000000E+00  0.00000000000E+00 -0.85850307159E+03  0.85850307160E+03  0.50400001928E-02 0. -1.
    10030    2    1    2    0    0  0.00000000000E+00  0.00000000000E+00  0.59604429408E+03  0.23130504373E+04  0.22349347921E+04 0.  0.
        1    1    3    3  502    0 -0.53211647364E+03 -0.71226187248E+03  0.99863844025E+03  0.13370653129E+04  0.50400001928E-02 0.  1.
       -1    1    3    3    0  502  0.53211647364E+03  0.71226187248E+03 -0.40259414617E+03  0.97598512441E+03  0.50400001928E-02 0. -1.
</event>
<event>
 5   0  0.4309945E-06  0.2199863E+04  0.7818609E-02  0.8518485E-01
        1   -1    0    0  501    0  0.00000000000E+00  0.00000000000E+00  0.13034083953E+04  0.13034083953E+04  0.50400001928E-02 0. -1.
       -1   -1    0    0    0  501  0.00000000000E+00  0.00000000000E+00 -0.92821967211E+03  0.92821967212E+03  0.50400001928E-02 0.  1.
    10030    2    1    2    0    0  0.00000000000E+00  0.00000000000E+00  0.37518872320E+03  0.22316280674E+04  0.21998630079E+04 0.  0.
        4    1    3    3  502    0  0.36490698996E+03  0.91446686588E+03 -0.30983382066E+03  0.10321847555E+04  0.12699999809E+01 0.  1.
       -4    1    3    3    0  502 -0.36490698996E+03 -0.91446686588E+03  0.68502254385E+03  0.11994433120E+04  0.12699999809E+01 0. -1.
</event>
<event>
 5   0  0.9963173E-06  0.2197087E+04  0.7818609E-02  0.8519641E-01
        2   -1    0    0  501    0  0.00000000000E+00  0.00000000000E+00  0.19709927172E+04  0.19709927172E+04  0.25500000920E-02 0. -1.
       -2   -1    0    0    0  501  0.00000000000E+00  0.00000000000E+00 -0.61227943158E+03  0.61227943158E+03  0.25500000920E-02 0.  1.
    10030    2    1    2    0    0  0.00000000000E+00  0.00000000000E+00  0.13587132857E+04  0.25832721488E+04  0.21970874362E+04 0.  0.
        4    1    3    3  502    0 -0.69479637332E+03 -0.14414320782E+03 -0.30666434436E+03  0.77302257260E+03  0.12699999809E+01 0.  1.
       -4    1    3    3    0  502  0.69479637332E+03  0.14414320782E+03  0.16653776300E+04  0.18102495762E+04  0.12699999809E+01 0. -1.
</event>
<event>
 5   0  0.9963173E-06  0.2199094E+04  0.7818609E-02  0.8518805E-01
       -2   -1    0    0    0  501  0.00000000000E+00  0.00000000000E+00  0.61697256737E+03  0.61697256737E+03  0.25500000920E-02 0.  1.
        2   -1    0    0  501    0  0.00000000000E+00  0.00000000000E+00 -0.19595736035E+04  0.19595736035E+04  0.25500000920E-02 0. -1.
    10030    2    1    2    0    0  0.00000000000E+00  0.00000000000E+00 -0.13426010362E+04  0.25765461709E+04  0.21990935925E+04 0.  0.
        4    1    3    3  502    0  0.48284596989E+02 -0.80535651712E+03  0.20396325267E+03  0.83218576251E+03  0.12699999809E+01 0.  1.
       -4    1    3    3    0  502 -0.48284596989E+02  0.80535651712E+03 -0.15465642888E+04  0.17443604084E+04  0.12699999809E+01 0. -1.
</event>
<event>
 5   0  0.1015876E-05  0.2202395E+04  0.7818609E-02  0.8517432E-01
       -2   -1    0    0    0  501  0.00000000000E+00  0.00000000000E+00  0.90009103737E+03  0.90009103737E+03  0.25500000920E-02 0. -1.
        2   -1    0    0  501    0  0.00000000000E+00  0.00000000000E+00 -0.13472374936E+04  0.13472374936E+04  0.25500000920E-02 0.  1.
    10030    2    1    2    0    0  0.00000000000E+00  0.00000000000E+00 -0.44714645619E+03  0.22473285309E+04  0.22023954170E+04 0.  0.
        5    1    3    3  502    0 -0.16606209473E+03 -0.35166564066E+03 -0.12748194844E+04  0.13328286273E+04  0.46999998093E+01 0.  1.
       -5    1    3    3    0  502  0.16606209473E+03  0.35166564066E+03  0.82767302817E+03  0.91449990360E+03  0.46999998093E+01 0. -1.
</event>
<event>
 5   0  0.1014015E-05  0.2199337E+04  0.7818609E-02  0.8518704E-01
       -2   -1    0    0    0  501  0.00000000000E+00  0.00000000000E+00  0.47494205563E+03  0.47494205563E+03  0.25500000920E-02 0.  1.
        2   -1    0    0  501    0  0.00000000000E+00  0.00000000000E+00 -0.25461438696E+04  0.25461438696E+04  0.25500000920E-02 0. -1.
    10030    2    1    2    0    0  0.00000000000E+00  0.00000000000E+00 -0.20712018140E+04  0.30210859252E+04  0.21993369941E+04 0.  0.
        1    1    3    3  502    0 -0.87306289035E+03  0.14837350615E+03 -0.19311194850E+04  0.21244942865E+04  0.50400001928E-02 0. -1.
       -1    1    3    3    0  502  0.87306289035E+03 -0.14837350615E+03 -0.14008232899E+03  0.89659163879E+03  0.50400001928E-02 0.  1.
</event>
<event>
 5   0  0.4794967E-06  0.2133450E+04  0.7818609E-02  0.8546650E-01
        1   -1    0    0  501    0  0.00000000000E+00  0.00000000000E+00  0.14292961776E+04  0.14292961776E+04  0.50400001928E-02 0. -1.
       -1   -1    0    0    0  501  0.00000000000E+00  0.00000000000E+00 -0.79612798909E+03  0.79612798911E+03  0.50400001928E-02 0.  1.
    10030    2    1    2    0    0  0.00000000000E+00  0.00000000000E+00  0.63316818846E+03  0.22254241667E+04  0.21334504369E+04 0.  0.
        5    1    3    3  502    0 -0.66202155531E+03 -0.16303302775E+03  0.11723340847E+04  0.13561864193E+04  0.46999998093E+01 0. -1.
       -5    1    3    3    0  502  0.66202155531E+03  0.16303302775E+03 -0.53916589620E+03  0.86923774737E+03  0.46999998093E+01 0.  1.
</event>
<event>
 5   0  0.1015876E-05  0.2187387E+04  0.7818609E-02  0.8523696E-01
        2   -1    0    0  501    0  0.00000000000E+00  0.00000000000E+00  0.27017057922E+04  0.27017057922E+04  0.25500000920E-02 0. -1.
       -2   -1    0    0    0  501  0.00000000000E+00  0.00000000000E+00 -0.44274471306E+03  0.44274471307E+03  0.25500000920E-02 0.  1.
    10030    2    1    2    0    0  0.00000000000E+00  0.00000000000E+00  0.22589610792E+04  0.31444505053E+04  0.21873874424E+04 0.  0.
        5    1    3    3  502    0 -0.81154241809E+03 -0.73227128607E+03  0.11817391736E+04  0.16097676532E+04  0.46999998093E+01 0. -1.
       -5    1    3    3    0  502  0.81154241809E+03  0.73227128607E+03  0.10772219055E+04  0.15346828521E+04  0.46999998093E+01 0.  1.
</event>
<event>
 5   0  0.4630615E-06  0.2201565E+04  0.7818609E-02  0.8517777E-01
        1   -1    0    0  501    0  0.00000000000E+00  0.00000000000E+00  0.13159339806E+04  0.13159339806E+04  0.50400001928E-02 0. -1.
       -1   -1    0    0    0  501  0.00000000000E+00  0.00000000000E+00 -0.92080771720E+03  0.92080771721E+03  0.50400001928E-02 0.  1.
    10030    2    1    2    0    0  0.00000000000E+00  0.00000000000E+00  0.39512626341E+03  0.22367416978E+04  0.22015650476E+04 0.  0.
        2    1    3    3  502    0 -0.38842102088E+03 -0.82874278998E+03  0.81892042369E+03  0.12281352376E+04  0.25500000920E-02 0. -1.
       -2    1    3    3    0  502  0.38842102088E+03  0.82874278998E+03 -0.42379416028E+03  0.10086064603E+04  0.25500000920E-02 0.  1.
</event>
<event>
 5   0  0.1015876E-05  0.2182476E+04  0.7818609E-02  0.8525757E-01
       -2   -1    0    0    0  501  0.00000000000E+00  0.00000000000E+00  0.61765688904E+03  0.61765688904E+03  0.25500000920E-02 0.  1.
        2   -1    0    0  501    0  0.00000000000E+00  0.00000000000E+00 -0.19279320699E+04  0.19279320699E+04  0.25500000920E-02 0. -1.
    10030    2    1    2    0    0  0.00000000000E+00  0.00000000000E+00 -0.13102751809E+04  0.25455889590E+04  0.21824761392E+04 0.  0.
        5    1    3    3  502    0  0.55211494162E+03  0.93741385524E+03 -0.55614808692E+03  0.12218422277E+04  0.46999998093E+01 0. -1.
       -5    1    3    3    0  502 -0.55211494162E+03 -0.93741385524E+03 -0.75412709396E+03  0.13237467313E+04  0.46999998093E+01 0.  1.
</event>
<event>
 5   0  0.4462201E-06  0.2219057E+04  0.7818609E-02  0.8510538E-01
        1   -1    0    0  501    0  0.00000000000E+00  0.00000000000E+00  0.80652673332E+03  0.80652673334E+03  0.50400001928E-02 0. -1.
       -1   -1    0    0    0  501  0.00000000000E+00  0.00000000000E+00 -0.15263635737E+04  0.15263635737E+04  0.50400001928E-02 0.  1.
    10030    2    1    2    0    0  0.00000000000E+00  0.00000000000E+00 -0.71983684036E+03  0.23328903070E+04  0.22190565806E+04 0.  0.
        3    1    3    3  502    0  0.51083097711E+03  0.86814122739E+03 -0.84901004914E+03  0.13173593100E+04  0.10100000352E+00 0.  1.
       -3    1    3    3    0  502 -0.51083097711E+03 -0.86814122739E+03  0.12917320879E+03  0.10155309970E+04  0.10100000352E+00 0. -1.
</event>
<event>
 5   0  0.4309945E-06  0.2207381E+04  0.7818609E-02  0.8515362E-01
        1   -1    0    0  501    0  0.00000000000E+00  0.00000000000E+00  0.12959702841E+04  0.12959702841E+04  0.50400001928E-02 0.  1.
       -1   -1    0    0    0  501  0.00000000000E+00  0.00000000000E+00 -0.93993885423E+03  0.93993885425E+03  0.50400001928E-02 0. -1.
    10030    2    1    2    0    0  0.00000000000E+00  0.00000000000E+00  0.35603142988E+03  0.22359091384E+04  0.22073810944E+04 0.  0.
        4    1    3    3  502    0 -0.15089087905E+03 -0.17359455924E+03 -0.91539242766E+03  0.94384746538E+03  0.12699999809E+01 0. -1.
       -4    1    3    3    0  502  0.15089087905E+03  0.17359455924E+03  0.12714238575E+04  0.12920616730E+04  0.12699999809E+01 0.  1.
</event>
<event>
 5   0  0.4462201E-06  0.2201902E+04  0.7818609E-02  0.8517637E-01
       -1   -1    0    0    0  501  0.00000000000E+00  0.00000000000E+00  0.90489229022E+03  0.90489229024E+03  0.50400001928E-02 0.  1.
        1   -1    0    0  501    0  0.00000000000E+00  0.00000000000E+00 -0.13394887393E+04  0.13394887393E+04  0.50400001928E-02 0. -1.
    10030    2    1    2    0    0  0.00000000000E+00  0.00000000000E+00 -0.43459644911E+03  0.22443810296E+04  0.22019019352E+04 0.  0.
        3    1    3    3  502    0  0.38515469072E+03 -0.10083350027E+04  0.37011340901E+01  0.10793967399E+04  0.10100000352E+00 0.  1.
       -3    1    3    3    0  502 -0.38515469072E+03  0.10083350027E+04 -0.43829758320E+03  0.11649842897E+04  0.10100000352E+00 0. -1.
</event>
<event>
 5   0  0.4462201E-06  0.2200724E+04  0.7818609E-02  0.8518127E-01
        1   -1    0    0  501    0  0.00000000000E+00  0.00000000000E+00  0.22646183439E+04  0.22646183439E+04  0.50400001928E-02 0.  1.
       -1   -1    0    0    0  501  0.00000000000E+00  0.00000000000E+00 -0.53465806514E+03  0.53465806516E+03  0.50400001928E-02 0. -1.
    10030    2    1    2    0    0  0.00000000000E+00  0.00000000000E+00  0.17299602788E+04  0.27992764091E+04  0.22007239373E+04 0.  0.
        3    1    3    3  502    0 -0.72086687583E+03 -0.26146560270E+03 -0.13882320776E+03  0.77928506163E+03  0.10100000352E+00 0.  1.
       -3    1    3    3    0  502  0.72086687583E+03  0.26146560270E+03  0.18687834866E+04  0.20199913475E+04  0.10100000352E+00 0. -1.
</event>
<event>
 5   0  0.9963573E-06  0.2202528E+04  0.7818609E-02  0.8517377E-01
        2   -1    0    0  501    0  0.00000000000E+00  0.00000000000E+00  0.27065514994E+04  0.27065514994E+04  0.25500000920E-02 0. -1.
       -2   -1    0    0    0  501  0.00000000000E+00  0.00000000000E+00 -0.44809118128E+03  0.44809118129E+03  0.25500000920E-02 0.  1.
    10030    2    1    2    0    0  0.00000000000E+00  0.00000000000E+00  0.22584603181E+04  0.31546426807E+04  0.22025275105E+04 0.  0.
        2    1    3    3  502    0  0.38592198819E+03  0.54142231188E+03  0.23866310241E+04  0.24775151959E+04  0.25500000920E-02 0. -1.
       -2    1    3    3    0  502 -0.38592198819E+03 -0.54142231188E+03 -0.12817070599E+03  0.67712748478E+03  0.25500000920E-02 0.  1.
</event>
<event>
 5   0  0.4794967E-06  0.2204617E+04  0.7818609E-02  0.8516509E-01
       -1   -1    0    0    0  501  0.00000000000E+00  0.00000000000E+00  0.74305261652E+03  0.74305261654E+03  0.50400001928E-02 0. -1.
        1   -1    0    0  501    0  0.00000000000E+00  0.00000000000E+00 -0.16352590399E+04  0.16352590399E+04  0.50400001928E-02 0.  1.
    10030    2    1    2    0    0  0.00000000000E+00  0.00000000000E+00 -0.89220642334E+03  0.23783116564E+04  0.22046165275E+04 0.  0.
        5    1    3    3  502    0 -0.64021880889E+03 -0.81237454810E+03 -0.34989262723E+02  0.10349294025E+04  0.46999998093E+01 0.  1.
       -5    1    3    3    0  502  0.64021880889E+03  0.81237454810E+03 -0.85721716061E+03  0.13433822539E+04  0.46999998093E+01 0. -1.
</event>
<event>
 5   0  0.4630615E-06  0.2204790E+04  0.7818609E-02  0.8516437E-01
        1   -1    0    0  501    0  0.00000000000E+00  0.00000000000E+00  0.95851634856E+03  0.95851634857E+03  0.50400001928E-02 0.  1.
       -1   -1    0    0    0  501  0.00000000000E+00  0.00000000000E+00 -0.12678706089E+04  0.12678706089E+04  0.50400001928E-02 0. -1.
    10030    2    1    2    0    0  0.00000000000E+00  0.00000000000E+00 -0.30935426035E+03  0.22263869575E+04  0.22047899732E+04 0.  0.
        2    1    3    3  502    0 -0.38717189428E+03 -0.31349856348E+03  0.83836382021E+03  0.97521142326E+03  0.25500000920E-02 0.  1.
       -2    1    3    3    0  502  0.38717189428E+03  0.31349856348E+03 -0.11477180806E+04  0.12511755342E+04  0.25500000920E-02 0. -1.
</event>
<event>
 5   0  0.4462201E-06  0.2202940E+04  0.7818609E-02  0.8517205E-01
       -1   -1    0    0    0  501  0.00000000000E+00  0.00000000000E+00  0.86722272841E+03  0.86722272842E+03  0.50400001928E-02 0. -1.
        1   -1    0    0  501    0  0.00000000000E+00  0.00000000000E+00 -0.13989908900E+04  0.13989908900E+04  0.50400001928E-02 0.  1.
    10030    2    1    2    0    0  0.00000000000E+00  0.00000000000E+00 -0.53176816156E+03  0.22662136184E+04  0.22029404864E+04 0.  0.
        3    1    3    3  502    0  0.10601735889E+04 -0.98006803151E+02  0.24469553444E+02  0.10649751834E+04  0.10100000352E+00 0.  1.
       -3    1    3    3    0  502 -0.10601735889E+04  0.98006803151E+02 -0.55623771501E+03  0.12012384350E+04  0.10100000352E+00 0. -1.
</event>
<event>
 5   0  0.1014015E-05  0.2197478E+04  0.7818609E-02  0.8519478E-01
       -2   -1    0    0    0  501  0.00000000000E+00  0.00000000000E+00  0.13458538037E+04  0.13458538037E+04  0.25500000920E-02 0.  1.
        2   -1    0    0  501    0  0.00000000000E+00  0.00000000000E+00 -0.89699766285E+03  0.89699766285E+03  0.25500000920E-02 0. -1.
    10030    2    1    2    0    0  0.00000000000E+00  0.00000000000E+00  0.44885614087E+03  0.22428514666E+04  0.21974782970E+04 0.  0.
        1    1    3    3  502    0 -0.88563490071E+03 -0.15353709947E+03  0.86938132337E+03  0.12504985821E+04  0.50400001928E-02 0.  1.
       -1    1    3    3    0  502  0.88563490071E+03  0.15353709947E+03 -0.42052518250E+03  0.99235288452E+03  0.50400001928E-02 0. -1.
</event>
<event>
 5   0  0.9963573E-06  0.2197280E+04  0.7818609E-02  0.8519561E-01
        2   -1    0    0  501    0  0.00000000000E+00  0.00000000000E+00  0.21102907362E+04  0.21102907362E+04  0.25500000920E-02 0. -1.
       -2   -1    0    0    0  501  0.00000000000E+00  0.00000000000E+00 -0.57196401405E+03  0.57196401406E+03  0.25500000920E-02 0.  1.
    10030    2    1    2    0    0  0.00000000000E+00  0.00000000000E+00  0.15383267221E+04  0.26822547502E+04  0.21972804648E+04 0.  0.
        2    1    3    3  502    0  0.37130739143E+03 -0.96551727968E+03  0.31746958093E+03  0.10820719621E+04  0.25500000920E-02 0.  1.
       -2    1    3    3    0  502 -0.37130739143E+03  0.96551727968E+03  0.12208571412E+04  0.16001827882E+04  0.25500000920E-02 0. -1.
</event>
<event>
 5   0  0.4462201E-06  0.2201386E+04  0.7818609E-02  0.8517851E-01
        1   -1    0    0  501    0  0.00000000000E+00  0.00000000000E+00  0.12515303383E+04  0.12515303383E+04  0.50400001928E-02 0.  1.
       -1   -1    0    0    0  501  0.00000000000E+00  0.00000000000E+00 -0.96803531671E+03  0.96803531672E+03  0.50400001928E-02 0. -1.
    10030    2    1    2    0    0  0.00000000000E+00  0.00000000000E+00  0.28349502155E+03  0.22195656550E+04  0.22013864426E+04 0.  0.
        3    1    3    3  502    0  0.61171694047E+03  0.87889924494E+03  0.39853494628E+03  0.11425811182E+04  0.10100000352E+00 0. -1.
       -3    1    3    3    0  502 -0.61171694047E+03 -0.87889924494E+03 -0.11503992473E+03  0.10769845368E+04  0.10100000352E+00 0.  1.
</event>
<event>
 5   0  0.1014015E-05  0.2199116E+04  0.7818609E-02  0.8518796E-01
       -2   -1    0    0    0  501  0.00000000000E+00  0.00000000000E+00  0.16061586620E+04  0.16061586620E+04  0.25500000920E-02 0. -1.
        2   -1    0    0  501    0  0.00000000000E+00  0.00000000000E+00 -0.75274494589E+03  0.75274494589E+03  0.25500000920E-02 0.  1.
    10030    2    1    2    0    0  0.00000000000E+00  0.00000000000E+00  0.85341371610E+03  0.23589036079E+04  0.21991160180E+04 0.  0.
        1    1    3    3  502    0  0.68157543072E+03 -0.81454321877E+03  0.73199516515E+03  0.12899002461E+04  0.50400001928E-02 0. -1.
       -1    1    3    3    0  502 -0.68157543072E+03  0.81454321877E+03  0.12141855095E+03  0.10690033618E+04  0.50400001928E-02 0.  1.
</event>
<event>
 5   0  0.4408787E-06  0.2199111E+04  0.7818609E-02  0.8518798E-01
        1   -1    0    0  501    0  0.00000000000E+00  0.00000000000E+00  0.15039043294E+04  0.15039043294E+04  0.50400001928E-02 0. -1.
       -1   -1    0    0    0  501  0.00000000000E+00  0.00000000000E+00 -0.80392256039E+03  0.80392256040E+03  0.50400001928E-02 0.  1.
    10030    2    1    2    0    0  0.00000000000E+00  0.00000000000E+00  0.69998176904E+03  0.23078268898E+04  0.21991112924E+04 0.  0.
        1    1    3    3  502    0  0.10434364883E+04  0.32193063242E+03  0.21468448935E+03  0.11128739674E+04  0.50400001928E-02 0. -1.
       -1    1    3    3    0  502 -0.10434364883E+04 -0.32193063242E+03  0.48529727970E+03  0.11949529225E+04  0.50400001928E-02 0.  1.
</event>
<event>
 5   0  0.4462201E-06  0.2200051E+04  0.7818609E-02  0.8518407E-01
        1   -1    0    0  501    0  0.00000000000E+00  0.00000000000E+00  0.45322588749E+03  0.45322588752E+03  0.50400001928E-02 0. -1.
       -1   -1    0    0    0  501  0.00000000000E+00  0.00000000000E+00 -0.26698734186E+04  0.26698734186E+04  0.50400001928E-02 0.  1.
    10030    2    1    2    0    0  0.00000000000E+00  0.00000000000E+00 -0.22166475311E+04  0.31230993061E+04  0.22000506809E+04 0.  0.
        3    1    3    3  502    0  0.97588985086E+03  0.37422928527E+03 -0.62141917385E+03  0.12159647852E+04  0.10100000352E+00 0. -1.
       -3    1    3    3    0  502 -0.97588985086E+03 -0.37422928527E+03 -0.15952283572E+04  0.19071345209E+04  0.10100000352E+00 0.  1.
</event>
<event>
 5   0  0.9963173E-06  0.2199160E+04  0.7818609E-02  0.8518778E-01
        2   -1    0    0  501    0  0.00000000000E+00  0.00000000000E+00  0.10100261233E+04  0.10100261233E+04  0.25500000920E-02 0.  1.
       -2   -1    0    0    0  501  0.00000000000E+00  0.00000000000E+00 -0.11970736609E+04  0.11970736609E+04  0.25500000920E-02 0. -1.
    10030    2    1    2    0    0  0.00000000000E+00  0.00000000000E+00 -0.18704753761E+03  0.22070997842E+04  0.21991595386E+04 0.  0.
        4    1    3    3  502    0 -0.22437773123E+03  0.10007329001E+04 -0.49151876854E+03  0.11372792165E+04  0.12699999809E+01 0. -1.
       -4    1    3    3    0  502  0.22437773123E+03 -0.10007329001E+04  0.30447123094E+03  0.10698205677E+04  0.12699999809E+01 0.  1.
</event>
<event>
 5   0  0.3546750E-06  0.2198540E+04  0.7818609E-02  0.8519036E-01
       -4   -1    0    0    0  501  0.00000000000E+00  0.00000000000E+00  0.96912259563E+03  0.96912342778E+03  0.12699999809E+01 0.  1.
        4   -1    0    0  501    0  0.00000000000E+00  0.00000000000E+00 -0.12468934209E+04  0.12468940676E+04  0.12699999809E+01 0. -1.
    10030    2    1    2    0    0  0.00000000000E+00  0.00000000000E+00 -0.27777082524E+03  0.22160174954E+04  0.21985397219E+04 0.  0.
        2    1    3    3  502    0  0.59071630480E+03  0.59172889952E+03 -0.85821512882E+03  0.11981744659E+04  0.25500000920E-02 0. -1.
       -2    1    3    3    0  502 -0.59071630480E+03 -0.59172889952E+03  0.58044430358E+03  0.10178430296E+04  0.25500000920E-02 0.  1.
</event>
<event>
 5   0  0.1014015E-05  0.2193013E+04  0.7818609E-02  0.8521342E-01
       -2   -1    0    0    0  501  0.00000000000E+00  0.00000000000E+00  0.65005873797E+03  0.65005873797E+03  0.25500000920E-02 0.  1.
        2   -1    0    0  501    0  0.00000000000E+00  0.00000000000E+00 -0.18495653820E+04  0.18495653820E+04  0.25500000920E-02 0. -1.
    10030    2    1    2    0    0  0.00000000000E+00  0.00000000000E+00 -0.11995066440E+04  0.24996241200E+04  0.21930126657E+04 0.  0.
        1    1    3    3  502    0  0.20566817392E+03 -0.57839931693E+03 -0.16353415376E+04  0.17467647559E+04  0.50400001928E-02 0. -1.
       -1    1    3    3    0  502 -0.20566817392E+03  0.57839931693E+03  0.43583489362E+03  0.75285936410E+03  0.50400001928E-02 0.  1.
</event>
<event>
 5   0  0.1015876E-05  0.2198222E+04  0.7818609E-02  0.8519169E-01
        2   -1    0    0  501    0  0.00000000000E+00  0.00000000000E+00  0.22551726448E+04  0.22551726448E+04  0.25500000920E-02 0. -1.
       -2   -1    0    0    0  501  0.00000000000E+00  0.00000000000E+00 -0.53567716329E+03  0.53567716329E+03  0.25500000920E-02 0.  1.
    10030    2    1    2    0    0  0.00000000000E+00  0.00000000000E+00  0.17194954815E+04  0.27908498081E+04  0.21982215403E+04 0.  0.
        5    1    3    3  502    0 -0.27715481477E+03 -0.10170191605E+04  0.12549152632E+04  0.16388951070E+04  0.46999998093E+01 0. -1.
       -5    1    3    3    0  502  0.27715481477E+03  0.10170191605E+04  0.46458021836E+03  0.11519547011E+04  0.46999998093E+01 0.  1.
</event>
<event>
 5   0  0.9963173E-06  0.2190083E+04  0.7818609E-02  0.8522567E-01
        2   -1    0    0  501    0  0.00000000000E+00  0.00000000000E+00  0.16267533739E+04  0.16267533739E+04  0.25500000920E-02 0. -1.
       -2   -1    0    0    0  501  0.00000000000E+00  0.00000000000E+00 -0.73712214972E+03  0.73712214973E+03  0.25500000920E-02 0.  1.
    10030    2    1    2    0    0  0.00000000000E+00  0.00000000000E+00  0.88963122414E+03  0.23638755236E+04  0.21900830523E+04 0.  0.
        4    1    3    3  502    0  0.64186061121E+03  0.39717501259E+03 -0.41147451295E+03  0.85967780160E+03  0.12699999809E+01 0.  1.
       -4    1    3    3    0  502 -0.64186061121E+03 -0.39717501259E+03  0.13011057371E+04  0.15041977220E+04  0.12699999809E+01 0. -1.
</event>
<event>
 5   0  0.4462201E-06  0.2192276E+04  0.7818609E-02  0.8521650E-01
       -1   -1    0    0    0  501  0.00000000000E+00  0.00000000000E+00  0.88167893637E+03  0.88167893638E+03  0.50400001928E-02 0. -1.
        1   -1    0    0  501    0  0.00000000000E+00  0.00000000000E+00 -0.13627613413E+04  0.13627613413E+04  0.50400001928E-02 0.  1.
    10030    2    1    2    0    0  0.00000000000E+00  0.00000000000E+00 -0.48108240497E+03  0.22444402777E+04  0.21922755027E+04 0.  0.
        3    1    3    3  502    0  0.50622673855E+03 -0.90372160382E+03 -0.60759657374E+03  0.12008962714E+04  0.10100000352E+00 0. -1.
       -3    1    3    3    0  502 -0.50622673855E+03  0.90372160382E+03  0.12651416877E+03  0.10435440063E+04  0.10100000352E+00 0.  1.
</event>
<event>
 5   0  0.4462201E-06  0.2202333E+04  0.7818609E-02  0.8517458E-01
        1   -1    0    0  501    0  0.00000000000E+00  0.00000000000E+00  0.87963833542E+03  0.87963833544E+03  0.50400001928E-02 0. -1.
       -1   -1    0    0    0  501  0.00000000000E+00  0.00000000000E+00 -0.13784840073E+04  0.13784840073E+04  0.50400001928E-02 0.  1.
    10030    2    1    2    0    0  0.00000000000E+00  0.00000000000E+00 -0.49884567184E+03  0.22581223427E+04  0.22023327429E+04 0.  0.
        3    1    3    3  502    0  0.10670332501E+04  0.26570285693E+03 -0.18955360654E+03  0.11158353574E+04  0.10100000352E+00 0. -1.
       -3    1    3    3    0  502 -0.10670332501E+04 -0.26570285693E+03 -0.30929206530E+03  0.11422869853E+04  0.10100000352E+00 0.  1.
</event>
<event>
 5   0  0.1035928E-05  0.2196942E+04  0.7818609E-02  0.8519702E-01
        2   -1    0    0  501    0  0.00000000000E+00  0.00000000000E+00  0.19994317406E+04  0.19994317406E+04  0.25500000920E-02 0. -1.
       -2   -1    0    0    0  501  0.00000000000E+00  0.00000000000E+00 -0.60349076004E+03  0.60349076004E+03  0.25500000920E-02 0.  1.
    10030    2    1    2    0    0  0.00000000000E+00  0.00000000000E+00  0.13959409806E+04  0.26029225006E+04  0.21969420391E+04 0.  0.
        3    1    3    3  502    0  0.82057998586E+03 -0.22940675949E+03 -0.12344227338E+03  0.86093959112E+03  0.10100000352E+00 0.  1.
       -3    1    3    3    0  502 -0.82057998586E+03  0.22940675949E+03  0.15193832539E+04  0.17419829095E+04  0.10100000352E+00 0. -1.
</event>
<event>
 5   0  0.9963173E-06  0.2201468E+04  0.7818609E-02  0.8517817E-01
       -2   -1    0    0    0  501  0.00000000000E+00  0.00000000000E+00  0.51073413146E+03  0.51073413147E+03  0.25500000920E-02 0.  1.
        2   -1    0    0  501    0  0.00000000000E+00  0.00000000000E+00 -0.23723015235E+04  0.23723015235E+04  0.25500000920E-02 0. -1.
    10030    2    1    2    0    0  0.00000000000E+00  0.00000000000E+00 -0.18615673920E+04  0.28830356549E+04  0.22014680176E+04 0.  0.
        4    1    3    3  502    0  0.54983355782E+03  0.80267627839E+03 -0.25661777662E+03  0.10062109348E+04  0.12699999809E+01 0.  1.
       -4    1    3    3    0  502 -0.54983355782E+03 -0.80267627839E+03 -0.16049496154E+04  0.18768247201E+04  0.12699999809E+01 0. -1.
</event>
<event>
 5   0  0.4630615E-06  0.2197321E+04  0.7818609E-02  0.8519544E-01
        1   -1    0    0  501    0  0.00000000000E+00  0.00000000000E+00  0.19147364196E+04  0.19147364196E+04  0.50400001928E-02 0.  1.
       -1   -1    0    0    0  501  0.00000000000E+00  0.00000000000E+00 -0.63040274266E+03  0.63040274268E+03  0.50400001928E-02 0. -1.
    10030    2    1    2    0    0  0.00000000000E+00  0.00000000000E+00  0.12843336769E+04  0.25451391623E+04  0.21973211786E+04 0.  0.
        2    1    3    3  502    0  0.30163066667E+03 -0.98004989936E+03  0.18530002941E+03  0.10420244552E+04  0.25500000920E-02 0. -1.
       -2    1    3    3    0  502 -0.30163066667E+03  0.98004989936E+03  0.10990336475E+04  0.15031147071E+04  0.25500000920E-02 0.  1.
</event>
<event>
 5   0  0.4408787E-06  0.2212155E+04  0.7818609E-02  0.8513386E-01
       -1   -1    0    0    0  501  0.00000000000E+00  0.00000000000E+00  0.62191930119E+03  0.62191930121E+03  0.50400001928E-02 0.  1.
        1   -1    0    0  501    0  0.00000000000E+00  0.00000000000E+00 -0.19671485261E+04  0.19671485261E+04  0.50400001928E-02 0. -1.
    10030    2    1    2    0    0  0.00000000000E+00  0.00000000000E+00 -0.13452292249E+04  0.25890678273E+04  0.22121551815E+04 0.  0.
        1    1    3    3  502    0  0.13260141574E+03 -0.17328119004E+03 -0.19417098708E+04  0.19539310962E+04  0.50400001928E-02 0. -1.
       -1    1    3    3    0  502 -0.13260141574E+03  0.17328119004E+03  0.59648064589E+03  0.63513673113E+03  0.50400001928E-02 0.  1.
</event>
<event>
 5   0  0.4630615E-06  0.2200373E+04  0.7818609E-02  0.8518273E-01
       -1   -1    0    0    0  501  0.00000000000E+00  0.00000000000E+00  0.13123555680E+04  0.13123555680E+04  0.50400001928E-02 0.  1.
        1   -1    0    0  501    0  0.00000000000E+00  0.00000000000E+00 -0.92231885799E+03  0.92231885800E+03  0.50400001928E-02 0. -1.
    10030    2    1    2    0    0  0.00000000000E+00  0.00000000000E+00  0.39003671004E+03  0.22346744260E+04  0.22003729582E+04 0.  0.
        2    1    3    3  502    0  0.65495294146E+02 -0.70719467797E+03  0.10483526215E+04  0.12662768912E+04  0.25500000920E-02 0.  1.
       -2    1    3    3    0  502 -0.65495294146E+02  0.70719467797E+03 -0.65831591151E+03  0.96839753483E+03  0.25500000920E-02 0. -1.
</event>
<event>
 5   0  0.9963173E-06  0.2194173E+04  0.7818609E-02  0.8520857E-01
        2   -1    0    0  501    0  0.00000000000E+00  0.00000000000E+00  0.83566698021E+03  0.83566698022E+03  0.25500000920E-02 0.  1.
       -2   -1    0    0    0  501  0.00000000000E+00  0.00000000000E+00 -0.14402848489E+04  0.14402848489E+04  0.25500000920E-02 0. -1.
    10030    2    1    2    0    0  0.00000000000E+00  0.00000000000E+00 -0.60461786868E+03  0.22759518291E+04  0.21941727282E+04 0.  0.
        4    1    3    3  502    0 -0.10969278195E+02 -0.90860659172E+03 -0.93996544428E+03  0.13073725226E+04  0.12699999809E+01 0.  1.
       -4    1    3    3    0  502  0.10969278195E+02  0.90860659172E+03  0.33534757561E+03  0.96857930648E+03  0.12699999809E+01 0. -1.
</event>
<event>
 5   0  0.9963173E-06  0.2202150E+04  0.7818609E-02  0.8517534E-01
        2   -1    0    0  501    0  0.00000000000E+00  0.00000000000E+00  0.11432080161E+04  0.11432080161E+04  0.25500000920E-02 0.  1.
       -2   -1    0    0    0  501  0.00000000000E+00  0.00000000000E+00 -0.10604944436E+04  0.10604944436E+04  0.25500000920E-02 0. -1.
    10030    2    1    2    0    0  0.00000000000E+00  0.00000000000E+00  0.82713572535E+02  0.22037024597E+04  0.22021496307E+04 0.  0.
        4    1    3    3  502    0 -0.33443098839E+01  0.48379377779E+02 -0.10594245050E+04  0.10605346026E+04  0.12699999809E+01 0. -1.
       -4    1    3    3    0  502  0.33443098839E+01 -0.48379377779E+02  0.11421380775E+04  0.11431678571E+04  0.12699999809E+01 0.  1.
</event>
<event>
 5   0  0.1015876E-05  0.2201505E+04  0.7818609E-02  0.8517802E-01
       -2   -1    0    0    0  501  0.00000000000E+00  0.00000000000E+00  0.15189595286E+04  0.15189595286E+04  0.25500000920E-02 0.  1.
        2   -1    0    0  501    0  0.00000000000E+00  0.00000000000E+00 -0.79768824869E+03  0.79768824870E+03  0.25500000920E-02 0. -1.
    10030    2    1    2    0    0  0.00000000000E+00  0.00000000000E+00  0.72127127995E+03  0.23166477773E+04  0.22015050908E+04 0.  0.
        5    1    3    3  502    0  0.64844375044E+03 -0.81677955482E+03 -0.99568158507E+01  0.10429426479E+04  0.46999998093E+01 0.  1.
       -5    1    3    3    0  502 -0.64844375044E+03  0.81677955482E+03  0.73122809580E+03  0.12737051294E+04  0.46999998093E+01 0. -1.
</event>
<event>
 5   0  0.4462201E-06  0.2198102E+04  0.7818609E-02  0.8519219E-01
       -1   -1    0    0    0  501  0.00000000000E+00  0.00000000000E+00  0.69782415728E+03  0.69782415729E+03  0.50400001928E-02 0.  1.
        1   -1    0    0  501    0  0.00000000000E+00  0.00000000000E+00 -0.17309700430E+04  0.17309700430E+04  0.50400001928E-02 0. -1.
    10030    2    1    2    0    0  0.00000000000E+00  0.00000000000E+00 -0.10331458857E+04  0.24287942003E+04  0.21981016460E+04 0.  0.
        3    1    3    3  502    0  0.41796283916E+03  0.98876857790E+03 -0.25613140510E+03  0.11036120434E+04  0.10100000352E+00 0. -1.
       -3    1    3    3    0  502 -0.41796283916E+03 -0.98876857790E+03 -0.77701448064E+03  0.13251821569E+04  0.10100000352E+00 0.  1.
</event>
<event>
 5   0  0.4630615E-06  0.2201688E+04  0.7818609E-02  0.8517726E-01
        1   -1    0    0  501    0  0.00000000000E+00  0.00000000000E+00  0.28002910332E+04  0.28002910332E+04  0.50400001928E-02 0. -1.
       -1   -1    0    0    0  501  0.00000000000E+00  0.00000000000E+00 -0.43276128556E+03  0.43276128559E+03  0.50400001928E-02 0.  1.
    10030    2    1    2    0    0  0.00000000000E+00  0.00000000000E+00  0.23675297477E+04  0.32330523188E+04  0.22016880320E+04 0.  0.
        2    1    3    3  502    0  0.46108365944E+03  0.99748553665E+03  0.12798554559E+04  0.16868922683E+04  0.25500000920E-02 0.  1.
       -2    1    3    3    0  502 -0.46108365944E+03 -0.99748553665E+03  0.10876742918E+04  0.15461600505E+04  0.25500000920E-02 0. -1.
</event>
<event>
 5   0  0.1014015E-05  0.2182317E+04  0.7818609E-02  0.8525824E-01
        2   -1    0    0  501    0  0.00000000000E+00  0.00000000000E+00  0.12331057021E+04  0.12331057021E+04  0.25500000920E-02 0. -1.
       -2   -1    0    0    0  501  0.00000000000E+00  0.00000000000E+00 -0.96555166691E+03  0.96555166691E+03  0.25500000920E-02 0.  1.
    10030    2    1    2    0    0  0.00000000000E+00  0.00000000000E+00  0.26755403519E+03  0.21986573690E+04  0.21823173611E+04 0.  0.
        1    1    3    3  502    0 -0.90160123791E+03 -0.18309940187E+03  0.72487007442E+03  0.11712586426E+04  0.50400001928E-02 0. -1.
       -1    1    3    3    0  502  0.90160123791E+03  0.18309940187E+03 -0.45731603923E+03  0.10273987264E+04  0.50400001928E-02 0.  1.
</event>
<event>
 5   0  0.4309945E-06  0.2199592E+04  0.7818609E-02  0.8518598E-01
        1   -1    0    0  501    0  0.00000000000E+00  0.00000000000E+00  0.69448613321E+03  0.69448613323E+03  0.50400001928E-02 0.  1.
       -1   -1    0    0    0  501  0.00000000000E+00  0.00000000000E+00 -0.17416497354E+04  0.17416497354E+04  0.50400001928E-02 0. -1.
    10030    2    1    2    0    0  0.00000000000E+00  0.00000000000E+00 -0.10471636022E+04  0.24361358686E+04  0.21995923169E+04 0.  0.
        4    1    3    3  502    0 -0.36742843886E+03  0.48906621269E+03  0.48868803415E+03  0.78294765195E+03  0.12699999809E+01 0.  1.
       -4    1    3    3    0  502  0.36742843886E+03 -0.48906621269E+03 -0.15358516363E+04  0.16531882167E+04  0.12699999809E+01 0. -1.
</event>
<event>
 5   0  0.9963173E-06  0.2198188E+04  0.7818609E-02  0.8519183E-01
       -2   -1    0    0    0  501  0.00000000000E+00  0.00000000000E+00  0.81171244574E+03  0.81171244574E+03  0.25500000920E-02 0.  1.
        2   -1    0    0  501    0  0.00000000000E+00  0.00000000000E+00 -0.14882206272E+04  0.14882206272E+04  0.25500000920E-02 0. -1.
    10030    2    1    2    0    0  0.00000000000E+00  0.00000000000E+00 -0.67650818150E+03  0.22999330730E+04  0.21981876218E+04 0.  0.
        4    1    3    3  502    0 -0.56301975372E+03 -0.56415883079E+03  0.45357030971E+03  0.91705728730E+03  0.12699999809E+01 0.  1.
       -4    1    3    3    0  502  0.56301975372E+03  0.56415883079E+03 -0.11300784912E+04  0.13828757857E+04  0.12699999809E+01 0. -1.
</event>
<event>
 5   0  0.3546750E-06  0.2186491E+04  0.7818609E-02  0.8524072E-01
        3   -1    0    0  501    0  0.00000000000E+00  0.00000000000E+00  0.14583790151E+04  0.14583790186E+04  0.10100000352E+00 0.  1.
       -3   -1    0    0    0  501  0.00000000000E+00  0.00000000000E+00 -0.81953054567E+03  0.81953055189E+03  0.10100000352E+00 0. -1.
    10030    2    1    2    0    0  0.00000000000E+00  0.00000000000E+00  0.63884846942E+03  0.22779095705E+04  0.21864914005E+04 0.  0.
        3    1    3    3  502    0  0.41199828066E+03 -0.65142674450E+03  0.11271376352E+04  0.13654811041E+04  0.10100000352E+00 0.  1.
       -3    1    3    3    0  502 -0.41199828066E+03  0.65142674450E+03 -0.48828916576E+03  0.91242846641E+03  0.10100000352E+00 0. -1.
</event>
<event>
 5   0  0.9963573E-06  0.2215818E+04  0.7818609E-02  0.8511873E-01
       -2   -1    0    0    0  501  0.00000000000E+00  0.00000000000E+00  0.73191966923E+03  0.73191966923E+03  0.25500000920E-02 0. -1.
        2   -1    0    0  501    0  0.00000000000E+00  0.00000000000E+00 -0.16770444733E+04  0.16770444733E+04  0.25500000920E-02 0.  1.
    10030    2    1    2    0    0  0.00000000000E+00  0.00000000000E+00 -0.94512480407E+03  0.24089641425E+04  0.22158175342E+04 0.  0.
        2    1    3    3  502    0 -0.27485356815E+03  0.31347305591E+02 -0.16388930360E+04  0.16620762680E+04  0.25500000920E-02 0.  1.
       -2    1    3    3    0  502  0.27485356815E+03 -0.31347305591E+02  0.69376823188E+03  0.74688787449E+03  0.25500000920E-02 0. -1.
</event>
<event>
 5   0  0.4309945E-06  0.2192069E+04  0.7818609E-02  0.8521736E-01
        1   -1    0    0  501    0  0.00000000000E+00  0.00000000000E+00  0.11182461223E+04  0.11182461223E+04  0.50400001928E-02 0. -1.
       -1   -1    0    0    0  501  0.00000000000E+00  0.00000000000E+00 -0.10742641643E+04  0.10742641644E+04  0.50400001928E-02 0.  1.
    10030    2    1    2    0    0  0.00000000000E+00  0.00000000000E+00  0.43981957951E+02  0.21925102867E+04  0.21920691012E+04 0.  0.
        4    1    3    3  502    0  0.22794237315E+03 -0.90986278894E+03  0.58909901265E+03  0.11076313826E+04  0.12699999809E+01 0. -1.
       -4    1    3    3    0  502 -0.22794237315E+03  0.90986278894E+03 -0.54511705470E+03  0.10848789040E+04  0.12699999809E+01 0.  1.
</event>
<event>
 5   0  0.9963173E-06  0.2198909E+04  0.7818609E-02  0.8518882E-01
        2   -1    0    0  501    0  0.00000000000E+00  0.00000000000E+00  0.13080057767E+04  0.13080057767E+04  0.25500000920E-02 0.  1.
       -2   -1    0    0    0  501  0.00000000000E+00  0.00000000000E+00 -0.92415549136E+03  0.92415549136E+03  0.25500000920E-02 0. -1.
    10030    2    1    2    0    0  0.00000000000E+00  0.00000000000E+00  0.38385028538E+03  0.22321612681E+04  0.21989094764E+04 0.  0.
        4    1    3    3  502    0 -0.26341424636E+03  0.20322666645E+01  0.12754972891E+04  0.13024155031E+04  0.12699999809E+01 0.  1.
       -4    1    3    3    0  502  0.26341424636E+03 -0.20322666645E+01 -0.89164700375E+03  0.92974576498E+03  0.12699999809E+01 0. -1.
</event>
<event>
 5   0  0.4462201E-06  0.2199041E+04  0.7818609E-02  0.8518827E-01
        1   -1    0    0  501    0  0.00000000000E+00  0.00000000000E+00  0.11013453331E+04  0.11013453331E+04  0.50400001928E-02 0. -1.
       -1   -1    0    0    0  501  0.00000000000E+00  0.00000000000E+00 -0.10976988831E+04  0.10976988832E+04  0.50400001928E-02 0.  1.
    10030    2    1    2    0    0  0.00000000000E+00  0.00000000000E+00  0.36464499750E+01  0.21990442163E+04  0.21990411930E+04 0.  0.
        3    1    3    3  502    0 -0.46813705266E+03 -0.12259081194E+03 -0.98547987181E+03  0.10978849645E+04  0.10100000352E+00 0.  1.
       -3    1    3    3    0  502  0.46813705266E+03  0.12259081194E+03  0.98912632179E+03  0.11011592518E+04  0.10100000352E+00 0. -1.
</event>
<event>
 5   0  0.1015876E-05  0.2222024E+04  0.7818609E-02  0.8509317E-01
        2   -1    0    0  501    0  0.00000000000E+00  0.00000000000E+00  0.13001178936E+04  0.13001178936E+04  0.25500000920E-02 0.  1.
       -2   -1    0    0    0  501  0.00000000000E+00  0.00000000000E+00 -0.94941248559E+03  0.94941248560E+03  0.25500000920E-02 0. -1.
    10030    2    1    2    0    0  0.00000000000E+00  0.00000000000E+00  0.35070540802E+03  0.22495303792E+04  0.22220244472E+04 0.  0.
        5    1    3    3  502    0 -0.49648715875E+03 -0.15160717367E+03 -0.81907014173E+03  0.96973306687E+03  0.46999998093E+01 0. -1.
       -5    1    3    3    0  502  0.49648715875E+03  0.15160717367E+03  0.11697755497E+04  0.12797973123E+04  0.46999998093E+01 0.  1.
</event>
<event>
 5   0  0.1015876E-05  0.2195865E+04  0.7818609E-02  0.8520151E-01
        2   -1    0    0  501    0  0.00000000000E+00  0.00000000000E+00  0.18111863640E+04  0.18111863640E+04  0.25500000920E-02 0.  1.
       -2   -1    0    0    0  501  0.00000000000E+00  0.00000000000E+00 -0.66556129521E+03  0.66556129521E+03  0.25500000920E-02 0. -1.
    10030    2    1    2    0    0  0.00000000000E+00  0.00000000000E+00  0.11456250688E+04  0.24767476592E+04  0.21958647885E+04 0.  0.
        5    1    3    3  502    0  0.84699348281E+03 -0.66298129381E+03  0.82118763967E+03  0.13532602800E+04  0.46999998093E+01 0.  1.
       -5    1    3    3    0  502 -0.84699348281E+03  0.66298129381E+03  0.32443742914E+03  0.11234873792E+04  0.46999998093E+01 0. -1.
</event>
<event>
 5   0  0.1014015E-05  0.2205203E+04  0.7818609E-02  0.8516265E-01
        2   -1    0    0  501    0  0.00000000000E+00  0.00000000000E+00  0.21486447613E+04  0.21486447613E+04  0.25500000920E-02 0.  1.
       -2   -1    0    0    0  501  0.00000000000E+00  0.00000000000E+00 -0.56581274789E+03  0.56581274790E+03  0.25500000920E-02 0. -1.
    10030    2    1    2    0    0  0.00000000000E+00  0.00000000000E+00  0.15828320134E+04  0.27144575092E+04  0.22052034796E+04 0.  0.
        1    1    3    3  502    0  0.90898094116E+03  0.42360183291E+03  0.22727027092E+03  0.10282687588E+04  0.50400001928E-02 0. -1.
       -1    1    3    3    0  502 -0.90898094116E+03 -0.42360183291E+03  0.13555617424E+04  0.16861887504E+04  0.50400001928E-02 0.  1.
</event>
<event>
 5   0  0.4309945E-06  0.2199941E+04  0.7818609E-02  0.8518453E-01
       -1   -1    0    0    0  501  0.00000000000E+00  0.00000000000E+00  0.74988161325E+03  0.74988161327E+03  0.50400001928E-02 0.  1.
        1   -1    0    0  501    0  0.00000000000E+00  0.00000000000E+00 -0.16135013472E+04  0.16135013472E+04  0.50400001928E-02 0. -1.
    10030    2    1    2    0    0  0.00000000000E+00  0.00000000000E+00 -0.86361973399E+03  0.23633829605E+04  0.21999409022E+04 0.  0.
        4    1    3    3  502    0 -0.84304699400E+03  0.54757616465E+03 -0.91148596474E+03  0.13569731637E+04  0.12699999809E+01 0. -1.
       -4    1    3    3    0  502  0.84304699400E+03 -0.54757616465E+03  0.47866230753E+02  0.10064097968E+04  0.12699999809E+01 0.  1.
</event>
<event>
 5   0  0.4462201E-06  0.2154018E+04  0.7818609E-02  0.8537814E-01
        1   -1    0    0  501    0  0.00000000000E+00  0.00000000000E+00  0.10162080575E+04  0.10162080575E+04  0.50400001928E-02 0. -1.
       -1   -1    0    0    0  501  0.00000000000E+00  0.00000000000E+00 -0.11414478633E+04  0.11414478633E+04  0.50400001928E-02 0.  1.
    10030    2    1    2    0    0  0.00000000000E+00  0.00000000000E+00 -0.12523980579E+03  0.21576559208E+04  0.21540181205E+04 0.  0.
        3    1    3    3  502    0 -0.49661340633E+03  0.67654264163E+03 -0.73875147634E+03  0.11180736001E+04  0.10100000352E+00 0.  1.
       -3    1    3    3    0  502  0.49661340633E+03 -0.67654264163E+03  0.61351167055E+03  0.10395823206E+04  0.10100000352E+00 0. -1.
</event>
<event>
 5   0  0.4408787E-06  0.2201278E+04  0.7818609E-02  0.8517897E-01
       -1   -1    0    0    0  501  0.00000000000E+00  0.00000000000E+00  0.94636922779E+03  0.94636922780E+03  0.50400001928E-02 0. -1.
        1   -1    0    0  501    0  0.00000000000E+00  0.00000000000E+00 -0.12800561208E+04  0.12800561208E+04  0.50400001928E-02 0.  1.
    10030    2    1    2    0    0  0.00000000000E+00  0.00000000000E+00 -0.33368689300E+03  0.22264253486E+04  0.22012775587E+04 0.  0.
        1    1    3    3  502    0  0.12403164667E+03  0.93232472135E+03 -0.74503183230E+03  0.11998690206E+04  0.50400001928E-02 0.  1.
       -1    1    3    3    0  502 -0.12403164667E+03 -0.93232472135E+03  0.41134493931E+03  0.10265563280E+04  0.50400001928E-02 0. -1.
</event>
<event>
 5   0  0.9963173E-06  0.2198723E+04  0.7818609E-02  0.8518960E-01
       -2   -1    0    0    0  501  0.00000000000E+00  0.00000000000E+00  0.49389122526E+03  0.49389122527E+03  0.25500000920E-02 0.  1.
        2   -1    0    0  501    0  0.00000000000E+00  0.00000000000E+00 -0.24470881160E+04  0.24470881160E+04  0.25500000920E-02 0. -1.
    10030    2    1    2    0    0  0.00000000000E+00  0.00000000000E+00 -0.19531968907E+04  0.29409793413E+04  0.21987226728E+04 0.  0.
        4    1    3    3  502    0  0.54233148826E+03  0.20608687710E+03  0.27245029498E+03  0.64095711261E+03  0.12699999809E+01 0.  1.
       -4    1    3    3    0  502 -0.54233148826E+03 -0.20608687710E+03 -0.22256471857E+04  0.23000222286E+04  0.12699999809E+01 0. -1.
</event>
<event>
 5   0  0.4794967E-06  0.2199716E+04  0.7818609E-02  0.8518547E-01
        1   -1    0    0  501    0  0.00000000000E+00  0.00000000000E+00  0.23379571349E+04  0.23379571349E+04  0.50400001928E-02 0.  1.
       -1   -1    0    0    0  501  0.00000000000E+00  0.00000000000E+00 -0.51741201777E+03  0.51741201780E+03  0.50400001928E-02 0. -1.
    10030    2    1    2    0    0  0.00000000000E+00  0.00000000000E+00  0.18205451172E+04  0.28553691527E+04  0.21997155441E+04 0.  0.
        5    1    3    3  502    0  0.10933989581E+03  0.45189378279E+03  0.22041110713E+04  0.22526186779E+04  0.46999998093E+01 0.  1.
       -5    1    3    3    0  502 -0.10933989581E+03 -0.45189378279E+03 -0.38356595409E+03  0.60275047481E+03  0.46999998093E+01 0. -1.
</event>
<event>
 5   0  0.4309945E-06  0.2192383E+04  0.7818609E-02  0.8521605E-01
       -1   -1    0    0    0  501  0.00000000000E+00  0.00000000000E+00  0.73939880251E+03  0.73939880253E+03  0.50400001928E-02 0. -1.
        1   -1    0    0  501    0  0.00000000000E+00  0.00000000000E+00 -0.16251519334E+04  0.16251519334E+04  0.50400001928E-02 0.  1.
    10030    2    1    2    0    0  0.00000000000E+00  0.00000000000E+00 -0.88575313088E+03  0.23645507359E+04  0.21923826249E+04 0.  0.
        4    1    3    3  502    0 -0.50786190261E+03 -0.66648958779E+01  0.60483408411E+03  0.78980631496E+03  0.12699999809E+01 0. -1.
       -4    1    3    3    0  502  0.50786190261E+03  0.66648958779E+01 -0.14905872150E+04  0.15747444210E+04  0.12699999809E+01 0.  1.
</event>
<event>
 5   0  0.4630615E-06  0.2193424E+04  0.7818609E-02  0.8521170E-01
       -1   -1    0    0    0  501  0.00000000000E+00  0.00000000000E+00  0.71984801936E+03  0.71984801938E+03  0.50400001928E-02 0. -1.
        1   -1    0    0  501    0  0.00000000000E+00  0.00000000000E+00 -0.16708773496E+04  0.16708773496E+04  0.50400001928E-02 0.  1.
    10030    2    1    2    0    0  0.00000000000E+00  0.00000000000E+00 -0.95102933023E+03  0.23907253690E+04  0.21934244922E+04 0.  0.
        2    1    3    3  502    0 -0.31561110960E+03 -0.94350891320E+03 -0.97849881095E+03  0.13954495207E+04  0.25500000920E-02 0. -1.
       -2    1    3    3    0  502  0.31561110960E+03  0.94350891320E+03  0.27469480725E+02  0.99527584828E+03  0.25500000920E-02 0.  1.
</event>
<event>
 5   0  0.1035928E-05  0.2200900E+04  0.7818609E-02  0.8518054E-01
       -2   -1    0    0    0  501  0.00000000000E+00  0.00000000000E+00  0.72564909543E+03  0.72564909543E+03  0.25500000920E-02 0.  1.
        2   -1    0    0  501    0  0.00000000000E+00  0.00000000000E+00 -0.16688373851E+04  0.16688373851E+04  0.25500000920E-02 0. -1.
    10030    2    1    2    0    0  0.00000000000E+00  0.00000000000E+00 -0.94318828963E+03  0.23944864805E+04  0.22009001239E+04 0.  0.
        3    1    3    3  502    0  0.83348067082E+03 -0.68351469044E+03 -0.71268905204E+03  0.12922105307E+04  0.10100000352E+00 0.  1.
       -3    1    3    3    0  502 -0.83348067082E+03  0.68351469044E+03 -0.23049923759E+03  0.11022759497E+04  0.10100000352E+00 0. -1.
</event>
<event>
 5   0  0.9963173E-06  0.2198716E+04  0.7818609E-02  0.8518963E-01
       -2   -1    0    0    0  501  0.00000000000E+00  0.00000000000E+00  0.97662466457E+03  0.97662466457E+03  0.25500000920E-02 0. -1.
        2   -1    0    0  501    0  0.00000000000E+00  0.00000000000E+00 -0.12375152868E+04  0.12375152868E+04  0.25500000920E-02 0.  1.
    10030    2    1    2    0    0  0.00000000000E+00  0.00000000000E+00 -0.26089062224E+03  0.22141399514E+04  0.21987159452E+04 0.  0.
        4    1    3    3  502    0 -0.66140876462E+03  0.64222551326E+02  0.75148383369E+03  0.10031528573E+04  0.12699999809E+01 0. -1.
       -4    1    3    3    0  502  0.66140876462E+03 -0.64222551326E+02 -0.10123744559E+04  0.12109870940E+04  0.12699999809E+01 0.  1.
</event>
<event>
 5   0  0.1014015E-05  0.2201822E+04  0.7818609E-02  0.8517670E-01
       -2   -1    0    0    0  501  0.00000000000E+00  0.00000000000E+00  0.10213757672E+04  0.10213757672E+04  0.25500000920E-02 0.  1.
        2   -1    0    0  501    0  0.00000000000E+00  0.00000000000E+00 -0.11866396803E+04  0.11866396803E+04  0.25500000920E-02 0. -1.
    10030    2    1    2    0    0  0.00000000000E+00  0.00000000000E+00 -0.16526391303E+03  0.22080154475E+04  0.22018219854E+04 0.  0.
        1    1    3    3  502    0 -0.67039255704E+03 -0.87115316824E+03 -0.14339108679E+03  0.11085553784E+04  0.50400001928E-02 0. -1.
       -1    1    3    3    0  502  0.67039255704E+03  0.87115316824E+03 -0.21872826238E+02  0.10994600691E+04  0.50400001928E-02 0.  1.
</event>
<event>
 5   0  0.1035928E-05  0.2184420E+04  0.7818609E-02  0.8524941E-01
       -2   -1    0    0    0  501  0.00000000000E+00  0.00000000000E+00  0.11179667844E+04  0.11179667844E+04  0.25500000920E-02 0.  1.
        2   -1    0    0  501    0  0.00000000000E+00  0.00000000000E+00 -0.10670464476E+04  0.10670464476E+04  0.25500000920E-02 0. -1.
    10030    2    1    2    0    0  0.00000000000E+00  0.00000000000E+00  0.50920336766E+02  0.21850132321E+04  0.21844198185E+04 0.  0.
        3    1    3    3  502    0 -0.49516267809E+03 -0.61738706668E+03 -0.72745249265E+03  0.10749604677E+04  0.10100000352E+00 0.  1.
       -3    1    3    3    0  502  0.49516267809E+03  0.61738706668E+03  0.77837282941E+03  0.11100527643E+04  0.10100000352E+00 0. -1.
</event>
<event>
 5   0  0.4794967E-06  0.2199675E+04  0.7818609E-02  0.8518564E-01
       -1   -1    0    0    0  501  0.00000000000E+00  0.00000000000E+00  0.12028622228E+04  0.12028622228E+04  0.50400001928E-02 0. -1.
        1   -1    0    0  501    0  0.00000000000E+00  0.00000000000E+00 -0.10056363776E+04  0.10056363777E+04  0.50400001928E-02 0.  1.
    10030    2    1    2    0    0  0.00000000000E+00  0.00000000000E+00  0.19722584511E+03  0.22084986004E+04  0.21996745291E+04 0.  0.
        5    1    3    3  502    0 -0.40145162638E+03  0.48627049957E+03  0.10033367983E+04  0.11850439772E+04  0.46999998093E+01 0. -1.
       -5    1    3    3    0  502  0.40145162638E+03 -0.48627049957E+03 -0.80611095315E+03  0.10234546233E+04  0.46999998093E+01 0.  1.
</event>
<event>
 5   0  0.4309945E-06  0.2203146E+04  0.7818609E-02  0.8517120E-01
       -1   -1    0    0    0  501  0.00000000000E+00  0.00000000000E+00  0.11092285299E+04  0.11092285299E+04  0.50400001928E-02 0. -1.
        1   -1    0    0  501    0  0.00000000000E+00  0.00000000000E+00 -0.10939705283E+04  0.10939705283E+04  0.50400001928E-02 0.  1.
    10030    2    1    2    0    0  0.00000000000E+00  0.00000000000E+00  0.15258001596E+02  0.22031990582E+04  0.22031462238E+04 0.  0.
        4    1    3    3  502    0 -0.44356030901E+03  0.71783280671E+03  0.71576463197E+03  0.11065036409E+04  0.12699999809E+01 0. -1.
       -4    1    3    3    0  502  0.44356030901E+03 -0.71783280671E+03 -0.70050663037E+03  0.10966954172E+04  0.12699999809E+01 0.  1.
</event>
<event>
 5   0  0.4794967E-06  0.2196432E+04  0.7818609E-02  0.8519914E-01
       -1   -1    0    0    0  501  0.00000000000E+00  0.00000000000E+00  0.12640674934E+04  0.12640674935E+04  0.50400001928E-02 0.  1.
        1   -1    0    0  501    0  0.00000000000E+00  0.00000000000E+00 -0.95412540150E+03  0.95412540151E+03  0.50400001928E-02 0. -1.
    10030    2    1    2    0    0  0.00000000000E+00  0.00000000000E+00  0.30994209194E+03  0.22181928950E+04  0.21964324754E+04 0.  0.
        5    1    3    3  502    0 -0.15727747231E+03 -0.88025002210E+03 -0.48890358940E+03  0.10191295867E+04  0.46999998093E+01 0. -1.
       -5    1    3    3    0  502  0.15727747231E+03  0.88025002210E+03  0.79884568134E+03  0.11990633083E+04  0.46999998093E+01 0.  1.
</event>
<event>
 5   0  0.4408787E-06  0.2197247E+04  0.7818609E-02  0.8519575E-01
        1   -1    0    0  501    0  0.00000000000E+00  0.00000000000E+00  0.83217614224E+03  0.83217614226E+03  0.50400001928E-02 0.  1.
       -1   -1    0    0    0  501  0.00000000000E+00  0.00000000000E+00 -0.14503828005E+04  0.14503828005E+04  0.50400001928E-02 0. -1.
    10030    2    1    2    0    0  0.00000000000E+00  0.00000000000E+00 -0.61820665821E+03  0.22825589427E+04  0.21972473358E+04 0.  0.
        1    1    3    3  502    0  0.20324218081E+03 -0.40734097640E+03 -0.13477948088E+04  0.14225979410E+04  0.50400001928E-02 0. -1.
       -1    1    3    3    0  502 -0.20324218081E+03  0.40734097640E+03  0.72958815054E+03  0.85996100176E+03  0.50400001928E-02 0.  1.
</event>
<event>
 5   0  0.9963173E-06  0.2201060E+04  0.7818609E-02  0.8517987E-01
       -2   -1    0    0    0  501  0.00000000000E+00  0.00000000000E+00  0.10801069880E+04  0.10801069880E+04  0.25500000920E-02 0.  1.
        2   -1    0    0  501    0  0.00000000000E+00  0.00000000000E+00 -0.11213391320E+04  0.11213391320E+04  0.25500000920E-02 0. -1.
    10030    2    1    2    0    0  0.00000000000E+00  0.00000000000E+00 -0.41232143916E+02  0.22014461200E+04  0.22010599559E+04 0.  0.
        4    1    3    3  502    0  0.78163224783E+03  0.37268591965E+03 -0.69994128175E+03  0.11134465305E+04  0.12699999809E+01 0. -1.
       -4    1    3    3    0  502 -0.78163224783E+03 -0.37268591965E+03  0.65870913783E+03  0.10879995895E+04  0.12699999809E+01 0.  1.
</event>
<event>
 5   0  0.1014015E-05  0.2200294E+04  0.7818609E-02  0.8518306E-01
       -2   -1    0    0    0  501  0.00000000000E+00  0.00000000000E+00  0.57688551641E+03  0.57688551641E+03  0.25500000920E-02 0.  1.
        2   -1    0    0  501    0  0.00000000000E+00  0.00000000000E+00 -0.20980298887E+04  0.20980298887E+04  0.25500000920E-02 0. -1.
    10030    2    1    2    0    0  0.00000000000E+00  0.00000000000E+00 -0.15211443723E+04  0.26749154051E+04  0.22002936675E+04 0.  0.
        1    1    3    3  502    0  0.91319100134E+02  0.79657950942E+03 -0.16763524414E+04  0.18582345387E+04  0.50400001928E-02 0. -1.
       -1    1    3    3    0  502 -0.91319100134E+02 -0.79657950942E+03  0.15520806911E+03  0.81668086645E+03  0.50400001928E-02 0.  1.
</event>
<event>
 5   0  0.9963573E-06  0.2221420E+04  0.7818609E-02  0.8509565E-01
        2   -1    0    0  501    0  0.00000000000E+00  0.00000000000E+00  0.10054572286E+04  0.10054572286E+04  0.25500000920E-02 0.  1.
       -2   -1    0    0    0  501  0.00000000000E+00  0.00000000000E+00 -0.12269813177E+04  0.12269813177E+04  0.25500000920E-02 0. -1.
    10030    2    1    2    0    0  0.00000000000E+00  0.00000000000E+00 -0.22152408910E+03  0.22324385464E+04  0.22214204782E+04 0.  0.
        2    1    3    3  502    0 -0.20213083250E+03 -0.10548647874E+04 -0.39515086170E+03  0.11444390751E+04  0.25500000920E-02 0.  1.
       -2    1    3    3    0  502  0.20213083250E+03  0.10548647874E+04  0.17362677260E+03  0.10879994712E+04  0.25500000920E-02 0. -1.
</event>
<event>
 5   0  0.4462201E-06  0.2202799E+04  0.7818609E-02  0.8517264E-01
        1   -1    0    0  501    0  0.00000000000E+00  0.00000000000E+00  0.16032289027E+04  0.16032289027E+04  0.50400001928E-02 0.  1.
       -1   -1    0    0    0  501  0.00000000000E+00  0.00000000000E+00 -0.75664890187E+03  0.75664890188E+03  0.50400001928E-02 0. -1.
    10030    2    1    2    0    0  0.00000000000E+00  0.00000000000E+00  0.84658000079E+03  0.23598778045E+04  0.22027994813E+04 0.  0.
        3    1    3    3  502    0  0.79622697352E+03 -0.72926550788E+03  0.65622460526E+03  0.12635016095E+04  0.10100000352E+00 0.  1.
       -3    1    3    3    0  502 -0.79622697352E+03  0.72926550788E+03  0.19035539552E+03  0.10963761951E+04  0.10100000352E+00 0. -1.
</event>
<event>
 5   0  0.1035928E-05  0.2188226E+04  0.7818609E-02  0.8523345E-01
        2   -1    0    0  501    0  0.00000000000E+00  0.00000000000E+00  0.25605032478E+04  0.25605032478E+04  0.25500000920E-02 0.  1.
       -2   -1    0    0    0  501  0.00000000000E+00  0.00000000000E+00 -0.46751879879E+03  0.46751879880E+03  0.25500000920E-02 0. -1.
    10030    2    1    2    0    0  0.00000000000E+00  0.00000000000E+00  0.20929844490E+04  0.30280220466E+04  0.21882261334E+04 0.  0.
        3    1    3    3  502    0  0.94940358354E+03 -0.12843863982E+03  0.31528597485E+03  0.10085974939E+04  0.10100000352E+00 0. -1.
       -3    1    3    3    0  502 -0.94940358354E+03  0.12843863982E+03  0.17776984741E+04  0.20194245526E+04  0.10100000352E+00 0.  1.
</event>
<event>
 5   0  0.1015876E-05  0.2201122E+04  0.7818609E-02  0.8517961E-01
        2   -1    0    0  501    0  0.00000000000E+00  0.00000000000E+00  0.19809773862E+04  0.19809773862E+04  0.25500000920E-02 0.  1.
       -2   -1    0    0    0  501  0.00000000000E+00  0.00000000000E+00 -0.61143288430E+03  0.61143288431E+03  0.25500000920E-02 0. -1.
    10030    2    1    2    0    0  0.00000000000E+00  0.00000000000E+00  0.13695445019E+04  0.25924102705E+04  0.22011221838E+04 0.  0.
        5    1    3    3  502    0  0.55346940776E+03  0.54295238371E+03  0.16047036670E+04  0.17821957315E+04  0.46999998093E+01 0.  1.
       -5    1    3    3    0  502 -0.55346940776E+03 -0.54295238371E+03 -0.23515916514E+03  0.81021453903E+03  0.46999998093E+01 0. -1.
</event>
<event>
 5   0  0.1014015E-05  0.2204506E+04  0.7818609E-02  0.8516555E-01
        2   -1    0    0  501    0  0.00000000000E+00  0.00000000000E+00  0.12937940430E+04  0.12937940430E+04  0.25500000920E-02 0. -1.
       -2   -1    0    0    0  501  0.00000000000E+00  0.00000000000E+00 -0.93906906983E+03  0.93906906983E+03  0.25500000920E-02 0.  1.
    10030    2    1    2    0    0  0.00000000000E+00  0.00000000000E+00  0.35472497318E+03  0.22328631128E+04  0.22045062654E+04 0.  0.
        1    1    3    3  502    0  0.59528727767E+03  0.80203741772E+03  0.64954685638E+03  0.11914453748E+04  0.50400001928E-02 0. -1.
       -1    1    3    3    0  502 -0.59528727767E+03 -0.80203741772E+03 -0.29482188319E+03  0.10414177381E+04  0.50400001928E-02 0.  1.
</event>
<event>
 5   0  0.4462201E-06  0.2227466E+04  0.7818609E-02  0.8507082E-01
       -1   -1    0    0    0  501  0.00000000000E+00  0.00000000000E+00  0.72299453035E+03  0.72299453036E+03  0.50400001928E-02 0. -1.
        1   -1    0    0  501    0  0.00000000000E+00  0.00000000000E+00 -0.17156435629E+04  0.17156435629E+04  0.50400001928E-02 0.  1.
    10030    2    1    2    0    0  0.00000000000E+00  0.00000000000E+00 -0.99264903256E+03  0.24386380933E+04  0.22274657457E+04 0.  0.
        3    1    3    3  502    0 -0.86646040591E+02 -0.56848821758E+03 -0.15405369995E+04  0.16443663360E+04  0.10100000352E+00 0.  1.
       -3    1    3    3    0  502  0.86646040591E+02  0.56848821758E+03  0.54788796696E+03  0.79427175728E+03  0.10100000352E+00 0. -1.
</event>
<event>
 5   0  0.4309945E-06  0.2200580E+04  0.7818609E-02  0.8518187E-01
        1   -1    0    0  501    0  0.00000000000E+00  0.00000000000E+00  0.12809274896E+04  0.12809274896E+04  0.50400001928E-02 0. -1.
       -1   -1    0    0    0  501  0.00000000000E+00  0.00000000000E+00 -0.94512597284E+03  0.94512597285E+03  0.50400001928E-02 0.  1.
    10030    2    1    2    0    0  0.00000000000E+00  0.00000000000E+00  0.33580151675E+03  0.22260534624E+04  0.22005797779E+04 0.  0.
        4    1    3    3  502    0 -0.10967987824E+04 -0.84534032189E+02  0.14477446241E+03  0.11095381154E+04  0.12699999809E+01 0.  1.
       -4    1    3    3    0  502  0.10967987824E+04  0.84534032189E+02  0.19102705434E+03  0.11165153470E+04  0.12699999809E+01 0. -1.
</event>
<event>
 5   0  0.4462201E-06  0.2144388E+04  0.7818609E-02  0.8541938E-01
        1   -1    0    0  501    0  0.00000000000E+00  0.00000000000E+00  0.87654205913E+03  0.87654205914E+03  0.50400001928E-02 0. -1.
       -1   -1    0    0    0  501  0.00000000000E+00  0.00000000000E+00 -0.13115171418E+04  0.13115171418E+04  0.50400001928E-02 0.  1.
    10030    2    1    2    0    0  0.00000000000E+00  0.00000000000E+00 -0.43497508267E+03  0.21880592009E+04  0.21443879650E+04 0.  0.
        3    1    3    3  502    0 -0.16380171570E+03  0.53070419057E+03  0.71831711032E+03  0.90799637727E+03  0.10100000352E+00 0. -1.
       -3    1    3    3    0  502  0.16380171570E+03 -0.53070419057E+03 -0.11532921930E+04  0.12800628237E+04  0.10100000352E+00 0.  1.
</event>
<event>
 5   0  0.9963173E-06  0.2193743E+04  0.7818609E-02  0.8521037E-01
        2   -1    0    0  501    0  0.00000000000E+00  0.00000000000E+00  0.12242075764E+04  0.12242075764E+04  0.25500000920E-02 0.  1.
       -2   -1    0    0    0  501  0.00000000000E+00  0.00000000000E+00 -0.98278010704E+03  0.98278010704E+03  0.25500000920E-02 0. -1.
    10030    2    1    2    0    0  0.00000000000E+00  0.00000000000E+00  0.24142746939E+03  0.22069876835E+04  0.21937427862E+04 0.  0.
        4    1    3    3  502    0 -0.13175753324E+02  0.21699725834E+03  0.12023158814E+04  0.12218127935E+04  0.12699999809E+01 0.  1.
       -4    1    3    3    0  502  0.13175753324E+02 -0.21699725834E+03 -0.96088841205E+03  0.98517489001E+03  0.12699999809E+01 0. -1.
</event>
<event>
 5   0  0.1015876E-05  0.2199288E+04  0.7818609E-02  0.8518724E-01
        2   -1    0    0  501    0  0.00000000000E+00  0.00000000000E+00  0.11107001051E+04  0.11107001051E+04  0.25500000920E-02 0. -1.
       -2   -1    0    0    0  501  0.00000000000E+00  0.00000000000E+00 -0.10886980248E+04  0.10886980248E+04  0.25500000920E-02 0.  1.
    10030    2    1    2    0    0  0.00000000000E+00  0.00000000000E+00  0.22002080255E+02  0.21993981299E+04  0.21992880763E+04 0.  0.
        5    1    3    3  502    0  0.63067441415E+03  0.55288000461E+01 -0.88982932438E+03  0.10906874441E+04  0.46999998093E+01 0.  1.
       -5    1    3    3    0  502 -0.63067441415E+03 -0.55288000461E+01  0.91183140463E+03  0.11087106858E+04  0.46999998093E+01 0. -1.
</event>
<event>
 5   0  0.9963573E-06  0.2199694E+04  0.7818609E-02  0.8518556E-01
       -2   -1    0    0    0  501  0.00000000000E+00  0.00000000000E+00  0.70210710483E+03  0.70210710483E+03  0.25500000920E-02 0. -1.
        2   -1    0    0  501    0  0.00000000000E+00  0.00000000000E+00 -0.17229036991E+04  0.17229036991E+04  0.25500000920E-02 0.  1.
    10030    2    1    2    0    0  0.00000000000E+00  0.00000000000E+00 -0.10207965943E+04  0.24250108040E+04  0.21996935497E+04 0.  0.
        2    1    3    3  502    0  0.15726330165E+03  0.61874474412E+03  0.47693094075E+03  0.79689392435E+03  0.25500000920E-02 0. -1.
       -2    1    3    3    0  502 -0.15726330165E+03 -0.61874474412E+03 -0.14977275351E+04  0.16281168796E+04  0.25500000920E-02 0.  1.
</event>
<event>
 5   0  0.1035928E-05  0.2193048E+04  0.7818609E-02  0.8521327E-01
        2   -1    0    0  501    0  0.00000000000E+00  0.00000000000E+00  0.21031739189E+04  0.21031739189E+04  0.25500000920E-02 0.  1.
       -2   -1    0    0    0  501  0.00000000000E+00  0.00000000000E+00 -0.57169091756E+03  0.57169091756E+03  0.25500000920E-02 0. -1.
    10030    2    1    2    0    0  0.00000000000E+00  0.00000000000E+00  0.15314830014E+04  0.26748648365E+04  0.21930484970E+04 0.  0.
        3    1    3    3  502    0 -0.60681864551E+03 -0.24159148128E+03  0.18400280191E+04  0.19525108024E+04  0.10100000352E+00 0.  1.
       -3    1    3    3    0  502  0.60681864551E+03  0.24159148128E+03 -0.30854501772E+03  0.72235403406E+03  0.10100000352E+00 0. -1.
</event>
<event>
 5   0  0.9963573E-06  0.2198951E+04  0.7818609E-02  0.8518865E-01
       -2   -1    0    0    0  501  0.00000000000E+00  0.00000000000E+00  0.11769628616E+04  0.11769628616E+04  0.25500000920E-02 0. -1.
        2   -1    0    0  501    0  0.00000000000E+00  0.00000000000E+00 -0.10270893524E+04  0.10270893524E+04  0.25500000920E-02 0.  1.
    10030    2    1    2    0    0  0.00000000000E+00  0.00000000000E+00  0.14987350915E+03  0.22040522140E+04  0.21989506801E+04 0.  0.
        2    1    3    3  502    0 -0.37890822517E+03  0.16607509282E+03  0.10959725510E+04  0.11714555955E+04  0.25500000920E-02 0. -1.
       -2    1    3    3    0  502  0.37890822517E+03 -0.16607509282E+03 -0.94609904189E+03  0.10325966185E+04  0.25500000920E-02 0.  1.
</event>
<event>
 5   0  0.1035928E-05  0.2224430E+04  0.7818609E-02  0.8508328E-01
       -2   -1    0    0    0  501  0.00000000000E+00  0.00000000000E+00  0.15185942376E+04  0.15185942376E+04  0.25500000920E-02 0. -1.
        2   -1    0    0  501    0  0.00000000000E+00  0.00000000000E+00 -0.81458352031E+03  0.81458352032E+03  0.25500000920E-02 0.  1.
    10030    2    1    2    0    0  0.00000000000E+00  0.00000000000E+00  0.70401071728E+03  0.23331777579E+04  0.22244296707E+04 0.  0.
        3    1    3    3  502    0 -0.64091203790E+03 -0.48742725053E+03 -0.45275108024E+03  0.92376247799E+03  0.10100000352E+00 0.  1.
       -3    1    3    3    0  502  0.64091203790E+03  0.48742725053E+03  0.11567617975E+04  0.14094152799E+04  0.10100000352E+00 0. -1.
</event>
<event>
 5   0  0.1035928E-05  0.2197238E+04  0.7818609E-02  0.8519579E-01
       -2   -1    0    0    0  501  0.00000000000E+00  0.00000000000E+00  0.70208001751E+03  0.70208001751E+03  0.25500000920E-02 0. -1.
        2   -1    0    0  501    0  0.00000000000E+00  0.00000000000E+00 -0.17191249426E+04  0.17191249426E+04  0.25500000920E-02 0.  1.
    10030    2    1    2    0    0  0.00000000000E+00  0.00000000000E+00 -0.10170449251E+04  0.24212049601E+04  0.21972376019E+04 0.  0.
        3    1    3    3  502    0  0.21869599210E+03 -0.62465564573E+03 -0.14747979038E+04  0.16164935756E+04  0.10100000352E+00 0.  1.
       -3    1    3    3    0  502 -0.21869599210E+03  0.62465564573E+03  0.45775297868E+03  0.80471138453E+03  0.10100000352E+00 0. -1.
</event>
<event>
 5   0  0.9963173E-06  0.2201790E+04  0.7818609E-02  0.8517684E-01
        2   -1    0    0  501    0  0.00000000000E+00  0.00000000000E+00  0.28499122998E+04  0.28499122998E+04  0.25500000920E-02 0.  1.
       -2   -1    0    0    0  501  0.00000000000E+00  0.00000000000E+00 -0.42526548773E+03  0.42526548774E+03  0.25500000920E-02 0. -1.
    10030    2    1    2    0    0  0.00000000000E+00  0.00000000000E+00  0.24246468121E+04  0.32751777876E+04  0.22017895850E+04 0.  0.
        4    1    3    3  502    0  0.80022843386E+03  0.11787356503E+02  0.87839568470E+02  0.80512228315E+03  0.12699999809E+01 0. -1.
       -4    1    3    3    0  502 -0.80022843386E+03 -0.11787356503E+02  0.23368072436E+04  0.24700555044E+04  0.12699999809E+01 0.  1.
</event>
<event>
 5   0  0.4462201E-06  0.2202598E+04  0.7818609E-02  0.8517348E-01
        1   -1    0    0  501    0  0.00000000000E+00  0.00000000000E+00  0.81289840619E+03  0.81289840621E+03  0.50400001928E-02 0.  1.
       -1   -1    0    0    0  501  0.00000000000E+00  0.00000000000E+00 -0.14920186895E+04  0.14920186895E+04  0.50400001928E-02 0. -1.
    10030    2    1    2    0    0  0.00000000000E+00  0.00000000000E+00 -0.67912028326E+03  0.23049170957E+04  0.22025981156E+04 0.  0.
        3    1    3    3  502    0  0.28773579932E+03 -0.95331748363E+03 -0.83178677683E+03  0.12974880990E+04  0.10100000352E+00 0. -1.
       -3    1    3    3    0  502 -0.28773579932E+03  0.95331748363E+03  0.15266649357E+03  0.10074289966E+04  0.10100000352E+00 0.  1.
</event>
<event>
 5   0  0.4630615E-06  0.2201237E+04  0.7818609E-02  0.8517914E-01
        1   -1    0    0  501    0  0.00000000000E+00  0.00000000000E+00  0.87266581842E+03  0.87266581844E+03  0.50400001928E-02 0. -1.
       -1   -1    0    0    0  501  0.00000000000E+00  0.00000000000E+00 -0.13881150541E+04  0.13881150541E+04  0.50400001928E-02 0.  1.
    10030    2    1    2    0    0  0.00000000000E+00  0.00000000000E+00 -0.51544923563E+03  0.22607808725E+04  0.22012365250E+04 0.  0.
        2    1    3    3  502    0 -0.75886624592E+03  0.54087131585E+02 -0.10745733675E+04  0.13166287704E+04  0.25500000920E-02 0.  1.
       -2    1    3    3    0  502  0.75886624592E+03 -0.54087131585E+02  0.55912413186E+03  0.94415210207E+03  0.25500000920E-02 0. -1.
</event>
<event>
 5   0  0.4630615E-06  0.2216663E+04  0.7818609E-02  0.8511525E-01
       -1   -1    0    0    0  501  0.00000000000E+00  0.00000000000E+00  0.19479248908E+04  0.19479248908E+04  0.50400001928E-02 0. -1.
        1   -1    0    0  501    0  0.00000000000E+00  0.00000000000E+00 -0.63061890113E+03  0.63061890115E+03  0.50400001928E-02 0.  1.
    10030    2    1    2    0    0  0.00000000000E+00  0.00000000000E+00  0.13173059897E+04  0.25785437920E+04  0.22166625852E+04 0.  0.
        2    1    3    3  502    0 -0.72920133869E+03  0.68720803025E+03  0.12097078685E+04  0.15707904368E+04  0.25500000920E-02 0. -1.
       -2    1    3    3    0  502  0.72920133869E+03 -0.68720803025E+03  0.10759812119E+03  0.10077533552E+04  0.25500000920E-02 0.  1.
</event>
<event>
 5   0  0.4462201E-06  0.2209314E+04  0.7818609E-02  0.8514561E-01
       -1   -1    0    0    0  501  0.00000000000E+00  0.00000000000E+00  0.13982603296E+04  0.13982603296E+04  0.50400001928E-02 0. -1.
        1   -1    0    0  501    0  0.00000000000E+00  0.00000000000E+00 -0.87270405156E+03  0.87270405157E+03  0.50400001928E-02 0.  1.
    10030    2    1    2    0    0  0.00000000000E+00  0.00000000000E+00  0.52555627803E+03  0.22709643812E+04  0.22093143324E+04 0.  0.
        3    1    3    3  502    0 -0.36039051845E+03  0.51683541089E+03 -0.66988162108E+03  0.91964208484E+03  0.10100000352E+00 0.  1.
       -3    1    3    3    0  502  0.36039051845E+03 -0.51683541089E+03  0.11954378991E+04  0.13513222963E+04  0.10100000352E+00 0. -1.
</event>
<event>
 5   0  0.1014015E-05  0.2199109E+04  0.7818609E-02  0.8518799E-01
       -2   -1    0    0    0  501  0.00000000000E+00  0.00000000000E+00  0.94100441941E+03  0.94100441942E+03  0.25500000920E-02 0.  1.
        2   -1    0    0  501    0  0.00000000000E+00  0.00000000000E+00 -0.12848189553E+04  0.12848189553E+04  0.25500000920E-02 0. -1.
    10030    2    1    2    0    0  0.00000000000E+00  0.00000000000E+00 -0.34381453592E+03  0.22258233748E+04  0.21991091970E+04 0.  0.
        1    1    3    3  502    0 -0.33170374325E+03 -0.98090292382E+03  0.20248123151E+03  0.10550813089E+04  0.50400001928E-02 0. -1.
       -1    1    3    3    0  502  0.33170374325E+03  0.98090292382E+03 -0.54629576744E+03  0.11707420659E+04  0.50400001928E-02 0.  1.
</event>
<event>
 5   0  0.4462201E-06  0.2199687E+04  0.7818609E-02  0.8518559E-01
       -1   -1    0    0    0  501  0.00000000000E+00  0.00000000000E+00  0.84819048086E+03  0.84819048087E+03  0.50400001928E-02 0. -1.
        1   -1    0    0  501    0  0.00000000000E+00  0.00000000000E+00 -0.14261600756E+04  0.14261600756E+04  0.50400001928E-02 0.  1.
    10030    2    1    2    0    0  0.00000000000E+00  0.00000000000E+00 -0.57796959478E+03  0.22743505565E+04  0.21996867053E+04 0.  0.
        3    1    3    3  502    0  0.81568249844E+03  0.57380771219E+03 -0.76847372011E+03  0.12590254555E+04  0.10100000352E+00 0.  1.
       -3    1    3    3    0  502 -0.81568249844E+03 -0.57380771219E+03  0.19050412534E+03  0.10153251010E+04  0.10100000352E+00 0. -1.
</event>
<event>
 5   0  0.1035928E-05  0.2190858E+04  0.7818609E-02  0.8522243E-01
        2   -1    0    0  501    0  0.00000000000E+00  0.00000000000E+00  0.13415667704E+04  0.13415667704E+04  0.25500000920E-02 0.  1.
       -2   -1    0    0    0  501  0.00000000000E+00  0.00000000000E+00 -0.89445033234E+03  0.89445033234E+03  0.25500000920E-02 0. -1.
    10030    2    1    2    0    0  0.00000000000E+00  0.00000000000E+00  0.44711643808E+03  0.22360171028E+04  0.21908581366E+04 0.  0.
        3    1    3    3  502    0  0.25132900940E+03  0.13941514524E+03  0.13024001285E+04  0.13337349656E+04  0.10100000352E+00 0.  1.
       -3    1    3    3    0  502 -0.25132900940E+03 -0.13941514524E+03 -0.85528369041E+03  0.90228213712E+03  0.10100000352E+00 0. -1.
</event>
<event>
 5   0  0.4408787E-06  0.2218418E+04  0.7818609E-02  0.8510801E-01
       -1   -1    0    0    0  501  0.00000000000E+00  0.00000000000E+00  0.72225062305E+03  0.72225062307E+03  0.50400001928E-02 0. -1.
        1   -1    0    0  501    0  0.00000000000E+00  0.00000000000E+00 -0.17034876992E+04  0.17034876992E+04  0.50400001928E-02 0.  1.
    10030    2    1    2    0    0  0.00000000000E+00  0.00000000000E+00 -0.98123707616E+03  0.24257383223E+04  0.22184184025E+04 0.  0.
        1    1    3    3  502    0 -0.25715911737E+03 -0.48629075182E+03  0.56258567650E+03  0.78683680035E+03  0.50400001928E-02 0. -1.
       -1    1    3    3    0  502  0.25715911737E+03  0.48629075182E+03 -0.15438227527E+04  0.16389015219E+04  0.50400001928E-02 0.  1.
</event>
<event>
 5   0  0.9963173E-06  0.2200167E+04  0.7818609E-02  0.8518358E-01
        2   -1    0    0  501    0  0.00000000000E+00  0.00000000000E+00  0.13179927323E+04  0.13179927323E+04  0.25500000920E-02 0.  1.
       -2   -1    0    0    0  501  0.00000000000E+00  0.00000000000E+00 -0.91820247162E+03  0.91820247163E+03  0.25500000920E-02 0. -1.
    10030    2    1    2    0    0  0.00000000000E+00  0.00000000000E+00  0.39979026067E+03  0.22361952039E+04  0.22001674340E+04 0.  0.
        4    1    3    3  502    0  0.10634590443E+04  0.22844199894E+03  0.36706236048E+03  0.11479840047E+04  0.12699999809E+01 0.  1.
       -4    1    3    3    0  502 -0.10634590443E+04 -0.22844199894E+03  0.32727900193E+02  0.10882111992E+04  0.12699999809E+01 0. -1.
</event>
<event>
 5   0  0.9963173E-06  0.2190691E+04  0.7818609E-02  0.8522313E-01
       -2   -1    0    0    0  501  0.00000000000E+00  0.00000000000E+00  0.17668965773E+04  0.17668965773E+04  0.25500000920E-02 0. -1.
        2   -1    0    0  501    0  0.00000000000E+00  0.00000000000E+00 -0.67903332949E+03  0.67903332949E+03  0.25500000920E-02 0.  1.
    10030    2    1    2    0    0  0.00000000000E+00  0.00000000000E+00  0.10878632478E+04  0.24459299068E+04  0.21906909100E+04 0.  0.
        4    1    3    3  502    0 -0.23078870346E+03 -0.61454452817E+03 -0.43507172287E+03  0.78753883694E+03  0.12699999809E+01 0.  1.
       -4    1    3    3    0  502  0.23078870346E+03  0.61454452817E+03  0.15229349707E+04  0.16583910698E+04  0.12699999809E+01 0. -1.
</event>
<event>
 5   0  0.4794967E-06  0.2202784E+04  0.7818609E-02  0.8517270E-01
       -1   -1    0    0    0  501  0.00000000000E+00  0.00000000000E+00  0.72221469223E+03  0.72221469225E+03  0.50400001928E-02 0.  1.
        1   -1    0    0  501    0  0.00000000000E+00  0.00000000000E+00 -0.16796455211E+04  0.16796455211E+04  0.50400001928E-02 0. -1.
    10030    2    1    2    0    0  0.00000000000E+00  0.00000000000E+00 -0.95743082891E+03  0.24018602134E+04  0.22027843046E+04 0.  0.
        5    1    3    3  502    0  0.46214096828E+03 -0.52277444425E+03 -0.14078881502E+04  0.15713174496E+04  0.46999998093E+01 0. -1.
       -5    1    3    3    0  502 -0.46214096828E+03  0.52277444425E+03  0.45045732128E+03  0.83054276375E+03  0.46999998093E+01 0.  1.
</event>
<event>
 5   0  0.4462201E-06  0.2197753E+04  0.7818609E-02  0.8519364E-01
        1   -1    0    0  501    0  0.00000000000E+00  0.00000000000E+00  0.19162141503E+04  0.19162141503E+04  0.50400001928E-02 0.  1.
       -1   -1    0    0    0  501  0.00000000000E+00  0.00000000000E+00 -0.63016423168E+03  0.63016423170E+03  0.50400001928E-02 0. -1.
    10030    2    1    2    0    0  0.00000000000E+00  0.00000000000E+00  0.12860499186E+04  0.25463783820E+04  0.21977530505E+04 0.  0.
        3    1    3    3  502    0  0.40838722296E+03  0.40524915262E+03  0.17277648420E+04  0.18210377149E+04  0.10100000352E+00 0.  1.
       -3    1    3    3    0  502 -0.40838722296E+03 -0.40524915262E+03 -0.44171492341E+03  0.72534066709E+03  0.10100000352E+00 0. -1.
</event>
<event>
 5   0  0.4630615E-06  0.2204820E+04  0.7818609E-02  0.8516425E-01
       -1   -1    0    0    0  501  0.00000000000E+00  0.00000000000E+00  0.11368050346E+04  0.11368050346E+04  0.50400001928E-02 0. -1.
        1   -1    0    0  501    0  0.00000000000E+00  0.00000000000E+00 -0.10690555686E+04  0.10690555686E+04  0.50400001928E-02 0.  1.
    10030    2    1    2    0    0  0.00000000000E+00  0.00000000000E+00  0.67749466060E+02  0.22058606032E+04  0.22048199497E+04 0.  0.
        2    1    3    3  502    0 -0.10882066257E+04  0.51565518513E+01  0.21027443620E+03  0.11083481352E+04  0.25500000920E-02 0.  1.
       -2    1    3    3    0  502  0.10882066257E+04 -0.51565518513E+01 -0.14252497014E+03  0.10975124680E+04  0.25500000920E-02 0. -1.
</event>
<event>
 5   0  0.9963173E-06  0.2201825E+04  0.7818609E-02  0.8517669E-01
        2   -1    0    0  501    0  0.00000000000E+00  0.00000000000E+00  0.17829888989E+04  0.17829888989E+04  0.25500000920E-02 0. -1.
       -2   -1    0    0    0  501  0.00000000000E+00  0.00000000000E+00 -0.67976208096E+03  0.67976208097E+03  0.25500000920E-02 0.  1.
    10030    2    1    2    0    0  0.00000000000E+00  0.00000000000E+00  0.11032268179E+04  0.24627509798E+04  0.22018249197E+04 0.  0.
        4    1    3    3  502    0  0.73934994244E+03  0.31147381862E+03 -0.29161756241E+03  0.85363733088E+03  0.12699999809E+01 0.  1.
       -4    1    3    3    0  502 -0.73934994244E+03 -0.31147381862E+03  0.13948443803E+04  0.16091136490E+04  0.12699999809E+01 0. -1.
</event>
<event>
 5   0  0.4462201E-06  0.2200427E+04  0.7818609E-02  0.8518250E-01
       -1   -1    0    0    0  501  0.00000000000E+00  0.00000000000E+00  0.19463503950E+04  0.19463503950E+04  0.50400001928E-02 0. -1.
        1   -1    0    0  501    0  0.00000000000E+00  0.00000000000E+00 -0.62191771334E+03  0.62191771336E+03  0.50400001928E-02 0.  1.
    10030    2    1    2    0    0  0.00000000000E+00  0.00000000000E+00  0.13244326816E+04  0.25682681083E+04  0.22004270377E+04 0.  0.
        3    1    3    3  502    0  0.75605826712E+02  0.28561474450E+03  0.18991819710E+04  0.19220260645E+04  0.10100000352E+00 0. -1.
       -3    1    3    3    0  502 -0.75605826712E+02 -0.28561474450E+03 -0.57474928942E+03  0.64624204382E+03  0.10100000352E+00 0.  1.
</event>
<event>
 5   0  0.9963573E-06  0.2199391E+04  0.7818609E-02  0.8518681E-01
       -2   -1    0    0    0  501  0.00000000000E+00  0.00000000000E+00  0.69516409049E+03  0.69516409050E+03  0.25500000920E-02 0. -1.
        2   -1    0    0  501    0  0.00000000000E+00  0.00000000000E+00 -0.17396334226E+04  0.17396334226E+04  0.25500000920E-02 0.  1.
    10030    2    1    2    0    0  0.00000000000E+00  0.00000000000E+00 -0.10444693321E+04  0.24347975131E+04  0.21993914486E+04 0.  0.
        2    1    3    3  502    0 -0.54339228063E+03  0.94558719537E+03 -0.36598862137E+03  0.11503729768E+04  0.25500000920E-02 0. -1.
       -2    1    3    3    0  502  0.54339228063E+03 -0.94558719537E+03 -0.67848071073E+03  0.12844245363E+04  0.25500000920E-02 0.  1.
</event>
<event>
 5   0  0.9963173E-06  0.2201293E+04  0.7818609E-02  0.8517890E-01
        2   -1    0    0  501    0  0.00000000000E+00  0.00000000000E+00  0.14532108985E+04  0.14532108985E+04  0.25500000920E-02 0. -1.
       -2   -1    0    0    0  501  0.00000000000E+00  0.00000000000E+00 -0.83361827772E+03  0.83361827772E+03  0.25500000920E-02 0.  1.
    10030    2    1    2    0    0  0.00000000000E+00  0.00000000000E+00  0.61959262082E+03  0.22868291763E+04  0.22012934074E+04 0.  0.
        4    1    3    3  502    0 -0.74900103513E+02  0.10385970956E+04 -0.60607731711E+02  0.10430574589E+04  0.12699999809E+01 0.  1.
       -4    1    3    3    0  502  0.74900103513E+02 -0.10385970956E+04  0.68020035253E+03  0.12437717174E+04  0.12699999809E+01 0. -1.
</event>
<event>
 5   0  0.4794967E-06  0.2201583E+04  0.7818609E-02  0.8517769E-01
        1   -1    0    0  501    0  0.00000000000E+00  0.00000000000E+00  0.17599412457E+04  0.17599412457E+04  0.50400001928E-02 0. -1.
       -1   -1    0    0    0  501  0.00000000000E+00  0.00000000000E+00 -0.68851296898E+03  0.68851296900E+03  0.50400001928E-02 0.  1.
    10030    2    1    2    0    0  0.00000000000E+00  0.00000000000E+00  0.10714282767E+04  0.24484542147E+04  0.22015834050E+04 0.  0.
        5    1    3    3  502    0  0.96553470607E+03  0.41917980450E+03  0.89393727202E+03  0.13809833140E+04  0.46999998093E+01 0.  1.
       -5    1    3    3    0  502 -0.96553470607E+03 -0.41917980450E+03  0.17749100466E+03  0.10674709007E+04  0.46999998093E+01 0. -1.
</event>
<event>
 5   0  0.4630615E-06  0.2199079E+04  0.7818609E-02  0.8518811E-01
        1   -1    0    0  501    0  0.00000000000E+00  0.00000000000E+00  0.18119954276E+04  0.18119954276E+04  0.50400001928E-02 0.  1.
       -1   -1    0    0    0  501  0.00000000000E+00  0.00000000000E+00 -0.66721329811E+03  0.66721329813E+03  0.50400001928E-02 0. -1.
    10030    2    1    2    0    0  0.00000000000E+00  0.00000000000E+00  0.11447821295E+04  0.24792087258E+04  0.21990793032E+04 0.  0.
        2    1    3    3  502    0  0.31048141014E+03  0.20745937674E+03  0.17383214322E+04  0.17779762373E+04  0.25500000920E-02 0.  1.
       -2    1    3    3    0  502 -0.31048141014E+03 -0.20745937674E+03 -0.59353930264E+03  0.70123248843E+03  0.25500000920E-02 0. -1.
</event>
<event>
 5   0  0.9963573E-06  0.2195606E+04  0.7818609E-02  0.8520259E-01
       -2   -1    0    0    0  501  0.00000000000E+00  0.00000000000E+00  0.76175785515E+03  0.76175785516E+03  0.25500000920E-02 0.  1.
        2   -1    0    0  501    0  0.00000000000E+00  0.00000000000E+00 -0.15820930936E+04  0.15820930936E+04  0.25500000920E-02 0. -1.
    10030    2    1    2    0    0  0.00000000000E+00  0.00000000000E+00 -0.82033523847E+03  0.23438509488E+04  0.21956063779E+04 0.  0.
        2    1    3    3  502    0  0.10709377069E+03 -0.60477155811E+03 -0.13815241059E+04  0.15118950256E+04  0.25500000920E-02 0. -1.
       -2    1    3    3    0  502 -0.10709377069E+03  0.60477155811E+03  0.56118886742E+03  0.83195592320E+03  0.25500000920E-02 0.  1.
</event>
<event>
 5   0  0.1035928E-05  0.2199776E+04  0.7818609E-02  0.8518521E-01
        2   -1    0    0  501    0  0.00000000000E+00  0.00000000000E+00  0.13537387297E+04  0.13537387297E+04  0.25500000920E-02 0.  1.
       -2   -1    0    0    0  501  0.00000000000E+00  0.00000000000E+00 -0.89363869914E+03  0.89363869914E+03  0.25500000920E-02 0. -1.
    10030    2    1    2    0    0  0.00000000000E+00  0.00000000000E+00  0.46010003060E+03  0.22473774289E+04  0.21997757317E+04 0.  0.
        3    1    3    3  502    0 -0.85504173400E+03 -0.29961764055E+03 -0.40705185466E+03  0.99325642207E+03  0.10100000352E+00 0. -1.
       -3    1    3    3    0  502  0.85504173400E+03  0.29961764055E+03  0.86715188525E+03  0.12541210068E+04  0.10100000352E+00 0.  1.
</event>
<event>
 5   0  0.1015876E-05  0.2201388E+04  0.7818609E-02  0.8517851E-01
        2   -1    0    0  501    0  0.00000000000E+00  0.00000000000E+00  0.16475218010E+04  0.16475218010E+04  0.25500000920E-02 0.  1.
       -2   -1    0    0    0  501  0.00000000000E+00  0.00000000000E+00 -0.73536356150E+03  0.73536356150E+03  0.25500000920E-02 0. -1.
    10030    2    1    2    0    0  0.00000000000E+00  0.00000000000E+00  0.91215823953E+03  0.23828853625E+04  0.22013881977E+04 0.  0.
        5    1    3    3  502    0  0.92927602140E+03  0.58097626574E+03  0.34559495793E+03  0.11491498206E+04  0.46999998093E+01 0.  1.
       -5    1    3    3    0  502 -0.92927602140E+03 -0.58097626574E+03  0.56656328160E+03  0.12337355419E+04  0.46999998093E+01 0. -1.
</event>
<event>
 5   0  0.4630615E-06  0.2220838E+04  0.7818609E-02  0.8509805E-01
        1   -1    0    0  501    0  0.00000000000E+00  0.00000000000E+00  0.16418131387E+04  0.16418131387E+04  0.50400001928E-02 0.  1.
       -1   -1    0    0    0  501  0.00000000000E+00  0.00000000000E+00 -0.75101720946E+03  0.75101720948E+03  0.50400001928E-02 0. -1.
    10030    2    1    2    0    0  0.00000000000E+00  0.00000000000E+00  0.89079592921E+03  0.23928303482E+04  0.22208376095E+04 0.  0.
        2    1    3    3  502    0  0.33341169397E+02 -0.64787567489E+03 -0.52560380118E+03  0.83493345813E+03  0.25500000920E-02 0. -1.
       -2    1    3    3    0  502 -0.33341169397E+02  0.64787567489E+03  0.14163997304E+04  0.15578968900E+04  0.25500000920E-02 0.  1.
</event>
<event>
 5   0  0.9963573E-06  0.2197496E+04  0.7818609E-02  0.8519471E-01
       -2   -1    0    0    0  501  0.00000000000E+00  0.00000000000E+00  0.44212500554E+03  0.44212500555E+03  0.25500000920E-02 0.  1.
        2   -1    0    0  501    0  0.00000000000E+00  0.00000000000E+00 -0.27305551593E+04  0.27305551593E+04  0.25500000920E-02 0. -1.
    10030    2    1    2    0    0  0.00000000000E+00  0.00000000000E+00 -0.22884301538E+04  0.31726801649E+04  0.21974955881E+04 0.  0.
        2    1    3    3  502    0  0.72545258587E+03  0.35914861985E+03 -0.22168674077E+04  0.23600360779E+04  0.25500000920E-02 0. -1.
       -2    1    3    3    0  502 -0.72545258587E+03 -0.35914861985E+03 -0.71562746064E+02  0.81264408699E+03  0.25500000920E-02 0.  1.
</event>
<event>
 5   0  0.4630615E-06  0.2200189E+04  0.7818609E-02  0.8518349E-01
       -1   -1    0    0    0  501  0.00000000000E+00  0.00000000000E+00  0.16611550655E+04  0.16611550656E+04  0.50400001928E-02 0. -1.
        1   -1    0    0  501    0  0.00000000000E+00  0.00000000000E+00 -0.72853403284E+03  0.72853403286E+03  0.50400001928E-02 0.  1.
    10030    2    1    2    0    0  0.00000000000E+00  0.00000000000E+00  0.93262103271E+03  0.23896890984E+04  0.22001890820E+04 0.  0.
        2    1    3    3  502    0  0.10015356850E+04 -0.29079372488E+03  0.86051691686E+02  0.10464414042E+04  0.25500000920E-02 0.  1.
       -2    1    3    3    0  502 -0.10015356850E+04  0.29079372488E+03  0.84656934102E+03  0.13432476942E+04  0.25500000920E-02 0. -1.
</event>
<event>
 5   0  0.1015876E-05  0.2198456E+04  0.7818609E-02  0.8519071E-01
        2   -1    0    0  501    0  0.00000000000E+00  0.00000000000E+00  0.94395434041E+03  0.94395434041E+03  0.25500000920E-02 0. -1.
       -2   -1    0    0    0  501  0.00000000000E+00  0.00000000000E+00 -0.12800436204E+04  0.12800436204E+04  0.25500000920E-02 0.  1.
    10030    2    1    2    0    0  0.00000000000E+00  0.00000000000E+00 -0.33608928003E+03  0.22239979609E+04  0.21984564871E+04 0.  0.
        5    1    3    3  502    0 -0.83927684350E+03  0.53028659486E+03  0.30933950187E+03  0.10398569662E+04  0.46999998093E+01 0. -1.
       -5    1    3    3    0  502  0.83927684350E+03 -0.53028659486E+03 -0.64542878190E+03  0.11841409947E+04  0.46999998093E+01 0.  1.
</event>
<event>
 5   0  0.4408787E-06  0.2201207E+04  0.7818609E-02  0.8517926E-01
        1   -1    0    0  501    0  0.00000000000E+00  0.00000000000E+00  0.90840626875E+03  0.90840626876E+03  0.50400001928E-02 0.  1.
       -1   -1    0    0    0  501  0.00000000000E+00  0.00000000000E+00 -0.13334651302E+04  0.13334651302E+04  0.50400001928E-02 0. -1.
    10030    2    1    2    0    0  0.00000000000E+00  0.00000000000E+00 -0.42505886145E+03  0.22418713990E+04  0.22012070175E+04 0.  0.
        1    1    3    3  502    0 -0.65249669810E+03  0.21575079207E+03 -0.10880778683E+04  0.12869397005E+04  0.50400001928E-02 0. -1.
       -1    1    3    3    0  502  0.65249669810E+03 -0.21575079207E+03  0.66301900681E+03  0.95493169846E+03  0.50400001928E-02 0.  1.
</event>
<event>
 5   0  0.4630615E-06  0.2203725E+04  0.7818609E-02  0.8516879E-01
       -1   -1    0    0    0  501  0.00000000000E+00  0.00000000000E+00  0.17006009887E+04  0.17006009887E+04  0.50400001928E-02 0.  1.
        1   -1    0    0  501    0  0.00000000000E+00  0.00000000000E+00 -0.71392451782E+03  0.71392451784E+03  0.50400001928E-02 0. -1.
    10030    2    1    2    0    0  0.00000000000E+00  0.00000000000E+00  0.98667647083E+03  0.24145255065E+04  0.22037247930E+04 0.  0.
        2    1    3    3  502    0 -0.19459193377E+03 -0.10791473025E+04  0.61172908245E+03  0.12556422228E+04  0.25500000920E-02 0.  1.
       -2    1    3    3    0  502  0.19459193377E+03  0.10791473025E+04  0.37494738838E+03  0.11588832837E+04  0.25500000920E-02 0. -1.
</event>
<event>
 5   0  0.4408787E-06  0.2193669E+04  0.7818609E-02  0.8521068E-01
        1   -1    0    0  501    0  0.00000000000E+00  0.00000000000E+00  0.92989253657E+03  0.92989253658E+03  0.50400001928E-02 0.  1.
       -1   -1    0    0    0  501  0.00000000000E+00  0.00000000000E+00 -0.12937469242E+04  0.12937469242E+04  0.50400001928E-02 0. -1.
    10030    2    1    2    0    0  0.00000000000E+00  0.00000000000E+00 -0.36385438762E+03  0.22236394608E+04  0.21936687161E+04 0.  0.
        1    1    3    3  502    0 -0.76531842580E+03 -0.56704956419E+03  0.36936733857E+03  0.10216113409E+04  0.50400001928E-02 0.  1.
       -1    1    3    3    0  502  0.76531842580E+03  0.56704956419E+03 -0.73322172619E+03  0.12020281198E+04  0.50400001928E-02 0. -1.
</event>
<event>
 5   0  0.1015876E-05  0.2199818E+04  0.7818609E-02  0.8518504E-01
       -2   -1    0    0    0  501  0.00000000000E+00  0.00000000000E+00  0.69602702589E+03  0.69602702590E+03  0.25500000920E-02 0.  1.
        2   -1    0    0  501    0  0.00000000000E+00  0.00000000000E+00 -0.17381511051E+04  0.17381511051E+04  0.25500000920E-02 0. -1.
    10030    2    1    2    0    0  0.00000000000E+00  0.00000000000E+00 -0.10421240792E+04  0.24341781310E+04  0.21998183055E+04 0.  0.
        5    1    3    3  502    0  0.23389352204E+03 -0.26287558983E+03 -0.16741810143E+04  0.17107641316E+04  0.46999998093E+01 0. -1.
       -5    1    3    3    0  502 -0.23389352204E+03  0.26287558983E+03  0.63205693507E+03  0.72341399941E+03  0.46999998093E+01 0.  1.
</event>
<event>
 5   0  0.4794967E-06  0.2199785E+04  0.7818609E-02  0.8518518E-01
        1   -1    0    0  501    0  0.00000000000E+00  0.00000000000E+00  0.18798689117E+04  0.18798689117E+04  0.50400001928E-02 0. -1.
       -1   -1    0    0    0  501  0.00000000000E+00  0.00000000000E+00 -0.64353616151E+03  0.64353616153E+03  0.50400001928E-02 0.  1.
    10030    2    1    2    0    0  0.00000000000E+00  0.00000000000E+00  0.12363327502E+04  0.25234050733E+04  0.21997851019E+04 0.  0.
        5    1    3    3  502    0 -0.46274670529E+03  0.63694990304E+03 -0.26287558280E+03  0.83003936911E+03  0.46999998093E+01 0.  1.
       -5    1    3    3    0  502  0.46274670529E+03 -0.63694990304E+03  0.14992083330E+04  0.16933657042E+04  0.46999998093E+01 0. -1.
</event>
<event>
 5   0  0.4462201E-06  0.2180713E+04  0.7818609E-02  0.8526499E-01
       -1   -1    0    0    0  501  0.00000000000E+00  0.00000000000E+00  0.90988591068E+03  0.90988591070E+03  0.50400001928E-02 0. -1.
        1   -1    0    0  501    0  0.00000000000E+00  0.00000000000E+00 -0.13066227290E+04  0.13066227290E+04  0.50400001928E-02 0.  1.
    10030    2    1    2    0    0  0.00000000000E+00  0.00000000000E+00 -0.39673681829E+03  0.22165086397E+04  0.21807132885E+04 0.  0.
        3    1    3    3  502    0  0.60786854980E+03 -0.16571482542E+03  0.70613316513E+03  0.94635597652E+03  0.10100000352E+00 0. -1.
       -3    1    3    3    0  502 -0.60786854980E+03  0.16571482542E+03 -0.11028699834E+04  0.12701526632E+04  0.10100000352E+00 0.  1.
</event>
<event>
 5   0  0.1014015E-05  0.2199626E+04  0.7818609E-02  0.8518584E-01
       -2   -1    0    0    0  501  0.00000000000E+00  0.00000000000E+00  0.17318559880E+04  0.17318559880E+04  0.25500000920E-02 0. -1.
        2   -1    0    0  501    0  0.00000000000E+00  0.00000000000E+00 -0.69843458488E+03  0.69843458489E+03  0.25500000920E-02 0.  1.
    10030    2    1    2    0    0  0.00000000000E+00  0.00000000000E+00  0.10334214031E+04  0.24302905729E+04  0.21996255300E+04 0.  0.
        1    1    3    3  502    0 -0.14570950520E+02  0.10996524961E+04  0.50362873798E+03  0.12095825026E+04  0.50400001928E-02 0. -1.
       -1    1    3    3    0  502  0.14570950520E+02 -0.10996524961E+04  0.52979266514E+03  0.12207080703E+04  0.50400001928E-02 0.  1.
</event>
<event>
 5   0  0.4408787E-06  0.2202734E+04  0.7818609E-02  0.8517291E-01
        1   -1    0    0  501    0  0.00000000000E+00  0.00000000000E+00  0.71744215182E+03  0.71744215184E+03  0.50400001928E-02 0.  1.
       -1   -1    0    0    0  501  0.00000000000E+00  0.00000000000E+00 -0.16907420854E+04  0.16907420854E+04  0.50400001928E-02 0. -1.
    10030    2    1    2    0    0  0.00000000000E+00  0.00000000000E+00 -0.97329993359E+03  0.24081842373E+04  0.22027343371E+04 0.  0.
        1    1    3    3  502    0  0.11782834706E+03 -0.15477517365E+03 -0.16718129466E+04  0.16830916203E+04  0.50400001928E-02 0. -1.
       -1    1    3    3    0  502 -0.11782834706E+03  0.15477517365E+03  0.69851301304E+03  0.72509261696E+03  0.50400001928E-02 0.  1.
</event>
<event>
 5   0  0.1035928E-05  0.2248846E+04  0.7818609E-02  0.8498368E-01
       -2   -1    0    0    0  501  0.00000000000E+00  0.00000000000E+00  0.81436537974E+03  0.81436537975E+03  0.25500000920E-02 0.  1.
        2   -1    0    0  501    0  0.00000000000E+00  0.00000000000E+00 -0.15525310094E+04  0.15525310094E+04  0.25500000920E-02 0. -1.
    10030    2    1    2    0    0  0.00000000000E+00  0.00000000000E+00 -0.73816562965E+03  0.23668963891E+04  0.22488463754E+04 0.  0.
        3    1    3    3  502    0 -0.10935640508E+04 -0.17808806866E+03 -0.16737220212E+03  0.11205405649E+04  0.10100000352E+00 0.  1.
       -3    1    3    3    0  502  0.10935640508E+04  0.17808806866E+03 -0.57079342753E+03  0.12463558242E+04  0.10100000352E+00 0. -1.
</event>
<event>
 5   0  0.4408787E-06  0.2203547E+04  0.7818609E-02  0.8516953E-01
        1   -1    0    0  501    0  0.00000000000E+00  0.00000000000E+00  0.13082496359E+04  0.13082496359E+04  0.50400001928E-02 0.  1.
       -1   -1    0    0    0  501  0.00000000000E+00  0.00000000000E+00 -0.92788451854E+03  0.92788451856E+03  0.50400001928E-02 0. -1.
    10030    2    1    2    0    0  0.00000000000E+00  0.00000000000E+00  0.38036511733E+03  0.22361341544E+04  0.22035467624E+04 0.  0.
        1    1    3    3  502    0 -0.98331746570E+03  0.43410216072E+03  0.43572504152E+03  0.11598337105E+04  0.50400001928E-02 0.  1.
       -1    1    3    3    0  502  0.98331746570E+03 -0.43410216072E+03 -0.55359924183E+02  0.10763004439E+04  0.50400001928E-02 0. -1.
</event>
<event>
 5   0  0.4408787E-06  0.2199042E+04  0.7818609E-02  0.8518827E-01
        1   -1    0    0  501    0  0.00000000000E+00  0.00000000000E+00  0.23711020567E+04  0.23711020567E+04  0.50400001928E-02 0.  1.
       -1   -1    0    0    0  501  0.00000000000E+00  0.00000000000E+00 -0.50986685191E+03  0.50986685193E+03  0.50400001928E-02 0. -1.
    10030    2    1    2    0    0  0.00000000000E+00  0.00000000000E+00  0.18612352048E+04  0.28809689087E+04  0.21990419198E+04 0.  0.
        1    1    3    3  502    0 -0.46627338987E+03  0.31123263579E+03 -0.30856820583E+03  0.63991481102E+03  0.50400001928E-02 0. -1.
       -1    1    3    3    0  502  0.46627338987E+03 -0.31123263579E+03  0.21698034106E+04  0.22410540976E+04  0.50400001928E-02 0.  1.
</event>
<event>
 5   0  0.1014015E-05  0.2200770E+04  0.7818609E-02  0.8518108E-01
        2   -1    0    0  501    0  0.00000000000E+00  0.00000000000E+00  0.14357114410E+04  0.14357114410E+04  0.25500000920E-02 0.  1.
       -2   -1    0    0    0  501  0.00000000000E+00  0.00000000000E+00 -0.84337813206E+03  0.84337813206E+03  0.25500000920E-02 0. -1.
    10030    2    1    2    0    0  0.00000000000E+00  0.00000000000E+00  0.59233330890E+03  0.22790895730E+04  0.22007704408E+04 0.  0.
        1    1    3    3  502    0  0.69547214371E+03 -0.55643422244E+03  0.96534114790E+03  0.13134626292E+04  0.50400001928E-02 0.  1.
       -1    1    3    3    0  502 -0.69547214371E+03  0.55643422244E+03 -0.37300783900E+03  0.96562694378E+03  0.50400001928E-02 0. -1.
</event>
<event>
 5   0  0.4408787E-06  0.2198414E+04  0.7818609E-02  0.8519089E-01
        1   -1    0    0  501    0  0.00000000000E+00  0.00000000000E+00  0.14062299080E+04  0.14062299080E+04  0.50400001928E-02 0. -1.
       -1   -1    0    0    0  501  0.00000000000E+00  0.00000000000E+00 -0.85921642642E+03  0.85921642643E+03  0.50400001928E-02 0.  1.
    10030    2    1    2    0    0  0.00000000000E+00  0.00000000000E+00  0.54701348159E+03  0.22654463344E+04  0.21984138248E+04 0.  0.
        1    1    3    3  502    0  0.92179792114E+02  0.33378263952E+03  0.13485555896E+04  0.13923038974E+04  0.50400001928E-02 0. -1.
       -1    1    3    3    0  502 -0.92179792114E+02 -0.33378263952E+03 -0.80154210797E+03  0.87314243706E+03  0.50400001928E-02 0.  1.
</event>
<event>
 5   0  0.4408787E-06  0.2194082E+04  0.7818609E-02  0.8520895E-01
       -1   -1    0    0    0  501  0.00000000000E+00  0.00000000000E+00  0.91808980404E+03  0.91808980405E+03  0.50400001928E-02 0.  1.
        1   -1    0    0  501    0  0.00000000000E+00  0.00000000000E+00 -0.13108730825E+04  0.13108730825E+04  0.50400001928E-02 0. -1.
    10030    2    1    2    0    0  0.00000000000E+00  0.00000000000E+00 -0.39278327844E+03  0.22289628865E+04  0.21940822331E+04 0.  0.
        1    1    3    3  502    0 -0.78958171220E+03  0.32329035119E+03  0.50416775487E+03  0.99103030049E+03  0.50400001928E-02 0.  1.
       -1    1    3    3    0  502  0.78958171220E+03 -0.32329035119E+03 -0.89695103331E+03  0.12379325860E+04  0.50400001928E-02 0. -1.
</event>
<event>
 5   0  0.1035928E-05  0.2201159E+04  0.7818609E-02  0.8517946E-01
       -2   -1    0    0    0  501  0.00000000000E+00  0.00000000000E+00  0.12441379618E+04  0.12441379618E+04  0.25500000920E-02 0. -1.
        2   -1    0    0  501    0  0.00000000000E+00  0.00000000000E+00 -0.97358565194E+03  0.97358565194E+03  0.25500000920E-02 0.  1.
    10030    2    1    2    0    0  0.00000000000E+00  0.00000000000E+00  0.27055230984E+03  0.22177236137E+04  0.22011586664E+04 0.  0.
        3    1    3    3  502    0  0.10080012258E+04  0.68031641284E+02  0.57511626129E+03  0.11625203223E+04  0.10100000352E+00 0. -1.
       -3    1    3    3    0  502 -0.10080012258E+04 -0.68031641284E+02 -0.30456395145E+03  0.10552032914E+04  0.10100000352E+00 0.  1.
</event>
<event>
 5   0  0.1015876E-05  0.2200113E+04  0.7818609E-02  0.8518381E-01
       -2   -1    0    0    0  501  0.00000000000E+00  0.00000000000E+00  0.71363128794E+03  0.71363128795E+03  0.25500000920E-02 0. -1.
        2   -1    0    0  501    0  0.00000000000E+00  0.00000000000E+00 -0.16957279729E+04  0.16957279729E+04  0.25500000920E-02 0.  1.
    10030    2    1    2    0    0  0.00000000000E+00  0.00000000000E+00 -0.98209668500E+03  0.24093592609E+04  0.22001132129E+04 0.  0.
        5    1    3    3  502    0 -0.15327487866E+03 -0.71097485091E+03  0.41274602744E+03  0.83627734647E+03  0.46999998093E+01 0. -1.
       -5    1    3    3    0  502  0.15327487866E+03  0.71097485091E+03 -0.13948427124E+04  0.15730819144E+04  0.46999998093E+01 0.  1.
</event>
<event>
 5   0  0.9963573E-06  0.2200144E+04  0.7818609E-02  0.8518368E-01
       -2   -1    0    0    0  501  0.00000000000E+00  0.00000000000E+00  0.49861122508E+03  0.49861122509E+03  0.25500000920E-02 0. -1.
        2   -1    0    0  501    0  0.00000000000E+00  0.00000000000E+00 -0.24270584082E+04  0.24270584082E+04  0.25500000920E-02 0.  1.
    10030    2    1    2    0    0  0.00000000000E+00  0.00000000000E+00 -0.19284471831E+04  0.29256696333E+04  0.22001441464E+04 0.  0.
        2    1    3    3  502    0  0.57827835732E+03 -0.78917561476E+03 -0.16330222639E+04  0.19036716429E+04  0.25500000920E-02 0.  1.
       -2    1    3    3    0  502 -0.57827835732E+03  0.78917561476E+03 -0.29542491917E+03  0.10219979904E+04  0.25500000920E-02 0. -1.
</event>
<event>
 5   0  0.9963573E-06  0.2199459E+04  0.7818609E-02  0.8518653E-01
        2   -1    0    0  501    0  0.00000000000E+00  0.00000000000E+00  0.75614417384E+03  0.75614417384E+03  0.25500000920E-02 0. -1.
       -2   -1    0    0    0  501  0.00000000000E+00  0.00000000000E+00 -0.15994372252E+04  0.15994372252E+04  0.25500000920E-02 0.  1.
    10030    2    1    2    0    0  0.00000000000E+00  0.00000000000E+00 -0.84329305132E+03  0.23555813990E+04  0.21994591510E+04 0.  0.
        2    1    3    3  502    0 -0.10618997943E+04 -0.28406882110E+03 -0.38646886546E+03  0.11651971732E+04  0.25500000920E-02 0. -1.
       -2    1    3    3    0  502  0.10618997943E+04  0.28406882110E+03 -0.45682418585E+03  0.11903842258E+04  0.25500000920E-02 0.  1.
</event>
<event>
 5   0  0.1035928E-05  0.2198021E+04  0.7818609E-02  0.8519252E-01
       -2   -1    0    0    0  501  0.00000000000E+00  0.00000000000E+00  0.10328681309E+04  0.10328681310E+04  0.25500000920E-02 0.  1.
        2   -1    0    0  501    0  0.00000000000E+00  0.00000000000E+00 -0.11693886269E+04  0.11693886269E+04  0.25500000920E-02 0. -1.
    10030    2    1    2    0    0  0.00000000000E+00  0.00000000000E+00 -0.13652049599E+03  0.22022567579E+04  0.21980211514E+04 0.  0.
        3    1    3    3  502    0  0.45158534435E+03 -0.28484929982E+03 -0.10307131208E+04  0.11607919686E+04  0.10100000352E+00 0. -1.
       -3    1    3    3    0  502 -0.45158534435E+03  0.28484929982E+03  0.89419262480E+03  0.10414647893E+04  0.10100000352E+00 0.  1.
</event>
<event>
 5   0  0.4630615E-06  0.2201784E+04  0.7818609E-02  0.8517686E-01
       -1   -1    0    0    0  501  0.00000000000E+00  0.00000000000E+00  0.13373133301E+04  0.13373133302E+04  0.50400001928E-02 0. -1.
        1   -1    0    0  501    0  0.00000000000E+00  0.00000000000E+00 -0.90626719442E+03  0.90626719443E+03  0.50400001928E-02 0.  1.
    10030    2    1    2    0    0  0.00000000000E+00  0.00000000000E+00  0.43104613573E+03  0.22435805246E+04  0.22017840038E+04 0.  0.
        2    1    3    3  502    0 -0.51407305466E+03 -0.82033622847E+03  0.74963015901E+03  0.12244051652E+04  0.25500000920E-02 0. -1.
       -2    1    3    3    0  502  0.51407305466E+03  0.82033622847E+03 -0.31858402328E+03  0.10191753594E+04  0.25500000920E-02 0.  1.
</event>
<event>
 5   0  0.1014015E-05  0.2198430E+04  0.7818609E-02  0.8519082E-01
        2   -1    0    0  501    0  0.00000000000E+00  0.00000000000E+00  0.17103539288E+04  0.17103539288E+04  0.25500000920E-02 0. -1.
       -2   -1    0    0    0  501  0.00000000000E+00  0.00000000000E+00 -0.70644629746E+03  0.70644629746E+03  0.25500000920E-02 0.  1.
    10030    2    1    2    0    0  0.00000000000E+00  0.00000000000E+00  0.10039076314E+04  0.24168002263E+04  0.21984296217E+04 0.  0.
        1    1    3    3  502    0 -0.12820471559E+03 -0.10052641628E+04  0.97001646617E+03  0.14028272990E+04  0.50400001928E-02 0.  1.
       -1    1    3    3    0  502  0.12820471559E+03  0.10052641628E+04  0.33891165193E+02  0.10139729273E+04  0.50400001928E-02 0. -1.
</event>
<event>
 5   0  0.4462201E-06  0.2178161E+04  0.7818609E-02  0.8527573E-01
        1   -1    0    0  501    0  0.00000000000E+00  0.00000000000E+00  0.77437042328E+03  0.77437042330E+03  0.50400001928E-02 0.  1.
       -1   -1    0    0    0  501  0.00000000000E+00  0.00000000000E+00 -0.15316915724E+04  0.15316915724E+04  0.50400001928E-02 0. -1.
    10030    2    1    2    0    0  0.00000000000E+00  0.00000000000E+00 -0.75732114915E+03  0.23060619957E+04  0.21781612900E+04 0.  0.
        3    1    3    3  502    0 -0.28293907338E+03  0.57098608685E+03 -0.13137065816E+04  0.14601043193E+04  0.10100000352E+00 0. -1.
       -3    1    3    3    0  502  0.28293907338E+03 -0.57098608685E+03  0.55638543245E+03  0.84595767640E+03  0.10100000352E+00 0.  1.
</event>
<event>
 5   0  0.4462201E-06  0.2148469E+04  0.7818609E-02  0.8540188E-01
       -1   -1    0    0    0  501  0.00000000000E+00  0.00000000000E+00  0.11944193595E+04  0.11944193596E+04  0.50400001928E-02 0.  1.
        1   -1    0    0  501    0  0.00000000000E+00  0.00000000000E+00 -0.96614260015E+03  0.96614260017E+03  0.50400001928E-02 0. -1.
    10030    2    1    2    0    0  0.00000000000E+00  0.00000000000E+00  0.22827675940E+03  0.21605619597E+04  0.21484686879E+04 0.  0.
        3    1    3    3  502    0  0.75997475848E+03 -0.44774782352E+03  0.73072880118E+03  0.11454275787E+04  0.10100000352E+00 0.  1.
       -3    1    3    3    0  502 -0.75997475848E+03  0.44774782352E+03 -0.50245204179E+03  0.10151343810E+04  0.10100000352E+00 0. -1.
</event>
<event>
 5   0  0.4309945E-06  0.2203230E+04  0.7818609E-02  0.8517085E-01
        1   -1    0    0  501    0  0.00000000000E+00  0.00000000000E+00  0.10335191955E+04  0.10335191955E+04  0.50400001928E-02 0. -1.
       -1   -1    0    0    0  501  0.00000000000E+00  0.00000000000E+00 -0.11741974248E+04  0.11741974248E+04  0.50400001928E-02 0.  1.
    10030    2    1    2    0    0  0.00000000000E+00  0.00000000000E+00 -0.14067822926E+03  0.22077166203E+04  0.22032299724E+04 0.  0.
        4    1    3    3  502    0 -0.31452918255E+03 -0.49961004279E+03 -0.10022950024E+04  0.11632436057E+04  0.12699999809E+01 0.  1.
       -4    1    3    3    0  502  0.31452918255E+03  0.49961004279E+03  0.86161677315E+03  0.10444730146E+04  0.12699999809E+01 0. -1.
</event>
<event>
 5   0  0.9963173E-06  0.2198961E+04  0.7818609E-02  0.8518861E-01
       -2   -1    0    0    0  501  0.00000000000E+00  0.00000000000E+00  0.70585991958E+03  0.70585991958E+03  0.25500000920E-02 0. -1.
        2   -1    0    0  501    0  0.00000000000E+00  0.00000000000E+00 -0.17126026413E+04  0.17126026413E+04  0.25500000920E-02 0.  1.
    10030    2    1    2    0    0  0.00000000000E+00  0.00000000000E+00 -0.10067427217E+04  0.24184625608E+04  0.21989611753E+04 0.  0.
        4    1    3    3  502    0 -0.10098425651E+04 -0.24514861436E+03 -0.10839015811E+03  0.10448109344E+04  0.12699999809E+01 0.  1.
       -4    1    3    3    0  502  0.10098425651E+04  0.24514861436E+03 -0.89835256356E+03  0.13736516264E+04  0.12699999809E+01 0. -1.
</event>
<event>
 5   0  0.4462201E-06  0.2200607E+04  0.7818609E-02  0.8518176E-01
       -1   -1    0    0    0  501  0.00000000000E+00  0.00000000000E+00  0.74802105037E+03  0.74802105039E+03  0.50400001928E-02 0.  1.
        1   -1    0    0  501    0  0.00000000000E+00  0.00000000000E+00 -0.16184942759E+04  0.16184942759E+04  0.50400001928E-02 0. -1.
    10030    2    1    2    0    0  0.00000000000E+00  0.00000000000E+00 -0.87047322553E+03  0.23665153263E+04  0.22006069965E+04 0.  0.
        3    1    3    3  502    0 -0.66469766554E+03 -0.86372778522E+03 -0.27278795350E+03  0.11235043174E+04  0.10100000352E+00 0.  1.
       -3    1    3    3    0  502  0.66469766554E+03  0.86372778522E+03 -0.59768527203E+03  0.12430110089E+04  0.10100000352E+00 0. -1.
</event>
<event>
 5   0  0.1015876E-05  0.2193163E+04  0.7818609E-02  0.8521279E-01
       -2   -1    0    0    0  501  0.00000000000E+00  0.00000000000E+00  0.15574751257E+04  0.15574751257E+04  0.25500000920E-02 0.  1.
        2   -1    0    0  501    0  0.00000000000E+00  0.00000000000E+00 -0.77207740493E+03  0.77207740494E+03  0.25500000920E-02 0. -1.
    10030    2    1    2    0    0  0.00000000000E+00  0.00000000000E+00  0.78539772079E+03  0.23295525307E+04  0.21931633348E+04 0.  0.
        5    1    3    3  502    0  0.79927484705E+03  0.22495986204E+03  0.11534971790E+04  0.14212758538E+04  0.46999998093E+01 0.  1.
       -5    1    3    3    0  502 -0.79927484705E+03 -0.22495986204E+03 -0.36809945817E+03  0.90827667688E+03  0.46999998093E+01 0. -1.
</event>
<event>
 5   0  0.4462201E-06  0.2198815E+04  0.7818609E-02  0.8518922E-01
       -1   -1    0    0    0  501  0.00000000000E+00  0.00000000000E+00  0.92460941134E+03  0.92460941135E+03  0.50400001928E-02 0.  1.
        1   -1    0    0  501    0  0.00000000000E+00  0.00000000000E+00 -0.13072508592E+04  0.13072508593E+04  0.50400001928E-02 0. -1.
    10030    2    1    2    0    0  0.00000000000E+00  0.00000000000E+00 -0.38264144791E+03  0.22318602706E+04  0.21988146329E+04 0.  0.
        3    1    3    3  502    0  0.96034369735E+03 -0.84701342643E+02  0.34507386090E+03  0.10239679263E+04  0.10100000352E+00 0.  1.
       -3    1    3    3    0  502 -0.96034369735E+03  0.84701342643E+02 -0.72771530881E+03  0.12078923443E+04  0.10100000352E+00 0. -1.
</event>
<event>
 5   0  0.1014015E-05  0.2198685E+04  0.7818609E-02  0.8518976E-01
       -2   -1    0    0    0  501  0.00000000000E+00  0.00000000000E+00  0.96417515549E+03  0.96417515550E+03  0.25500000920E-02 0.  1.
        2   -1    0    0  501    0  0.00000000000E+00  0.00000000000E+00 -0.12534583841E+04  0.12534583841E+04  0.25500000920E-02 0. -1.
    10030    2    1    2    0    0  0.00000000000E+00  0.00000000000E+00 -0.28928322862E+03  0.22176335396E+04  0.21986845453E+04 0.  0.
        1    1    3    3  502    0  0.72161189053E+02  0.10781284866E+04 -0.34883430113E+03  0.11354530551E+04  0.50400001928E-02 0. -1.
       -1    1    3    3    0  502 -0.72161189053E+02 -0.10781284866E+04  0.59551072507E+02  0.10821804845E+04  0.50400001928E-02 0.  1.
</event>
<event>
 5   0  0.4462201E-06  0.2195542E+04  0.7818609E-02  0.8520286E-01
       -1   -1    0    0    0  501  0.00000000000E+00  0.00000000000E+00  0.12932174514E+04  0.12932174514E+04  0.50400001928E-02 0. -1.
        1   -1    0    0  501    0  0.00000000000E+00  0.00000000000E+00 -0.93186282121E+03  0.93186282123E+03  0.50400001928E-02 0.  1.
    10030    2    1    2    0    0  0.00000000000E+00  0.00000000000E+00  0.36135463022E+03  0.22250802727E+04  0.21955420859E+04 0.  0.
        3    1    3    3  502    0  0.30390769914E+03 -0.86447872568E+03  0.79330810945E+03  0.12120318162E+04  0.10100000352E+00 0. -1.
       -3    1    3    3    0  502 -0.30390769914E+03  0.86447872568E+03 -0.43195347923E+03  0.10130484565E+04  0.10100000352E+00 0.  1.
</event>
<event>
 5   0  0.1015876E-05  0.2198935E+04  0.7818609E-02  0.8518871E-01
       -2   -1    0    0    0  501  0.00000000000E+00  0.00000000000E+00  0.12595283446E+04  0.12595283446E+04  0.25500000920E-02 0. -1.
        2   -1    0    0  501    0  0.00000000000E+00  0.00000000000E+00 -0.95974736869E+03  0.95974736869E+03  0.25500000920E-02 0.  1.
    10030    2    1    2    0    0  0.00000000000E+00  0.00000000000E+00  0.29978097589E+03  0.22192757133E+04  0.21989352101E+04 0.  0.
        5    1    3    3  502    0 -0.10340889538E+04  0.35940931398E+03  0.47503040519E+02  0.10958073043E+04  0.46999998093E+01 0. -1.
       -5    1    3    3    0  502  0.10340889538E+04 -0.35940931398E+03  0.25227793537E+03  0.11234684090E+04  0.46999998093E+01 0.  1.
</event>
<event>
 5   0  0.1035928E-05  0.2166949E+04  0.7818609E-02  0.8532312E-01
        2   -1    0    0  501    0  0.00000000000E+00  0.00000000000E+00  0.23197322415E+04  0.23197322415E+04  0.25500000920E-02 0. -1.
       -2   -1    0    0    0  501  0.00000000000E+00  0.00000000000E+00 -0.50605698847E+03  0.50605698847E+03  0.25500000920E-02 0.  1.
    10030    2    1    2    0    0  0.00000000000E+00  0.00000000000E+00  0.18136752531E+04  0.28257892300E+04  0.21669487416E+04 0.  0.
        3    1    3    3  502    0  0.15843902998E+03  0.10521235311E+04  0.64006695254E+03  0.12416732923E+04  0.10100000352E+00 0.  1.
       -3    1    3    3    0  502 -0.15843902998E+03 -0.10521235311E+04  0.11736083005E+04  0.15841159377E+04  0.10100000352E+00 0. -1.
</event>
<event>
 5   0  0.1035928E-05  0.2206361E+04  0.7818609E-02  0.8515785E-01
       -2   -1    0    0    0  501  0.00000000000E+00  0.00000000000E+00  0.77279660770E+03  0.77279660770E+03  0.25500000920E-02 0. -1.
        2   -1    0    0  501    0  0.00000000000E+00  0.00000000000E+00 -0.15748086105E+04  0.15748086105E+04  0.25500000920E-02 0.  1.
    10030    2    1    2    0    0  0.00000000000E+00  0.00000000000E+00 -0.80201200283E+03  0.23476052182E+04  0.22063605798E+04 0.  0.
        3    1    3    3  502    0  0.44845428448E+03 -0.58404156789E+03  0.47303780416E+03  0.87520316078E+03  0.10100000352E+00 0. -1.
       -3    1    3    3    0  502 -0.44845428448E+03  0.58404156789E+03 -0.12750498070E+04  0.14724020574E+04  0.10100000352E+00 0.  1.
</event>
<event>
 5   0  0.4408787E-06  0.2179655E+04  0.7818609E-02  0.8526944E-01
        1   -1    0    0  501    0  0.00000000000E+00  0.00000000000E+00  0.16413912029E+04  0.16413912029E+04  0.50400001928E-02 0. -1.
       -1   -1    0    0    0  501  0.00000000000E+00  0.00000000000E+00 -0.72360842801E+03  0.72360842803E+03  0.50400001928E-02 0.  1.
    10030    2    1    2    0    0  0.00000000000E+00  0.00000000000E+00  0.91778277484E+03  0.23649996309E+04  0.21796554848E+04 0.  0.
        1    1    3    3  502    0  0.10494298919E+03  0.10846442314E+04  0.47633204799E+03  0.11892679932E+04  0.50400001928E-02 0.  1.
       -1    1    3    3    0  502 -0.10494298919E+03 -0.10846442314E+04  0.44145072685E+03  0.11757316377E+04  0.50400001928E-02 0. -1.
</event>
<event>
 5   0  0.4309945E-06  0.2204803E+04  0.7818609E-02  0.8516432E-01
        1   -1    0    0  501    0  0.00000000000E+00  0.00000000000E+00  0.15035837917E+04  0.15035837917E+04  0.50400001928E-02 0. -1.
       -1   -1    0    0    0  501  0.00000000000E+00  0.00000000000E+00 -0.80826136456E+03  0.80826136458E+03  0.50400001928E-02 0.  1.
    10030    2    1    2    0    0  0.00000000000E+00  0.00000000000E+00  0.69532242713E+03  0.23118451563E+04  0.22048026553E+04 0.  0.
        4    1    3    3  502    0 -0.83138552244E+03  0.25061927988E+03 -0.36448481230E+03  0.94173388049E+03  0.12699999809E+01 0.  1.
       -4    1    3    3    0  502  0.83138552244E+03 -0.25061927988E+03  0.10598072394E+04  0.13701112758E+04  0.12699999809E+01 0. -1.
</event>
<event>
 5   0  0.4408787E-06  0.2198484E+04  0.7818609E-02  0.8519059E-01
       -1   -1    0    0    0  501  0.00000000000E+00  0.00000000000E+00  0.11274265301E+04  0.11274265301E+04  0.50400001928E-02 0.  1.
        1   -1    0    0  501    0  0.00000000000E+00  0.00000000000E+00 -0.10717619099E+04  0.10717619099E+04  0.50400001928E-02 0. -1.
    10030    2    1    2    0    0  0.00000000000E+00  0.00000000000E+00  0.55664620155E+02  0.21991884400E+04  0.21984838514E+04 0.  0.
        1    1    3    3  502    0 -0.17510059757E+03 -0.79506285347E+03  0.76668100258E+03  0.11182955423E+04  0.50400001928E-02 0.  1.
       -1    1    3    3    0  502  0.17510059757E+03  0.79506285347E+03 -0.71101638243E+03  0.10808928977E+04  0.50400001928E-02 0. -1.
</event>
<event>
 5   0  0.3546750E-06  0.2202967E+04  0.7818609E-02  0.8517194E-01
       -3   -1    0    0    0  501  0.00000000000E+00  0.00000000000E+00  0.24445523627E+04  0.24445523648E+04  0.10100000352E+00 0. -1.
        3   -1    0    0  501    0  0.00000000000E+00  0.00000000000E+00 -0.49631420919E+03  0.49631421946E+03  0.10100000352E+00 0.  1.
    10030    2    1    2    0    0  0.00000000000E+00  0.00000000000E+00  0.19482381535E+04  0.29408665843E+04  0.22029671726E+04 0.  0.
        2    1    3    3  502    0 -0.10735667763E+04 -0.81069602324E+02  0.12847604219E+04  0.16762241036E+04  0.25500000920E-02 0. -1.
       -2    1    3    3    0  502  0.10735667763E+04  0.81069602324E+02  0.66347773159E+03  0.12646424807E+04  0.25500000920E-02 0.  1.
</event>
<event>
 5   0  0.4462201E-06  0.2215186E+04  0.7818609E-02  0.8512134E-01
       -1   -1    0    0    0  501  0.00000000000E+00  0.00000000000E+00  0.48597360161E+03  0.48597360163E+03  0.50400001928E-02 0. -1.
        1   -1    0    0  501    0  0.00000000000E+00  0.00000000000E+00 -0.25243391067E+04  0.25243391067E+04  0.50400001928E-02 0.  1.
    10030    2    1    2    0    0  0.00000000000E+00  0.00000000000E+00 -0.20383655051E+04  0.30103127083E+04  0.22151859221E+04 0.  0.
        3    1    3    3  502    0  0.63732150206E+03  0.20420213097E+03 -0.22185110629E+04  0.23172545293E+04  0.10100000352E+00 0.  1.
       -3    1    3    3    0  502 -0.63732150206E+03 -0.20420213097E+03  0.18014555781E+03  0.69305817901E+03  0.10100000352E+00 0. -1.
</event>
<event>
 5   0  0.4309945E-06  0.2204478E+04  0.7818609E-02  0.8516567E-01
        1   -1    0    0  501    0  0.00000000000E+00  0.00000000000E+00  0.18707231015E+04  0.18707231016E+04  0.50400001928E-02 0.  1.
       -1   -1    0    0    0  501  0.00000000000E+00  0.00000000000E+00 -0.64944455912E+03  0.64944455914E+03  0.50400001928E-02 0. -1.
    10030    2    1    2    0    0  0.00000000000E+00  0.00000000000E+00  0.12212785424E+04  0.25201676607E+04  0.22044781151E+04 0.  0.
        4    1    3    3  502    0  0.49418990044E+03 -0.49012486743E+02  0.17355793275E+04  0.18052321447E+04  0.12699999809E+01 0.  1.
       -4    1    3    3    0  502 -0.49418990044E+03  0.49012486743E+02 -0.51430078506E+03  0.71493551594E+03  0.12699999809E+01 0. -1.
</event>
<event>
 5   0  0.4630615E-06  0.2197230E+04  0.7818609E-02  0.8519582E-01
        1   -1    0    0  501    0  0.00000000000E+00  0.00000000000E+00  0.10079377760E+04  0.10079377760E+04  0.50400001928E-02 0. -1.
       -1   -1    0    0    0  501  0.00000000000E+00  0.00000000000E+00 -0.11974501992E+04  0.11974501992E+04  0.50400001928E-02 0.  1.
    10030    2    1    2    0    0  0.00000000000E+00  0.00000000000E+00 -0.18951242321E+03  0.22053879752E+04  0.21972303390E+04 0.  0.
        2    1    3    3  502    0 -0.14657427554E+03  0.73254449005E+03 -0.90325899055E+03  0.11721698905E+04  0.25500000920E-02 0.  1.
       -2    1    3    3    0  502  0.14657427554E+03 -0.73254449005E+03  0.71374656734E+03  0.10332180847E+04  0.25500000920E-02 0. -1.
</event>
<event>
 5   0  0.9963573E-06  0.2190913E+04  0.7818609E-02  0.8522220E-01
        2   -1    0    0  501    0  0.00000000000E+00  0.00000000000E+00  0.13134155378E+04  0.13134155378E+04  0.25500000920E-02 0.  1.
       -2   -1    0    0    0  501  0.00000000000E+00  0.00000000000E+00 -0.91366755275E+03  0.91366755276E+03  0.25500000920E-02 0. -1.
    10030    2    1    2    0    0  0.00000000000E+00  0.00000000000E+00  0.39974798503E+03  0.22270830905E+04  0.21909131979E+04 0.  0.
        2    1    3    3  502    0  0.71679640982E+03  0.82818504310E+03  0.18119672340E+03  0.11101890881E+04  0.25500000920E-02 0. -1.
       -2    1    3    3    0  502 -0.71679640982E+03 -0.82818504310E+03  0.21855126163E+03  0.11168940025E+04  0.25500000920E-02 0.  1.
</event>
<event>
 5   0  0.4794967E-06  0.2193614E+04  0.7818609E-02  0.8521091E-01
       -1   -1    0    0    0  501  0.00000000000E+00  0.00000000000E+00  0.69368592047E+03  0.69368592049E+03  0.50400001928E-02 0. -1.
        1   -1    0    0  501    0  0.00000000000E+00  0.00000000000E+00 -0.17341936438E+04  0.17341936438E+04  0.50400001928E-02 0.  1.
    10030    2    1    2    0    0  0.00000000000E+00  0.00000000000E+00 -0.10405077233E+04  0.24278795643E+04  0.21936141084E+04 0.  0.
        5    1    3    3  502    0  0.45110133088E+03 -0.77719618225E+03 -0.12162482360E+04  0.15122196197E+04  0.46999998093E+01 0.  1.
       -5    1    3    3    0  502 -0.45110133088E+03  0.77719618225E+03  0.17574051271E+03  0.91565994464E+03  0.46999998093E+01 0. -1.
</event>
<event>
 5   0  0.4462201E-06  0.2148755E+04  0.7818609E-02  0.8540065E-01
       -1   -1    0    0    0  501  0.00000000000E+00  0.00000000000E+00  0.11511665079E+04  0.11511665079E+04  0.50400001928E-02 0.  1.
        1   -1    0    0  501    0  0.00000000000E+00  0.00000000000E+00 -0.10027107731E+04  0.10027107731E+04  0.50400001928E-02 0. -1.
    10030    2    1    2    0    0  0.00000000000E+00  0.00000000000E+00  0.14845573478E+03  0.21538772810E+04  0.21487550434E+04 0.  0.
        3    1    3    3  502    0  0.53934329165E+03 -0.23981977793E+03  0.97407733672E+03  0.11389606579E+04  0.10100000352E+00 0.  1.
       -3    1    3    3    0  502 -0.53934329165E+03  0.23981977793E+03 -0.82562160194E+03  0.10149166231E+04  0.10100000352E+00 0. -1.
</event>
<event>
 5   0  0.9963573E-06  0.2191287E+04  0.7818609E-02  0.8522063E-01
        2   -1    0    0  501    0  0.00000000000E+00  0.00000000000E+00  0.25146079848E+04  0.25146079848E+04  0.25500000920E-02 0.  1.
       -2   -1    0    0    0  501  0.00000000000E+00  0.00000000000E+00 -0.47738457927E+03  0.47738457927E+03  0.25500000920E-02 0. -1.
    10030    2    1    2    0    0  0.00000000000E+00  0.00000000000E+00  0.20372234055E+04  0.29919925641E+04  0.21912873612E+04 0.  0.
        2    1    3    3  502    0 -0.83757599244E+03 -0.41575163379E+03  0.17982706803E+04  0.20268597395E+04  0.25500000920E-02 0.  1.
       -2    1    3    3    0  502  0.83757599244E+03  0.41575163379E+03  0.23895272523E+03  0.96513282454E+03  0.25500000920E-02 0. -1.
</event>
<event>
 5   0  0.4630615E-06  0.2212895E+04  0.7818609E-02  0.8513080E-01
        1   -1    0    0  501    0  0.00000000000E+00  0.00000000000E+00  0.79515570392E+03  0.79515570394E+03  0.50400001928E-02 0.  1.
       -1   -1    0    0    0  501  0.00000000000E+00  0.00000000000E+00 -0.15396055306E+04  0.15396055306E+04  0.50400001928E-02 0. -1.
    10030    2    1    2    0    0  0.00000000000E+00  0.00000000000E+00 -0.74444982668E+03  0.23347612345E+04  0.22128950445E+04 0.  0.
        2    1    3    3  502    0 -0.26794332724E+03  0.87400562066E+03 -0.10298876753E+04  0.13770795458E+04  0.25500000920E-02 0. -1.
       -2    1    3    3    0  502  0.26794332724E+03 -0.87400562066E+03  0.28543784866E+03  0.95768168877E+03  0.25500000920E-02 0.  1.
</event>
<event>
 5   0  0.4794967E-06  0.2200942E+04  0.7818609E-02  0.8518036E-01
       -1   -1    0    0    0  501  0.00000000000E+00  0.00000000000E+00  0.48498743666E+03  0.48498743669E+03  0.50400001928E-02 0.  1.
        1   -1    0    0  501    0  0.00000000000E+00  0.00000000000E+00 -0.24970462322E+04  0.24970462322E+04  0.50400001928E-02 0. -1.
    10030    2    1    2    0    0  0.00000000000E+00  0.00000000000E+00 -0.20120587955E+04  0.29820336689E+04  0.22009416634E+04 0.  0.
        5    1    3    3  502    0 -0.86220809203E+03  0.12736798173E+03 -0.95740413323E+02  0.87682022871E+03  0.46999998093E+01 0.  1.
       -5    1    3    3    0  502  0.86220809203E+03 -0.12736798173E+03 -0.19163183822E+04  0.21052134402E+04  0.46999998093E+01 0. -1.
</event>
<event>
 5   0  0.1014015E-05  0.2200469E+04  0.7818609E-02  0.8518233E-01
       -2   -1    0    0    0  501  0.00000000000E+00  0.00000000000E+00  0.54410399716E+03  0.54410399717E+03  0.25500000920E-02 0.  1.
        2   -1    0    0  501    0  0.00000000000E+00  0.00000000000E+00 -0.22247875679E+04  0.22247875679E+04  0.25500000920E-02 0. -1.
    10030    2    1    2    0    0  0.00000000000E+00  0.00000000000E+00 -0.16806835708E+04  0.27688915651E+04  0.22004688669E+04 0.  0.
        1    1    3    3  502    0  0.46925577573E+03 -0.25169320151E+03 -0.20518391451E+04  0.21198099746E+04  0.50400001928E-02 0. -1.
       -1    1    3    3    0  502 -0.46925577573E+03  0.25169320151E+03  0.37115557437E+03  0.64908159053E+03  0.50400001928E-02 0.  1.
</event>
<event>
 5   0  0.9963573E-06  0.2188733E+04  0.7818609E-02  0.8523132E-01
       -2   -1    0    0    0  501  0.00000000000E+00  0.00000000000E+00  0.10834791430E+04  0.10834791430E+04  0.25500000920E-02 0.  1.
        2   -1    0    0  501    0  0.00000000000E+00  0.00000000000E+00 -0.11053635879E+04  0.11053635879E+04  0.25500000920E-02 0. -1.
    10030    2    1    2    0    0  0.00000000000E+00  0.00000000000E+00 -0.21884444894E+02  0.21888427309E+04  0.21887333258E+04 0.  0.
        2    1    3    3  502    0  0.58608325042E+03  0.89099353897E+03  0.23458039552E+03  0.10919665860E+04  0.25500000920E-02 0.  1.
       -2    1    3    3    0  502 -0.58608325042E+03 -0.89099353897E+03 -0.25646484041E+03  0.10968761449E+04  0.25500000920E-02 0. -1.
</event>
<event>
 5   0  0.9963173E-06  0.2197562E+04  0.7818609E-02  0.8519444E-01
       -2   -1    0    0    0  501  0.00000000000E+00  0.00000000000E+00  0.91540395893E+03  0.91540395893E+03  0.25500000920E-02 0. -1.
        2   -1    0    0  501    0  0.00000000000E+00  0.00000000000E+00 -0.13188923749E+04  0.13188923749E+04  0.25500000920E-02 0.  1.
    10030    2    1    2    0    0  0.00000000000E+00  0.00000000000E+00 -0.40348841593E+03  0.22342963338E+04  0.21975616500E+04 0.  0.
        4    1    3    3  502    0 -0.46934328396E+03 -0.61899980945E+03 -0.99182736081E+03  0.12598281664E+04  0.12699999809E+01 0.  1.
       -4    1    3    3    0  502  0.46934328396E+03  0.61899980945E+03  0.58833894488E+03  0.97446816739E+03  0.12699999809E+01 0. -1.
</event>
<event>
 5   0  0.1015876E-05  0.2195435E+04  0.7818609E-02  0.8520331E-01
       -2   -1    0    0    0  501  0.00000000000E+00  0.00000000000E+00  0.18959375983E+04  0.18959375983E+04  0.25500000920E-02 0. -1.
        2   -1    0    0  501    0  0.00000000000E+00  0.00000000000E+00 -0.63556073515E+03  0.63556073516E+03  0.25500000920E-02 0.  1.
    10030    2    1    2    0    0  0.00000000000E+00  0.00000000000E+00  0.12603768631E+04  0.25314983334E+04  0.21954348032E+04 0.  0.
        5    1    3    3  502    0  0.10912648255E+03  0.99818666071E+03  0.11415557998E+04  0.15203476355E+04  0.46999998093E+01 0. -1.
       -5    1    3    3    0  502 -0.10912648255E+03 -0.99818666071E+03  0.11882106335E+03  0.10111506979E+04  0.46999998093E+01 0.  1.
</event>
<event>
 5   0  0.9963173E-06  0.2205183E+04  0.7818609E-02  0.8516274E-01
       -2   -1    0    0    0  501  0.00000000000E+00  0.00000000000E+00  0.13172688038E+04  0.13172688038E+04  0.25500000920E-02 0. -1.
        2   -1    0    0  501    0  0.00000000000E+00  0.00000000000E+00 -0.92290024290E+03  0.92290024290E+03  0.25500000920E-02 0.  1.
    10030    2    1    2    0    0  0.00000000000E+00  0.00000000000E+00  0.39436856089E+03  0.22401690467E+04  0.22051827126E+04 0.  0.
        4    1    3    3  502    0 -0.42317504382E+03 -0.92049767967E+03 -0.24481994429E+03  0.10422722840E+04  0.12699999809E+01 0.  1.
       -4    1    3    3    0  502  0.42317504382E+03  0.92049767967E+03  0.63918850518E+03  0.11978967627E+04  0.12699999809E+01 0. -1.
</event>
<event>
 5   0  0.1014015E-05  0.2200193E+04  0.7818609E-02  0.8518348E-01
       -2   -1    0    0    0  501  0.00000000000E+00  0.00000000000E+00  0.14006310129E+04  0.14006310129E+04  0.25500000920E-02 0. -1.
        2   -1    0    0  501    0  0.00000000000E+00  0.00000000000E+00 -0.86404774183E+03  0.86404774183E+03  0.25500000920E-02 0.  1.
    10030    2    1    2    0    0  0.00000000000E+00  0.00000000000E+00  0.53658327103E+03  0.22646787547E+04  0.22001927768E+04 0.  0.
        1    1    3    3  502    0  0.42316081283E+03  0.11326965363E+03 -0.77040174333E+03  0.88623582307E+03  0.50400001928E-02 0.  1.
       -1    1    3    3    0  502 -0.42316081283E+03 -0.11326965363E+03  0.13069850144E+04  0.13784429316E+04  0.50400001928E-02 0. -1.
</event>
<event>
 5   0  0.4630615E-06  0.2197368E+04  0.7818609E-02  0.8519524E-01
       -1   -1    0    0    0  501  0.00000000000E+00  0.00000000000E+00  0.12985324472E+04  0.12985324472E+04  0.50400001928E-02 0. -1.
        1   -1    0    0  501    0  0.00000000000E+00  0.00000000000E+00 -0.92959299764E+03  0.92959299765E+03  0.50400001928E-02 0.  1.
    10030    2    1    2    0    0  0.00000000000E+00  0.00000000000E+00  0.36893944957E+03  0.22281254449E+04  0.21973681259E+04 0.  0.
        2    1    3    3  502    0  0.53021916658E+03 -0.49422651220E+03  0.10216867875E+04  0.12526915429E+04  0.25500000920E-02 0. -1.
       -2    1    3    3    0  502 -0.53021916658E+03  0.49422651220E+03 -0.65274733790E+03  0.97543390197E+03  0.25500000920E-02 0.  1.
</event>
<event>
 5   0  0.9963573E-06  0.2203052E+04  0.7818609E-02  0.8517159E-01
       -2   -1    0    0    0  501  0.00000000000E+00  0.00000000000E+00  0.12581242294E+04  0.12581242294E+04  0.25500000920E-02 0. -1.
        2   -1    0    0  501    0  0.00000000000E+00  0.00000000000E+00 -0.96441987113E+03  0.96441987113E+03  0.25500000920E-02 0.  1.
    10030    2    1    2    0    0  0.00000000000E+00  0.00000000000E+00  0.29370435831E+03  0.22225441006E+04  0.22030524344E+04 0.  0.
        2    1    3    3  502    0 -0.98179654409E+03 -0.44073439956E+03 -0.90149160979E+02  0.10799528398E+04  0.25500000920E-02 0.  1.
       -2    1    3    3    0  502  0.98179654409E+03  0.44073439956E+03  0.38385351929E+03  0.11425912608E+04  0.25500000920E-02 0. -1.
</event>
<event>
 5   0  0.1035928E-05  0.2201617E+04  0.7818609E-02  0.8517755E-01
       -2   -1    0    0    0  501  0.00000000000E+00  0.00000000000E+00  0.10305269122E+04  0.10305269122E+04  0.25500000920E-02 0.  1.
        2   -1    0    0  501    0  0.00000000000E+00  0.00000000000E+00 -0.11758829890E+04  0.11758829890E+04  0.25500000920E-02 0. -1.
    10030    2    1    2    0    0  0.00000000000E+00  0.00000000000E+00 -0.14535607678E+03  0.22064099012E+04  0.22016167385E+04 0.  0.
        3    1    3    3  502    0 -0.14883423210E+03  0.25531814400E+03  0.99002674768E+03  0.10331950225E+04  0.10100000352E+00 0.  1.
       -3    1    3    3    0  502  0.14883423210E+03 -0.25531814400E+03 -0.11353828245E+04  0.11732148787E+04  0.10100000352E+00 0. -1.
</event>
<event>
 5   0  0.1015876E-05  0.2209796E+04  0.7818609E-02  0.8514362E-01
       -2   -1    0    0    0  501  0.00000000000E+00  0.00000000000E+00  0.69145670693E+03  0.69145670694E+03  0.25500000920E-02 0. -1.
        2   -1    0    0  501    0  0.00000000000E+00  0.00000000000E+00 -0.17655469858E+04  0.17655469858E+04  0.25500000920E-02 0.  1.
    10030    2    1    2    0    0  0.00000000000E+00  0.00000000000E+00 -0.10740902788E+04  0.24570036927E+04  0.22097957414E+04 0.  0.
        5    1    3    3  502    0  0.16831369271E+03 -0.95203338600E+03 -0.11317445902E+04  0.14884774015E+04  0.46999998093E+01 0. -1.
       -5    1    3    3    0  502 -0.16831369271E+03  0.95203338600E+03  0.57654311377E+02  0.96852629124E+03  0.46999998093E+01 0.  1.
</event>
<event>
 5   0  0.1014015E-05  0.2199855E+04  0.7818609E-02  0.8518488E-01
        2   -1    0    0  501    0  0.00000000000E+00  0.00000000000E+00  0.20407641662E+04  0.20407641662E+04  0.25500000920E-02 0. -1.
       -2   -1    0    0    0  501  0.00000000000E+00  0.00000000000E+00 -0.59283699955E+03  0.59283699956E+03  0.25500000920E-02 0.  1.
    10030    2    1    2    0    0  0.00000000000E+00  0.00000000000E+00  0.14479271666E+04  0.26336011657E+04  0.21998549998E+04 0.  0.
        1    1    3    3  502    0  0.48838583094E+03  0.20167517845E+03  0.18788743209E+04  0.19517587739E+04  0.50400001928E-02 0. -1.
       -1    1    3    3    0  502 -0.48838583094E+03 -0.20167517845E+03 -0.43094715433E+03  0.68184239185E+03  0.50400001928E-02 0.  1.
</event>
<event>
 5   0  0.4408787E-06  0.2201065E+04  0.7818609E-02  0.8517985E-01
       -1   -1    0    0    0  501  0.00000000000E+00  0.00000000000E+00  0.71778797878E+03  0.71778797880E+03  0.50400001928E-02 0. -1.
        1   -1    0    0  501    0  0.00000000000E+00  0.00000000000E+00 -0.16873674271E+04  0.16873674271E+04  0.50400001928E-02 0.  1.
    10030    2    1    2    0    0  0.00000000000E+00  0.00000000000E+00 -0.96957944828E+03  0.24051554059E+04  0.22010652466E+04 0.  0.
        1    1    3    3  502    0 -0.58002406611E+03  0.91693927634E+03 -0.68617867197E+03  0.12837627209E+04  0.50400001928E-02 0.  1.
       -1    1    3    3    0  502  0.58002406611E+03 -0.91693927634E+03 -0.28340077631E+03  0.11213926849E+04  0.50400001928E-02 0. -1.
</event>
<event>
 5   0  0.9963573E-06  0.2219620E+04  0.7818609E-02  0.8510306E-01
        2   -1    0    0  501    0  0.00000000000E+00  0.00000000000E+00  0.19618418002E+04  0.19618418002E+04  0.25500000920E-02 0. -1.
       -2   -1    0    0    0  501  0.00000000000E+00  0.00000000000E+00 -0.62781735215E+03  0.62781735215E+03  0.25500000920E-02 0.  1.
    10030    2    1    2    0    0  0.00000000000E+00  0.00000000000E+00  0.13340244481E+04  0.25896591524E+04  0.22196200795E+04 0.  0.
        2    1    3    3  502    0 -0.10800529568E+04 -0.16264244794E+02  0.96423653778E+03  0.14479402667E+04  0.25500000920E-02 0.  1.
       -2    1    3    3    0  502  0.10800529568E+04  0.16264244794E+02  0.36978791028E+03  0.11417188856E+04  0.25500000920E-02 0. -1.
</event>
<event>
 5   0  0.4462201E-06  0.2200623E+04  0.7818609E-02  0.8518169E-01
       -1   -1    0    0    0  501  0.00000000000E+00  0.00000000000E+00  0.12190788302E+04  0.12190788302E+04  0.50400001928E-02 0. -1.
        1   -1    0    0  501    0  0.00000000000E+00  0.00000000000E+00 -0.99311505879E+03  0.99311505880E+03  0.50400001928E-02 0.  1.
    10030    2    1    2    0    0  0.00000000000E+00  0.00000000000E+00  0.22596377140E+03  0.22121938890E+04  0.22006231337E+04 0.  0.
        3    1    3    3  502    0 -0.29800060455E+03  0.21912682150E+03 -0.92874117721E+03  0.99969050643E+03  0.10100000352E+00 0.  1.
       -3    1    3    3    0  502  0.29800060455E+03 -0.21912682150E+03  0.11547049486E+04  0.12125033826E+04  0.10100000352E+00 0. -1.
</event>
<event>
 5   0  0.1015876E-05  0.2199262E+04  0.7818609E-02  0.8518735E-01
        2   -1    0    0  501    0  0.00000000000E+00  0.00000000000E+00  0.17832759854E+04  0.17832759854E+04  0.25500000920E-02 0.  1.
       -2   -1    0    0    0  501  0.00000000000E+00  0.00000000000E+00 -0.67807125526E+03  0.67807125527E+03  0.25500000920E-02 0. -1.
    10030    2    1    2    0    0  0.00000000000E+00  0.00000000000E+00  0.11052047301E+04  0.24613472407E+04  0.21992618634E+04 0.  0.
        5    1    3    3  502    0 -0.87652877852E+03  0.35354925370E+03 -0.76393231770E+02  0.94823931063E+03  0.46999998093E+01 0. -1.
       -5    1    3    3    0  502  0.87652877852E+03 -0.35354925370E+03  0.11815979619E+04  0.15131079300E+04  0.46999998093E+01 0.  1.
</event>
<event>
 5   0  0.4309945E-06  0.2198206E+04  0.7818609E-02  0.8519175E-01
        1   -1    0    0  501    0  0.00000000000E+00  0.00000000000E+00  0.12008823648E+04  0.12008823649E+04  0.50400001928E-02 0.  1.
       -1   -1    0    0    0  501  0.00000000000E+00  0.00000000000E+00 -0.10059497814E+04  0.10059497814E+04  0.50400001928E-02 0. -1.
    10030    2    1    2    0    0  0.00000000000E+00  0.00000000000E+00  0.19493258345E+03  0.22068321463E+04  0.21982059525E+04 0.  0.
        4    1    3    3  502    0  0.38792241344E+03  0.90899564969E+03  0.58025765460E+03  0.11460617124E+04  0.12699999809E+01 0.  1.
       -4    1    3    3    0  502 -0.38792241344E+03 -0.90899564969E+03 -0.38532507115E+03  0.10607704339E+04  0.12699999809E+01 0. -1.
</event>
<event>
 5   0  0.9963173E-06  0.2200683E+04  0.7818609E-02  0.8518144E-01
       -2   -1    0    0    0  501  0.00000000000E+00  0.00000000000E+00  0.10196865834E+04  0.10196865834E+04  0.25500000920E-02 0. -1.
        2   -1    0    0  501    0  0.00000000000E+00  0.00000000000E+00 -0.11873763814E+04  0.11873763814E+04  0.25500000920E-02 0.  1.
    10030    2    1    2    0    0  0.00000000000E+00  0.00000000000E+00 -0.16768979800E+03  0.22070629649E+04  0.22006833172E+04 0.  0.
        4    1    3    3  502    0 -0.86083410291E+03  0.65813746606E+03  0.10794199012E+03  0.10889597619E+04  0.12699999809E+01 0. -1.
       -4    1    3    3    0  502  0.86083410291E+03 -0.65813746606E+03 -0.27563178812E+03  0.11181032030E+04  0.12699999809E+01 0.  1.
</event>
<event>
 5   0  0.4408787E-06  0.2199485E+04  0.7818609E-02  0.8518643E-01
        1   -1    0    0  501    0  0.00000000000E+00  0.00000000000E+00  0.51168310235E+03  0.51168310238E+03  0.50400001928E-02 0.  1.
       -1   -1    0    0    0  501  0.00000000000E+00  0.00000000000E+00 -0.23636377331E+04  0.23636377331E+04  0.50400001928E-02 0. -1.
    10030    2    1    2    0    0  0.00000000000E+00  0.00000000000E+00 -0.18519546307E+04  0.28753208355E+04  0.21994849289E+04 0.  0.
        1    1    3    3  502    0 -0.42181837677E+03  0.30911163201E+03  0.33873655581E+03  0.62307559597E+03  0.50400001928E-02 0.  1.
       -1    1    3    3    0  502  0.42181837677E+03 -0.30911163201E+03 -0.21906911866E+04  0.22522452395E+04  0.50400001928E-02 0. -1.
</event>
<event>
 5   0  0.1014015E-05  0.2207307E+04  0.7818609E-02  0.8515393E-01
        2   -1    0    0  501    0  0.00000000000E+00  0.00000000000E+00  0.14648287189E+04  0.14648287189E+04  0.25500000920E-02 0.  1.
       -2   -1    0    0    0  501  0.00000000000E+00  0.00000000000E+00 -0.83153171022E+03  0.83153171022E+03  0.25500000920E-02 0. -1.
    10030    2    1    2    0    0  0.00000000000E+00  0.00000000000E+00  0.63329700864E+03  0.22963604291E+04  0.22073074365E+04 0.  0.
        1    1    3    3  502    0  0.27284627708E+03 -0.21327916741E+03  0.14068375638E+04  0.14488357482E+04  0.50400001928E-02 0.  1.
       -1    1    3    3    0  502 -0.27284627708E+03  0.21327916741E+03 -0.77354055520E+03  0.84752468090E+03  0.50400001928E-02 0. -1.
</event>
<event>
 5   0  0.4309945E-06  0.2203518E+04  0.7818609E-02  0.8516965E-01
        1   -1    0    0  501    0  0.00000000000E+00  0.00000000000E+00  0.11912359082E+04  0.11912359082E+04  0.50400001928E-02 0. -1.
       -1   -1    0    0    0  501  0.00000000000E+00  0.00000000000E+00 -0.10190030786E+04  0.10190030786E+04  0.50400001928E-02 0.  1.
    10030    2    1    2    0    0  0.00000000000E+00  0.00000000000E+00  0.17223282959E+03  0.22102389868E+04  0.22035181486E+04 0.  0.
        4    1    3    3  502    0 -0.28041707551E+03 -0.10398376305E+04  0.31915110808E+03  0.11232787173E+04  0.12699999809E+01 0. -1.
       -4    1    3    3    0  502  0.28041707551E+03  0.10398376305E+04 -0.14691827849E+03  0.10869602695E+04  0.12699999809E+01 0.  1.
</event>
<event>
 5   0  0.1035928E-05  0.2199828E+04  0.7818609E-02  0.8518500E-01
        2   -1    0    0  501    0  0.00000000000E+00  0.00000000000E+00  0.13824752119E+04  0.13824752119E+04  0.25500000920E-02 0.  1.
       -2   -1    0    0    0  501  0.00000000000E+00  0.00000000000E+00 -0.87510500008E+03  0.87510500009E+03  0.25500000920E-02 0. -1.
    10030    2    1    2    0    0  0.00000000000E+00  0.00000000000E+00  0.50737021181E+03  0.22575802120E+04  0.21998281482E+04 0.  0.
        3    1    3    3  502    0 -0.71768194251E+03  0.25058616828E+03 -0.56213771510E+03  0.94544149437E+03  0.10100000352E+00 0. -1.
       -3    1    3    3    0  502  0.71768194251E+03 -0.25058616828E+03  0.10695079269E+04  0.13121387176E+04  0.10100000352E+00 0.  1.
</event>
<event>
 5   0  0.4462201E-06  0.2196947E+04  0.7818609E-02  0.8519700E-01
       -1   -1    0    0    0  501  0.00000000000E+00  0.00000000000E+00  0.80028695560E+03  0.80028695561E+03  0.50400001928E-02 0. -1.
        1   -1    0    0  501    0  0.00000000000E+00  0.00000000000E+00 -0.15077637765E+04  0.15077637765E+04  0.50400001928E-02 0.  1.
    10030    2    1    2    0    0  0.00000000000E+00  0.00000000000E+00 -0.70747682092E+03  0.23080507321E+04  0.21969466835E+04 0.  0.
        3    1    3    3  502    0  0.66459793980E+03 -0.71985571843E+03  0.16813370206E+03  0.99405816173E+03  0.10100000352E+00 0. -1.
       -3    1    3    3    0  502 -0.66459793980E+03  0.71985571843E+03 -0.87561052298E+03  0.13139925704E+04  0.10100000352E+00 0.  1.
</event>
<event>
 5   0  0.1014015E-05  0.2199957E+04  0.7818609E-02  0.8518446E-01
       -2   -1    0    0    0  501  0.00000000000E+00  0.00000000000E+00  0.86212028037E+03  0.86212028037E+03  0.25500000920E-02 0.  1.
        2   -1    0    0  501    0  0.00000000000E+00  0.00000000000E+00 -0.14034621705E+04  0.14034621705E+04  0.25500000920E-02 0. -1.
    10030    2    1    2    0    0  0.00000000000E+00  0.00000000000E+00 -0.54134189010E+03  0.22655824508E+04  0.21999574540E+04 0.  0.
        1    1    3    3  502    0 -0.74646970404E+03  0.38206857124E+03 -0.10037767575E+04  0.13079606994E+04  0.50400001928E-02 0. -1.
       -1    1    3    3    0  502  0.74646970404E+03 -0.38206857124E+03  0.46243486744E+03  0.95762175144E+03  0.50400001928E-02 0.  1.
</event>
<event>
 5   0  0.4309945E-06  0.2200419E+04  0.7818609E-02  0.8518254E-01
       -1   -1    0    0    0  501  0.00000000000E+00  0.00000000000E+00  0.13752218639E+04  0.13752218639E+04  0.50400001928E-02 0.  1.
        1   -1    0    0  501    0  0.00000000000E+00  0.00000000000E+00 -0.88019333041E+03  0.88019333042E+03  0.50400001928E-02 0. -1.
    10030    2    1    2    0    0  0.00000000000E+00  0.00000000000E+00  0.49502853347E+03  0.22554151943E+04  0.22004191532E+04 0.  0.
        4    1    3    3  502    0  0.85413667814E+03  0.51364322215E+02 -0.46134242878E+03  0.97212458463E+03  0.12699999809E+01 0. -1.
       -4    1    3    3    0  502 -0.85413667814E+03 -0.51364322215E+02  0.95637096225E+03  0.12832906097E+04  0.12699999809E+01 0.  1.
</event>
<event>
 5   0  0.1035928E-05  0.2205002E+04  0.7818609E-02  0.8516349E-01
       -2   -1    0    0    0  501  0.00000000000E+00  0.00000000000E+00  0.17508242168E+04  0.17508242168E+04  0.25500000920E-02 0.  1.
        2   -1    0    0  501    0  0.00000000000E+00  0.00000000000E+00 -0.69424914448E+03  0.69424914449E+03  0.25500000920E-02 0. -1.
    10030    2    1    2    0    0  0.00000000000E+00  0.00000000000E+00  0.10565750723E+04  0.24450733612E+04  0.22050017820E+04 0.  0.
        3    1    3    3  502    0 -0.74236742695E+03  0.78023159449E+03  0.78984470228E+03  0.13355618299E+04  0.10100000352E+00 0. -1.
       -3    1    3    3    0  502  0.74236742695E+03 -0.78023159449E+03  0.26673036999E+03  0.11095115313E+04  0.10100000352E+00 0.  1.
</event>
<event>
 5   0  0.4309945E-06  0.2200332E+04  0.7818609E-02  0.8518290E-01
        1   -1    0    0  501    0  0.00000000000E+00  0.00000000000E+00  0.84751316650E+03  0.84751316652E+03  0.50400001928E-02 0.  1.
       -1   -1    0    0    0  501  0.00000000000E+00  0.00000000000E+00 -0.14281378826E+04  0.14281378826E+04  0.50400001928E-02 0. -1.
    10030    2    1    2    0    0  0.00000000000E+00  0.00000000000E+00 -0.58062471613E+03  0.22756510492E+04  0.22003323923E+04 0.  0.
        4    1    3    3  502    0 -0.99087642829E+03  0.12832936609E+03 -0.76657472539E+03  0.12593422668E+04  0.12699999809E+01 0. -1.
       -4    1    3    3    0  502  0.99087642829E+03 -0.12832936609E+03  0.18595000926E+03  0.10163087824E+04  0.12699999809E+01 0.  1.
</event>
<event>
 5   0  0.3546750E-06  0.2199790E+04  0.7818609E-02  0.8518515E-01
        3   -1    0    0  501    0  0.00000000000E+00  0.00000000000E+00  0.17313088744E+04  0.17313088773E+04  0.10100000352E+00 0.  1.
       -3   -1    0    0    0  501  0.00000000000E+00  0.00000000000E+00 -0.69876000129E+03  0.69876000859E+03  0.10100000352E+00 0. -1.
    10030    2    1    2    0    0  0.00000000000E+00  0.00000000000E+00  0.10325488731E+04  0.24300688859E+04  0.21997903570E+04 0.  0.
        2    1    3    3  502    0 -0.51253813245E+03 -0.39137235686E+03 -0.46801011557E+03  0.79680683181E+03  0.25500000920E-02 0. -1.
       -2    1    3    3    0  502  0.51253813245E+03  0.39137235686E+03  0.15005589887E+04  0.16332620541E+04  0.25500000920E-02 0.  1.
</event>
<event>
 5   0  0.4309945E-06  0.2201268E+04  0.7818609E-02  0.8517901E-01
        1   -1    0    0  501    0  0.00000000000E+00  0.00000000000E+00  0.16855341537E+04  0.16855341537E+04  0.50400001928E-02 0.  1.
       -1   -1    0    0    0  501  0.00000000000E+00  0.00000000000E+00 -0.71870091153E+03  0.71870091155E+03  0.50400001928E-02 0. -1.
    10030    2    1    2    0    0  0.00000000000E+00  0.00000000000E+00  0.96683324217E+03  0.24042350653E+04  0.22012677554E+04 0.  0.
        4    1    3    3  502    0  0.46313882047E+03  0.77631788654E+03  0.11691840395E+04  0.14778903745E+04  0.12699999809E+01 0.  1.
       -4    1    3    3    0  502 -0.46313882047E+03 -0.77631788654E+03 -0.20235079731E+03  0.92634469074E+03  0.12699999809E+01 0. -1.
</event>
<event>
 5   0  0.4462201E-06  0.2198937E+04  0.7818609E-02  0.8518871E-01
        1   -1    0    0  501    0  0.00000000000E+00  0.00000000000E+00  0.23721460199E+04  0.23721460199E+04  0.50400001928E-02 0. -1.
       -1   -1    0    0    0  501  0.00000000000E+00  0.00000000000E+00 -0.50959382979E+03  0.50959382981E+03  0.50400001928E-02 0.  1.
    10030    2    1    2    0    0  0.00000000000E+00  0.00000000000E+00  0.18625521901E+04  0.28817398497E+04  0.21989369933E+04 0.  0.
        3    1    3    3  502    0  0.73971723386E+03  0.46926196592E+03  0.60554931856E+02  0.87809753940E+03  0.10100000352E+00 0.  1.
       -3    1    3    3    0  502 -0.73971723386E+03 -0.46926196592E+03  0.18019972583E+04  0.20036423103E+04  0.10100000352E+00 0. -1.
</event>
<event>
 5   0  0.9963573E-06  0.2186597E+04  0.7818609E-02  0.8524028E-01
       -2   -1    0    0    0  501  0.00000000000E+00  0.00000000000E+00  0.17004389129E+04  0.17004389129E+04  0.25500000920E-02 0.  1.
        2   -1    0    0  501    0  0.00000000000E+00  0.00000000000E+00 -0.70293699899E+03  0.70293699899E+03  0.25500000920E-02 0. -1.
    10030    2    1    2    0    0  0.00000000000E+00  0.00000000000E+00  0.99750191395E+03  0.24033759119E+04  0.21865968320E+04 0.  0.
        2    1    3    3  502    0 -0.33715705762E+03  0.10010477250E+04  0.18878180642E+03  0.10730377438E+04  0.25500000920E-02 0. -1.
       -2    1    3    3    0  502  0.33715705762E+03 -0.10010477250E+04  0.80872010753E+03  0.13303381681E+04  0.25500000920E-02 0.  1.
</event>
<event>
 5   0  0.9963173E-06  0.2201887E+04  0.7818609E-02  0.8517643E-01
        2   -1    0    0  501    0  0.00000000000E+00  0.00000000000E+00  0.14773784412E+04  0.14773784412E+04  0.25500000920E-02 0.  1.
       -2   -1    0    0    0  501  0.00000000000E+00  0.00000000000E+00 -0.82042397582E+03  0.82042397583E+03  0.25500000920E-02 0. -1.
    10030    2    1    2    0    0  0.00000000000E+00  0.00000000000E+00  0.65695446537E+03  0.22978024170E+04  0.22018870948E+04 0.  0.
        4    1    3    3  502    0 -0.32107026448E+03  0.20415326610E+03  0.14065870697E+04  0.14571387951E+04  0.12699999809E+01 0.  1.
       -4    1    3    3    0  502  0.32107026448E+03 -0.20415326610E+03 -0.74963260432E+03  0.84066362188E+03  0.12699999809E+01 0. -1.
</event>
<event>
 5   0  0.1015876E-05  0.2191379E+04  0.7818609E-02  0.8522025E-01
       -2   -1    0    0    0  501  0.00000000000E+00  0.00000000000E+00  0.96929117275E+03  0.96929117276E+03  0.25500000920E-02 0. -1.
        2   -1    0    0  501    0  0.00000000000E+00  0.00000000000E+00 -0.12385705214E+04  0.12385705214E+04  0.25500000920E-02 0.  1.
    10030    2    1    2    0    0  0.00000000000E+00  0.00000000000E+00 -0.26927934867E+03  0.22078616942E+04  0.21913789935E+04 0.  0.
        5    1    3    3  502    0  0.78078981541E+03  0.12267826037E+03 -0.89918242552E+03  0.11971774370E+04  0.46999998093E+01 0.  1.
       -5    1    3    3    0  502 -0.78078981541E+03 -0.12267826037E+03  0.62990307685E+03  0.10106842571E+04  0.46999998093E+01 0. -1.
</event>
<event>
 5   0  0.1015876E-05  0.2196372E+04  0.7818609E-02  0.8519940E-01
       -2   -1    0    0    0  501  0.00000000000E+00  0.00000000000E+00  0.18445116607E+04  0.18445116607E+04  0.25500000920E-02 0.  1.
        2   -1    0    0  501    0  0.00000000000E+00  0.00000000000E+00 -0.65383821032E+03  0.65383821032E+03  0.25500000920E-02 0. -1.
    10030    2    1    2    0    0  0.00000000000E+00  0.00000000000E+00  0.11906734504E+04  0.24983498710E+04  0.21963717382E+04 0.  0.
        5    1    3    3  502    0 -0.64865865876E+03  0.81495206504E+03  0.19952111049E+03  0.10605355663E+04  0.46999998093E+01 0.  1.
       -5    1    3    3    0  502  0.64865865876E+03 -0.81495206504E+03  0.99115233986E+03  0.14378143047E+04  0.46999998093E+01 0. -1.
</event>
<event>
 5   0  0.4309945E-06  0.2202841E+04  0.7818609E-02  0.8517246E-01
        1   -1    0    0  501    0  0.00000000000E+00  0.00000000000E+00  0.12756923661E+04  0.12756923661E+04  0.50400001928E-02 0. -1.
       -1   -1    0    0    0  501  0.00000000000E+00  0.00000000000E+00 -0.95095614846E+03  0.95095614848E+03  0.50400001928E-02 0.  1.
    10030    2    1    2    0    0  0.00000000000E+00  0.00000000000E+00  0.32473621766E+03  0.22266485146E+04  0.22028413462E+04 0.  0.
        4    1    3    3  502    0  0.17738849432E+03 -0.10647761144E+04  0.38361960825E+03  0.11455917547E+04  0.12699999809E+01 0. -1.
       -4    1    3    3    0  502 -0.17738849432E+03  0.10647761144E+04 -0.58883390589E+02  0.10810567599E+04  0.12699999809E+01 0.  1.
</event>
<event>
 5   0  0.4408787E-06  0.2202211E+04  0.7818609E-02  0.8517508E-01
        1   -1    0    0  501    0  0.00000000000E+00  0.00000000000E+00  0.74834413355E+03  0.74834413356E+03  0.50400001928E-02 0. -1.
       -1   -1    0    0    0  501  0.00000000000E+00  0.00000000000E+00 -0.16201544851E+04  0.16201544851E+04  0.50400001928E-02 0.  1.
    10030    2    1    2    0    0  0.00000000000E+00  0.00000000000E+00 -0.87181035151E+03  0.23684986186E+04  0.22022108022E+04 0.  0.
        1    1    3    3  502    0 -0.97875181270E+03 -0.85704196692E+02 -0.97056731056E+03  0.13810507683E+04  0.50400001928E-02 0.  1.
       -1    1    3    3    0  502  0.97875181270E+03  0.85704196692E+02  0.98756959053E+02  0.98744785036E+03  0.50400001928E-02 0. -1.
</event>
<event>
 5   0  0.1035928E-05  0.2200224E+04  0.7818609E-02  0.8518335E-01
       -2   -1    0    0    0  501  0.00000000000E+00  0.00000000000E+00  0.96875616582E+03  0.96875616582E+03  0.25500000920E-02 0. -1.
        2   -1    0    0  501    0  0.00000000000E+00  0.00000000000E+00 -0.12492788773E+04  0.12492788773E+04  0.25500000920E-02 0.  1.
    10030    2    1    2    0    0  0.00000000000E+00  0.00000000000E+00 -0.28052271149E+03  0.22180350431E+04  0.22002241842E+04 0.  0.
        3    1    3    3  502    0 -0.58845302836E+03  0.75712946117E+03 -0.68381495171E+03  0.11777626611E+04  0.10100000352E+00 0.  1.
       -3    1    3    3    0  502  0.58845302836E+03 -0.75712946117E+03  0.40329224021E+03  0.10402723820E+04  0.10100000352E+00 0. -1.
</event>
<event>
 5   0  0.1014015E-05  0.2212153E+04  0.7818609E-02  0.8513387E-01
        2   -1    0    0  501    0  0.00000000000E+00  0.00000000000E+00  0.87005418139E+03  0.87005418139E+03  0.25500000920E-02 0. -1.
       -2   -1    0    0    0  501  0.00000000000E+00  0.00000000000E+00 -0.14061253975E+04  0.14061253975E+04  0.25500000920E-02 0.  1.
    10030    2    1    2    0    0  0.00000000000E+00  0.00000000000E+00 -0.53607121608E+03  0.22761795789E+04  0.22121530522E+04 0.  0.
        1    1    3    3  502    0  0.95966503396E+03  0.38131135185E+03 -0.67580090537E+03  0.12341240570E+04  0.50400001928E-02 0.  1.
       -1    1    3    3    0  502 -0.95966503396E+03 -0.38131135185E+03  0.13972968929E+03  0.10420555218E+04  0.50400001928E-02 0. -1.
</event>
<event>
 5   0  0.1015876E-05  0.2200067E+04  0.7818609E-02  0.8518400E-01
        2   -1    0    0  501    0  0.00000000000E+00  0.00000000000E+00  0.14226679361E+04  0.14226679361E+04  0.25500000920E-02 0.  1.
       -2   -1    0    0    0  501  0.00000000000E+00  0.00000000000E+00 -0.85056621190E+03  0.85056621191E+03  0.25500000920E-02 0. -1.
    10030    2    1    2    0    0  0.00000000000E+00  0.00000000000E+00  0.57210172416E+03  0.22732341480E+04  0.22000666146E+04 0.  0.
        5    1    3    3  502    0  0.80707555708E+03 -0.42859431711E+03  0.91877809871E+03  0.12958546709E+04  0.46999998093E+01 0.  1.
       -5    1    3    3    0  502 -0.80707555708E+03  0.42859431711E+03 -0.34667637454E+03  0.97737947705E+03  0.46999998093E+01 0. -1.
</event>
<event>
 5   0  0.4462201E-06  0.2266009E+04  0.7818609E-02  0.8491445E-01
       -1   -1    0    0    0  501  0.00000000000E+00  0.00000000000E+00  0.69614005308E+03  0.69614005310E+03  0.50400001928E-02 0.  1.
        1   -1    0    0  501    0  0.00000000000E+00  0.00000000000E+00 -0.18440238655E+04  0.18440238655E+04  0.50400001928E-02 0. -1.
    10030    2    1    2    0    0  0.00000000000E+00  0.00000000000E+00 -0.11478838124E+04  0.25401639186E+04  0.22660087128E+04 0.  0.
        3    1    3    3  502    0  0.32227516109E+03 -0.98170032589E+02  0.63869353327E+03  0.72209976762E+03  0.10100000352E+00 0.  1.
       -3    1    3    3    0  502 -0.32227516109E+03  0.98170032589E+02 -0.17865773457E+04  0.18180641510E+04  0.10100000352E+00 0. -1.
</event>
<event>
 5   0  0.9963573E-06  0.2202606E+04  0.7818609E-02  0.8517344E-01
       -2   -1    0    0    0  501  0.00000000000E+00  0.00000000000E+00  0.76238480302E+03  0.76238480303E+03  0.25500000920E-02 0.  1.
        2   -1    0    0  501    0  0.00000000000E+00  0.00000000000E+00 -0.15908874707E+04  0.15908874707E+04  0.25500000920E-02 0. -1.
    10030    2    1    2    0    0  0.00000000000E+00  0.00000000000E+00 -0.82850266770E+03  0.23532722737E+04  0.22026061209E+04 0.  0.
        2    1    3    3  502    0  0.62012000819E+03  0.68943812666E+03 -0.10490257487E+04  0.14001174152E+04  0.25500000920E-02 0. -1.
       -2    1    3    3    0  502 -0.62012000819E+03 -0.68943812666E+03  0.22052308098E+03  0.95315485851E+03  0.25500000920E-02 0.  1.
</event>
<event>
 5   0  0.4408787E-06  0.2198089E+04  0.7818609E-02  0.8519224E-01
        1   -1    0    0  501    0  0.00000000000E+00  0.00000000000E+00  0.87670136897E+03  0.87670136899E+03  0.50400001928E-02 0. -1.
       -1   -1    0    0    0  501  0.00000000000E+00  0.00000000000E+00 -0.13777769447E+04  0.13777769447E+04  0.50400001928E-02 0.  1.
    10030    2    1    2    0    0  0.00000000000E+00  0.00000000000E+00 -0.50107557575E+03  0.22544783137E+04  0.21980891098E+04 0.  0.
        1    1    3    3  502    0 -0.27288507643E+03  0.91502552967E+03  0.30762986410E+03  0.10031819966E+04  0.50400001928E-02 0. -1.
       -1    1    3    3    0  502  0.27288507643E+03 -0.91502552967E+03 -0.80870543986E+03  0.12512963172E+04  0.50400001928E-02 0.  1.
</event>
<event>
 5   0  0.1035928E-05  0.2201870E+04  0.7818609E-02  0.8517650E-01
       -2   -1    0    0    0  501  0.00000000000E+00  0.00000000000E+00  0.11179041934E+04  0.11179041934E+04  0.25500000920E-02 0. -1.
        2   -1    0    0  501    0  0.00000000000E+00  0.00000000000E+00 -0.10842237090E+04  0.10842237090E+04  0.25500000920E-02 0.  1.
    10030    2    1    2    0    0  0.00000000000E+00  0.00000000000E+00  0.33680484423E+02  0.22021279024E+04  0.22018703239E+04 0.  0.
        3    1    3    3  502    0  0.28880841682E+03  0.73215548054E+03  0.78673304335E+03  0.11128390903E+04  0.10100000352E+00 0.  1.
       -3    1    3    3    0  502 -0.28880841682E+03 -0.73215548054E+03 -0.75305255892E+03  0.10892888120E+04  0.10100000352E+00 0. -1.
</event>
<event>
 5   0  0.9963573E-06  0.2194021E+04  0.7818609E-02  0.8520921E-01
        2   -1    0    0  501    0  0.00000000000E+00  0.00000000000E+00  0.12587102589E+04  0.12587102589E+04  0.25500000920E-02 0.  1.
       -2   -1    0    0    0  501  0.00000000000E+00  0.00000000000E+00 -0.95608356754E+03  0.95608356754E+03  0.25500000920E-02 0. -1.
    10030    2    1    2    0    0  0.00000000000E+00  0.00000000000E+00  0.30262669134E+03  0.22147938264E+04  0.21940211438E+04 0.  0.
        2    1    3    3  502    0  0.63921927487E+02 -0.78571473023E+03  0.92142455548E+03  0.12126239572E+04  0.25500000920E-02 0.  1.
       -2    1    3    3    0  502 -0.63921927487E+02  0.78571473023E+03 -0.61879786414E+03  0.10021698692E+04  0.25500000920E-02 0. -1.
</event>
<event>
 5   0  0.4408787E-06  0.2202399E+04  0.7818609E-02  0.8517430E-01
       -1   -1    0    0    0  501  0.00000000000E+00  0.00000000000E+00  0.11975732497E+04  0.11975732497E+04  0.50400001928E-02 0.  1.
        1   -1    0    0  501    0  0.00000000000E+00  0.00000000000E+00 -0.10125811078E+04  0.10125811078E+04  0.50400001928E-02 0. -1.
    10030    2    1    2    0    0  0.00000000000E+00  0.00000000000E+00  0.18499214185E+03  0.22101543575E+04  0.22023987358E+04 0.  0.
        1    1    3    3  502    0 -0.26772387069E+03  0.18572824749E+03  0.11480885353E+04  0.11934313293E+04  0.50400001928E-02 0.  1.
       -1    1    3    3    0  502  0.26772387069E+03 -0.18572824749E+03 -0.96309639349E+03  0.10167230282E+04  0.50400001928E-02 0. -1.
</event>
<event>
 5   0  0.1015876E-05  0.2199592E+04  0.7818609E-02  0.8518598E-01
        2   -1    0    0  501    0  0.00000000000E+00  0.00000000000E+00  0.16878473693E+04  0.16878473693E+04  0.25500000920E-02 0. -1.
       -2   -1    0    0    0  501  0.00000000000E+00  0.00000000000E+00 -0.71662387148E+03  0.71662387148E+03  0.25500000920E-02 0.  1.
    10030    2    1    2    0    0  0.00000000000E+00  0.00000000000E+00  0.97122349782E+03  0.24044712408E+04  0.21995924316E+04 0.  0.
        5    1    3    3  502    0 -0.51598106754E+03  0.16143799638E+03 -0.56131601611E+03  0.77935643237E+03  0.46999998093E+01 0.  1.
       -5    1    3    3    0  502  0.51598106754E+03 -0.16143799638E+03  0.15325395139E+04  0.16251148084E+04  0.46999998093E+01 0. -1.
</event>
<event>
 5   0  0.9963573E-06  0.2193067E+04  0.7818609E-02  0.8521319E-01
        2   -1    0    0  501    0  0.00000000000E+00  0.00000000000E+00  0.21966962514E+04  0.21966962514E+04  0.25500000920E-02 0.  1.
       -2   -1    0    0    0  501  0.00000000000E+00  0.00000000000E+00 -0.54736101546E+03  0.54736101547E+03  0.25500000920E-02 0. -1.
    10030    2    1    2    0    0  0.00000000000E+00  0.00000000000E+00  0.16493352359E+04  0.27440572668E+04  0.21930671589E+04 0.  0.
        2    1    3    3  502    0  0.86848177666E+03  0.66454926839E+03  0.72379266115E+03  0.13113970195E+04  0.25500000920E-02 0. -1.
       -2    1    3    3    0  502 -0.86848177666E+03 -0.66454926839E+03  0.92554257475E+03  0.14326602473E+04  0.25500000920E-02 0.  1.
</event>
<event>
 5   0  0.1015876E-05  0.2202662E+04  0.7818609E-02  0.8517321E-01
        2   -1    0    0  501    0  0.00000000000E+00  0.00000000000E+00  0.19019995806E+04  0.19019995806E+04  0.25500000920E-02 0. -1.
       -2   -1    0    0    0  501  0.00000000000E+00  0.00000000000E+00 -0.63771308965E+03  0.63771308966E+03  0.25500000920E-02 0.  1.
    10030    2    1    2    0    0  0.00000000000E+00  0.00000000000E+00  0.12642864909E+04  0.25397126703E+04  0.22026620522E+04 0.  0.
        5    1    3    3  502    0 -0.15491138155E+03  0.58702186534E+03 -0.42732795721E+03  0.74244426022E+03  0.46999998093E+01 0.  1.
       -5    1    3    3    0  502  0.15491138155E+03 -0.58702186534E+03  0.16916144482E+04  0.17972684100E+04  0.46999998093E+01 0. -1.
</event>
<event>
 5   0  0.4408787E-06  0.2200978E+04  0.7818609E-02  0.8518021E-01
        1   -1    0    0  501    0  0.00000000000E+00  0.00000000000E+00  0.15281493122E+04  0.15281493122E+04  0.50400001928E-02 0. -1.
       -1   -1    0    0    0  501  0.00000000000E+00  0.00000000000E+00 -0.79251173966E+03  0.79251173968E+03  0.50400001928E-02 0.  1.
    10030    2    1    2    0    0  0.00000000000E+00  0.00000000000E+00  0.73563757253E+03  0.23206610519E+04  0.22009782097E+04 0.  0.
        1    1    3    3  502    0 -0.28522864109E+03 -0.74805755896E+03  0.11639473663E+04  0.14126991756E+04  0.50400001928E-02 0. -1.
       -1    1    3    3    0  502  0.28522864109E+03  0.74805755896E+03 -0.42830979381E+03  0.90796187624E+03  0.50400001928E-02 0.  1.
</event>
<event>
 5   0  0.9963173E-06  0.2198088E+04  0.7818609E-02  0.8519224E-01
       -2   -1    0    0    0  501  0.00000000000E+00  0.00000000000E+00  0.85999939120E+03  0.85999939120E+03  0.25500000920E-02 0. -1.
        2   -1    0    0  501    0  0.00000000000E+00  0.00000000000E+00 -0.14045330084E+04  0.14045330084E+04  0.25500000920E-02 0.  1.
    10030    2    1    2    0    0  0.00000000000E+00  0.00000000000E+00 -0.54453361720E+03  0.22645323996E+04  0.21980878346E+04 0.  0.
        4    1    3    3  502    0 -0.96264657700E+03 -0.20650413044E+02  0.27363859227E+03  0.10009967851E+04  0.12699999809E+01 0. -1.
       -4    1    3    3    0  502  0.96264657700E+03  0.20650413044E+02 -0.81817220947E+03  0.12635356145E+04  0.12699999809E+01 0.  1.
</event>
<event>
 5   0  0.1035928E-05  0.2202042E+04  0.7818609E-02  0.8517579E-01
       -2   -1    0    0    0  501  0.00000000000E+00  0.00000000000E+00  0.68494492219E+03  0.68494492220E+03  0.25500000920E-02 0. -1.
        2   -1    0    0  501    0  0.00000000000E+00  0.00000000000E+00 -0.17698459167E+04  0.17698459167E+04  0.25500000920E-02 0.  1.
    10030    2    1    2    0    0  0.00000000000E+00  0.00000000000E+00 -0.10849009945E+04  0.24547908389E+04  0.22020417559E+04 0.  0.
        3    1    3    3  502    0 -0.52422473883E+03  0.20581688601E+03  0.51222439688E+03  0.76127919341E+03  0.10100000352E+00 0. -1.
       -3    1    3    3    0  502  0.52422473883E+03 -0.20581688601E+03 -0.15971253913E+04  0.16935116454E+04  0.10100000352E+00 0.  1.
</event>
<event>
 5   0  0.1015876E-05  0.2200433E+04  0.7818609E-02  0.8518248E-01
       -2   -1    0    0    0  501  0.00000000000E+00  0.00000000000E+00  0.66026312017E+03  0.66026312017E+03  0.25500000920E-02 0.  1.
        2   -1    0    0  501    0  0.00000000000E+00  0.00000000000E+00 -0.18333233862E+04  0.18333233862E+04  0.25500000920E-02 0. -1.
    10030    2    1    2    0    0  0.00000000000E+00  0.00000000000E+00 -0.11730602660E+04  0.24935865064E+04  0.22004325204E+04 0.  0.
        5    1    3    3  502    0  0.64140282292E+03  0.19638062891E+03 -0.15747722657E+04  0.17116929373E+04  0.46999998093E+01 0. -1.
       -5    1    3    3    0  502 -0.64140282292E+03 -0.19638062891E+03  0.40171199970E+03  0.78189356908E+03  0.46999998093E+01 0.  1.
</event>
<event>
 5   0  0.1035928E-05  0.2201774E+04  0.7818609E-02  0.8517690E-01
        2   -1    0    0  501    0  0.00000000000E+00  0.00000000000E+00  0.12539548303E+04  0.12539548303E+04  0.25500000920E-02 0. -1.
       -2   -1    0    0    0  501  0.00000000000E+00  0.00000000000E+00 -0.96650382389E+03  0.96650382389E+03  0.25500000920E-02 0.  1.
    10030    2    1    2    0    0  0.00000000000E+00  0.00000000000E+00  0.28745100644E+03  0.22204586542E+04  0.22017739561E+04 0.  0.
        3    1    3    3  502    0 -0.14338854934E+03  0.98340042851E+03  0.62136425370E+03  0.11720623810E+04  0.10100000352E+00 0. -1.
       -3    1    3    3    0  502  0.14338854934E+03 -0.98340042851E+03 -0.33391324727E+03  0.10483962733E+04  0.10100000352E+00 0.  1.
</event>
<event>
 5   0  0.4462201E-06  0.2212714E+04  0.7818609E-02  0.8513155E-01
       -1   -1    0    0    0  501  0.00000000000E+00  0.00000000000E+00  0.99035009997E+03  0.99035009998E+03  0.50400001928E-02 0. -1.
        1   -1    0    0  501    0  0.00000000000E+00  0.00000000000E+00 -0.12359525601E+04  0.12359525601E+04  0.50400001928E-02 0.  1.
    10030    2    1    2    0    0  0.00000000000E+00  0.00000000000E+00 -0.24560246011E+03  0.22263026601E+04  0.22127139367E+04 0.  0.
        3    1    3    3  502    0  0.28111081497E+03 -0.71175304906E+03 -0.92671374108E+03  0.12018377849E+04  0.10100000352E+00 0.  1.
       -3    1    3    3    0  502 -0.28111081497E+03  0.71175304906E+03  0.68111128098E+03  0.10244648752E+04  0.10100000352E+00 0. -1.
</event>
<event>
 5   0  0.4462201E-06  0.2199488E+04  0.7818609E-02  0.8518641E-01
       -1   -1    0    0    0  501  0.00000000000E+00  0.00000000000E+00  0.13734432830E+04  0.13734432830E+04  0.50400001928E-02 0. -1.
        1   -1    0    0  501    0  0.00000000000E+00  0.00000000000E+00 -0.88058746962E+03  0.88058746963E+03  0.50400001928E-02 0.  1.
    10030    2    1    2    0    0  0.00000000000E+00  0.00000000000E+00  0.49285581340E+03  0.22540307527E+04  0.21994880725E+04 0.  0.
        3    1    3    3  502    0  0.43514693464E+03  0.61297041306E+03 -0.57619272614E+03  0.94714499939E+03  0.10100000352E+00 0.  1.
       -3    1    3    3    0  502 -0.43514693464E+03 -0.61297041306E+03  0.10690485395E+04  0.13068857533E+04  0.10100000352E+00 0. -1.
</event>
<event>
 5   0  0.9963173E-06  0.2196670E+04  0.7818609E-02  0.8519815E-01
       -2   -1    0    0    0  501  0.00000000000E+00  0.00000000000E+00  0.60383315718E+03  0.60383315718E+03  0.25500000920E-02 0. -1.
        2   -1    0    0  501    0  0.00000000000E+00  0.00000000000E+00 -0.19978033781E+04  0.19978033781E+04  0.25500000920E-02 0.  1.
    10030    2    1    2    0    0  0.00000000000E+00  0.00000000000E+00 -0.13939702210E+04  0.26016365353E+04  0.21966701357E+04 0.  0.
        4    1    3    3  502    0 -0.30353316992E+03 -0.10300246535E+04 -0.97029951885E+03  0.14472615318E+04  0.12699999809E+01 0.  1.
       -4    1    3    3    0  502  0.30353316992E+03  0.10300246535E+04 -0.42367070211E+03  0.11543750036E+04  0.12699999809E+01 0. -1.
</event>
<event>
 5   0  0.4794967E-06  0.2200457E+04  0.7818609E-02  0.8518238E-01
        1   -1    0    0  501    0  0.00000000000E+00  0.00000000000E+00  0.93474507405E+03  0.93474507406E+03  0.50400001928E-02 0.  1.
       -1   -1    0    0    0  501  0.00000000000E+00  0.00000000000E+00 -0.12950087123E+04  0.12950087123E+04  0.50400001928E-02 0. -1.
    10030    2    1    2    0    0  0.00000000000E+00  0.00000000000E+00 -0.36026363825E+03  0.22297537864E+04  0.22004572386E+04 0.  0.
        5    1    3    3  502    0  0.66551982516E+03 -0.42783685767E+03  0.59458615340E+03  0.98970490464E+03  0.46999998093E+01 0.  1.
       -5    1    3    3    0  502 -0.66551982516E+03  0.42783685767E+03 -0.95484979165E+03  0.12400488817E+04  0.46999998093E+01 0. -1.
</event>
<event>
 5   0  0.3546750E-06  0.2199655E+04  0.7818609E-02  0.8518572E-01
       -3   -1    0    0    0  501  0.00000000000E+00  0.00000000000E+00  0.80887056476E+03  0.80887057106E+03  0.10100000352E+00 0.  1.
        3   -1    0    0  501    0  0.00000000000E+00  0.00000000000E+00 -0.14954444952E+04  0.14954444986E+04  0.10100000352E+00 0. -1.
    10030    2    1    2    0    0  0.00000000000E+00  0.00000000000E+00 -0.68657393040E+03  0.23043150696E+04  0.21996554681E+04 0.  0.
        3    1    3    3  502    0 -0.13008572534E+03 -0.22226605166E+03  0.77683842626E+03  0.81841459198E+03  0.10100000352E+00 0.  1.
       -3    1    3    3    0  502  0.13008572534E+03  0.22226605166E+03 -0.14634123567E+04  0.14859004777E+04  0.10100000352E+00 0. -1.
</event>
<event>
 5   0  0.4462201E-06  0.2199866E+04  0.7818609E-02  0.8518484E-01
       -1   -1    0    0    0  501  0.00000000000E+00  0.00000000000E+00  0.13834872474E+04  0.13834872474E+04  0.50400001928E-02 0.  1.
        1   -1    0    0  501    0  0.00000000000E+00  0.00000000000E+00 -0.87449483786E+03  0.87449483787E+03  0.50400001928E-02 0. -1.
    10030    2    1    2    0    0  0.00000000000E+00  0.00000000000E+00  0.50899240955E+03  0.22579820853E+04  0.21998658651E+04 0.  0.
        3    1    3    3  502    0 -0.96349764338E+02 -0.10951910365E+04  0.28893497646E+03  0.11367542014E+04  0.10100000352E+00 0. -1.
       -3    1    3    3    0  502  0.96349764338E+02  0.10951910365E+04  0.22005743309E+03  0.11212278839E+04  0.10100000352E+00 0.  1.
</event>
<event>
 5   0  0.3546750E-06  0.2201061E+04  0.7818609E-02  0.8517987E-01
       -3   -1    0    0    0  501  0.00000000000E+00  0.00000000000E+00  0.97374311676E+03  0.97374312200E+03  0.10100000352E+00 0.  1.
        3   -1    0    0  501    0  0.00000000000E+00  0.00000000000E+00 -0.12438261968E+04  0.12438262009E+04  0.10100000352E+00 0. -1.
    10030    2    1    2    0    0  0.00000000000E+00  0.00000000000E+00 -0.27008308001E+03  0.22175693229E+04  0.22010608423E+04 0.  0.
        4    1    3    3  502    0 -0.59546218127E+03 -0.13071506648E+03  0.78807499728E+03  0.99635608703E+03  0.12699999809E+01 0.  1.
       -4    1    3    3    0  502  0.59546218127E+03  0.13071506648E+03 -0.10581580773E+04  0.12212132358E+04  0.12699999809E+01 0. -1.
</event>
<event>
 5   0  0.4462201E-06  0.2200453E+04  0.7818609E-02  0.8518240E-01
       -1   -1    0    0    0  501  0.00000000000E+00  0.00000000000E+00  0.66034334847E+03  0.66034334849E+03  0.50400001928E-02 0. -1.
        1   -1    0    0  501    0  0.00000000000E+00  0.00000000000E+00 -0.18331346675E+04  0.18331346675E+04  0.50400001928E-02 0.  1.
    10030    2    1    2    0    0  0.00000000000E+00  0.00000000000E+00 -0.11727913191E+04  0.24934780160E+04  0.22004529394E+04 0.  0.
        3    1    3    3  502    0 -0.59537837274E+03 -0.84465458248E+03 -0.10142786815E+04  0.14479910305E+04  0.10100000352E+00 0.  1.
       -3    1    3    3    0  502  0.59537837274E+03  0.84465458248E+03 -0.15851263754E+03  0.10454869855E+04  0.10100000352E+00 0. -1.
</event>
<event>
 5   0  0.1014015E-05  0.2196960E+04  0.7818609E-02  0.8519694E-01
       -2   -1    0    0    0  501  0.00000000000E+00  0.00000000000E+00  0.71242621683E+03  0.71242621684E+03  0.25500000920E-02 0. -1.
        2   -1    0    0  501    0  0.00000000000E+00  0.00000000000E+00 -0.16937309627E+04  0.16937309627E+04  0.25500000920E-02 0.  1.
    10030    2    1    2    0    0  0.00000000000E+00  0.00000000000E+00 -0.98130474585E+03  0.24061571795E+04  0.21969600288E+04 0.  0.
        1    1    3    3  502    0 -0.60677799299E+02 -0.10242562833E+03  0.70533996814E+03  0.71531620654E+03  0.50400001928E-02 0. -1.
       -1    1    3    3    0  502  0.60677799299E+02  0.10242562833E+03 -0.16866447140E+04  0.16908409730E+04  0.50400001928E-02 0.  1.
</event>
<event>
 5   0  0.4630615E-06  0.2196185E+04  0.7818609E-02  0.8520018E-01
       -1   -1    0    0    0  501  0.00000000000E+00  0.00000000000E+00  0.10602151640E+04  0.10602151640E+04  0.50400001928E-02 0.  1.
        1   -1    0    0  501    0  0.00000000000E+00  0.00000000000E+00 -0.11373225930E+04  0.11373225930E+04  0.50400001928E-02 0. -1.
    10030    2    1    2    0    0  0.00000000000E+00  0.00000000000E+00 -0.77107428999E+02  0.21975377570E+04  0.21961845637E+04 0.  0.
        2    1    3    3  502    0  0.39759933199E+03  0.58467618252E+03 -0.87923517580E+03  0.11282667954E+04  0.25500000920E-02 0. -1.
       -2    1    3    3    0  502 -0.39759933199E+03 -0.58467618252E+03  0.80212774680E+03  0.10692709616E+04  0.25500000920E-02 0.  1.
</event>
<event>
 5   0  0.4462201E-06  0.2200675E+04  0.7818609E-02  0.8518147E-01
       -1   -1    0    0    0  501  0.00000000000E+00  0.00000000000E+00  0.55909068559E+03  0.55909068561E+03  0.50400001928E-02 0.  1.
        1   -1    0    0  501    0  0.00000000000E+00  0.00000000000E+00 -0.21655562731E+04  0.21655562731E+04  0.50400001928E-02 0. -1.
    10030    2    1    2    0    0  0.00000000000E+00  0.00000000000E+00 -0.16064655875E+04  0.27246469587E+04  0.22006747524E+04 0.  0.
        3    1    3    3  502    0  0.87120107662E+02  0.71189593328E+03  0.22993348735E+03  0.75316342966E+03  0.10100000352E+00 0.  1.
       -3    1    3    3    0  502 -0.87120107662E+02 -0.71189593328E+03 -0.18363990748E+04  0.19714835290E+04  0.10100000352E+00 0. -1.
</event>
<event>
 5   0  0.4630615E-06  0.2195143E+04  0.7818609E-02  0.8520452E-01
        1   -1    0    0  501    0  0.00000000000E+00  0.00000000000E+00  0.13916741649E+04  0.13916741649E+04  0.50400001928E-02 0.  1.
       -1   -1    0    0    0  501  0.00000000000E+00  0.00000000000E+00 -0.86562174041E+03  0.86562174043E+03  0.50400001928E-02 0. -1.
    10030    2    1    2    0    0  0.00000000000E+00  0.00000000000E+00  0.52605242449E+03  0.22572959053E+04  0.21951431960E+04 0.  0.
        2    1    3    3  502    0  0.97921528447E+03  0.46260755059E+03  0.79665751594E+02  0.10859166410E+04  0.25500000920E-02 0. -1.
       -2    1    3    3    0  502 -0.97921528447E+03 -0.46260755059E+03  0.44638667289E+03  0.11713792643E+04  0.25500000920E-02 0.  1.
</event>
<event>
 5   0  0.4462201E-06  0.2199749E+04  0.7818609E-02  0.8518533E-01
        1   -1    0    0  501    0  0.00000000000E+00  0.00000000000E+00  0.16338911904E+04  0.16338911904E+04  0.50400001928E-02 0.  1.
       -1   -1    0    0    0  501  0.00000000000E+00  0.00000000000E+00 -0.74039418582E+03  0.74039418584E+03  0.50400001928E-02 0. -1.
    10030    2    1    2    0    0  0.00000000000E+00  0.00000000000E+00  0.89349700456E+03  0.23742853762E+04  0.21997486562E+04 0.  0.
        3    1    3    3  502    0  0.10686840249E+04 -0.17440452562E+01  0.72745044168E+03  0.12927771432E+04  0.10100000352E+00 0.  1.
       -3    1    3    3    0  502 -0.10686840249E+04  0.17440452562E+01  0.16604656288E+03  0.10815082330E+04  0.10100000352E+00 0. -1.
</event>
<event>
 5   0  0.1015876E-05  0.2185750E+04  0.7818609E-02  0.8524383E-01
       -2   -1    0    0    0  501  0.00000000000E+00  0.00000000000E+00  0.76141429587E+03  0.76141429587E+03  0.25500000920E-02 0. -1.
        2   -1    0    0  501    0  0.00000000000E+00  0.00000000000E+00 -0.15686274083E+04  0.15686274083E+04  0.25500000920E-02 0.  1.
    10030    2    1    2    0    0  0.00000000000E+00  0.00000000000E+00 -0.80721311245E+03  0.23300417042E+04  0.21857496047E+04 0.  0.
        5    1    3    3  502    0 -0.70936243568E+02  0.59921381560E+03  0.56773375960E+03  0.82851243760E+03  0.46999998093E+01 0. -1.
       -5    1    3    3    0  502  0.70936243568E+02 -0.59921381560E+03 -0.13749468721E+04  0.15015292666E+04  0.46999998093E+01 0.  1.
</event>
<event>
 5   0  0.1014015E-05  0.2200520E+04  0.7818609E-02  0.8518212E-01
        2   -1    0    0  501    0  0.00000000000E+00  0.00000000000E+00  0.22209272874E+04  0.22209272874E+04  0.25500000920E-02 0.  1.
       -2   -1    0    0    0  501  0.00000000000E+00  0.00000000000E+00 -0.54507507668E+03  0.54507507669E+03  0.25500000920E-02 0. -1.
    10030    2    1    2    0    0  0.00000000000E+00  0.00000000000E+00  0.16758522107E+04  0.27660023641E+04  0.22005200399E+04 0.  0.
        1    1    3    3  502    0  0.18362033814E+02  0.47086929100E+03 -0.41181283737E+03  0.62581536139E+03  0.50400001928E-02 0. -1.
       -1    1    3    3    0  502 -0.18362033814E+02 -0.47086929100E+03  0.20876650481E+04  0.21401870027E+04  0.50400001928E-02 0.  1.
</event>
<event>
 5   0  0.4408787E-06  0.2193498E+04  0.7818609E-02  0.8521139E-01
       -1   -1    0    0    0  501  0.00000000000E+00  0.00000000000E+00  0.82615847497E+03  0.82615847498E+03  0.50400001928E-02 0. -1.
        1   -1    0    0  501    0  0.00000000000E+00  0.00000000000E+00 -0.14559658647E+04  0.14559658647E+04  0.50400001928E-02 0.  1.
    10030    2    1    2    0    0  0.00000000000E+00  0.00000000000E+00 -0.62980738977E+03  0.22821243397E+04  0.21934981545E+04 0.  0.
        1    1    3    3  502    0  0.10024882692E+04 -0.44481133854E+03 -0.31040682697E+03  0.11398211504E+04  0.50400001928E-02 0.  1.
       -1    1    3    3    0  502 -0.10024882692E+04  0.44481133854E+03 -0.31940056279E+03  0.11423031893E+04  0.50400001928E-02 0. -1.
</event>
<event>
 5   0  0.9963573E-06  0.2196122E+04  0.7818609E-02  0.8520044E-01
        2   -1    0    0  501    0  0.00000000000E+00  0.00000000000E+00  0.26216608449E+04  0.26216608449E+04  0.25500000920E-02 0. -1.
       -2   -1    0    0    0  501  0.00000000000E+00  0.00000000000E+00 -0.45991386301E+03  0.45991386302E+03  0.25500000920E-02 0.  1.
    10030    2    1    2    0    0  0.00000000000E+00  0.00000000000E+00  0.21617469819E+04  0.30815747079E+04  0.21961221885E+04 0.  0.
        2    1    3    3  502    0  0.73451585189E+03 -0.53024911355E+03  0.21014913924E+03  0.92996791333E+03  0.25500000920E-02 0.  1.
       -2    1    3    3    0  502 -0.73451585189E+03  0.53024911355E+03  0.19515978426E+04  0.21516067946E+04  0.25500000920E-02 0. -1.
</event>
<event>
 5   0  0.1015876E-05  0.2195819E+04  0.7818609E-02  0.8520170E-01
        2   -1    0    0  501    0  0.00000000000E+00  0.00000000000E+00  0.11931153747E+04  0.11931153747E+04  0.25500000920E-02 0. -1.
       -2   -1    0    0    0  501  0.00000000000E+00  0.00000000000E+00 -0.10103004525E+04  0.10103004525E+04  0.25500000920E-02 0.  1.
    10030    2    1    2    0    0  0.00000000000E+00  0.00000000000E+00  0.18281492221E+03  0.22034158272E+04  0.21958187565E+04 0.  0.
        5    1    3    3  502    0  0.11898521330E+03  0.91411282244E+03 -0.50699725085E+03  0.10520589506E+04  0.46999998093E+01 0.  1.
       -5    1    3    3    0  502 -0.11898521330E+03 -0.91411282244E+03  0.68981217305E+03  0.11513568766E+04  0.46999998093E+01 0. -1.
</event>
<event>
 5   0  0.4630615E-06  0.2200808E+04  0.7818609E-02  0.8518092E-01
       -1   -1    0    0    0  501  0.00000000000E+00  0.00000000000E+00  0.10099139769E+04  0.10099139769E+04  0.50400001928E-02 0. -1.
        1   -1    0    0  501    0  0.00000000000E+00  0.00000000000E+00 -0.11990017098E+04  0.11990017098E+04  0.50400001928E-02 0.  1.
    10030    2    1    2    0    0  0.00000000000E+00  0.00000000000E+00 -0.18908773293E+03  0.22089156867E+04  0.22008076564E+04 0.  0.
        2    1    3    3  502    0  0.21151021180E+03  0.10667817434E+04 -0.26287796331E+03  0.11188675888E+04  0.25500000920E-02 0.  1.
       -2    1    3    3    0  502 -0.21151021180E+03 -0.10667817434E+04  0.73790230383E+02  0.10900480979E+04  0.25500000920E-02 0. -1.
</event>
<event>
 5   0  0.9963573E-06  0.2203190E+04  0.7818609E-02  0.8517102E-01
       -2   -1    0    0    0  501  0.00000000000E+00  0.00000000000E+00  0.94876099095E+03  0.94876099095E+03  0.25500000920E-02 0.  1.
        2   -1    0    0  501    0  0.00000000000E+00  0.00000000000E+00 -0.12790482720E+04  0.12790482720E+04  0.25500000920E-02 0. -1.
    10030    2    1    2    0    0  0.00000000000E+00  0.00000000000E+00 -0.33028728104E+03  0.22278092630E+04  0.22031896024E+04 0.  0.
        2    1    3    3  502    0 -0.44728095308E+03  0.13090773144E+03 -0.11744528896E+04  0.12635413231E+04  0.25500000920E-02 0. -1.
       -2    1    3    3    0  502  0.44728095308E+03 -0.13090773144E+03  0.84416560859E+03  0.96426793988E+03  0.25500000920E-02 0.  1.
</event>
<event>
 5   0  0.1035928E-05  0.2201363E+04  0.7818609E-02  0.8517861E-01
        2   -1    0    0  501    0  0.00000000000E+00  0.00000000000E+00  0.13626108857E+04  0.13626108857E+04  0.25500000920E-02 0. -1.
       -2   -1    0    0    0  501  0.00000000000E+00  0.00000000000E+00 -0.88910145012E+03  0.88910145012E+03  0.25500000920E-02 0.  1.
    10030    2    1    2    0    0  0.00000000000E+00  0.00000000000E+00  0.47350943560E+03  0.22517123358E+04  0.22013625912E+04 0.  0.
        3    1    3    3  502    0 -0.47745342141E+03 -0.65982129488E+03 -0.52056680814E+03  0.96660008418E+03  0.10100000352E+00 0.  1.
       -3    1    3    3    0  502  0.47745342141E+03  0.65982129488E+03  0.99407624375E+03  0.12851122517E+04  0.10100000352E+00 0. -1.
</event>
<event>
 5   0  0.4794967E-06  0.2199719E+04  0.7818609E-02  0.8518545E-01
        1   -1    0    0  501    0  0.00000000000E+00  0.00000000000E+00  0.70833913142E+03  0.70833913143E+03  0.50400001928E-02 0.  1.
       -1   -1    0    0    0  501  0.00000000000E+00  0.00000000000E+00 -0.17077843386E+04  0.17077843386E+04  0.50400001928E-02 0. -1.
    10030    2    1    2    0    0  0.00000000000E+00  0.00000000000E+00 -0.99944520715E+03  0.24161234700E+04  0.21997185957E+04 0.  0.
        5    1    3    3  502    0  0.10273231911E+04  0.64735204070E+02 -0.74202236033E+02  0.10320424640E+04  0.46999998093E+01 0. -1.
       -5    1    3    3    0  502 -0.10273231911E+04 -0.64735204070E+02 -0.92524297111E+03  0.13840810060E+04  0.46999998093E+01 0.  1.
</event>
<event>
 5   0  0.4794967E-06  0.2202352E+04  0.7818609E-02  0.8517450E-01
        1   -1    0    0  501    0  0.00000000000E+00  0.00000000000E+00  0.12567046877E+04  0.12567046877E+04  0.50400001928E-02 0. -1.
       -1   -1    0    0    0  501  0.00000000000E+00  0.00000000000E+00 -0.96489532362E+03  0.96489532363E+03  0.50400001928E-02 0.  1.
    10030    2    1    2    0    0  0.00000000000E+00  0.00000000000E+00  0.29180936411E+03  0.22216000114E+04  0.22023519032E+04 0.  0.
        5    1    3    3  502    0 -0.96847227620E+03 -0.49945316561E+03 -0.14146349466E+02  0.10897771440E+04  0.46999998093E+01 0.  1.
       -5    1    3    3    0  502  0.96847227620E+03  0.49945316561E+03  0.30595571358E+03  0.11318228674E+04  0.46999998093E+01 0. -1.
</event>
<event>
 5   0  0.1014015E-05  0.2202162E+04  0.7818609E-02  0.8517529E-01
       -2   -1    0    0    0  501  0.00000000000E+00  0.00000000000E+00  0.10450152600E+04  0.10450152600E+04  0.25500000920E-02 0.  1.
        2   -1    0    0  501    0  0.00000000000E+00  0.00000000000E+00 -0.11601543570E+04  0.11601543570E+04  0.25500000920E-02 0. -1.
    10030    2    1    2    0    0  0.00000000000E+00  0.00000000000E+00 -0.11513909702E+03  0.22051696170E+04  0.22021616716E+04 0.  0.
        1    1    3    3  502    0 -0.85440855931E+03 -0.40374526067E+03  0.50831718762E+03  0.10730380166E+04  0.50400001928E-02 0.  1.
       -1    1    3    3    0  502  0.85440855931E+03  0.40374526067E+03 -0.62345628464E+03  0.11321316004E+04  0.50400001928E-02 0. -1.
</event>
<event>
 5   0  0.4309945E-06  0.2198216E+04  0.7818609E-02  0.8519171E-01
        1   -1    0    0  501    0  0.00000000000E+00  0.00000000000E+00  0.14667015612E+04  0.14667015612E+04  0.50400001928E-02 0.  1.
       -1   -1    0    0    0  501  0.00000000000E+00  0.00000000000E+00 -0.82364297785E+03  0.82364297787E+03  0.50400001928E-02 0. -1.
    10030    2    1    2    0    0  0.00000000000E+00  0.00000000000E+00  0.64305858333E+03  0.22903445391E+04  0.21982160417E+04 0.  0.
        4    1    3    3  502    0  0.59560837497E+03 -0.33366863277E+03  0.12189964520E+04  0.13971535548E+04  0.12699999809E+01 0.  1.
       -4    1    3    3    0  502 -0.59560837497E+03  0.33366863277E+03 -0.57593786868E+03  0.89319098423E+03  0.12699999809E+01 0. -1.
</event>
<event>
 5   0  0.4630615E-06  0.2202676E+04  0.7818609E-02  0.8517315E-01
       -1   -1    0    0    0  501  0.00000000000E+00  0.00000000000E+00  0.12202732557E+04  0.12202732557E+04  0.50400001928E-02 0.  1.
        1   -1    0    0  501    0  0.00000000000E+00  0.00000000000E+00 -0.99399527467E+03  0.99399527468E+03  0.50400001928E-02 0. -1.
    10030    2    1    2    0    0  0.00000000000E+00  0.00000000000E+00  0.22627798102E+03  0.22142685304E+04  0.22026764174E+04 0.  0.
        2    1    3    3  502    0 -0.24349892381E+03  0.11930931669E+03 -0.95991455184E+03  0.99747801268E+03  0.25500000920E-02 0. -1.
       -2    1    3    3    0  502  0.24349892381E+03 -0.11930931669E+03  0.11861925329E+04  0.12167905177E+04  0.25500000920E-02 0.  1.
</event>
<event>
 5   0  0.9963173E-06  0.2177085E+04  0.7818609E-02  0.8528027E-01
       -2   -1    0    0    0  501  0.00000000000E+00  0.00000000000E+00  0.13725988045E+04  0.13725988045E+04  0.25500000920E-02 0.  1.
        2   -1    0    0  501    0  0.00000000000E+00  0.00000000000E+00 -0.86327109114E+03  0.86327109114E+03  0.25500000920E-02 0. -1.
    10030    2    1    2    0    0  0.00000000000E+00  0.00000000000E+00  0.50932771332E+03  0.22358698956E+04  0.21770850857E+04 0.  0.
        4    1    3    3  502    0  0.63621980637E+03  0.65546878605E+03 -0.35335950854E+03  0.97942816310E+03  0.12699999809E+01 0. -1.
       -4    1    3    3    0  502 -0.63621980637E+03 -0.65546878605E+03  0.86268722186E+03  0.12564417325E+04  0.12699999809E+01 0.  1.
</event>
<event>
 5   0  0.9963573E-06  0.2199505E+04  0.7818609E-02  0.8518634E-01
        2   -1    0    0  501    0  0.00000000000E+00  0.00000000000E+00  0.13458404037E+04  0.13458404037E+04  0.25500000920E-02 0. -1.
       -2   -1    0    0    0  501  0.00000000000E+00  0.00000000000E+00 -0.89866192078E+03  0.89866192078E+03  0.25500000920E-02 0.  1.
    10030    2    1    2    0    0  0.00000000000E+00  0.00000000000E+00  0.44717848290E+03  0.22445023245E+04  0.21995049645E+04 0.  0.
        2    1    3    3  502    0 -0.76967690496E+03  0.60417961777E+03 -0.28869688411E+03  0.10201869630E+04  0.25500000920E-02 0. -1.
       -2    1    3    3    0  502  0.76967690496E+03 -0.60417961777E+03  0.73587536701E+03  0.12243153615E+04  0.25500000920E-02 0.  1.
</event>
<event>
 5   0  0.1035928E-05  0.2204218E+04  0.7818609E-02  0.8516675E-01
       -2   -1    0    0    0  501  0.00000000000E+00  0.00000000000E+00  0.24478767629E+04  0.24478767629E+04  0.25500000920E-02 0.  1.
        2   -1    0    0  501    0  0.00000000000E+00  0.00000000000E+00 -0.49620301440E+03  0.49620301440E+03  0.25500000920E-02 0. -1.
    10030    2    1    2    0    0  0.00000000000E+00  0.00000000000E+00  0.19516737485E+04  0.29440797773E+04  0.22042176196E+04 0.  0.
        3    1    3    3  502    0 -0.52195117531E+03  0.43537556577E+03  0.21345987733E+04  0.22402001799E+04  0.10100000352E+00 0.  1.
       -3    1    3    3    0  502  0.52195117531E+03 -0.43537556577E+03 -0.18292502487E+03  0.70387959738E+03  0.10100000352E+00 0. -1.
</event>
<event>
 5   0  0.4630615E-06  0.2195164E+04  0.7818609E-02  0.8520444E-01
       -1   -1    0    0    0  501  0.00000000000E+00  0.00000000000E+00  0.56137243493E+03  0.56137243495E+03  0.50400001928E-02 0. -1.
        1   -1    0    0  501    0  0.00000000000E+00  0.00000000000E+00 -0.21459657152E+04  0.21459657152E+04  0.50400001928E-02 0.  1.
    10030    2    1    2    0    0  0.00000000000E+00  0.00000000000E+00 -0.15845932802E+04  0.27073381501E+04  0.21951637741E+04 0.  0.
        2    1    3    3  502    0 -0.41432681927E+02 -0.20634235004E+03 -0.21208468432E+04  0.21312637483E+04  0.25500000920E-02 0.  1.
       -2    1    3    3    0  502  0.41432681927E+02  0.20634235004E+03  0.53625356299E+03  0.57607440178E+03  0.25500000920E-02 0. -1.
</event>
<event>
 5   0  0.9963173E-06  0.2207651E+04  0.7818609E-02  0.8515250E-01
       -2   -1    0    0    0  501  0.00000000000E+00  0.00000000000E+00  0.12777775590E+04  0.12777775590E+04  0.25500000920E-02 0.  1.
        2   -1    0    0  501    0  0.00000000000E+00  0.00000000000E+00 -0.95355451742E+03  0.95355451742E+03  0.25500000920E-02 0. -1.
    10030    2    1    2    0    0  0.00000000000E+00  0.00000000000E+00  0.32422304153E+03  0.22313320764E+04  0.22076508452E+04 0.  0.
        4    1    3    3  502    0 -0.11789531544E+03  0.22147547159E+03  0.12485739441E+04  0.12735341364E+04  0.12699999809E+01 0.  1.
       -4    1    3    3    0  502  0.11789531544E+03 -0.22147547159E+03 -0.92435090252E+03  0.95779793997E+03  0.12699999809E+01 0. -1.
</event>
<event>
 5   0  0.1035928E-05  0.2202677E+04  0.7818609E-02  0.8517315E-01
       -2   -1    0    0    0  501  0.00000000000E+00  0.00000000000E+00  0.47982299868E+03  0.47982299869E+03  0.25500000920E-02 0.  1.
        2   -1    0    0  501    0  0.00000000000E+00  0.00000000000E+00 -0.25279037293E+04  0.25279037293E+04  0.25500000920E-02 0. -1.
    10030    2    1    2    0    0  0.00000000000E+00  0.00000000000E+00 -0.20480807306E+04  0.30077267280E+04  0.22026768694E+04 0.  0.
        3    1    3    3  502    0 -0.68697526180E+03  0.77673418067E+02  0.14660352587E+03  0.70672538811E+03  0.10100000352E+00 0.  1.
       -3    1    3    3    0  502  0.68697526180E+03 -0.77673418067E+02 -0.21946842565E+04  0.23010013399E+04  0.10100000352E+00 0. -1.
</event>
<event>
 5   0  0.4462201E-06  0.2200507E+04  0.7818609E-02  0.8518217E-01
       -1   -1    0    0    0  501  0.00000000000E+00  0.00000000000E+00  0.73572895528E+03  0.73572895529E+03  0.50400001928E-02 0. -1.
        1   -1    0    0  501    0  0.00000000000E+00  0.00000000000E+00 -0.16453860091E+04  0.16453860091E+04  0.50400001928E-02 0.  1.
    10030    2    1    2    0    0  0.00000000000E+00  0.00000000000E+00 -0.90965705380E+03  0.23811149644E+04  0.22005073320E+04 0.  0.
        3    1    3    3  502    0 -0.84906249865E+02 -0.10773429991E+04 -0.67837890002E+03  0.12759604034E+04  0.10100000352E+00 0.  1.
       -3    1    3    3    0  502  0.84906249865E+02  0.10773429991E+04 -0.23127815378E+03  0.11051545609E+04  0.10100000352E+00 0. -1.
</event>
<event>
 5   0  0.1035928E-05  0.2204728E+04  0.7818609E-02  0.8516463E-01
        2   -1    0    0  501    0  0.00000000000E+00  0.00000000000E+00  0.27992010934E+04  0.27992010934E+04  0.25500000920E-02 0. -1.
       -2   -1    0    0    0  501  0.00000000000E+00  0.00000000000E+00 -0.43412632470E+03  0.43412632470E+03  0.25500000920E-02 0.  1.
    10030    2    1    2    0    0  0.00000000000E+00  0.00000000000E+00  0.23650747687E+04  0.32333274181E+04  0.22047284484E+04 0.  0.
        3    1    3    3  502    0 -0.58307551518E+03 -0.12981359430E+02 -0.18933532841E+03  0.61318304679E+03  0.10100000352E+00 0.  1.
       -3    1    3    3    0  502  0.58307551518E+03  0.12981359430E+02  0.25544100971E+04  0.26201443713E+04  0.10100000352E+00 0. -1.
</event>
<event>
 5   0  0.4630615E-06  0.2202020E+04  0.7818609E-02  0.8517588E-01
       -1   -1    0    0    0  501  0.00000000000E+00  0.00000000000E+00  0.30366255645E+04  0.30366255645E+04  0.50400001928E-02 0. -1.
        1   -1    0    0  501    0  0.00000000000E+00  0.00000000000E+00 -0.39920066771E+03  0.39920066774E+03  0.50400001928E-02 0.  1.
    10030    2    1    2    0    0  0.00000000000E+00  0.00000000000E+00  0.26374248968E+04  0.34358262322E+04  0.22020199390E+04 0.  0.
        2    1    3    3  502    0  0.56987054690E+03 -0.83653618408E+03  0.19946651525E+04  0.22367910716E+04  0.25500000920E-02 0. -1.
       -2    1    3    3    0  502 -0.56987054690E+03  0.83653618408E+03  0.64275974428E+03  0.11990351606E+04  0.25500000920E-02 0.  1.
</event>
<event>
 5   0  0.4408787E-06  0.2199152E+04  0.7818609E-02  0.8518781E-01
       -1   -1    0    0    0  501  0.00000000000E+00  0.00000000000E+00  0.69538996110E+03  0.69538996112E+03  0.50400001928E-02 0.  1.
        1   -1    0    0  501    0  0.00000000000E+00  0.00000000000E+00 -0.17386901310E+04  0.17386901310E+04  0.50400001928E-02 0. -1.
    10030    2    1    2    0    0  0.00000000000E+00  0.00000000000E+00 -0.10433001699E+04  0.24340800922E+04  0.21991522572E+04 0.  0.
        1    1    3    3  502    0  0.65033028109E+03 -0.18780493337E+03 -0.14807441817E+04  0.16281288337E+04  0.50400001928E-02 0. -1.
       -1    1    3    3    0  502 -0.65033028109E+03  0.18780493337E+03  0.43744401179E+03  0.80595125843E+03  0.50400001928E-02 0.  1.
</event>
<event>
 5   0  0.9963173E-06  0.2199045E+04  0.7818609E-02  0.8518826E-01
        2   -1    0    0  501    0  0.00000000000E+00  0.00000000000E+00  0.82991423108E+03  0.82991423109E+03  0.25500000920E-02 0. -1.
       -2   -1    0    0    0  501  0.00000000000E+00  0.00000000000E+00 -0.14567167454E+04  0.14567167454E+04  0.25500000920E-02 0.  1.
    10030    2    1    2    0    0  0.00000000000E+00  0.00000000000E+00 -0.62680251434E+03  0.22866309765E+04  0.21990452089E+04 0.  0.
        4    1    3    3  502    0  0.80363231462E+03  0.17517237290E+03 -0.10721473750E+04  0.13513000644E+04  0.12699999809E+01 0.  1.
       -4    1    3    3    0  502 -0.80363231462E+03 -0.17517237290E+03  0.44534486069E+03  0.93533091212E+03  0.12699999809E+01 0. -1.
</event>
<event>
 5   0  0.9963173E-06  0.2225478E+04  0.7818609E-02  0.8507898E-01
        2   -1    0    0  501    0  0.00000000000E+00  0.00000000000E+00  0.20156466413E+04  0.20156466413E+04  0.25500000920E-02 0.  1.
       -2   -1    0    0    0  501  0.00000000000E+00  0.00000000000E+00 -0.61428805261E+03  0.61428805261E+03  0.25500000920E-02 0. -1.
    10030    2    1    2    0    0  0.00000000000E+00  0.00000000000E+00  0.14013585887E+04  0.26299346939E+04  0.22254776117E+04 0.  0.
        4    1    3    3  502    0  0.10323267979E+04 -0.41067793035E+03  0.62753490170E+03  0.12759924161E+04  0.12699999809E+01 0.  1.
       -4    1    3    3    0  502 -0.10323267979E+04  0.41067793035E+03  0.77382368699E+03  0.13539422778E+04  0.12699999809E+01 0. -1.
</event>
<event>
 5   0  0.9963173E-06  0.2203950E+04  0.7818609E-02  0.8516786E-01
       -2   -1    0    0    0  501  0.00000000000E+00  0.00000000000E+00  0.88910202494E+03  0.88910202494E+03  0.25500000920E-02 0. -1.
        2   -1    0    0  501    0  0.00000000000E+00  0.00000000000E+00 -0.13658146890E+04  0.13658146890E+04  0.25500000920E-02 0.  1.
    10030    2    1    2    0    0  0.00000000000E+00  0.00000000000E+00 -0.47671266411E+03  0.22549167140E+04  0.22039497324E+04 0.  0.
        4    1    3    3  502    0 -0.41679504261E+03 -0.48016783828E+03 -0.11592075935E+04  0.13221358169E+04  0.12699999809E+01 0.  1.
       -4    1    3    3    0  502  0.41679504261E+03  0.48016783828E+03  0.68249492941E+03  0.93278089712E+03  0.12699999809E+01 0. -1.
</event>
<event>
 5   0  0.3546750E-06  0.2199844E+04  0.7818609E-02  0.8518493E-01
       -3   -1    0    0    0  501  0.00000000000E+00  0.00000000000E+00  0.12414289547E+04  0.12414289588E+04  0.10100000352E+00 0. -1.
        3   -1    0    0  501    0  0.00000000000E+00  0.00000000000E+00 -0.97454468177E+03  0.97454468700E+03  0.10100000352E+00 0.  1.
    10030    2    1    2    0    0  0.00000000000E+00  0.00000000000E+00  0.26688427292E+03  0.22159736458E+04  0.21998436271E+04 0.  0.
        5    1    3    3  502    0 -0.26133139276E+02  0.21626301607E+03 -0.95258793764E+03  0.97718908203E+03  0.46999998093E+01 0.  1.
       -5    1    3    3    0  502  0.26133139276E+02 -0.21626301607E+03  0.12194722106E+04  0.12387845638E+04  0.46999998093E+01 0. -1.
</event>
<event>
 5   0  0.4408787E-06  0.2199512E+04  0.7818609E-02  0.8518631E-01
       -1   -1    0    0    0  501  0.00000000000E+00  0.00000000000E+00  0.18084631917E+04  0.18084631917E+04  0.50400001928E-02 0. -1.
        1   -1    0    0  501    0  0.00000000000E+00  0.00000000000E+00 -0.66877954792E+03  0.66877954794E+03  0.50400001928E-02 0.  1.
    10030    2    1    2    0    0  0.00000000000E+00  0.00000000000E+00  0.11396836438E+04  0.24772427396E+04  0.21995119421E+04 0.  0.
        1    1    3    3  502    0 -0.71057350413E+03  0.22942816574E+03 -0.33951946954E+03  0.82025938473E+03  0.50400001928E-02 0.  1.
       -1    1    3    3    0  502  0.71057350413E+03 -0.22942816574E+03  0.14792031133E+04  0.16569833549E+04  0.50400001928E-02 0. -1.
</event>
<event>
 5   0  0.1035928E-05  0.2199983E+04  0.7818609E-02  0.8518435E-01
       -2   -1    0    0    0  501  0.00000000000E+00  0.00000000000E+00  0.94585607340E+03  0.94585607341E+03  0.25500000920E-02 0. -1.
        2   -1    0    0  501    0  0.00000000000E+00  0.00000000000E+00 -0.12792442004E+04  0.12792442004E+04  0.25500000920E-02 0.  1.
    10030    2    1    2    0    0  0.00000000000E+00  0.00000000000E+00 -0.33338812696E+03  0.22251002738E+04  0.21999826329E+04 0.  0.
        3    1    3    3  502    0 -0.39747364620E+01 -0.45038233037E+03  0.84831782025E+03  0.96047028918E+03  0.10100000352E+00 0. -1.
       -3    1    3    3    0  502  0.39747364620E+01  0.45038233037E+03 -0.11817059472E+04  0.12646299846E+04  0.10100000352E+00 0.  1.
</event>
<event>
 5   0  0.1014015E-05  0.2200259E+04  0.7818609E-02  0.8518320E-01
        2   -1    0    0  501    0  0.00000000000E+00  0.00000000000E+00  0.68181968533E+03  0.68181968533E+03  0.25500000920E-02 0. -1.
       -2   -1    0    0    0  501  0.00000000000E+00  0.00000000000E+00 -0.17750814315E+04  0.17750814315E+04  0.25500000920E-02 0.  1.
    10030    2    1    2    0    0  0.00000000000E+00  0.00000000000E+00 -0.10932617462E+04  0.24569011168E+04  0.22002594966E+04 0.  0.
        1    1    3    3  502    0  0.80413986569E+03 -0.74634088480E+03 -0.63748339063E+03  0.12688777377E+04  0.50400001928E-02 0.  1.
       -1    1    3    3    0  502 -0.80413986569E+03  0.74634088480E+03 -0.45577835555E+03  0.11880233791E+04  0.50400001928E-02 0. -1.
</event>
<event>
 5   0  0.4630615E-06  0.2199034E+04  0.7818609E-02  0.8518830E-01
        1   -1    0    0  501    0  0.00000000000E+00  0.00000000000E+00  0.12397449277E+04  0.12397449277E+04  0.50400001928E-02 0.  1.
       -1   -1    0    0    0  501  0.00000000000E+00  0.00000000000E+00 -0.97515070921E+03  0.97515070922E+03  0.50400001928E-02 0. -1.
    10030    2    1    2    0    0  0.00000000000E+00  0.00000000000E+00  0.26459421851E+03  0.22148956369E+04  0.21990344659E+04 0.  0.
        2    1    3    3  502    0 -0.23073961876E+03 -0.66837647235E+03 -0.71577980605E+03  0.10061354835E+04  0.25500000920E-02 0. -1.
       -2    1    3    3    0  502  0.23073961876E+03  0.66837647235E+03  0.98037402456E+03  0.12087601534E+04  0.25500000920E-02 0.  1.
</event>
<event>
 5   0  0.4408787E-06  0.2200372E+04  0.7818609E-02  0.8518273E-01
       -1   -1    0    0    0  501  0.00000000000E+00  0.00000000000E+00  0.18133863379E+04  0.18133863380E+04  0.50400001928E-02 0.  1.
        1   -1    0    0  501    0  0.00000000000E+00  0.00000000000E+00 -0.66748535443E+03  0.66748535445E+03  0.50400001928E-02 0. -1.
    10030    2    1    2    0    0  0.00000000000E+00  0.00000000000E+00  0.11459009835E+04  0.24808716924E+04  0.22003716255E+04 0.  0.
        1    1    3    3  502    0 -0.51412071366E+03  0.36539099595E+03  0.15892947397E+04  0.17098796618E+04  0.50400001928E-02 0.  1.
       -1    1    3    3    0  502  0.51412071366E+03 -0.36539099595E+03 -0.44339375622E+03  0.77099203058E+03  0.50400001928E-02 0. -1.
</event>
<event>
 5   0  0.4630615E-06  0.2227428E+04  0.7818609E-02  0.8507098E-01
        1   -1    0    0  501    0  0.00000000000E+00  0.00000000000E+00  0.19049838809E+04  0.19049838809E+04  0.50400001928E-02 0. -1.
       -1   -1    0    0    0  501  0.00000000000E+00  0.00000000000E+00 -0.65111247231E+03  0.65111247233E+03  0.50400001928E-02 0.  1.
    10030    2    1    2    0    0  0.00000000000E+00  0.00000000000E+00  0.12538714086E+04  0.25560963532E+04  0.22274279018E+04 0.  0.
        2    1    3    3  502    0 -0.48288638292E+03  0.98515038988E+03  0.84665045862E+03  0.13858273877E+04  0.25500000920E-02 0.  1.
       -2    1    3    3    0  502  0.48288638292E+03 -0.98515038988E+03  0.40722094995E+03  0.11702689655E+04  0.25500000920E-02 0. -1.
</event>
<event>
 5   0  0.1035928E-05  0.2194370E+04  0.7818609E-02  0.8520775E-01
       -2   -1    0    0    0  501  0.00000000000E+00  0.00000000000E+00  0.62937497883E+03  0.62937497884E+03  0.25500000920E-02 0. -1.
        2   -1    0    0  501    0  0.00000000000E+00  0.00000000000E+00 -0.19127141965E+04  0.19127141965E+04  0.25500000920E-02 0.  1.
    10030    2    1    2    0    0  0.00000000000E+00  0.00000000000E+00 -0.12833392177E+04  0.25420891753E+04  0.21943695741E+04 0.  0.
        3    1    3    3  502    0  0.80708697754E+03  0.13030965050E+03  0.20602265561E+03  0.84309865327E+03  0.10100000352E+00 0. -1.
       -3    1    3    3    0  502 -0.80708697754E+03 -0.13030965050E+03 -0.14893618733E+04  0.16989905221E+04  0.10100000352E+00 0.  1.
</event>
<event>
 5   0  0.4630615E-06  0.2200724E+04  0.7818609E-02  0.8518127E-01
        1   -1    0    0  501    0  0.00000000000E+00  0.00000000000E+00  0.98588785078E+03  0.98588785080E+03  0.50400001928E-02 0. -1.
       -1   -1    0    0    0  501  0.00000000000E+00  0.00000000000E+00 -0.12281285723E+04  0.12281285724E+04  0.50400001928E-02 0.  1.
    10030    2    1    2    0    0  0.00000000000E+00  0.00000000000E+00 -0.24224072156E+03  0.22140164231E+04  0.22007244614E+04 0.  0.
        2    1    3    3  502    0  0.75518989777E+03  0.57720857104E+03 -0.67882905632E+03  0.11680284260E+04  0.25500000920E-02 0.  1.
       -2    1    3    3    0  502 -0.75518989777E+03 -0.57720857104E+03  0.43658833476E+03  0.10459879972E+04  0.25500000920E-02 0. -1.
</event>
<event>
 5   0  0.9963573E-06  0.2201085E+04  0.7818609E-02  0.8517977E-01
        2   -1    0    0  501    0  0.00000000000E+00  0.00000000000E+00  0.17275132166E+04  0.17275132166E+04  0.25500000920E-02 0.  1.
       -2   -1    0    0    0  501  0.00000000000E+00  0.00000000000E+00 -0.70111973286E+03  0.70111973286E+03  0.25500000920E-02 0. -1.
    10030    2    1    2    0    0  0.00000000000E+00  0.00000000000E+00  0.10263934838E+04  0.24286329495E+04  0.22010848280E+04 0.  0.
        2    1    3    3  502    0 -0.76585269165E+03 -0.51629713123E+03 -0.14708241138E+03  0.93526804113E+03  0.25500000920E-02 0. -1.
       -2    1    3    3    0  502  0.76585269165E+03  0.51629713123E+03  0.11734758952E+04  0.14933649084E+04  0.25500000920E-02 0.  1.
</event>
<event>
 5   0  0.4462201E-06  0.2200054E+04  0.7818609E-02  0.8518406E-01
        1   -1    0    0  501    0  0.00000000000E+00  0.00000000000E+00  0.20181896503E+04  0.20181896503E+04  0.50400001928E-02 0. -1.
       -1   -1    0    0    0  501  0.00000000000E+00  0.00000000000E+00 -0.59957666901E+03  0.59957666903E+03  0.50400001928E-02 0.  1.
    10030    2    1    2    0    0  0.00000000000E+00  0.00000000000E+00  0.14186129812E+04  0.26177663193E+04  0.22000540248E+04 0.  0.
        3    1    3    3  502    0 -0.10234042409E+04  0.17948896098E+03  0.11391208998E+04  0.15418070444E+04  0.10100000352E+00 0.  1.
       -3    1    3    3    0  502  0.10234042409E+04 -0.17948896098E+03  0.27949208144E+03  0.10759592749E+04  0.10100000352E+00 0. -1.
</event>
<event>
 5   0  0.4408787E-06  0.2197895E+04  0.7818609E-02  0.8519305E-01
       -1   -1    0    0    0  501  0.00000000000E+00  0.00000000000E+00  0.21148661404E+04  0.21148661404E+04  0.50400001928E-02 0. -1.
        1   -1    0    0  501    0  0.00000000000E+00  0.00000000000E+00 -0.57104579116E+03  0.57104579118E+03  0.50400001928E-02 0.  1.
    10030    2    1    2    0    0  0.00000000000E+00  0.00000000000E+00  0.15438203492E+04  0.26859119316E+04  0.21978948186E+04 0.  0.
        1    1    3    3  502    0 -0.10366094166E+04  0.16151502451E+03  0.37209770359E+03  0.11131499839E+04  0.50400001928E-02 0.  1.
       -1    1    3    3    0  502  0.10366094166E+04 -0.16151502451E+03  0.11717226457E+04  0.15727619477E+04  0.50400001928E-02 0. -1.
</event>
<event>
 5   0  0.9963173E-06  0.2201239E+04  0.7818609E-02  0.8517913E-01
        2   -1    0    0  501    0  0.00000000000E+00  0.00000000000E+00  0.10842114454E+04  0.10842114454E+04  0.25500000920E-02 0. -1.
       -2   -1    0    0    0  501  0.00000000000E+00  0.00000000000E+00 -0.11172754644E+04  0.11172754644E+04  0.25500000920E-02 0.  1.
    10030    2    1    2    0    0  0.00000000000E+00  0.00000000000E+00 -0.33064019077E+02  0.22014869098E+04  0.22012386024E+04 0.  0.
        4    1    3    3  502    0 -0.52558683149E+03 -0.15454462229E+03  0.93816232285E+03  0.10864049497E+04  0.12699999809E+01 0. -1.
       -4    1    3    3    0  502  0.52558683149E+03  0.15454462229E+03 -0.97122634193E+03  0.11150819602E+04  0.12699999809E+01 0.  1.
</event>
<event>
 5   0  0.1015876E-05  0.2200159E+04  0.7818609E-02  0.8518362E-01
       -2   -1    0    0    0  501  0.00000000000E+00  0.00000000000E+00  0.83214383040E+03  0.83214383040E+03  0.25500000920E-02 0. -1.
        2   -1    0    0  501    0  0.00000000000E+00  0.00000000000E+00 -0.14542861230E+04  0.14542861230E+04  0.25500000920E-02 0.  1.
    10030    2    1    2    0    0  0.00000000000E+00  0.00000000000E+00 -0.62214229265E+03  0.22864299534E+04  0.22001592896E+04 0.  0.
        5    1    3    3  502    0 -0.59541634613E+03 -0.84563641864E+03  0.78503518530E+02  0.10372109092E+04  0.46999998093E+01 0. -1.
       -5    1    3    3    0  502  0.59541634613E+03  0.84563641864E+03 -0.70064581118E+03  0.12492190442E+04  0.46999998093E+01 0.  1.
</event>
<event>
 5   0  0.4630615E-06  0.2200897E+04  0.7818609E-02  0.8518055E-01
        1   -1    0    0  501    0  0.00000000000E+00  0.00000000000E+00  0.18098287682E+04  0.18098287682E+04  0.50400001928E-02 0. -1.
       -1   -1    0    0    0  501  0.00000000000E+00  0.00000000000E+00 -0.66911662431E+03  0.66911662433E+03  0.50400001928E-02 0.  1.
    10030    2    1    2    0    0  0.00000000000E+00  0.00000000000E+00  0.11407121439E+04  0.24789453925E+04  0.22008966500E+04 0.  0.
        2    1    3    3  502    0 -0.35720245762E+03  0.10407751162E+04  0.55524144656E+03  0.12325175464E+04  0.25500000920E-02 0.  1.
       -2    1    3    3    0  502  0.35720245762E+03 -0.10407751162E+04  0.58547069735E+03  0.12464278461E+04  0.25500000920E-02 0. -1.
</event>
<event>
 5   0  0.4630615E-06  0.2199082E+04  0.7818609E-02  0.8518811E-01
        1   -1    0    0  501    0  0.00000000000E+00  0.00000000000E+00  0.99194278126E+03  0.99194278127E+03  0.50400001928E-02 0. -1.
       -1   -1    0    0    0  501  0.00000000000E+00  0.00000000000E+00 -0.12188100806E+04  0.12188100806E+04  0.50400001928E-02 0.  1.
    10030    2    1    2    0    0  0.00000000000E+00  0.00000000000E+00 -0.22686729934E+03  0.22107528619E+04  0.21990815003E+04 0.  0.
        2    1    3    3  502    0 -0.10760260355E+04 -0.21442361022E+03 -0.41077022395E+02  0.10979511991E+04  0.25500000920E-02 0.  1.
       -2    1    3    3    0  502  0.10760260355E+04  0.21442361022E+03 -0.18579027695E+03  0.11128016628E+04  0.25500000920E-02 0. -1.
</event>
<event>
 5   0  0.4408787E-06  0.2198237E+04  0.7818609E-02  0.8519162E-01
       -1   -1    0    0    0  501  0.00000000000E+00  0.00000000000E+00  0.10479497133E+04  0.10479497133E+04  0.50400001928E-02 0.  1.
        1   -1    0    0  501    0  0.00000000000E+00  0.00000000000E+00 -0.11527858681E+04  0.11527858681E+04  0.50400001928E-02 0. -1.
    10030    2    1    2    0    0  0.00000000000E+00  0.00000000000E+00 -0.10483615481E+03  0.22007355814E+04  0.21982371300E+04 0.  0.
        1    1    3    3  502    0 -0.30068982716E+03  0.37145898565E+03  0.93848739382E+03  0.10531641556E+04  0.50400001928E-02 0.  1.
       -1    1    3    3    0  502  0.30068982716E+03 -0.37145898565E+03 -0.10433235486E+04  0.11475714258E+04  0.50400001928E-02 0. -1.
</event>
<event>
 5   0  0.4794967E-06  0.2209875E+04  0.7818609E-02  0.8514329E-01
        1   -1    0    0  501    0  0.00000000000E+00  0.00000000000E+00  0.17054555800E+04  0.17054555800E+04  0.50400001928E-02 0. -1.
       -1   -1    0    0    0  501  0.00000000000E+00  0.00000000000E+00 -0.71587157309E+03  0.71587157310E+03  0.50400001928E-02 0.  1.
    10030    2    1    2    0    0  0.00000000000E+00  0.00000000000E+00  0.98958400691E+03  0.24213271531E+04  0.22098752625E+04 0.  0.
        5    1    3    3  502    0 -0.37891878492E+03 -0.71634928198E+03  0.13177450467E+04  0.15470002707E+04  0.46999998093E+01 0. -1.
       -5    1    3    3    0  502  0.37891878492E+03  0.71634928198E+03 -0.32816103977E+03  0.87432688245E+03  0.46999998093E+01 0.  1.
</event>
<event>
 5   0  0.4462201E-06  0.2196827E+04  0.7818609E-02  0.8519750E-01
        1   -1    0    0  501    0  0.00000000000E+00  0.00000000000E+00  0.10421776196E+04  0.10421776196E+04  0.50400001928E-02 0.  1.
       -1   -1    0    0    0  501  0.00000000000E+00  0.00000000000E+00 -0.11576834162E+04  0.11576834162E+04  0.50400001928E-02 0. -1.
    10030    2    1    2    0    0  0.00000000000E+00  0.00000000000E+00 -0.11550579661E+03  0.21998610358E+04  0.21968265721E+04 0.  0.
        3    1    3    3  502    0 -0.19091907240E+03 -0.56441695716E+03  0.86628665615E+03  0.10514129420E+04  0.10100000352E+00 0.  1.
       -3    1    3    3    0  502  0.19091907240E+03  0.56441695716E+03 -0.98179245276E+03  0.11484480938E+04  0.10100000352E+00 0. -1.
</event>
<event>
 5   0  0.1014015E-05  0.2196553E+04  0.7818609E-02  0.8519864E-01
       -2   -1    0    0    0  501  0.00000000000E+00  0.00000000000E+00  0.62327081539E+03  0.62327081539E+03  0.25500000920E-02 0.  1.
        2   -1    0    0  501    0  0.00000000000E+00  0.00000000000E+00 -0.19352931242E+04  0.19352931242E+04  0.25500000920E-02 0. -1.
    10030    2    1    2    0    0  0.00000000000E+00  0.00000000000E+00 -0.13120223088E+04  0.25585639396E+04  0.21965534125E+04 0.  0.
        1    1    3    3  502    0 -0.65138240530E+03  0.31541836180E+03 -0.16182472277E+04  0.17727131383E+04  0.50400001928E-02 0. -1.
       -1    1    3    3    0  502  0.65138240530E+03 -0.31541836180E+03  0.30622491886E+03  0.78585080127E+03  0.50400001928E-02 0.  1.
</event>
<event>
 5   0  0.4794967E-06  0.2200390E+04  0.7818609E-02  0.8518266E-01
        1   -1    0    0  501    0  0.00000000000E+00  0.00000000000E+00  0.82728764802E+03  0.82728764803E+03  0.50400001928E-02 0. -1.
       -1   -1    0    0    0  501  0.00000000000E+00  0.00000000000E+00 -0.14631291149E+04  0.14631291149E+04  0.50400001928E-02 0.  1.
    10030    2    1    2    0    0  0.00000000000E+00  0.00000000000E+00 -0.63584146690E+03  0.22904167630E+04  0.22003896421E+04 0.  0.
        5    1    3    3  502    0 -0.22213680895E+03 -0.46499175410E+03  0.69388021529E+03  0.86432281958E+03  0.46999998093E+01 0. -1.
       -5    1    3    3    0  502  0.22213680895E+03  0.46499175410E+03 -0.13297216822E+04  0.14260939434E+04  0.46999998093E+01 0.  1.
</event>
<event>
 5   0  0.4408787E-06  0.2188801E+04  0.7818609E-02  0.8523104E-01
        1   -1    0    0  501    0  0.00000000000E+00  0.00000000000E+00  0.20908213043E+04  0.20908213043E+04  0.50400001928E-02 0. -1.
       -1   -1    0    0    0  501  0.00000000000E+00  0.00000000000E+00 -0.57284327186E+03  0.57284327188E+03  0.50400001928E-02 0.  1.
    10030    2    1    2    0    0  0.00000000000E+00  0.00000000000E+00  0.15179780324E+04  0.26636645761E+04  0.21888014225E+04 0.  0.
        1    1    3    3  502    0 -0.62379735331E+03  0.14105968725E+03  0.18397430746E+04  0.19477360072E+04  0.50400001928E-02 0. -1.
       -1    1    3    3    0  502  0.62379735331E+03 -0.14105968725E+03 -0.32176504220E+03  0.71592856890E+03  0.50400001928E-02 0.  1.
</event>
<event>
 5   0  0.4408787E-06  0.2196458E+04  0.7818609E-02  0.8519904E-01
       -1   -1    0    0    0  501  0.00000000000E+00  0.00000000000E+00  0.98605192648E+03  0.98605192650E+03  0.50400001928E-02 0.  1.
        1   -1    0    0  501    0  0.00000000000E+00  0.00000000000E+00 -0.12231678243E+04  0.12231678243E+04  0.50400001928E-02 0. -1.
    10030    2    1    2    0    0  0.00000000000E+00  0.00000000000E+00 -0.23711589785E+03  0.22092197508E+04  0.21964580484E+04 0.  0.
        1    1    3    3  502    0  0.46093382175E+03  0.38239523290E+03  0.80734525442E+03  0.10052325413E+04  0.50400001928E-02 0.  1.
       -1    1    3    3    0  502 -0.46093382175E+03 -0.38239523290E+03 -0.10444611523E+04  0.12039872096E+04  0.50400001928E-02 0. -1.
</event>
<event>
 5   0  0.4309945E-06  0.2208540E+04  0.7818609E-02  0.8514882E-01
        1   -1    0    0  501    0  0.00000000000E+00  0.00000000000E+00  0.14683776500E+04  0.14683776500E+04  0.50400001928E-02 0. -1.
       -1   -1    0    0    0  501  0.00000000000E+00  0.00000000000E+00 -0.83044862281E+03  0.83044862282E+03  0.50400001928E-02 0.  1.
    10030    2    1    2    0    0  0.00000000000E+00  0.00000000000E+00  0.63792902715E+03  0.22988262728E+04  0.22085399677E+04 0.  0.
        4    1    3    3  502    0  0.93543666644E+03 -0.34165334826E+03  0.81558760683E+03  0.12872270680E+04  0.12699999809E+01 0. -1.
       -4    1    3    3    0  502 -0.93543666644E+03  0.34165334826E+03 -0.17765857968E+03  0.10115992048E+04  0.12699999809E+01 0.  1.
</event>
<event>
 5   0  0.4462201E-06  0.2199061E+04  0.7818609E-02  0.8518819E-01
       -1   -1    0    0    0  501  0.00000000000E+00  0.00000000000E+00  0.72803776789E+03  0.72803776791E+03  0.50400001928E-02 0.  1.
        1   -1    0    0  501    0  0.00000000000E+00  0.00000000000E+00 -0.16605830176E+04  0.16605830176E+04  0.50400001928E-02 0. -1.
    10030    2    1    2    0    0  0.00000000000E+00  0.00000000000E+00 -0.93254524966E+03  0.23886207855E+04  0.21990608482E+04 0.  0.
        3    1    3    3  502    0  0.98029575128E+03 -0.28575300385E+03 -0.23277798529E+02  0.10213600762E+04  0.10100000352E+00 0.  1.
       -3    1    3    3    0  502 -0.98029575128E+03  0.28575300385E+03 -0.90926745113E+03  0.13672607093E+04  0.10100000352E+00 0. -1.
</event>
<event>
 5   0  0.1014015E-05  0.2199210E+04  0.7818609E-02  0.8518757E-01
        2   -1    0    0  501    0  0.00000000000E+00  0.00000000000E+00  0.84632688171E+03  0.84632688172E+03  0.25500000920E-02 0. -1.
       -2   -1    0    0    0  501  0.00000000000E+00  0.00000000000E+00 -0.14286816532E+04  0.14286816532E+04  0.25500000920E-02 0.  1.
    10030    2    1    2    0    0  0.00000000000E+00  0.00000000000E+00 -0.58235477148E+03  0.22750085349E+04  0.21992104843E+04 0.  0.
        1    1    3    3  502    0 -0.44988168292E+03 -0.37354929393E+03 -0.12545086128E+04  0.13840969848E+04  0.50400001928E-02 0.  1.
       -1    1    3    3    0  502  0.44988168292E+03  0.37354929393E+03  0.67215384136E+03  0.89091155011E+03  0.50400001928E-02 0. -1.
</event>
<event>
 5   0  0.1035928E-05  0.2198035E+04  0.7818609E-02  0.8519246E-01
        2   -1    0    0  501    0  0.00000000000E+00  0.00000000000E+00  0.30624578995E+04  0.30624578995E+04  0.25500000920E-02 0. -1.
       -2   -1    0    0    0  501  0.00000000000E+00  0.00000000000E+00 -0.39440206290E+03  0.39440206291E+03  0.25500000920E-02 0.  1.
    10030    2    1    2    0    0  0.00000000000E+00  0.00000000000E+00  0.26680558366E+04  0.34568599624E+04  0.21980352255E+04 0.  0.
        3    1    3    3  502    0  0.45245722314E+03  0.74569248024E+03  0.23855839531E+04  0.25400365393E+04  0.10100000352E+00 0. -1.
       -3    1    3    3    0  502 -0.45245722314E+03 -0.74569248024E+03  0.28247188350E+03  0.91682342304E+03  0.10100000352E+00 0.  1.
</event>
<event>
 5   0  0.4462201E-06  0.2197564E+04  0.7818609E-02  0.8519443E-01
       -1   -1    0    0    0  501  0.00000000000E+00  0.00000000000E+00  0.91958130870E+03  0.91958130871E+03  0.50400001928E-02 0. -1.
        1   -1    0    0  501    0  0.00000000000E+00  0.00000000000E+00 -0.13129039929E+04  0.13129039929E+04  0.50400001928E-02 0.  1.
    10030    2    1    2    0    0  0.00000000000E+00  0.00000000000E+00 -0.39332268415E+03  0.22324853016E+04  0.21975640805E+04 0.  0.
        3    1    3    3  502    0 -0.74816244859E+03 -0.52357546112E+03 -0.81747262190E+03  0.12256181341E+04  0.10100000352E+00 0.  1.
       -3    1    3    3    0  502  0.74816244859E+03  0.52357546112E+03  0.42414993775E+03  0.10068671674E+04  0.10100000352E+00 0. -1.
</event>
<event>
 5   0  0.3546750E-06  0.2197474E+04  0.7818609E-02  0.8519480E-01
       -4   -1    0    0    0  501  0.00000000000E+00  0.00000000000E+00  0.87406618700E+03  0.87406710964E+03  0.12699999809E+01 0. -1.
        4   -1    0    0  501    0  0.00000000000E+00  0.00000000000E+00 -0.13811553925E+04  0.13811559764E+04  0.12699999809E+01 0.  1.
    10030    2    1    2    0    0  0.00000000000E+00  0.00000000000E+00 -0.50708920547E+03  0.22552230860E+04  0.21974739374E+04 0.  0.
        2    1    3    3  502    0 -0.74841846252E+00  0.29019429822E+03 -0.13411153481E+04  0.13721529317E+04  0.25500000920E-02 0.  1.
       -2    1    3    3    0  502  0.74841846252E+00 -0.29019429822E+03  0.83402614266E+03  0.88307015435E+03  0.25500000920E-02 0. -1.
</event>
<event>
 5   0  0.4309945E-06  0.2192641E+04  0.7818609E-02  0.8521497E-01
        1   -1    0    0  501    0  0.00000000000E+00  0.00000000000E+00  0.13090868827E+04  0.13090868827E+04  0.50400001928E-02 0.  1.
       -1   -1    0    0    0  501  0.00000000000E+00  0.00000000000E+00 -0.91813488923E+03  0.91813488924E+03  0.50400001928E-02 0. -1.
    10030    2    1    2    0    0  0.00000000000E+00  0.00000000000E+00  0.39095199346E+03  0.22272217719E+04  0.21926407276E+04 0.  0.
        4    1    3    3  502    0  0.59109168345E+03 -0.87770075051E+03  0.48664779202E+03  0.11647212851E+04  0.12699999809E+01 0.  1.
       -4    1    3    3    0  502 -0.59109168345E+03  0.87770075051E+03 -0.95695798553E+02  0.10625004868E+04  0.12699999809E+01 0. -1.
</event>
<event>
 5   0  0.4630615E-06  0.2203569E+04  0.7818609E-02  0.8516944E-01
       -1   -1    0    0    0  501  0.00000000000E+00  0.00000000000E+00  0.82114784523E+03  0.82114784525E+03  0.50400001928E-02 0.  1.
        1   -1    0    0  501    0  0.00000000000E+00  0.00000000000E+00 -0.14783319236E+04  0.14783319236E+04  0.50400001928E-02 0. -1.
    10030    2    1    2    0    0  0.00000000000E+00  0.00000000000E+00 -0.65718407840E+03  0.22994797689E+04  0.22035689902E+04 0.  0.
        2    1    3    3  502    0 -0.42093958733E+02 -0.10497531644E+04  0.17782043806E+02  0.10507472620E+04  0.25500000920E-02 0.  1.
       -2    1    3    3    0  502  0.42093958733E+02  0.10497531644E+04 -0.67496612220E+03  0.12487325069E+04  0.25500000920E-02 0. -1.
</event>
<event>
 5   0  0.4408787E-06  0.2203395E+04  0.7818609E-02  0.8517016E-01
        1   -1    0    0  501    0  0.00000000000E+00  0.00000000000E+00  0.13405284973E+04  0.13405284973E+04  0.50400001928E-02 0. -1.
       -1   -1    0    0    0  501  0.00000000000E+00  0.00000000000E+00 -0.90541683538E+03  0.90541683540E+03  0.50400001928E-02 0.  1.
    10030    2    1    2    0    0  0.00000000000E+00  0.00000000000E+00  0.43511166194E+03  0.22459453327E+04  0.22033947171E+04 0.  0.
        1    1    3    3  502    0 -0.10092606343E+04  0.37977281895E+03  0.44752894418E+03  0.11675258360E+04  0.50400001928E-02 0. -1.
       -1    1    3    3    0  502  0.10092606343E+04 -0.37977281895E+03 -0.12417282239E+02  0.10784194967E+04  0.50400001928E-02 0.  1.
</event>
<event>
 5   0  0.4794967E-06  0.2199299E+04  0.7818609E-02  0.8518720E-01
       -1   -1    0    0    0  501  0.00000000000E+00  0.00000000000E+00  0.99430829711E+03  0.99430829712E+03  0.50400001928E-02 0.  1.
        1   -1    0    0  501    0  0.00000000000E+00  0.00000000000E+00 -0.12161511643E+04  0.12161511643E+04  0.50400001928E-02 0. -1.
    10030    2    1    2    0    0  0.00000000000E+00  0.00000000000E+00 -0.22184286719E+03  0.22104594614E+04  0.21992991549E+04 0.  0.
        5    1    3    3  502    0  0.13093069933E+03  0.23818406879E+03 -0.11818482715E+04  0.12127085081E+04  0.46999998093E+01 0. -1.
       -5    1    3    3    0  502 -0.13093069933E+03 -0.23818406879E+03  0.96000540431E+03  0.99775095338E+03  0.46999998093E+01 0.  1.
</event>
<event>
 5   0  0.1015876E-05  0.2198915E+04  0.7818609E-02  0.8518880E-01
        2   -1    0    0  501    0  0.00000000000E+00  0.00000000000E+00  0.19032540574E+04  0.19032540574E+04  0.25500000920E-02 0. -1.
       -2   -1    0    0    0  501  0.00000000000E+00  0.00000000000E+00 -0.63512623559E+03  0.63512623559E+03  0.25500000920E-02 0.  1.
    10030    2    1    2    0    0  0.00000000000E+00  0.00000000000E+00  0.12681278218E+04  0.25383802930E+04  0.21989148095E+04 0.  0.
        5    1    3    3  502    0 -0.72349973452E+03  0.77188924248E+03  0.97945204535E+03  0.14417396671E+04  0.46999998093E+01 0. -1.
       -5    1    3    3    0  502  0.72349973452E+03 -0.77188924248E+03  0.28867577648E+03  0.10966406259E+04  0.46999998093E+01 0.  1.
</event>
<event>
 5   0  0.9963173E-06  0.2219040E+04  0.7818609E-02  0.8510545E-01
        2   -1    0    0  501    0  0.00000000000E+00  0.00000000000E+00  0.14146267088E+04  0.14146267088E+04  0.25500000920E-02 0. -1.
       -2   -1    0    0    0  501  0.00000000000E+00  0.00000000000E+00 -0.87021834802E+03  0.87021834802E+03  0.25500000920E-02 0.  1.
    10030    2    1    2    0    0  0.00000000000E+00  0.00000000000E+00  0.54440836082E+03  0.22848450569E+04  0.22190395379E+04 0.  0.
        4    1    3    3  502    0 -0.62696066430E+03 -0.78083279671E+03 -0.21972199979E+03  0.10252116372E+04  0.12699999809E+01 0.  1.
       -4    1    3    3    0  502  0.62696066430E+03  0.78083279671E+03  0.76413036061E+03  0.12596334197E+04  0.12699999809E+01 0. -1.
</event>
<event>
 5   0  0.4794967E-06  0.2192893E+04  0.7818609E-02  0.8521392E-01
        1   -1    0    0  501    0  0.00000000000E+00  0.00000000000E+00  0.21789346549E+04  0.21789346549E+04  0.50400001928E-02 0. -1.
       -1   -1    0    0    0  501  0.00000000000E+00  0.00000000000E+00 -0.55173526851E+03  0.55173526853E+03  0.50400001928E-02 0.  1.
    10030    2    1    2    0    0  0.00000000000E+00  0.00000000000E+00  0.16271993864E+04  0.27306699235E+04  0.21928931547E+04 0.  0.
        5    1    3    3  502    0 -0.49938186723E+03  0.21080107683E+03  0.20004042936E+04  0.20725488586E+04  0.46999998093E+01 0. -1.
       -5    1    3    3    0  502  0.49938186723E+03 -0.21080107683E+03 -0.37320490719E+03  0.65812106489E+03  0.46999998093E+01 0.  1.
</event>
<event>
 5   0  0.3546750E-06  0.2201923E+04  0.7818609E-02  0.8517628E-01
       -3   -1    0    0    0  501  0.00000000000E+00  0.00000000000E+00  0.88892858554E+03  0.88892859128E+03  0.10100000352E+00 0. -1.
        3   -1    0    0  501    0  0.00000000000E+00  0.00000000000E+00 -0.13635693704E+04  0.13635693742E+04  0.10100000352E+00 0.  1.
    10030    2    1    2    0    0  0.00000000000E+00  0.00000000000E+00 -0.47464078487E+03  0.22524979654E+04  0.22019226166E+04 0.  0.
        4    1    3    3  502    0 -0.18198568492E+03  0.15261421682E+03  0.86240871452E+03  0.89451679273E+03  0.12699999809E+01 0. -1.
       -4    1    3    3    0  502  0.18198568492E+03 -0.15261421682E+03 -0.13370494994E+04  0.13579811727E+04  0.12699999809E+01 0.  1.
</event>
<event>
 5   0  0.1014015E-05  0.2203448E+04  0.7818609E-02  0.8516994E-01
       -2   -1    0    0    0  501  0.00000000000E+00  0.00000000000E+00  0.11563673099E+04  0.11563673099E+04  0.25500000920E-02 0. -1.
        2   -1    0    0  501    0  0.00000000000E+00  0.00000000000E+00 -0.10496631423E+04  0.10496631423E+04  0.25500000920E-02 0.  1.
    10030    2    1    2    0    0  0.00000000000E+00  0.00000000000E+00  0.10670416763E+03  0.22060304523E+04  0.22034483377E+04 0.  0.
        1    1    3    3  502    0 -0.10166463205E+04 -0.23522426620E+03 -0.30046826370E+03  0.10859011806E+04  0.50400001928E-02 0.  1.
       -1    1    3    3    0  502  0.10166463205E+04  0.23522426620E+03  0.40717243132E+03  0.11201292717E+04  0.50400001928E-02 0. -1.
</event>
<event>
 5   0  0.9963173E-06  0.2201714E+04  0.7818609E-02  0.8517715E-01
        2   -1    0    0  501    0  0.00000000000E+00  0.00000000000E+00  0.79866072180E+03  0.79866072181E+03  0.25500000920E-02 0.  1.
       -2   -1    0    0    0  501  0.00000000000E+00  0.00000000000E+00 -0.15173975129E+04  0.15173975129E+04  0.25500000920E-02 0. -1.
    10030    2    1    2    0    0  0.00000000000E+00  0.00000000000E+00 -0.71873679106E+03  0.23160582347E+04  0.22017136897E+04 0.  0.
        4    1    3    3  502    0 -0.30479812525E+03 -0.66562414860E+03 -0.12242137512E+04  0.14264145001E+04  0.12699999809E+01 0. -1.
       -4    1    3    3    0  502  0.30479812525E+03  0.66562414860E+03  0.50547696019E+03  0.88964373461E+03  0.12699999809E+01 0.  1.
</event>
<event>
 5   0  0.9963173E-06  0.2192981E+04  0.7818609E-02  0.8521355E-01
        2   -1    0    0  501    0  0.00000000000E+00  0.00000000000E+00  0.17469220813E+04  0.17469220813E+04  0.25500000920E-02 0. -1.
       -2   -1    0    0    0  501  0.00000000000E+00  0.00000000000E+00 -0.68823415371E+03  0.68823415372E+03  0.25500000920E-02 0.  1.
    10030    2    1    2    0    0  0.00000000000E+00  0.00000000000E+00  0.10586879276E+04  0.24351562351E+04  0.21929810216E+04 0.  0.
        4    1    3    3  502    0  0.10417632853E+04 -0.22302602931E+03  0.81736885847E+03  0.13427973845E+04  0.12699999809E+01 0. -1.
       -4    1    3    3    0  502 -0.10417632853E+04  0.22302602931E+03  0.24131906915E+03  0.10923588505E+04  0.12699999809E+01 0.  1.
</event>
<event>
 5   0  0.4309945E-06  0.2203255E+04  0.7818609E-02  0.8517075E-01
        1   -1    0    0  501    0  0.00000000000E+00  0.00000000000E+00  0.24635057287E+04  0.24635057287E+04  0.50400001928E-02 0. -1.
       -1   -1    0    0    0  501  0.00000000000E+00  0.00000000000E+00 -0.49262422739E+03  0.49262422742E+03  0.50400001928E-02 0.  1.
    10030    2    1    2    0    0  0.00000000000E+00  0.00000000000E+00  0.19708815013E+04  0.29561299561E+04  0.22032545076E+04 0.  0.
        4    1    3    3  502    0 -0.14353267347E+03  0.36952055892E+03  0.23644907867E+04  0.23974914734E+04  0.12699999809E+01 0. -1.
       -4    1    3    3    0  502  0.14353267347E+03 -0.36952055892E+03 -0.39360928544E+03  0.55863848266E+03  0.12699999809E+01 0.  1.
</event>
<event>
 5   0  0.4462201E-06  0.2202643E+04  0.7818609E-02  0.8517329E-01
       -1   -1    0    0    0  501  0.00000000000E+00  0.00000000000E+00  0.10084800852E+04  0.10084800852E+04  0.50400001928E-02 0.  1.
        1   -1    0    0  501    0  0.00000000000E+00  0.00000000000E+00 -0.12027104884E+04  0.12027104885E+04  0.50400001928E-02 0. -1.
    10030    2    1    2    0    0  0.00000000000E+00  0.00000000000E+00 -0.19423040325E+03  0.22111905736E+04  0.22026434808E+04 0.  0.
        3    1    3    3  502    0 -0.10424144421E+04  0.13099743268E+03 -0.42873226522E+03  0.11347244432E+04  0.10100000352E+00 0. -1.
       -3    1    3    3    0  502  0.10424144421E+04 -0.13099743268E+03  0.23450186197E+03  0.10764661305E+04  0.10100000352E+00 0.  1.
</event>
<event>
 5   0  0.4462201E-06  0.2197753E+04  0.7818609E-02  0.8519364E-01
        1   -1    0    0  501    0  0.00000000000E+00  0.00000000000E+00  0.16865142605E+04  0.16865142605E+04  0.50400001928E-02 0. -1.
       -1   -1    0    0    0  501  0.00000000000E+00  0.00000000000E+00 -0.71599148231E+03  0.71599148233E+03  0.50400001928E-02 0.  1.
    10030    2    1    2    0    0  0.00000000000E+00  0.00000000000E+00  0.97052277818E+03  0.24025057428E+04  0.21977532576E+04 0.  0.
        3    1    3    3  502    0  0.20707001409E+03 -0.44283560618E+03  0.15610976593E+04  0.16358506279E+04  0.10100000352E+00 0. -1.
       -3    1    3    3    0  502 -0.20707001409E+03  0.44283560618E+03 -0.59057488110E+03  0.76665511491E+03  0.10100000352E+00 0.  1.
</event>
<event>
 5   0  0.9963173E-06  0.2200662E+04  0.7818609E-02  0.8518153E-01
       -2   -1    0    0    0  501  0.00000000000E+00  0.00000000000E+00  0.48896380611E+03  0.48896380611E+03  0.25500000920E-02 0. -1.
        2   -1    0    0  501    0  0.00000000000E+00  0.00000000000E+00 -0.24761105524E+04  0.24761105524E+04  0.25500000920E-02 0.  1.
    10030    2    1    2    0    0  0.00000000000E+00  0.00000000000E+00 -0.19871467463E+04  0.29650743585E+04  0.22006621186E+04 0.  0.
        4    1    3    3  502    0 -0.10027002851E+04 -0.38780267849E+03 -0.13093495077E+04  0.16941654362E+04  0.12699999809E+01 0. -1.
       -4    1    3    3    0  502  0.10027002851E+04  0.38780267849E+03 -0.67779723867E+03  0.12709089223E+04  0.12699999809E+01 0.  1.
</event>
<event>
 5   0  0.4309945E-06  0.2244501E+04  0.7818609E-02  0.8500131E-01
       -1   -1    0    0    0  501  0.00000000000E+00  0.00000000000E+00  0.92063906659E+03  0.92063906660E+03  0.50400001928E-02 0.  1.
        1   -1    0    0  501    0  0.00000000000E+00  0.00000000000E+00 -0.13680132343E+04  0.13680132343E+04  0.50400001928E-02 0. -1.
    10030    2    1    2    0    0  0.00000000000E+00  0.00000000000E+00 -0.44737416768E+03  0.22886523009E+04  0.22445012160E+04 0.  0.
        4    1    3    3  502    0 -0.40301722255E+03  0.19804428418E+03  0.82503843413E+03  0.93932659435E+03  0.12699999809E+01 0.  1.
       -4    1    3    3    0  502  0.40301722255E+03 -0.19804428418E+03 -0.12724126018E+04  0.13493257065E+04  0.12699999809E+01 0. -1.
</event>
<event>
 5   0  0.1014015E-05  0.2191510E+04  0.7818609E-02  0.8521970E-01
       -2   -1    0    0    0  501  0.00000000000E+00  0.00000000000E+00  0.11047372247E+04  0.11047372247E+04  0.25500000920E-02 0.  1.
        2   -1    0    0  501    0  0.00000000000E+00  0.00000000000E+00 -0.10868454802E+04  0.10868454802E+04  0.25500000920E-02 0. -1.
    10030    2    1    2    0    0  0.00000000000E+00  0.00000000000E+00  0.17891744526E+02  0.21915827049E+04  0.21915096710E+04 0.  0.
        1    1    3    3  502    0 -0.49576609723E+03 -0.26400839386E+03 -0.93193308117E+03  0.10881101612E+04  0.50400001928E-02 0. -1.
       -1    1    3    3    0  502  0.49576609723E+03  0.26400839386E+03  0.94982482570E+03  0.11034725437E+04  0.50400001928E-02 0.  1.
</event>
<event>
 5   0  0.4794967E-06  0.2200485E+04  0.7818609E-02  0.8518226E-01
       -1   -1    0    0    0  501  0.00000000000E+00  0.00000000000E+00  0.10278829911E+04  0.10278829911E+04  0.50400001928E-02 0. -1.
        1   -1    0    0  501    0  0.00000000000E+00  0.00000000000E+00 -0.11776959845E+04  0.11776959845E+04  0.50400001928E-02 0.  1.
    10030    2    1    2    0    0  0.00000000000E+00  0.00000000000E+00 -0.14981299340E+03  0.22055789757E+04  0.22004851022E+04 0.  0.
        5    1    3    3  502    0  0.47689231074E+03  0.71104505306E+03 -0.76752003564E+03  0.11498349615E+04  0.46999998093E+01 0.  1.
       -5    1    3    3    0  502 -0.47689231074E+03 -0.71104505306E+03  0.61770704224E+03  0.10557440142E+04  0.46999998093E+01 0. -1.
</event>
<event>
 5   0  0.1035928E-05  0.2199447E+04  0.7818609E-02  0.8518658E-01
        2   -1    0    0  501    0  0.00000000000E+00  0.00000000000E+00  0.10914686683E+04  0.10914686683E+04  0.25500000920E-02 0. -1.
       -2   -1    0    0    0  501  0.00000000000E+00  0.00000000000E+00 -0.11080403485E+04  0.11080403485E+04  0.25500000920E-02 0.  1.
    10030    2    1    2    0    0  0.00000000000E+00  0.00000000000E+00 -0.16571680274E+02  0.21995090168E+04  0.21994465882E+04 0.  0.
        3    1    3    3  502    0 -0.24608910795E+03  0.70102470596E+03 -0.81910835170E+03  0.11058634588E+04  0.10100000352E+00 0.  1.
       -3    1    3    3    0  502  0.24608910795E+03 -0.70102470596E+03  0.80253667142E+03  0.10936455580E+04  0.10100000352E+00 0. -1.
</event>
<event>
 5   0  0.1014015E-05  0.2196968E+04  0.7818609E-02  0.8519691E-01
        2   -1    0    0  501    0  0.00000000000E+00  0.00000000000E+00  0.19217788712E+04  0.19217788712E+04  0.25500000920E-02 0. -1.
       -2   -1    0    0    0  501  0.00000000000E+00  0.00000000000E+00 -0.62789089491E+03  0.62789089491E+03  0.25500000920E-02 0.  1.
    10030    2    1    2    0    0  0.00000000000E+00  0.00000000000E+00  0.12938879763E+04  0.25496697661E+04  0.21969683250E+04 0.  0.
        1    1    3    3  502    0  0.32612991190E+03  0.88391854991E+03  0.13024125927E+04  0.16074673508E+04  0.50400001928E-02 0. -1.
       -1    1    3    3    0  502 -0.32612991190E+03 -0.88391854991E+03 -0.85246163755E+01  0.94220241531E+03  0.50400001928E-02 0.  1.
</event>
<event>
 5   0  0.4794967E-06  0.2199822E+04  0.7818609E-02  0.8518502E-01
        1   -1    0    0  501    0  0.00000000000E+00  0.00000000000E+00  0.16040436737E+04  0.16040436738E+04  0.50400001928E-02 0. -1.
       -1   -1    0    0    0  501  0.00000000000E+00  0.00000000000E+00 -0.75422169362E+03  0.75422169363E+03  0.50400001928E-02 0.  1.
    10030    2    1    2    0    0  0.00000000000E+00  0.00000000000E+00  0.84982198013E+03  0.23582653674E+04  0.21998222985E+04 0.  0.
        5    1    3    3  502    0 -0.10203419197E+04  0.40140398460E+03  0.33170237835E+03  0.11455441283E+04  0.46999998093E+01 0. -1.
       -5    1    3    3    0  502  0.10203419197E+04 -0.40140398460E+03  0.51811960178E+03  0.12127212391E+04  0.46999998093E+01 0.  1.
</event>
<event>
 5   0  0.4630615E-06  0.2187345E+04  0.7818609E-02  0.8523714E-01
        1   -1    0    0  501    0  0.00000000000E+00  0.00000000000E+00  0.25906145276E+04  0.25906145276E+04  0.50400001928E-02 0.  1.
       -1   -1    0    0    0  501  0.00000000000E+00  0.00000000000E+00 -0.46171274886E+03  0.46171274889E+03  0.50400001928E-02 0. -1.
    10030    2    1    2    0    0  0.00000000000E+00  0.00000000000E+00  0.21289017787E+04  0.30523272765E+04  0.21873451989E+04 0.  0.
        2    1    3    3  502    0  0.16791761704E+03  0.67700173574E+03 -0.11103697472E+03  0.70629801505E+03  0.25500000920E-02 0. -1.
       -2    1    3    3    0  502 -0.16791761704E+03 -0.67700173574E+03  0.22399387534E+04  0.23460292614E+04  0.25500000920E-02 0.  1.
</event>
<event>
 5   0  0.9963573E-06  0.2200164E+04  0.7818609E-02  0.8518360E-01
       -2   -1    0    0    0  501  0.00000000000E+00  0.00000000000E+00  0.98223295300E+03  0.98223295300E+03  0.25500000920E-02 0.  1.
        2   -1    0    0  501    0  0.00000000000E+00  0.00000000000E+00 -0.12320707388E+04  0.12320707388E+04  0.25500000920E-02 0. -1.
    10030    2    1    2    0    0  0.00000000000E+00  0.00000000000E+00 -0.24983778575E+03  0.22143036918E+04  0.22001640666E+04 0.  0.
        2    1    3    3  502    0 -0.19903103987E+03  0.67893021113E+03  0.72288481908E+03  0.10114949570E+04  0.25500000920E-02 0.  1.
       -2    1    3    3    0  502  0.19903103987E+03 -0.67893021113E+03 -0.97272260483E+03  0.12028087347E+04  0.25500000920E-02 0. -1.
</event>
<event>
 5   0  0.9963573E-06  0.2198675E+04  0.7818609E-02  0.8518980E-01
        2   -1    0    0  501    0  0.00000000000E+00  0.00000000000E+00  0.16110359095E+04  0.16110359095E+04  0.25500000920E-02 0.  1.
       -2   -1    0    0    0  501  0.00000000000E+00  0.00000000000E+00 -0.75016508414E+03  0.75016508415E+03  0.25500000920E-02 0. -1.
    10030    2    1    2    0    0  0.00000000000E+00  0.00000000000E+00  0.86087082532E+03  0.23612009936E+04  0.21986749542E+04 0.  0.
        2    1    3    3  502    0  0.65280037203E+03  0.27246911433E+03 -0.47328925202E+03  0.85111130886E+03  0.25500000920E-02 0. -1.
       -2    1    3    3    0  502 -0.65280037203E+03 -0.27246911433E+03  0.13341600773E+04  0.15100896847E+04  0.25500000920E-02 0.  1.
</event>
<event>
 5   0  0.4462201E-06  0.2200085E+04  0.7818609E-02  0.8518393E-01
        1   -1    0    0  501    0  0.00000000000E+00  0.00000000000E+00  0.10644156337E+04  0.10644156337E+04  0.50400001928E-02 0. -1.
       -1   -1    0    0    0  501  0.00000000000E+00  0.00000000000E+00 -0.11368618139E+04  0.11368618139E+04  0.50400001928E-02 0.  1.
    10030    2    1    2    0    0  0.00000000000E+00  0.00000000000E+00 -0.72446180180E+02  0.22012774476E+04  0.22000849875E+04 0.  0.
        3    1    3    3  502    0  0.72979306596E+03  0.30082128634E+03  0.73035280479E+03  0.10754099661E+04  0.10100000352E+00 0. -1.
       -3    1    3    3    0  502 -0.72979306596E+03 -0.30082128634E+03 -0.80279898497E+03  0.11258674815E+04  0.10100000352E+00 0.  1.
</event>
<event>
 5   0  0.4630615E-06  0.2209056E+04  0.7818609E-02  0.8514668E-01
       -1   -1    0    0    0  501  0.00000000000E+00  0.00000000000E+00  0.71653498606E+03  0.71653498608E+03  0.50400001928E-02 0. -1.
        1   -1    0    0  501    0  0.00000000000E+00  0.00000000000E+00 -0.17026141249E+04  0.17026141249E+04  0.50400001928E-02 0.  1.
    10030    2    1    2    0    0  0.00000000000E+00  0.00000000000E+00 -0.98607913886E+03  0.24191491110E+04  0.22090564396E+04 0.  0.
        2    1    3    3  502    0 -0.10429309305E+04 -0.36369882047E+03 -0.49403756884E+03  0.12099813541E+04  0.25500000920E-02 0.  1.
       -2    1    3    3    0  502  0.10429309305E+04  0.36369882047E+03 -0.49204157002E+03  0.12091677569E+04  0.25500000920E-02 0. -1.
</event>
<event>
 5   0  0.1014015E-05  0.2198596E+04  0.7818609E-02  0.8519013E-01
       -2   -1    0    0    0  501  0.00000000000E+00  0.00000000000E+00  0.79545077823E+03  0.79545077823E+03  0.25500000920E-02 0. -1.
        2   -1    0    0  501    0  0.00000000000E+00  0.00000000000E+00 -0.15192086420E+04  0.15192086420E+04  0.25500000920E-02 0.  1.
    10030    2    1    2    0    0  0.00000000000E+00  0.00000000000E+00 -0.72375786376E+03  0.23146594202E+04  0.21985956396E+04 0.  0.
        1    1    3    3  502    0 -0.10845429607E+04 -0.17836960831E+03 -0.34065155026E+03  0.11506922393E+04  0.50400001928E-02 0.  1.
       -1    1    3    3    0  502  0.10845429607E+04  0.17836960831E+03 -0.38310631350E+03  0.11639671809E+04  0.50400001928E-02 0. -1.
</event>
<event>
 5   0  0.4309945E-06  0.2191122E+04  0.7818609E-02  0.8522133E-01
        1   -1    0    0  501    0  0.00000000000E+00  0.00000000000E+00  0.13212442709E+04  0.13212442709E+04  0.50400001928E-02 0. -1.
       -1   -1    0    0    0  501  0.00000000000E+00  0.00000000000E+00 -0.90842665463E+03  0.90842665464E+03  0.50400001928E-02 0.  1.
    10030    2    1    2    0    0  0.00000000000E+00  0.00000000000E+00  0.41281761630E+03  0.22296709256E+04  0.21911216425E+04 0.  0.
        4    1    3    3  502    0 -0.88857484370E+02 -0.10261278032E+04  0.58636512903E+03  0.11851833607E+04  0.12699999809E+01 0. -1.
       -4    1    3    3    0  502  0.88857484370E+02  0.10261278032E+04 -0.17354751273E+03  0.10444875649E+04  0.12699999809E+01 0.  1.
</event>
<event>
 5   0  0.1014015E-05  0.2202434E+04  0.7818609E-02  0.8517416E-01
       -2   -1    0    0    0  501  0.00000000000E+00  0.00000000000E+00  0.16095595525E+04  0.16095595525E+04  0.25500000920E-02 0.  1.
        2   -1    0    0  501    0  0.00000000000E+00  0.00000000000E+00 -0.75342286876E+03  0.75342286876E+03  0.25500000920E-02 0. -1.
    10030    2    1    2    0    0  0.00000000000E+00  0.00000000000E+00  0.85613668377E+03  0.23629824213E+04  0.22024340857E+04 0.  0.
        1    1    3    3  502    0 -0.10845994276E+04 -0.10915526698E+02  0.63221172121E+03  0.12554547891E+04  0.50400001928E-02 0.  1.
       -1    1    3    3    0  502  0.10845994276E+04  0.10915526698E+02  0.22392496256E+03  0.11075276322E+04  0.50400001928E-02 0. -1.
</event>
<event>
 5   0  0.4408787E-06  0.2136293E+04  0.7818609E-02  0.8545422E-01
        1   -1    0    0  501    0  0.00000000000E+00  0.00000000000E+00  0.20308203115E+04  0.20308203115E+04  0.50400001928E-02 0. -1.
       -1   -1    0    0    0  501  0.00000000000E+00  0.00000000000E+00 -0.56181101189E+03  0.56181101191E+03  0.50400001928E-02 0.  1.
    10030    2    1    2    0    0  0.00000000000E+00  0.00000000000E+00  0.14690092996E+04  0.25926313234E+04  0.21362932516E+04 0.  0.
        1    1    3    3  502    0 -0.69265070624E+03  0.76080659032E+03  0.10827617267E+04  0.14936413979E+04  0.50400001928E-02 0.  1.
       -1    1    3    3    0  502  0.69265070624E+03 -0.76080659032E+03  0.38624757291E+03  0.10989899255E+04  0.50400001928E-02 0. -1.
</event>
<event>
 5   0  0.9963173E-06  0.2206276E+04  0.7818609E-02  0.8515821E-01
       -2   -1    0    0    0  501  0.00000000000E+00  0.00000000000E+00  0.15032487125E+04  0.15032487125E+04  0.25500000920E-02 0.  1.
        2   -1    0    0  501    0  0.00000000000E+00  0.00000000000E+00 -0.80952216097E+03  0.80952216097E+03  0.25500000920E-02 0. -1.
    10030    2    1    2    0    0  0.00000000000E+00  0.00000000000E+00  0.69372655157E+03  0.23127708735E+04  0.22062757273E+04 0.  0.
        4    1    3    3  502    0 -0.53306440701E+02  0.47250206220E+03  0.13903054785E+04  0.14693708558E+04  0.12699999809E+01 0.  1.
       -4    1    3    3    0  502  0.53306440701E+02 -0.47250206220E+03 -0.69657892698E+03  0.84340001767E+03  0.12699999809E+01 0. -1.
</event>
<event>
 5   0  0.3546750E-06  0.2197763E+04  0.7818609E-02  0.8519360E-01
        3   -1    0    0  501    0  0.00000000000E+00  0.00000000000E+00  0.24048720804E+04  0.24048720825E+04  0.10100000352E+00 0. -1.
       -3   -1    0    0    0  501  0.00000000000E+00  0.00000000000E+00 -0.50212247732E+03  0.50212248747E+03  0.10100000352E+00 0.  1.
    10030    2    1    2    0    0  0.00000000000E+00  0.00000000000E+00  0.19027496031E+04  0.29069945700E+04  0.21977628120E+04 0.  0.
        2    1    3    3  502    0  0.39215397703E+03  0.38419958826E+03  0.22104815621E+04  0.22776353531E+04  0.25500000920E-02 0. -1.
       -2    1    3    3    0  502 -0.39215397703E+03 -0.38419958826E+03 -0.30773195900E+03  0.62935921691E+03  0.25500000920E-02 0.  1.
</event>
<event>
 5   0  0.1035928E-05  0.2192949E+04  0.7818609E-02  0.8521369E-01
       -2   -1    0    0    0  501  0.00000000000E+00  0.00000000000E+00  0.62784794694E+03  0.62784794694E+03  0.25500000920E-02 0. -1.
        2   -1    0    0  501    0  0.00000000000E+00  0.00000000000E+00 -0.19148843683E+04  0.19148843683E+04  0.25500000920E-02 0.  1.
    10030    2    1    2    0    0  0.00000000000E+00  0.00000000000E+00 -0.12870364214E+04  0.25427323153E+04  0.21929488998E+04 0.  0.
        3    1    3    3  502    0 -0.60191351140E+03  0.86547131035E+03 -0.99313451780E+03  0.14483289146E+04  0.10100000352E+00 0.  1.
       -3    1    3    3    0  502  0.60191351140E+03 -0.86547131035E+03 -0.29390190359E+03  0.10944034007E+04  0.10100000352E+00 0. -1.
</event>
<event>
 5   0  0.9963573E-06  0.2199401E+04  0.7818609E-02  0.8518678E-01
        2   -1    0    0  501    0  0.00000000000E+00  0.00000000000E+00  0.24236608531E+04  0.24236608531E+04  0.25500000920E-02 0. -1.
       -2   -1    0    0    0  501  0.00000000000E+00  0.00000000000E+00 -0.49897281712E+03  0.49897281713E+03  0.25500000920E-02 0.  1.
    10030    2    1    2    0    0  0.00000000000E+00  0.00000000000E+00  0.19246880359E+04  0.29226336702E+04  0.21994007217E+04 0.  0.
        2    1    3    3  502    0 -0.33570762890E+03 -0.94716724712E+03  0.15558953938E+04  0.18521975819E+04  0.25500000920E-02 0.  1.
       -2    1    3    3    0  502  0.33570762890E+03  0.94716724712E+03  0.36879264216E+03  0.10704360883E+04  0.25500000920E-02 0. -1.
</event>
<event>
 5   0  0.1014015E-05  0.2199377E+04  0.7818609E-02  0.8518688E-01
       -2   -1    0    0    0  501  0.00000000000E+00  0.00000000000E+00  0.11380813406E+04  0.11380813406E+04  0.25500000920E-02 0.  1.
        2   -1    0    0  501    0  0.00000000000E+00  0.00000000000E+00 -0.10625906929E+04  0.10625906929E+04  0.25500000920E-02 0. -1.
    10030    2    1    2    0    0  0.00000000000E+00  0.00000000000E+00  0.75490647692E+02  0.22006720335E+04  0.21993768575E+04 0.  0.
        1    1    3    3  502    0 -0.37844143253E+03 -0.24555290046E+03  0.10412319666E+04  0.11347590727E+04  0.50400001928E-02 0.  1.
       -1    1    3    3    0  502  0.37844143253E+03  0.24555290046E+03 -0.96574131895E+03  0.10659129608E+04  0.50400001928E-02 0. -1.
</event>
<event>
 5   0  0.4309945E-06  0.2198950E+04  0.7818609E-02  0.8518865E-01
        1   -1    0    0  501    0  0.00000000000E+00  0.00000000000E+00  0.17597443611E+04  0.17597443611E+04  0.50400001928E-02 0. -1.
       -1   -1    0    0    0  501  0.00000000000E+00  0.00000000000E+00 -0.68694346031E+03  0.68694346033E+03  0.50400001928E-02 0.  1.
    10030    2    1    2    0    0  0.00000000000E+00  0.00000000000E+00  0.10728009008E+04  0.24466878215E+04  0.21989496408E+04 0.  0.
        4    1    3    3  502    0  0.70122160370E+02  0.10258299203E+04  0.10317733206E+03  0.10333882705E+04  0.12699999809E+01 0.  1.
       -4    1    3    3    0  502 -0.70122160370E+02 -0.10258299203E+04  0.96962356875E+03  0.14132995510E+04  0.12699999809E+01 0. -1.
</event>
<event>
 5   0  0.9963573E-06  0.2195516E+04  0.7818609E-02  0.8520297E-01
        2   -1    0    0  501    0  0.00000000000E+00  0.00000000000E+00  0.16520393785E+04  0.16520393785E+04  0.25500000920E-02 0. -1.
       -2   -1    0    0    0  501  0.00000000000E+00  0.00000000000E+00 -0.72944572167E+03  0.72944572167E+03  0.25500000920E-02 0.  1.
    10030    2    1    2    0    0  0.00000000000E+00  0.00000000000E+00  0.92259365684E+03  0.23814851002E+04  0.21955163918E+04 0.  0.
        2    1    3    3  502    0  0.58065796442E+02 -0.30872184312E+03 -0.67965089465E+03  0.74873636999E+03  0.25500000920E-02 0.  1.
       -2    1    3    3    0  502 -0.58065796442E+02  0.30872184312E+03  0.16022445515E+04  0.16327487302E+04  0.25500000920E-02 0. -1.
</event>
<event>
 5   0  0.4462201E-06  0.2192787E+04  0.7818609E-02  0.8521436E-01
       -1   -1    0    0    0  501  0.00000000000E+00  0.00000000000E+00  0.78126785640E+03  0.78126785642E+03  0.50400001928E-02 0. -1.
        1   -1    0    0  501    0  0.00000000000E+00  0.00000000000E+00 -0.15386260874E+04  0.15386260874E+04  0.50400001928E-02 0.  1.
    10030    2    1    2    0    0  0.00000000000E+00  0.00000000000E+00 -0.75735823102E+03  0.23198939439E+04  0.21927873633E+04 0.  0.
        3    1    3    3  502    0  0.76172680296E+03  0.60236893055E+03  0.15974443260E+03  0.98417190815E+03  0.10100000352E+00 0. -1.
       -3    1    3    3    0  502 -0.76172680296E+03 -0.60236893055E+03 -0.91710266362E+03  0.13357220357E+04  0.10100000352E+00 0.  1.
</event>
<event>
 5   0  0.4309945E-06  0.2201341E+04  0.7818609E-02  0.8517870E-01
        1   -1    0    0  501    0  0.00000000000E+00  0.00000000000E+00  0.10250012168E+04  0.10250012168E+04  0.50400001928E-02 0. -1.
       -1   -1    0    0    0  501  0.00000000000E+00  0.00000000000E+00 -0.11819256034E+04  0.11819256034E+04  0.50400001928E-02 0.  1.
    10030    2    1    2    0    0  0.00000000000E+00  0.00000000000E+00 -0.15692438667E+03  0.22069268202E+04  0.22013406658E+04 0.  0.
        4    1    3    3  502    0 -0.63437866808E+03  0.78267465163E+02 -0.97678930996E+03  0.11673393078E+04  0.12699999809E+01 0.  1.
       -4    1    3    3    0  502  0.63437866808E+03 -0.78267465163E+02  0.81986492329E+03  0.10395875124E+04  0.12699999809E+01 0. -1.
</event>
<event>
 5   0  0.4630615E-06  0.2159076E+04  0.7818609E-02  0.8535657E-01
        1   -1    0    0  501    0  0.00000000000E+00  0.00000000000E+00  0.13638545434E+04  0.13638545434E+04  0.50400001928E-02 0.  1.
       -1   -1    0    0    0  501  0.00000000000E+00  0.00000000000E+00 -0.85449158174E+03  0.85449158175E+03  0.50400001928E-02 0. -1.
    10030    2    1    2    0    0  0.00000000000E+00  0.00000000000E+00  0.50936296164E+03  0.22183461251E+04  0.21590759376E+04 0.  0.
        2    1    3    3  502    0 -0.50603794540E+03 -0.50993627396E+02 -0.72368097747E+03  0.88452750629E+03  0.25500000920E-02 0. -1.
       -2    1    3    3    0  502  0.50603794540E+03  0.50993627396E+02  0.12330439391E+04  0.13338186189E+04  0.25500000920E-02 0.  1.
</event>
<event>
 5   0  0.4794967E-06  0.2201690E+04  0.7818609E-02  0.8517725E-01
       -1   -1    0    0    0  501  0.00000000000E+00  0.00000000000E+00  0.12689140615E+04  0.12689140615E+04  0.50400001928E-02 0. -1.
        1   -1    0    0  501    0  0.00000000000E+00  0.00000000000E+00 -0.95503700731E+03  0.95503700733E+03  0.50400001928E-02 0.  1.
    10030    2    1    2    0    0  0.00000000000E+00  0.00000000000E+00  0.31387705422E+03  0.22239510689E+04  0.22016901579E+04 0.  0.
        5    1    3    3  502    0 -0.80851574758E+03  0.70075590378E+03  0.41855771352E+03  0.11488991254E+04  0.46999998093E+01 0. -1.
       -5    1    3    3    0  502  0.80851574758E+03 -0.70075590378E+03 -0.10468065929E+03  0.10750519435E+04  0.46999998093E+01 0.  1.
</event>
<event>
 5   0  0.1014015E-05  0.2197602E+04  0.7818609E-02  0.8519427E-01
        2   -1    0    0  501    0  0.00000000000E+00  0.00000000000E+00  0.13742110896E+04  0.13742110896E+04  0.25500000920E-02 0.  1.
       -2   -1    0    0    0  501  0.00000000000E+00  0.00000000000E+00 -0.87858679154E+03  0.87858679154E+03  0.25500000920E-02 0. -1.
    10030    2    1    2    0    0  0.00000000000E+00  0.00000000000E+00  0.49562429805E+03  0.22527978811E+04  0.21976020678E+04 0.  0.
        1    1    3    3  502    0 -0.39753463621E+02  0.61625160975E+03  0.11794942515E+04  0.13313726277E+04  0.50400001928E-02 0.  1.
       -1    1    3    3    0  502  0.39753463621E+02 -0.61625160975E+03 -0.68386995346E+03  0.92142525343E+03  0.50400001928E-02 0. -1.
</event>
<event>
 5   0  0.9963173E-06  0.2200285E+04  0.7818609E-02  0.8518310E-01
        2   -1    0    0  501    0  0.00000000000E+00  0.00000000000E+00  0.26048214821E+04  0.26048214821E+04  0.25500000920E-02 0. -1.
       -2   -1    0    0    0  501  0.00000000000E+00  0.00000000000E+00 -0.46464342745E+03  0.46464342745E+03  0.25500000920E-02 0.  1.
    10030    2    1    2    0    0  0.00000000000E+00  0.00000000000E+00  0.21401780547E+04  0.30694649096E+04  0.22002846919E+04 0.  0.
        4    1    3    3  502    0  0.36064897066E+03  0.78657713487E+03  0.12235033976E+03  0.87392361661E+03  0.12699999809E+01 0.  1.
       -4    1    3    3    0  502 -0.36064897066E+03 -0.78657713487E+03  0.20178277149E+04  0.21955412930E+04  0.12699999809E+01 0. -1.
</event>
<event>
 5   0  0.1035928E-05  0.2228758E+04  0.7818609E-02  0.8506553E-01
        2   -1    0    0  501    0  0.00000000000E+00  0.00000000000E+00  0.15540463732E+04  0.15540463732E+04  0.25500000920E-02 0. -1.
       -2   -1    0    0    0  501  0.00000000000E+00  0.00000000000E+00 -0.79910149386E+03  0.79910149386E+03  0.25500000920E-02 0.  1.
    10030    2    1    2    0    0  0.00000000000E+00  0.00000000000E+00  0.75494487935E+03  0.23531478671E+04  0.22287581999E+04 0.  0.
        3    1    3    3  502    0  0.46962797275E+03 -0.10033294870E+04  0.50513514613E+03  0.12175311160E+04  0.10100000352E+00 0. -1.
       -3    1    3    3    0  502 -0.46962797275E+03  0.10033294870E+04  0.24980973322E+03  0.11356167511E+04  0.10100000352E+00 0.  1.
</event>
<event>
 5   0  0.4630615E-06  0.2200648E+04  0.7818609E-02  0.8518159E-01
        1   -1    0    0  501    0  0.00000000000E+00  0.00000000000E+00  0.12157404518E+04  0.12157404518E+04  0.50400001928E-02 0. -1.
       -1   -1    0    0    0  501  0.00000000000E+00  0.00000000000E+00 -0.99586421754E+03  0.99586421755E+03  0.50400001928E-02 0.  1.
    10030    2    1    2    0    0  0.00000000000E+00  0.00000000000E+00  0.21987623425E+03  0.22116046694E+04  0.22006475536E+04 0.  0.
        2    1    3    3  502    0  0.11006815010E+03  0.77165289959E+03 -0.67055556086E+03  0.10282061833E+04  0.25500000920E-02 0. -1.
       -2    1    3    3    0  502 -0.11006815010E+03 -0.77165289959E+03  0.89043179511E+03  0.11833984861E+04  0.25500000920E-02 0.  1.
</event>
<event>
 5   0  0.4630615E-06  0.2197635E+04  0.7818609E-02  0.8519413E-01
        1   -1    0    0  501    0  0.00000000000E+00  0.00000000000E+00  0.89937274946E+03  0.89937274947E+03  0.50400001928E-02 0. -1.
       -1   -1    0    0    0  501  0.00000000000E+00  0.00000000000E+00 -0.13424910305E+04  0.13424910305E+04  0.50400001928E-02 0.  1.
    10030    2    1    2    0    0  0.00000000000E+00  0.00000000000E+00 -0.44311828108E+03  0.22418637800E+04  0.21976349554E+04 0.  0.
        2    1    3    3  502    0 -0.10857687955E+04 -0.70318284745E+02 -0.64972974383E+02  0.10899816631E+04  0.25500000920E-02 0. -1.
       -2    1    3    3    0  502  0.10857687955E+04  0.70318284745E+02 -0.37814530670E+03  0.11518821170E+04  0.25500000920E-02 0.  1.
</event>
<event>
 5   0  0.3546750E-06  0.2198692E+04  0.7818609E-02  0.8518973E-01
        3   -1    0    0  501    0  0.00000000000E+00  0.00000000000E+00  0.10531220396E+04  0.10531220444E+04  0.10100000352E+00 0. -1.
       -3   -1    0    0    0  501  0.00000000000E+00  0.00000000000E+00 -0.11475992153E+04  0.11475992197E+04  0.10100000352E+00 0.  1.
    10030    2    1    2    0    0  0.00000000000E+00  0.00000000000E+00 -0.94477175714E+02  0.22007212642E+04  0.21986923718E+04 0.  0.
        1    1    3    3  502    0 -0.10153424139E+04 -0.16710971672E+02 -0.46877155682E+03  0.11184570830E+04  0.50400001928E-02 0.  1.
       -1    1    3    3    0  502  0.10153424139E+04  0.16710971672E+02  0.37429438110E+03  0.10822641812E+04  0.50400001928E-02 0. -1.
</event>
<event>
 5   0  0.3546750E-06  0.2153725E+04  0.7818609E-02  0.8537940E-01
        3   -1    0    0  501    0  0.00000000000E+00  0.00000000000E+00  0.12893356101E+04  0.12893356141E+04  0.10100000352E+00 0. -1.
       -3   -1    0    0    0  501  0.00000000000E+00  0.00000000000E+00 -0.89940301238E+03  0.89940301805E+03  0.10100000352E+00 0.  1.
    10030    2    1    2    0    0  0.00000000000E+00  0.00000000000E+00  0.38993259774E+03  0.21887386321E+04  0.21537245341E+04 0.  0.
        2    1    3    3  502    0 -0.43096913067E+03  0.42446420238E+03  0.11003644924E+04  0.12556696488E+04  0.25500000920E-02 0. -1.
       -2    1    3    3    0  502  0.43096913067E+03 -0.42446420238E+03 -0.71043189467E+03  0.93306898334E+03  0.25500000920E-02 0.  1.
</event>
<event>
 5   0  0.4309945E-06  0.2203546E+04  0.7818609E-02  0.8516954E-01
        1   -1    0    0  501    0  0.00000000000E+00  0.00000000000E+00  0.13235980981E+04  0.13235980981E+04  0.50400001928E-02 0.  1.
       -1   -1    0    0    0  501  0.00000000000E+00  0.00000000000E+00 -0.91712411638E+03  0.91712411640E+03  0.50400001928E-02 0. -1.
    10030    2    1    2    0    0  0.00000000000E+00  0.00000000000E+00  0.40647398170E+03  0.22407222145E+04  0.22035459933E+04 0.  0.
        4    1    3    3  502    0  0.67406805453E+03  0.81711005348E+03 -0.10496981176E+03  0.10644514343E+04  0.12699999809E+01 0.  1.
       -4    1    3    3    0  502 -0.67406805453E+03 -0.81711005348E+03  0.51144379346E+03  0.11762707802E+04  0.12699999809E+01 0. -1.
</event>
<event>
 5   0  0.4408787E-06  0.2214656E+04  0.7818609E-02  0.8512352E-01
       -1   -1    0    0    0  501  0.00000000000E+00  0.00000000000E+00  0.81936572297E+03  0.81936572299E+03  0.50400001928E-02 0.  1.
        1   -1    0    0  501    0  0.00000000000E+00  0.00000000000E+00 -0.14964937273E+04  0.14964937273E+04  0.50400001928E-02 0. -1.
    10030    2    1    2    0    0  0.00000000000E+00  0.00000000000E+00 -0.67712800428E+03  0.23158594503E+04  0.22146563298E+04 0.  0.
        1    1    3    3  502    0 -0.81517132798E+03 -0.57567970821E+03 -0.84035065965E+03  0.13046457955E+04  0.50400001928E-02 0. -1.
       -1    1    3    3    0  502  0.81517132798E+03  0.57567970821E+03  0.16322265536E+03  0.10112136548E+04  0.50400001928E-02 0.  1.
</event>
<event>
 5   0  0.9963173E-06  0.2196332E+04  0.7818609E-02  0.8519956E-01
       -2   -1    0    0    0  501  0.00000000000E+00  0.00000000000E+00  0.95712500609E+03  0.95712500610E+03  0.25500000920E-02 0.  1.
        2   -1    0    0  501    0  0.00000000000E+00  0.00000000000E+00 -0.12599908442E+04  0.12599908442E+04  0.25500000920E-02 0. -1.
    10030    2    1    2    0    0  0.00000000000E+00  0.00000000000E+00 -0.30286583807E+03  0.22171158503E+04  0.21963321647E+04 0.  0.
        4    1    3    3  502    0  0.66751968600E+02 -0.35366689801E+03 -0.11987627402E+04  0.12516268694E+04  0.12699999809E+01 0. -1.
       -4    1    3    3    0  502 -0.66751968600E+02  0.35366689801E+03  0.89589690211E+03  0.96548898086E+03  0.12699999809E+01 0.  1.
</event>
<event>
 5   0  0.1015876E-05  0.2201941E+04  0.7818609E-02  0.8517621E-01
        2   -1    0    0  501    0  0.00000000000E+00  0.00000000000E+00  0.20354874313E+04  0.20354874313E+04  0.25500000920E-02 0. -1.
       -2   -1    0    0    0  501  0.00000000000E+00  0.00000000000E+00 -0.59550166073E+03  0.59550166074E+03  0.25500000920E-02 0.  1.
    10030    2    1    2    0    0  0.00000000000E+00  0.00000000000E+00  0.14399857706E+04  0.26309890921E+04  0.22019410944E+04 0.  0.
        5    1    3    3  502    0 -0.26665993822E+02 -0.39141218888E+03  0.19491209146E+04  0.19882175450E+04  0.46999998093E+01 0. -1.
       -5    1    3    3    0  502  0.26665993822E+02  0.39141218888E+03 -0.50913514397E+03  0.64277154702E+03  0.46999998093E+01 0.  1.
</event>
<event>
 5   0  0.4794967E-06  0.2218298E+04  0.7818609E-02  0.8510850E-01
        1   -1    0    0  501    0  0.00000000000E+00  0.00000000000E+00  0.55461541937E+03  0.55461541939E+03  0.50400001928E-02 0.  1.
       -1   -1    0    0    0  501  0.00000000000E+00  0.00000000000E+00 -0.22181344475E+04  0.22181344475E+04  0.50400001928E-02 0. -1.
    10030    2    1    2    0    0  0.00000000000E+00  0.00000000000E+00 -0.16635190281E+04  0.27727498669E+04  0.22182980565E+04 0.  0.
        5    1    3    3  502    0 -0.10919541696E+04  0.19155043036E+03 -0.87385131595E+03  0.14116280276E+04  0.46999998093E+01 0.  1.
       -5    1    3    3    0  502  0.10919541696E+04 -0.19155043036E+03 -0.78966771217E+03  0.13611218393E+04  0.46999998093E+01 0. -1.
</event>
<event>
 5   0  0.1014015E-05  0.2200998E+04  0.7818609E-02  0.8518013E-01
        2   -1    0    0  501    0  0.00000000000E+00  0.00000000000E+00  0.10269134326E+04  0.10269134326E+04  0.25500000920E-02 0. -1.
       -2   -1    0    0    0  501  0.00000000000E+00  0.00000000000E+00 -0.11793576401E+04  0.11793576401E+04  0.25500000920E-02 0.  1.
    10030    2    1    2    0    0  0.00000000000E+00  0.00000000000E+00 -0.15244420747E+03  0.22062710728E+04  0.22009981395E+04 0.  0.
        1    1    3    3  502    0  0.11957192115E+03 -0.67226842091E+03 -0.94134007689E+03  0.11629116108E+04  0.50400001928E-02 0.  1.
       -1    1    3    3    0  502 -0.11957192115E+03  0.67226842091E+03  0.78889586943E+03  0.10433594620E+04  0.50400001928E-02 0. -1.
</event>
<event>
 5   0  0.9963573E-06  0.2198479E+04  0.7818609E-02  0.8519061E-01
        2   -1    0    0  501    0  0.00000000000E+00  0.00000000000E+00  0.17395771892E+04  0.17395771892E+04  0.25500000920E-02 0. -1.
       -2   -1    0    0    0  501  0.00000000000E+00  0.00000000000E+00 -0.69460983884E+03  0.69460983885E+03  0.25500000920E-02 0.  1.
    10030    2    1    2    0    0  0.00000000000E+00  0.00000000000E+00  0.10449673503E+04  0.24341870280E+04  0.21984789569E+04 0.  0.
        2    1    3    3  502    0 -0.34801662026E+03  0.10366705009E+04  0.39856402336E+03  0.11638962910E+04  0.25500000920E-02 0.  1.
       -2    1    3    3    0  502  0.34801662026E+03 -0.10366705009E+04  0.64640332695E+03  0.12702907370E+04  0.25500000920E-02 0. -1.
</event>
<event>
 5   0  0.9963573E-06  0.2199380E+04  0.7818609E-02  0.8518686E-01
        2   -1    0    0  501    0  0.00000000000E+00  0.00000000000E+00  0.17148784289E+04  0.17148784289E+04  0.25500000920E-02 0.  1.
       -2   -1    0    0    0  501  0.00000000000E+00  0.00000000000E+00 -0.70519165360E+03  0.70519165360E+03  0.25500000920E-02 0. -1.
    10030    2    1    2    0    0  0.00000000000E+00  0.00000000000E+00  0.10096867753E+04  0.24200700825E+04  0.21993798717E+04 0.  0.
        2    1    3    3  502    0 -0.19317482544E+03 -0.10804547822E+04  0.57962541413E+03  0.12412351390E+04  0.25500000920E-02 0.  1.
       -2    1    3    3    0  502  0.19317482544E+03  0.10804547822E+04  0.43006136118E+03  0.11788349435E+04  0.25500000920E-02 0. -1.
</event>
<event>
 5   0  0.4309945E-06  0.2202610E+04  0.7818609E-02  0.8517343E-01
        1   -1    0    0  501    0  0.00000000000E+00  0.00000000000E+00  0.94659725542E+03  0.94659725543E+03  0.50400001928E-02 0.  1.
       -1   -1    0    0    0  501  0.00000000000E+00  0.00000000000E+00 -0.12812973720E+04  0.12812973720E+04  0.50400001928E-02 0. -1.
    10030    2    1    2    0    0  0.00000000000E+00  0.00000000000E+00 -0.33470011656E+03  0.22278946274E+04  0.22026098844E+04 0.  0.
        4    1    3    3  502    0 -0.58013430500E+03 -0.74852672195E+01 -0.11141829544E+04  0.12561915100E+04  0.12699999809E+01 0. -1.
       -4    1    3    3    0  502  0.58013430500E+03  0.74852672195E+01  0.77948283781E+03  0.97170311742E+03  0.12699999809E+01 0.  1.
</event>
<event>
 5   0  0.4408787E-06  0.2197633E+04  0.7818609E-02  0.8519414E-01
       -1   -1    0    0    0  501  0.00000000000E+00  0.00000000000E+00  0.94442846048E+03  0.94442846050E+03  0.50400001928E-02 0. -1.
        1   -1    0    0  501    0  0.00000000000E+00  0.00000000000E+00 -0.12784426742E+04  0.12784426743E+04  0.50400001928E-02 0.  1.
    10030    2    1    2    0    0  0.00000000000E+00  0.00000000000E+00 -0.33401421376E+03  0.22228711348E+04  0.21976329509E+04 0.  0.
        1    1    3    3  502    0 -0.25345025265E+03  0.76395837555E+03  0.58959949136E+03  0.99774595483E+03  0.50400001928E-02 0. -1.
       -1    1    3    3    0  502  0.25345025265E+03 -0.76395837555E+03 -0.92361370513E+03  0.12251251799E+04  0.50400001928E-02 0.  1.
</event>
<event>
 5   0  0.1015876E-05  0.2201333E+04  0.7818609E-02  0.8517873E-01
       -2   -1    0    0    0  501  0.00000000000E+00  0.00000000000E+00  0.85506143376E+03  0.85506143376E+03  0.25500000920E-02 0.  1.
        2   -1    0    0  501    0  0.00000000000E+00  0.00000000000E+00 -0.14168185956E+04  0.14168185956E+04  0.25500000920E-02 0. -1.
    10030    2    1    2    0    0  0.00000000000E+00  0.00000000000E+00 -0.56175716186E+03  0.22718800294E+04  0.22013331776E+04 0.  0.
        5    1    3    3  502    0  0.32399493628E+02 -0.10984174340E+04 -0.34511690239E+03  0.11518239244E+04  0.46999998093E+01 0.  1.
       -5    1    3    3    0  502 -0.32399493628E+02  0.10984174340E+04 -0.21664025946E+03  0.11200561050E+04  0.46999998093E+01 0. -1.
</event>
<event>
 5   0  0.4794967E-06  0.2172529E+04  0.7818609E-02  0.8529950E-01
       -1   -1    0    0    0  501  0.00000000000E+00  0.00000000000E+00  0.68025839003E+03  0.68025839004E+03  0.50400001928E-02 0.  1.
        1   -1    0    0  501    0  0.00000000000E+00  0.00000000000E+00 -0.17345911623E+04  0.17345911623E+04  0.50400001928E-02 0. -1.
    10030    2    1    2    0    0  0.00000000000E+00  0.00000000000E+00 -0.10543327723E+04  0.24148495524E+04  0.21725286571E+04 0.  0.
        5    1    3    3  502    0  0.10724275317E+04  0.11756645190E+03 -0.38645498816E+03  0.11459896287E+04  0.46999998093E+01 0. -1.
       -5    1    3    3    0  502 -0.10724275317E+04 -0.11756645190E+03 -0.66787778415E+03  0.12688599237E+04  0.46999998093E+01 0.  1.
</event>
<event>
 5   0  0.9963573E-06  0.2197238E+04  0.7818609E-02  0.8519579E-01
        2   -1    0    0  501    0  0.00000000000E+00  0.00000000000E+00  0.16050480798E+04  0.16050480798E+04  0.25500000920E-02 0. -1.
       -2   -1    0    0    0  501  0.00000000000E+00  0.00000000000E+00 -0.75197981340E+03  0.75197981341E+03  0.25500000920E-02 0.  1.
    10030    2    1    2    0    0  0.00000000000E+00  0.00000000000E+00  0.85306826641E+03  0.23570278932E+04  0.21972380441E+04 0.  0.
        2    1    3    3  502    0 -0.54503981066E+03  0.21604021898E+03 -0.57013006536E+03  0.81779585646E+03  0.25500000920E-02 0.  1.
       -2    1    3    3    0  502  0.54503981066E+03 -0.21604021898E+03  0.14231983318E+04  0.15392320368E+04  0.25500000920E-02 0. -1.
</event>
<event>
 5   0  0.9963173E-06  0.2199901E+04  0.7818609E-02  0.8518469E-01
        2   -1    0    0  501    0  0.00000000000E+00  0.00000000000E+00  0.28664560463E+04  0.28664560463E+04  0.25500000920E-02 0. -1.
       -2   -1    0    0    0  501  0.00000000000E+00  0.00000000000E+00 -0.42208612846E+03  0.42208612846E+03  0.25500000920E-02 0.  1.
    10030    2    1    2    0    0  0.00000000000E+00  0.00000000000E+00  0.24443699178E+04  0.32885421748E+04  0.21999012114E+04 0.  0.
        4    1    3    3  502    0 -0.88698840766E+01  0.16459881147E+03 -0.40351685929E+03  0.43588864658E+03  0.12699999809E+01 0.  1.
       -4    1    3    3    0  502  0.88698840766E+01 -0.16459881147E+03  0.28478867771E+04  0.28526535282E+04  0.12699999809E+01 0. -1.
</event>
<event>
 5   0  0.4309945E-06  0.2198684E+04  0.7818609E-02  0.8518976E-01
       -1   -1    0    0    0  501  0.00000000000E+00  0.00000000000E+00  0.12317740533E+04  0.12317740533E+04  0.50400001928E-02 0.  1.
        1   -1    0    0  501    0  0.00000000000E+00  0.00000000000E+00 -0.98114857348E+03  0.98114857349E+03  0.50400001928E-02 0. -1.
    10030    2    1    2    0    0  0.00000000000E+00  0.00000000000E+00  0.25062547979E+03  0.22129226268E+04  0.21986844751E+04 0.  0.
        4    1    3    3  502    0 -0.90331656438E+03  0.61047456270E+03 -0.16638651415E+02  0.10903845491E+04  0.12699999809E+01 0. -1.
       -4    1    3    3    0  502  0.90331656438E+03 -0.61047456270E+03  0.26726413121E+03  0.11225380777E+04  0.12699999809E+01 0.  1.
</event>
<event>
 5   0  0.1015876E-05  0.2198726E+04  0.7818609E-02  0.8518959E-01
       -2   -1    0    0    0  501  0.00000000000E+00  0.00000000000E+00  0.71965398869E+03  0.71965398870E+03  0.25500000920E-02 0. -1.
        2   -1    0    0  501    0  0.00000000000E+00  0.00000000000E+00 -0.16794163528E+04  0.16794163529E+04  0.25500000920E-02 0.  1.
    10030    2    1    2    0    0  0.00000000000E+00  0.00000000000E+00 -0.95976236416E+03  0.23990703415E+04  0.21987257010E+04 0.  0.
        5    1    3    3  502    0  0.66677329964E+03 -0.49733056330E+03  0.30439874107E+03  0.88577932120E+03  0.46999998093E+01 0. -1.
       -5    1    3    3    0  502 -0.66677329964E+03  0.49733056330E+03 -0.12641611052E+04  0.15132910203E+04  0.46999998093E+01 0.  1.
</event>
<event>
 5   0  0.1035928E-05  0.2199469E+04  0.7818609E-02  0.8518649E-01
        2   -1    0    0  501    0  0.00000000000E+00  0.00000000000E+00  0.15597423272E+04  0.15597423272E+04  0.25500000920E-02 0. -1.
       -2   -1    0    0    0  501  0.00000000000E+00  0.00000000000E+00 -0.77539461853E+03  0.77539461854E+03  0.25500000920E-02 0.  1.
    10030    2    1    2    0    0  0.00000000000E+00  0.00000000000E+00  0.78434770866E+03  0.23351369457E+04  0.21994688512E+04 0.  0.
        3    1    3    3  502    0  0.32035434439E+03 -0.60306957417E+03  0.13073759270E+04  0.14749751327E+04  0.10100000352E+00 0. -1.
       -3    1    3    3    0  502 -0.32035434439E+03  0.60306957417E+03 -0.52302821836E+03  0.86016181306E+03  0.10100000352E+00 0.  1.
</event>
<event>
 5   0  0.9963173E-06  0.2139992E+04  0.7818609E-02  0.8543829E-01
       -2   -1    0    0    0  501  0.00000000000E+00  0.00000000000E+00  0.96133730941E+03  0.96133730941E+03  0.25500000920E-02 0. -1.
        2   -1    0    0  501    0  0.00000000000E+00  0.00000000000E+00 -0.11909357595E+04  0.11909357595E+04  0.25500000920E-02 0.  1.
    10030    2    1    2    0    0  0.00000000000E+00  0.00000000000E+00 -0.22959845006E+03  0.21522730689E+04  0.21399915688E+04 0.  0.
        4    1    3    3  502    0  0.15899256023E+03  0.78613751155E+03  0.59750159275E+03  0.10001502825E+04  0.12699999809E+01 0. -1.
       -4    1    3    3    0  502 -0.15899256023E+03 -0.78613751155E+03 -0.82710004281E+03  0.11521227864E+04  0.12699999809E+01 0.  1.
</event>
<event>
 5   0  0.4630615E-06  0.2221230E+04  0.7818609E-02  0.8509643E-01
       -1   -1    0    0    0  501  0.00000000000E+00  0.00000000000E+00  0.12852187582E+04  0.12852187582E+04  0.50400001928E-02 0.  1.
        1   -1    0    0  501    0  0.00000000000E+00  0.00000000000E+00 -0.95973189454E+03  0.95973189455E+03  0.50400001928E-02 0. -1.
    10030    2    1    2    0    0  0.00000000000E+00  0.00000000000E+00  0.32548686365E+03  0.22449506527E+04  0.22212297798E+04 0.  0.
        2    1    3    3  502    0 -0.36229863661E+03 -0.93429798614E+03  0.64670195873E+03  0.11926426340E+04  0.25500000920E-02 0.  1.
       -2    1    3    3    0  502  0.36229863661E+03  0.93429798614E+03 -0.32121509508E+03  0.10523080187E+04  0.25500000920E-02 0. -1.
</event>
<event>
 5   0  0.1015876E-05  0.2198059E+04  0.7818609E-02  0.8519236E-01
       -2   -1    0    0    0  501  0.00000000000E+00  0.00000000000E+00  0.62606898187E+03  0.62606898188E+03  0.25500000920E-02 0. -1.
        2   -1    0    0  501    0  0.00000000000E+00  0.00000000000E+00 -0.19292861213E+04  0.19292861213E+04  0.25500000920E-02 0.  1.
    10030    2    1    2    0    0  0.00000000000E+00  0.00000000000E+00 -0.13032171394E+04  0.25553551031E+04  0.21980593237E+04 0.  0.
        5    1    3    3  502    0  0.88818994769E+03 -0.12951952287E+03 -0.13888777683E+04  0.16536808142E+04  0.46999998093E+01 0.  1.
       -5    1    3    3    0  502 -0.88818994769E+03  0.12951952287E+03  0.85660628916E+02  0.90167428893E+03  0.46999998093E+01 0. -1.
</event>
<event>
 5   0  0.4462201E-06  0.2203158E+04  0.7818609E-02  0.8517115E-01
       -1   -1    0    0    0  501  0.00000000000E+00  0.00000000000E+00  0.81317682147E+03  0.81317682148E+03  0.50400001928E-02 0.  1.
        1   -1    0    0  501    0  0.00000000000E+00  0.00000000000E+00 -0.14922661051E+04  0.14922661051E+04  0.50400001928E-02 0. -1.
    10030    2    1    2    0    0  0.00000000000E+00  0.00000000000E+00 -0.67908928363E+03  0.23054429266E+04  0.22031579228E+04 0.  0.
        3    1    3    3  502    0 -0.41871621236E+03 -0.10171727801E+04 -0.27752705431E+03  0.11344536161E+04  0.10100000352E+00 0.  1.
       -3    1    3    3    0  502  0.41871621236E+03  0.10171727801E+04 -0.40156222931E+03  0.11709893105E+04  0.10100000352E+00 0. -1.
</event>
<event>
 5   0  0.9963173E-06  0.2201716E+04  0.7818609E-02  0.8517714E-01
        2   -1    0    0  501    0  0.00000000000E+00  0.00000000000E+00  0.29059053978E+04  0.29059053978E+04  0.25500000920E-02 0. -1.
       -2   -1    0    0    0  501  0.00000000000E+00  0.00000000000E+00 -0.41704319862E+03  0.41704319863E+03  0.25500000920E-02 0.  1.
    10030    2    1    2    0    0  0.00000000000E+00  0.00000000000E+00  0.24888621992E+04  0.33229485964E+04  0.22017157691E+04 0.  0.
        4    1    3    3  502    0  0.36076203634E+03  0.31869067644E+03 -0.24978648481E+03  0.54231715352E+03  0.12699999809E+01 0.  1.
       -4    1    3    3    0  502 -0.36076203634E+03 -0.31869067644E+03  0.27386486840E+04  0.27806314429E+04  0.12699999809E+01 0. -1.
</event>
<event>
 5   0  0.4408787E-06  0.2193455E+04  0.7818609E-02  0.8521157E-01
        1   -1    0    0  501    0  0.00000000000E+00  0.00000000000E+00  0.81324171206E+03  0.81324171208E+03  0.50400001928E-02 0. -1.
       -1   -1    0    0    0  501  0.00000000000E+00  0.00000000000E+00 -0.14790331009E+04  0.14790331009E+04  0.50400001928E-02 0.  1.
    10030    2    1    2    0    0  0.00000000000E+00  0.00000000000E+00 -0.66579138881E+03  0.22922748130E+04  0.21934551841E+04 0.  0.
        1    1    3    3  502    0  0.87664855883E+03 -0.63626083030E+03 -0.51230063750E+03  0.11982455855E+04  0.50400001928E-02 0.  1.
       -1    1    3    3    0  502 -0.87664855883E+03  0.63626083030E+03 -0.15349075131E+03  0.10940292275E+04  0.50400001928E-02 0. -1.
</event>
<event>
 5   0  0.1015876E-05  0.2199099E+04  0.7818609E-02  0.8518803E-01
        2   -1    0    0  501    0  0.00000000000E+00  0.00000000000E+00  0.18413666111E+04  0.18413666111E+04  0.25500000920E-02 0. -1.
       -2   -1    0    0    0  501  0.00000000000E+00  0.00000000000E+00 -0.65658249902E+03  0.65658249903E+03  0.25500000920E-02 0.  1.
    10030    2    1    2    0    0  0.00000000000E+00  0.00000000000E+00  0.11847841121E+04  0.24979491102E+04  0.21990989893E+04 0.  0.
        5    1    3    3  502    0 -0.20578939447E+03 -0.97917329784E+02 -0.62944940004E+03  0.66945180227E+03  0.46999998093E+01 0.  1.
       -5    1    3    3    0  502  0.20578939447E+03  0.97917329784E+02  0.18142335122E+04  0.18284973079E+04  0.46999998093E+01 0. -1.
</event>
<event>
 5   0  0.4794967E-06  0.2198664E+04  0.7818609E-02  0.8518984E-01
        1   -1    0    0  501    0  0.00000000000E+00  0.00000000000E+00  0.18633866386E+04  0.18633866386E+04  0.50400001928E-02 0.  1.
       -1   -1    0    0    0  501  0.00000000000E+00  0.00000000000E+00 -0.64856679163E+03  0.64856679165E+03  0.50400001928E-02 0. -1.
    10030    2    1    2    0    0  0.00000000000E+00  0.00000000000E+00  0.12148198469E+04  0.25119534302E+04  0.21986638613E+04 0.  0.
        5    1    3    3  502    0  0.83802078647E+03 -0.33881510836E+03  0.13222058469E+04  0.16016631692E+04  0.46999998093E+01 0.  1.
       -5    1    3    3    0  502 -0.83802078647E+03  0.33881510836E+03 -0.10738599994E+03  0.91029026096E+03  0.46999998093E+01 0. -1.
</event>
<event>
 5   0  0.4794967E-06  0.2201592E+04  0.7818609E-02  0.8517766E-01
       -1   -1    0    0    0  501  0.00000000000E+00  0.00000000000E+00  0.54849500232E+03  0.54849500234E+03  0.50400001928E-02 0. -1.
        1   -1    0    0  501    0  0.00000000000E+00  0.00000000000E+00 -0.22092308579E+04  0.22092308579E+04  0.50400001928E-02 0.  1.
    10030    2    1    2    0    0  0.00000000000E+00  0.00000000000E+00 -0.16607358556E+04  0.27577258603E+04  0.22015922280E+04 0.  0.
        5    1    3    3  502    0  0.83494946406E+03  0.57560019020E+03 -0.13666143531E+04  0.17017970110E+04  0.46999998093E+01 0.  1.
       -5    1    3    3    0  502 -0.83494946406E+03 -0.57560019020E+03 -0.29412150248E+03  0.10559288493E+04  0.46999998093E+01 0. -1.
</event>
<event>
 5   0  0.1015876E-05  0.2205237E+04  0.7818609E-02  0.8516252E-01
       -2   -1    0    0    0  501  0.00000000000E+00  0.00000000000E+00  0.12641286441E+04  0.12641286442E+04  0.25500000920E-02 0. -1.
        2   -1    0    0  501    0  0.00000000000E+00  0.00000000000E+00 -0.96174331995E+03  0.96174331995E+03  0.25500000920E-02 0.  1.
    10030    2    1    2    0    0  0.00000000000E+00  0.00000000000E+00  0.30238532420E+03  0.22258719641E+04  0.22052367484E+04 0.  0.
        5    1    3    3  502    0  0.11055303536E+03 -0.17058984184E+03  0.12450409889E+04  0.12615355809E+04  0.46999998093E+01 0. -1.
       -5    1    3    3    0  502 -0.11055303536E+03  0.17058984184E+03 -0.94265566472E+03  0.96433638322E+03  0.46999998093E+01 0.  1.
</event>
<event>
 5   0  0.4309945E-06  0.2207015E+04  0.7818609E-02  0.8515514E-01
       -1   -1    0    0    0  501  0.00000000000E+00  0.00000000000E+00  0.69589660253E+03  0.69589660255E+03  0.50400001928E-02 0.  1.
        1   -1    0    0  501    0  0.00000000000E+00  0.00000000000E+00 -0.17498700889E+04  0.17498700889E+04  0.50400001928E-02 0. -1.
    10030    2    1    2    0    0  0.00000000000E+00  0.00000000000E+00 -0.10539734864E+04  0.24457666915E+04  0.22070148615E+04 0.  0.
        4    1    3    3  502    0 -0.88549821650E+03  0.19270021183E+03 -0.12247755701E+04  0.15235869759E+04  0.12699999809E+01 0. -1.
       -4    1    3    3    0  502  0.88549821650E+03 -0.19270021183E+03  0.17080208376E+03  0.92217971555E+03  0.12699999809E+01 0.  1.
</event>
<event>
 5   0  0.4309945E-06  0.2203314E+04  0.7818609E-02  0.8517050E-01
        1   -1    0    0  501    0  0.00000000000E+00  0.00000000000E+00  0.10753104305E+04  0.10753104305E+04  0.50400001928E-02 0.  1.
       -1   -1    0    0    0  501  0.00000000000E+00  0.00000000000E+00 -0.11286489751E+04  0.11286489751E+04  0.50400001928E-02 0. -1.
    10030    2    1    2    0    0  0.00000000000E+00  0.00000000000E+00 -0.53338544621E+02  0.22039594056E+04  0.22033138817E+04 0.  0.
        4    1    3    3  502    0 -0.10120548202E+04  0.42188605377E+03  0.80149657976E+02  0.10993945525E+04  0.12699999809E+01 0. -1.
       -4    1    3    3    0  502  0.10120548202E+04 -0.42188605377E+03 -0.13348820260E+03  0.11045648531E+04  0.12699999809E+01 0.  1.
</event>
<event>
 5   0  0.4794967E-06  0.2199100E+04  0.7818609E-02  0.8518803E-01
       -1   -1    0    0    0  501  0.00000000000E+00  0.00000000000E+00  0.93357826986E+03  0.93357826987E+03  0.50400001928E-02 0.  1.
        1   -1    0    0  501    0  0.00000000000E+00  0.00000000000E+00 -0.12950287074E+04  0.12950287074E+04  0.50400001928E-02 0. -1.
    10030    2    1    2    0    0  0.00000000000E+00  0.00000000000E+00 -0.36145043753E+03  0.22286069773E+04  0.21991004162E+04 0.  0.
        5    1    3    3  502    0  0.10002360971E+04 -0.42997694352E+03 -0.33652856362E+03  0.11395727208E+04  0.46999998093E+01 0.  1.
       -5    1    3    3    0  502 -0.10002360971E+04  0.42997694352E+03 -0.24921873914E+02  0.10890342564E+04  0.46999998093E+01 0. -1.
</event>
<event>
 5   0  0.4309945E-06  0.2207924E+04  0.7818609E-02  0.8515137E-01
        1   -1    0    0  501    0  0.00000000000E+00  0.00000000000E+00  0.14669928948E+04  0.14669928948E+04  0.50400001928E-02 0.  1.
       -1   -1    0    0    0  501  0.00000000000E+00  0.00000000000E+00 -0.83076859567E+03  0.83076859569E+03  0.50400001928E-02 0. -1.
    10030    2    1    2    0    0  0.00000000000E+00  0.00000000000E+00  0.63622429912E+03  0.22977614905E+04  0.22079235739E+04 0.  0.
        4    1    3    3  502    0  0.16177312204E+03 -0.69132531419E+03  0.11978659704E+04  0.13924746780E+04  0.12699999809E+01 0.  1.
       -4    1    3    3    0  502 -0.16177312204E+03  0.69132531419E+03 -0.56164167125E+03  0.90528681247E+03  0.12699999809E+01 0. -1.
</event>
<event>
 5   0  0.4309945E-06  0.2192640E+04  0.7818609E-02  0.8521498E-01
        1   -1    0    0  501    0  0.00000000000E+00  0.00000000000E+00  0.13941190702E+04  0.13941190702E+04  0.50400001928E-02 0. -1.
       -1   -1    0    0    0  501  0.00000000000E+00  0.00000000000E+00 -0.86213388006E+03  0.86213388008E+03  0.50400001928E-02 0.  1.
    10030    2    1    2    0    0  0.00000000000E+00  0.00000000000E+00  0.53198519012E+03  0.22562529503E+04  0.21926397636E+04 0.  0.
        4    1    3    3  502    0  0.10682912192E+03  0.10460153275E+04  0.58540954104E+03  0.12034394336E+04  0.12699999809E+01 0.  1.
       -4    1    3    3    0  502 -0.10682912192E+03 -0.10460153275E+04 -0.53424350922E+02  0.10528135167E+04  0.12699999809E+01 0. -1.
</event>
<event>
 5   0  0.4309945E-06  0.2200368E+04  0.7818609E-02  0.8518275E-01
       -1   -1    0    0    0  501  0.00000000000E+00  0.00000000000E+00  0.11995558635E+04  0.11995558636E+04  0.50400001928E-02 0.  1.
        1   -1    0    0  501    0  0.00000000000E+00  0.00000000000E+00 -0.10090443380E+04  0.10090443380E+04  0.50400001928E-02 0. -1.
    10030    2    1    2    0    0  0.00000000000E+00  0.00000000000E+00  0.19051152558E+03  0.22086002015E+04  0.22003681985E+04 0.  0.
        4    1    3    3  502    0 -0.88507115974E+03 -0.38330313663E+03 -0.43599856212E+03  0.10584746626E+04  0.12699999809E+01 0. -1.
       -4    1    3    3    0  502  0.88507115974E+03  0.38330313663E+03  0.62651008770E+03  0.11501255389E+04  0.12699999809E+01 0.  1.
</event>
<event>
 5   0  0.4408787E-06  0.2178860E+04  0.7818609E-02  0.8527279E-01
       -1   -1    0    0    0  501  0.00000000000E+00  0.00000000000E+00  0.11455491381E+04  0.11455491381E+04  0.50400001928E-02 0. -1.
        1   -1    0    0  501    0  0.00000000000E+00  0.00000000000E+00 -0.10360604366E+04  0.10360604366E+04  0.50400001928E-02 0.  1.
    10030    2    1    2    0    0  0.00000000000E+00  0.00000000000E+00  0.10948870157E+03  0.21816095747E+04  0.21788603812E+04 0.  0.
        1    1    3    3  502    0  0.18073431797E+03 -0.83183620246E+03  0.73548585000E+03  0.11249692427E+04  0.50400001928E-02 0. -1.
       -1    1    3    3    0  502 -0.18073431797E+03  0.83183620246E+03 -0.62599714843E+03  0.10566403320E+04  0.50400001928E-02 0.  1.
</event>
<event>
 5   0  0.9963573E-06  0.2196602E+04  0.7818609E-02  0.8519844E-01
       -2   -1    0    0    0  501  0.00000000000E+00  0.00000000000E+00  0.48444595994E+03  0.48444595995E+03  0.25500000920E-02 0.  1.
        2   -1    0    0  501    0  0.00000000000E+00  0.00000000000E+00 -0.24899885593E+04  0.24899885593E+04  0.25500000920E-02 0. -1.
    10030    2    1    2    0    0  0.00000000000E+00  0.00000000000E+00 -0.20055425993E+04  0.29744345192E+04  0.21966018282E+04 0.  0.
        2    1    3    3  502    0 -0.86134278549E+03 -0.12250458018E+03 -0.95068707951E+02  0.87518959404E+03  0.25500000920E-02 0.  1.
       -2    1    3    3    0  502  0.86134278549E+03  0.12250458018E+03 -0.19104738914E+04  0.20992449252E+04  0.25500000920E-02 0. -1.
</event>
<event>
 5   0  0.4408787E-06  0.2199485E+04  0.7818609E-02  0.8518642E-01
        1   -1    0    0  501    0  0.00000000000E+00  0.00000000000E+00  0.10878472774E+04  0.10878472774E+04  0.50400001928E-02 0.  1.
       -1   -1    0    0    0  501  0.00000000000E+00  0.00000000000E+00 -0.11117680996E+04  0.11117680996E+04  0.50400001928E-02 0. -1.
    10030    2    1    2    0    0  0.00000000000E+00  0.00000000000E+00 -0.23920822195E+02  0.21996153771E+04  0.21994853037E+04 0.  0.
        1    1    3    3  502    0 -0.59896920723E+03  0.12130970286E+03 -0.92631954264E+03  0.11097513462E+04  0.50400001928E-02 0. -1.
       -1    1    3    3    0  502  0.59896920723E+03 -0.12130970286E+03  0.90239872044E+03  0.10898640309E+04  0.50400001928E-02 0.  1.
</event>
<event>
 5   0  0.4309945E-06  0.2201498E+04  0.7818609E-02  0.8517805E-01
        1   -1    0    0  501    0  0.00000000000E+00  0.00000000000E+00  0.16888280185E+04  0.16888280185E+04  0.50400001928E-02 0.  1.
       -1   -1    0    0    0  501  0.00000000000E+00  0.00000000000E+00 -0.71744942967E+03  0.71744942969E+03  0.50400001928E-02 0. -1.
    10030    2    1    2    0    0  0.00000000000E+00  0.00000000000E+00  0.97137858880E+03  0.24062774482E+04  0.22014983068E+04 0.  0.
        4    1    3    3  502    0 -0.84176047681E+02 -0.25030917560E+03 -0.68231025108E+03  0.73163459597E+03  0.12699999809E+01 0. -1.
       -4    1    3    3    0  502  0.84176047681E+02  0.25030917560E+03  0.16536888399E+04  0.16746428522E+04  0.12699999809E+01 0.  1.
</event>
<event>
 5   0  0.1015876E-05  0.2206902E+04  0.7818609E-02  0.8515561E-01
        2   -1    0    0  501    0  0.00000000000E+00  0.00000000000E+00  0.10290682462E+04  0.10290682462E+04  0.25500000920E-02 0.  1.
       -2   -1    0    0    0  501  0.00000000000E+00  0.00000000000E+00 -0.11832101338E+04  0.11832101338E+04  0.25500000920E-02 0. -1.
    10030    2    1    2    0    0  0.00000000000E+00  0.00000000000E+00 -0.15414188764E+03  0.22122783800E+04  0.22069018803E+04 0.  0.
        5    1    3    3  502    0 -0.57782415337E+03 -0.58893630591E+03  0.65741809229E+03  0.10549632044E+04  0.46999998093E+01 0.  1.
       -5    1    3    3    0  502  0.57782415337E+03  0.58893630591E+03 -0.81155997993E+03  0.11573151756E+04  0.46999998093E+01 0. -1.
</event>
<event>
 5   0  0.3546750E-06  0.2201407E+04  0.7818609E-02  0.8517843E-01
       -4   -1    0    0    0  501  0.00000000000E+00  0.00000000000E+00  0.16620717195E+04  0.16620722047E+04  0.12699999809E+01 0.  1.
        4   -1    0    0  501    0  0.00000000000E+00  0.00000000000E+00 -0.72893754130E+03  0.72893864764E+03  0.12699999809E+01 0. -1.
    10030    2    1    2    0    0  0.00000000000E+00  0.00000000000E+00  0.93313417820E+03  0.23910108523E+04  0.22014071640E+04 0.  0.
        4    1    3    3  502    0 -0.63876207047E+03  0.88147020525E+02  0.14354519997E+04  0.15736298600E+04  0.12699999809E+01 0.  1.
       -4    1    3    3    0  502  0.63876207047E+03 -0.88147020525E+02 -0.50231782153E+03  0.81738099233E+03  0.12699999809E+01 0. -1.
</event>
<event>
 5   0  0.4462201E-06  0.2197462E+04  0.7818609E-02  0.8519485E-01
       -1   -1    0    0    0  501  0.00000000000E+00  0.00000000000E+00  0.88330992231E+03  0.88330992233E+03  0.50400001928E-02 0. -1.
        1   -1    0    0  501    0  0.00000000000E+00  0.00000000000E+00 -0.13666889481E+04  0.13666889481E+04  0.50400001928E-02 0.  1.
    10030    2    1    2    0    0  0.00000000000E+00  0.00000000000E+00 -0.48337902577E+03  0.22499988704E+04  0.21974620894E+04 0.  0.
        3    1    3    3  502    0 -0.89723023918E+03 -0.31868552003E+03 -0.80309304749E+03  0.12456086929E+04  0.10100000352E+00 0.  1.
       -3    1    3    3    0  502  0.89723023918E+03  0.31868552003E+03  0.31971402171E+03  0.10043901775E+04  0.10100000352E+00 0. -1.
</event>
<event>
 5   0  0.4309945E-06  0.2200787E+04  0.7818609E-02  0.8518101E-01
        1   -1    0    0  501    0  0.00000000000E+00  0.00000000000E+00  0.28920556328E+04  0.28920556328E+04  0.50400001928E-02 0. -1.
       -1   -1    0    0    0  501  0.00000000000E+00  0.00000000000E+00 -0.41868678113E+03  0.41868678116E+03  0.50400001928E-02 0.  1.
    10030    2    1    2    0    0  0.00000000000E+00  0.00000000000E+00  0.24733688517E+04  0.33107424140E+04  0.22007866446E+04 0.  0.
        4    1    3    3  502    0  0.26878509731E+03 -0.78754039898E+03  0.15355753914E+03  0.84619550891E+03  0.12699999809E+01 0.  1.
       -4    1    3    3    0  502 -0.26878509731E+03  0.78754039898E+03  0.23198113125E+04  0.24645469051E+04  0.12699999809E+01 0. -1.
</event>
<event>
 5   0  0.4309945E-06  0.2202640E+04  0.7818609E-02  0.8517330E-01
       -1   -1    0    0    0  501  0.00000000000E+00  0.00000000000E+00  0.19789999150E+04  0.19789999150E+04  0.50400001928E-02 0.  1.
        1   -1    0    0  501    0  0.00000000000E+00  0.00000000000E+00 -0.61288838331E+03  0.61288838333E+03  0.50400001928E-02 0. -1.
    10030    2    1    2    0    0  0.00000000000E+00  0.00000000000E+00  0.13661115317E+04  0.25918882983E+04  0.22026402870E+04 0.  0.
        4    1    3    3  502    0  0.14653482142E+03  0.96519130540E+03  0.12828797320E+04  0.16120945163E+04  0.12699999809E+01 0.  1.
       -4    1    3    3    0  502 -0.14653482142E+03 -0.96519130540E+03  0.83231799715E+02  0.97979378203E+03  0.12699999809E+01 0. -1.
</event>
<event>
 5   0  0.9963173E-06  0.2198607E+04  0.7818609E-02  0.8519008E-01
       -2   -1    0    0    0  501  0.00000000000E+00  0.00000000000E+00  0.22459777973E+04  0.22459777973E+04  0.25500000920E-02 0.  1.
        2   -1    0    0  501    0  0.00000000000E+00  0.00000000000E+00 -0.53805879374E+03  0.53805879375E+03  0.25500000920E-02 0. -1.
    10030    2    1    2    0    0  0.00000000000E+00  0.00000000000E+00  0.17079190036E+04  0.27840365911E+04  0.21986069266E+04 0.  0.
        4    1    3    3  502    0 -0.24747698071E+03 -0.45616405274E+03 -0.37317336955E+03  0.63921082253E+03  0.12699999809E+01 0. -1.
       -4    1    3    3    0  502  0.24747698071E+03  0.45616405274E+03  0.20810923731E+04  0.21448257686E+04  0.12699999809E+01 0.  1.
</event>
<event>
 5   0  0.3546750E-06  0.2206146E+04  0.7818609E-02  0.8515874E-01
       -3   -1    0    0    0  501  0.00000000000E+00  0.00000000000E+00  0.14447230518E+04  0.14447230554E+04  0.10100000352E+00 0.  1.
        3   -1    0    0  501    0  0.00000000000E+00  0.00000000000E+00 -0.84221688239E+03  0.84221688844E+03  0.10100000352E+00 0. -1.
    10030    2    1    2    0    0  0.00000000000E+00  0.00000000000E+00  0.60250616945E+03  0.22869399438E+04  0.22061461018E+04 0.  0.
        4    1    3    3  502    0  0.61988701081E+02  0.48385004310E+03  0.13268360897E+04  0.14136651248E+04  0.12699999809E+01 0.  1.
       -4    1    3    3    0  502 -0.61988701081E+02 -0.48385004310E+03 -0.72432992024E+03  0.87327481901E+03  0.12699999809E+01 0. -1.
</event>
<event>
 5   0  0.4462201E-06  0.2193379E+04  0.7818609E-02  0.8521189E-01
        1   -1    0    0  501    0  0.00000000000E+00  0.00000000000E+00  0.11570836379E+04  0.11570836379E+04  0.50400001928E-02 0. -1.
       -1   -1    0    0    0  501  0.00000000000E+00  0.00000000000E+00 -0.10394473836E+04  0.10394473837E+04  0.50400001928E-02 0.  1.
    10030    2    1    2    0    0  0.00000000000E+00  0.00000000000E+00  0.11763625423E+03  0.21965310215E+04  0.21933787270E+04 0.  0.
        3    1    3    3  502    0  0.54725669606E+02 -0.10907528873E+04  0.15891571795E+03  0.11036262844E+04  0.10100000352E+00 0.  1.
       -3    1    3    3    0  502 -0.54725669606E+02  0.10907528873E+04 -0.41279463726E+02  0.10929047371E+04  0.10100000352E+00 0. -1.
</event>
<event>
 5   0  0.9963573E-06  0.2200490E+04  0.7818609E-02  0.8518224E-01
       -2   -1    0    0    0  501  0.00000000000E+00  0.00000000000E+00  0.57621496983E+03  0.57621496983E+03  0.25500000920E-02 0.  1.
        2   -1    0    0  501    0  0.00000000000E+00  0.00000000000E+00 -0.21008469449E+04  0.21008469449E+04  0.25500000920E-02 0. -1.
    10030    2    1    2    0    0  0.00000000000E+00  0.00000000000E+00 -0.15246319751E+04  0.26770619147E+04  0.22004903626E+04 0.  0.
        2    1    3    3  502    0  0.80369935127E+03 -0.56445378256E+03 -0.13657160979E+04  0.16821775114E+04  0.25500000920E-02 0. -1.
       -2    1    3    3    0  502 -0.80369935127E+03  0.56445378256E+03 -0.15891587714E+03  0.99488440328E+03  0.25500000920E-02 0.  1.
</event>
<event>
 5   0  0.1015876E-05  0.2200835E+04  0.7818609E-02  0.8518081E-01
        2   -1    0    0  501    0  0.00000000000E+00  0.00000000000E+00  0.60761241104E+03  0.60761241104E+03  0.25500000920E-02 0.  1.
       -2   -1    0    0    0  501  0.00000000000E+00  0.00000000000E+00 -0.19929131033E+04  0.19929131033E+04  0.25500000920E-02 0. -1.
    10030    2    1    2    0    0  0.00000000000E+00  0.00000000000E+00 -0.13853006922E+04  0.26005255143E+04  0.22008350558E+04 0.  0.
        5    1    3    3  502    0  0.15139365061E+03 -0.86191628982E+03 -0.14809496805E+04  0.17201900402E+04  0.46999998093E+01 0. -1.
       -5    1    3    3    0  502 -0.15139365061E+03  0.86191628982E+03  0.95648988265E+02  0.88033547415E+03  0.46999998093E+01 0.  1.
</event>
<event>
 5   0  0.1035928E-05  0.2201476E+04  0.7818609E-02  0.8517814E-01
        2   -1    0    0  501    0  0.00000000000E+00  0.00000000000E+00  0.15043030735E+04  0.15043030735E+04  0.25500000920E-02 0. -1.
       -2   -1    0    0    0  501  0.00000000000E+00  0.00000000000E+00 -0.80543898352E+03  0.80543898352E+03  0.25500000920E-02 0.  1.
    10030    2    1    2    0    0  0.00000000000E+00  0.00000000000E+00  0.69886409002E+03  0.23097420571E+04  0.22014761761E+04 0.  0.
        3    1    3    3  502    0  0.10154328841E+04  0.41250910357E+03  0.45620435325E+03  0.11871773771E+04  0.10100000352E+00 0. -1.
       -3    1    3    3    0  502 -0.10154328841E+04 -0.41250910357E+03  0.24265973676E+03  0.11225646799E+04  0.10100000352E+00 0.  1.
</event>
<event>
 5   0  0.4630615E-06  0.2191884E+04  0.7818609E-02  0.8521814E-01
        1   -1    0    0  501    0  0.00000000000E+00  0.00000000000E+00  0.19114331189E+04  0.19114331189E+04  0.50400001928E-02 0.  1.
       -1   -1    0    0    0  501  0.00000000000E+00  0.00000000000E+00 -0.62837073503E+03  0.62837073505E+03  0.50400001928E-02 0. -1.
    10030    2    1    2    0    0  0.00000000000E+00  0.00000000000E+00  0.12830623839E+04  0.25398038540E+04  0.21918837870E+04 0.  0.
        2    1    3    3  502    0 -0.52269251794E+03  0.92732382796E+03  0.94358392154E+03  0.14224934331E+04  0.25500000920E-02 0.  1.
       -2    1    3    3    0  502  0.52269251794E+03 -0.92732382796E+03  0.33947846234E+03  0.11173104209E+04  0.25500000920E-02 0. -1.
</event>
<event>
 5   0  0.1035928E-05  0.2200638E+04  0.7818609E-02  0.8518163E-01
        2   -1    0    0  501    0  0.00000000000E+00  0.00000000000E+00  0.66558280365E+03  0.66558280366E+03  0.25500000920E-02 0.  1.
       -2   -1    0    0    0  501  0.00000000000E+00  0.00000000000E+00 -0.18190104186E+04  0.18190104186E+04  0.25500000920E-02 0. -1.
    10030    2    1    2    0    0  0.00000000000E+00  0.00000000000E+00 -0.11534276149E+04  0.24845932222E+04  0.22006381386E+04 0.  0.
        3    1    3    3  502    0 -0.47150229653E+03 -0.98201804093E+03 -0.75172557113E+03  0.13235426675E+04  0.10100000352E+00 0. -1.
       -3    1    3    3    0  502  0.47150229653E+03  0.98201804093E+03 -0.40170204379E+03  0.11610505547E+04  0.10100000352E+00 0.  1.
</event>
<event>
 5   0  0.4794967E-06  0.2201506E+04  0.7818609E-02  0.8517802E-01
        1   -1    0    0  501    0  0.00000000000E+00  0.00000000000E+00  0.77270973462E+03  0.77270973463E+03  0.50400001928E-02 0. -1.
       -1   -1    0    0    0  501  0.00000000000E+00  0.00000000000E+00 -0.15680623465E+04  0.15680623465E+04  0.50400001928E-02 0.  1.
    10030    2    1    2    0    0  0.00000000000E+00  0.00000000000E+00 -0.79535261190E+03  0.23407720812E+04  0.22015058843E+04 0.  0.
        5    1    3    3  502    0 -0.74599190969E+02  0.94992542885E+03  0.18828637993E+03  0.97128636896E+03  0.46999998093E+01 0. -1.
       -5    1    3    3    0  502  0.74599190969E+02 -0.94992542885E+03 -0.98363899183E+03  0.13694857122E+04  0.46999998093E+01 0.  1.
</event>
<event>
 5   0  0.4462201E-06  0.2201869E+04  0.7818609E-02  0.8517650E-01
        1   -1    0    0  501    0  0.00000000000E+00  0.00000000000E+00  0.18831932938E+04  0.18831932938E+04  0.50400001928E-02 0.  1.
       -1   -1    0    0    0  501  0.00000000000E+00  0.00000000000E+00 -0.64361806827E+03  0.64361806829E+03  0.50400001928E-02 0. -1.
    10030    2    1    2    0    0  0.00000000000E+00  0.00000000000E+00  0.12395752255E+04  0.25268113620E+04  0.22018694148E+04 0.  0.
        3    1    3    3  502    0 -0.46351735398E+03 -0.11071701044E+03  0.17586952164E+04  0.18221184013E+04  0.10100000352E+00 0.  1.
       -3    1    3    3    0  502  0.46351735398E+03  0.11071701044E+03 -0.51911999090E+03  0.70469296080E+03  0.10100000352E+00 0. -1.
</event>
<event>
 5   0  0.4309945E-06  0.2214746E+04  0.7818609E-02  0.8512316E-01
        1   -1    0    0  501    0  0.00000000000E+00  0.00000000000E+00  0.19000513682E+04  0.19000513682E+04  0.50400001928E-02 0. -1.
       -1   -1    0    0    0  501  0.00000000000E+00  0.00000000000E+00 -0.64539038830E+03  0.64539038832E+03  0.50400001928E-02 0.  1.
    10030    2    1    2    0    0  0.00000000000E+00  0.00000000000E+00  0.12546609799E+04  0.25454417565E+04  0.22147459361E+04 0.  0.
        4    1    3    3  502    0  0.64468049257E+03  0.33340038889E+03 -0.33391543898E+03  0.79891794954E+03  0.12699999809E+01 0.  1.
       -4    1    3    3    0  502 -0.64468049257E+03 -0.33340038889E+03  0.15885764189E+04  0.17465238069E+04  0.12699999809E+01 0. -1.
</event>
<event>
 5   0  0.9963173E-06  0.2199891E+04  0.7818609E-02  0.8518474E-01
        2   -1    0    0  501    0  0.00000000000E+00  0.00000000000E+00  0.94192172128E+03  0.94192172128E+03  0.25500000920E-02 0.  1.
       -2   -1    0    0    0  501  0.00000000000E+00  0.00000000000E+00 -0.12844800571E+04  0.12844800571E+04  0.25500000920E-02 0. -1.
    10030    2    1    2    0    0  0.00000000000E+00  0.00000000000E+00 -0.34255833585E+03  0.22264017784E+04  0.21998906031E+04 0.  0.
        4    1    3    3  502    0 -0.44502261923E+03 -0.93281792383E+03 -0.55222419874E+03  0.11718138031E+04  0.12699999809E+01 0.  1.
       -4    1    3    3    0  502  0.44502261923E+03  0.93281792383E+03  0.20966586289E+03  0.10545879753E+04  0.12699999809E+01 0. -1.
</event>
<event>
 5   0  0.4309945E-06  0.2199090E+04  0.7818609E-02  0.8518807E-01
        1   -1    0    0  501    0  0.00000000000E+00  0.00000000000E+00  0.14427591423E+04  0.14427591423E+04  0.50400001928E-02 0.  1.
       -1   -1    0    0    0  501  0.00000000000E+00  0.00000000000E+00 -0.83797736266E+03  0.83797736267E+03  0.50400001928E-02 0. -1.
    10030    2    1    2    0    0  0.00000000000E+00  0.00000000000E+00  0.60478177967E+03  0.22807365050E+04  0.21990902674E+04 0.  0.
        4    1    3    3  502    0 -0.23506142979E+03  0.42414868712E+03 -0.72108186556E+03  0.86897448427E+03  0.12699999809E+01 0. -1.
       -4    1    3    3    0  502  0.23506142979E+03 -0.42414868712E+03  0.13258636452E+04  0.14117620207E+04  0.12699999809E+01 0.  1.
</event>
<event>
 5   0  0.1015876E-05  0.2195475E+04  0.7818609E-02  0.8520314E-01
        2   -1    0    0  501    0  0.00000000000E+00  0.00000000000E+00  0.94419776826E+03  0.94419776826E+03  0.25500000920E-02 0. -1.
       -2   -1    0    0    0  501  0.00000000000E+00  0.00000000000E+00 -0.12762445136E+04  0.12762445136E+04  0.25500000920E-02 0.  1.
    10030    2    1    2    0    0  0.00000000000E+00  0.00000000000E+00 -0.33204674536E+03  0.22204422819E+04  0.21954746380E+04 0.  0.
        5    1    3    3  502    0  0.66654800564E+03  0.85050346721E+03 -0.36151601772E+03  0.11394552701E+04  0.46999998093E+01 0.  1.
       -5    1    3    3    0  502 -0.66654800564E+03 -0.85050346721E+03  0.29469272362E+02  0.10809870117E+04  0.46999998093E+01 0. -1.
</event>
<event>
 5   0  0.4462201E-06  0.2197198E+04  0.7818609E-02  0.8519595E-01
       -1   -1    0    0    0  501  0.00000000000E+00  0.00000000000E+00  0.71699808345E+03  0.71699808347E+03  0.50400001928E-02 0. -1.
        1   -1    0    0  501    0  0.00000000000E+00  0.00000000000E+00 -0.16832952625E+04  0.16832952625E+04  0.50400001928E-02 0.  1.
    10030    2    1    2    0    0  0.00000000000E+00  0.00000000000E+00 -0.96629717905E+03  0.24002933460E+04  0.21971977400E+04 0.  0.
        3    1    3    3  502    0  0.32762200811E+03 -0.52937957688E+03  0.50569454402E+03  0.80206352533E+03  0.10100000352E+00 0. -1.
       -3    1    3    3    0  502 -0.32762200811E+03  0.52937957688E+03 -0.14719917231E+04  0.15982298206E+04  0.10100000352E+00 0.  1.
</event>
<event>
 5   0  0.9963573E-06  0.2213337E+04  0.7818609E-02  0.8512898E-01
       -2   -1    0    0    0  501  0.00000000000E+00  0.00000000000E+00  0.53821114791E+03  0.53821114791E+03  0.25500000920E-02 0. -1.
        2   -1    0    0  501    0  0.00000000000E+00  0.00000000000E+00 -0.22755283708E+04  0.22755283708E+04  0.25500000920E-02 0.  1.
    10030    2    1    2    0    0  0.00000000000E+00  0.00000000000E+00 -0.17373172229E+04  0.28137395187E+04  0.22133366093E+04 0.  0.
        2    1    3    3  502    0  0.61571609397E+03 -0.83231048459E+03 -0.13657019615E+04  0.17137645400E+04  0.25500000920E-02 0.  1.
       -2    1    3    3    0  502 -0.61571609397E+03  0.83231048459E+03 -0.37161526139E+03  0.10999749786E+04  0.25500000920E-02 0. -1.
</event>
<event>
 5   0  0.9963173E-06  0.2202330E+04  0.7818609E-02  0.8517459E-01
       -2   -1    0    0    0  501  0.00000000000E+00  0.00000000000E+00  0.65524397690E+03  0.65524397691E+03  0.25500000920E-02 0. -1.
        2   -1    0    0  501    0  0.00000000000E+00  0.00000000000E+00 -0.18505538700E+04  0.18505538700E+04  0.25500000920E-02 0.  1.
    10030    2    1    2    0    0  0.00000000000E+00  0.00000000000E+00 -0.11953098931E+04  0.25057978469E+04  0.22023299274E+04 0.  0.
        4    1    3    3  502    0 -0.54833445353E+03 -0.77003466189E+03  0.44910252165E+02  0.94638395860E+03  0.12699999809E+01 0.  1.
       -4    1    3    3    0  502  0.54833445353E+03  0.77003466189E+03 -0.12402201452E+04  0.15594138883E+04  0.12699999809E+01 0. -1.
</event>
<event>
 5   0  0.9963573E-06  0.2192300E+04  0.7818609E-02  0.8521640E-01
       -2   -1    0    0    0  501  0.00000000000E+00  0.00000000000E+00  0.57740640038E+03  0.57740640038E+03  0.25500000920E-02 0.  1.
        2   -1    0    0  501    0  0.00000000000E+00  0.00000000000E+00 -0.20809335727E+04  0.20809335727E+04  0.25500000920E-02 0. -1.
    10030    2    1    2    0    0  0.00000000000E+00  0.00000000000E+00 -0.15035271724E+04  0.26583399731E+04  0.21922995814E+04 0.  0.
        2    1    3    3  502    0 -0.54834110925E+03  0.55908109514E+03 -0.16818174393E+04  0.18551979792E+04  0.25500000920E-02 0. -1.
       -2    1    3    3    0  502  0.54834110925E+03 -0.55908109514E+03  0.17829026694E+03  0.80314199388E+03  0.25500000920E-02 0.  1.
</event>
<event>
 5   0  0.4309945E-06  0.2199536E+04  0.7818609E-02  0.8518621E-01
       -1   -1    0    0    0  501  0.00000000000E+00  0.00000000000E+00  0.12137607873E+04  0.12137607873E+04  0.50400001928E-02 0. -1.
        1   -1    0    0  501    0  0.00000000000E+00  0.00000000000E+00 -0.99648127968E+03  0.99648127970E+03  0.50400001928E-02 0.  1.
    10030    2    1    2    0    0  0.00000000000E+00  0.00000000000E+00  0.21727950758E+03  0.22102420670E+04  0.21995362262E+04 0.  0.
        4    1    3    3  502    0  0.86955945484E+03  0.60286125719E+03 -0.19267461451E+03  0.10755000980E+04  0.12699999809E+01 0.  1.
       -4    1    3    3    0  502 -0.86955945484E+03 -0.60286125719E+03  0.40995412209E+03  0.11347419689E+04  0.12699999809E+01 0. -1.
</event>
<event>
 5   0  0.1015876E-05  0.2199776E+04  0.7818609E-02  0.8518522E-01
       -2   -1    0    0    0  501  0.00000000000E+00  0.00000000000E+00  0.79218758074E+03  0.79218758074E+03  0.25500000920E-02 0.  1.
        2   -1    0    0  501    0  0.00000000000E+00  0.00000000000E+00 -0.15271044645E+04  0.15271044645E+04  0.25500000920E-02 0. -1.
    10030    2    1    2    0    0  0.00000000000E+00  0.00000000000E+00 -0.73491688379E+03  0.23192920453E+04  0.21997756170E+04 0.  0.
        5    1    3    3  502    0 -0.88031195611E+03 -0.61611762995E+02  0.32470492735E+03  0.94031937620E+03  0.46999998093E+01 0.  1.
       -5    1    3    3    0  502  0.88031195611E+03  0.61611762995E+02 -0.10596218111E+04  0.13789726691E+04  0.46999998093E+01 0. -1.
</event>
<event>
 5   0  0.4630615E-06  0.2200024E+04  0.7818609E-02  0.8518418E-01
        1   -1    0    0  501    0  0.00000000000E+00  0.00000000000E+00  0.20396899439E+04  0.20396899439E+04  0.50400001928E-02 0.  1.
       -1   -1    0    0    0  501  0.00000000000E+00  0.00000000000E+00 -0.59324024741E+03  0.59324024743E+03  0.50400001928E-02 0. -1.
    10030    2    1    2    0    0  0.00000000000E+00  0.00000000000E+00  0.14464496965E+04  0.26329301914E+04  0.22000237881E+04 0.  0.
        2    1    3    3  502    0  0.87000673472E+03  0.54020130373E+03  0.12038706052E+04  0.15805168778E+04  0.25500000920E-02 0.  1.
       -2    1    3    3    0  502 -0.87000673472E+03 -0.54020130373E+03  0.24257909133E+03  0.10524133136E+04  0.25500000920E-02 0. -1.
</event>
<event>
 5   0  0.4408787E-06  0.2198353E+04  0.7818609E-02  0.8519114E-01
        1   -1    0    0  501    0  0.00000000000E+00  0.00000000000E+00  0.10492384872E+04  0.10492384872E+04  0.50400001928E-02 0.  1.
       -1   -1    0    0    0  501  0.00000000000E+00  0.00000000000E+00 -0.11514917666E+04  0.11514917666E+04  0.50400001928E-02 0. -1.
    10030    2    1    2    0    0  0.00000000000E+00  0.00000000000E+00 -0.10225327943E+03  0.22007302539E+04  0.21983534559E+04 0.  0.
        1    1    3    3  502    0 -0.73996898544E+02  0.36373642689E+03 -0.10868513112E+04  0.11484883551E+04  0.50400001928E-02 0. -1.
       -1    1    3    3    0  502  0.73996898544E+02 -0.36373642689E+03  0.98459803176E+03  0.10522418987E+04  0.50400001928E-02 0.  1.
</event>
<event>
 5   0  0.4794967E-06  0.2199211E+04  0.7818609E-02  0.8518757E-01
       -1   -1    0    0    0  501  0.00000000000E+00  0.00000000000E+00  0.84257143172E+03  0.84257143173E+03  0.50400001928E-02 0.  1.
        1   -1    0    0  501    0  0.00000000000E+00  0.00000000000E+00 -0.14350502417E+04  0.14350502417E+04  0.50400001928E-02 0. -1.
    10030    2    1    2    0    0  0.00000000000E+00  0.00000000000E+00 -0.59247880995E+03  0.22776216734E+04  0.21992110738E+04 0.  0.
        5    1    3    3  502    0 -0.18676323844E+03 -0.96176989122E+03  0.22078786696E+03  0.10043162864E+04  0.46999998093E+01 0.  1.
       -5    1    3    3    0  502  0.18676323844E+03  0.96176989122E+03 -0.81326667691E+03  0.12733053870E+04  0.46999998093E+01 0. -1.
</event>
<event>
 5   0  0.4309945E-06  0.2213373E+04  0.7818609E-02  0.8512883E-01
       -1   -1    0    0    0  501  0.00000000000E+00  0.00000000000E+00  0.62185642072E+03  0.62185642074E+03  0.50400001928E-02 0.  1.
        1   -1    0    0  501    0  0.00000000000E+00  0.00000000000E+00 -0.19695139876E+04  0.19695139876E+04  0.50400001928E-02 0. -1.
    10030    2    1    2    0    0  0.00000000000E+00  0.00000000000E+00 -0.13476575669E+04  0.25913704084E+04  0.22133729184E+04 0.  0.
        4    1    3    3  502    0  0.75106945868E+03  0.40168108771E+03 -0.15011150355E+04  0.17259203315E+04  0.12699999809E+01 0. -1.
       -4    1    3    3    0  502 -0.75106945868E+03 -0.40168108771E+03  0.15345746860E+03  0.86545007687E+03  0.12699999809E+01 0.  1.
</event>
<event>
 5   0  0.1014015E-05  0.2201228E+04  0.7818609E-02  0.8517917E-01
       -2   -1    0    0    0  501  0.00000000000E+00  0.00000000000E+00  0.83175947372E+03  0.83175947372E+03  0.25500000920E-02 0. -1.
        2   -1    0    0  501    0  0.00000000000E+00  0.00000000000E+00 -0.14563725085E+04  0.14563725085E+04  0.25500000920E-02 0.  1.
    10030    2    1    2    0    0  0.00000000000E+00  0.00000000000E+00 -0.62461303477E+03  0.22881319822E+04  0.22012284127E+04 0.  0.
        1    1    3    3  502    0 -0.19709786125E+03 -0.69084387633E+02  0.81097197374E+03  0.83743403426E+03  0.50400001928E-02 0. -1.
       -1    1    3    3    0  502  0.19709786125E+03  0.69084387633E+02 -0.14355850085E+04  0.14506979480E+04  0.50400001928E-02 0.  1.
</event>
<event>
 5   0  0.4408787E-06  0.2197277E+04  0.7818609E-02  0.8519562E-01
       -1   -1    0    0    0  501  0.00000000000E+00  0.00000000000E+00  0.60978346051E+03  0.60978346053E+03  0.50400001928E-02 0.  1.
        1   -1    0    0  501    0  0.00000000000E+00  0.00000000000E+00 -0.19794013102E+04  0.19794013102E+04  0.50400001928E-02 0. -1.
    10030    2    1    2    0    0  0.00000000000E+00  0.00000000000E+00 -0.13696178497E+04  0.25891847707E+04  0.21972766605E+04 0.  0.
        1    1    3    3  502    0 -0.44243956186E+03 -0.87584549952E+03 -0.12670528340E+04  0.16025857197E+04  0.50400001928E-02 0.  1.
       -1    1    3    3    0  502  0.44243956186E+03  0.87584549952E+03 -0.10256501566E+03  0.98659905098E+03  0.50400001928E-02 0. -1.
</event>
<event>
 5   0  0.1035928E-05  0.2200541E+04  0.7818609E-02  0.8518203E-01
        2   -1    0    0  501    0  0.00000000000E+00  0.00000000000E+00  0.95863937537E+03  0.95863937538E+03  0.25500000920E-02 0.  1.
       -2   -1    0    0    0  501  0.00000000000E+00  0.00000000000E+00 -0.12628265961E+04  0.12628265961E+04  0.25500000920E-02 0. -1.
    10030    2    1    2    0    0  0.00000000000E+00  0.00000000000E+00 -0.30418722071E+03  0.22214659715E+04  0.22005411146E+04 0.  0.
        3    1    3    3  502    0  0.26155283511E+03 -0.80242407842E+03 -0.86471041254E+03  0.12083122092E+04  0.10100000352E+00 0. -1.
       -3    1    3    3    0  502 -0.26155283511E+03  0.80242407842E+03  0.56052319182E+03  0.10131537623E+04  0.10100000352E+00 0.  1.
</event>
<event>
 5   0  0.1014015E-05  0.2211500E+04  0.7818609E-02  0.8513657E-01
        2   -1    0    0  501    0  0.00000000000E+00  0.00000000000E+00  0.66474064792E+03  0.66474064792E+03  0.25500000920E-02 0. -1.
       -2   -1    0    0    0  501  0.00000000000E+00  0.00000000000E+00 -0.18393387017E+04  0.18393387017E+04  0.25500000920E-02 0.  1.
    10030    2    1    2    0    0  0.00000000000E+00  0.00000000000E+00 -0.11745980538E+04  0.25040793496E+04  0.22115001246E+04 0.  0.
        1    1    3    3  502    0  0.45576409455E+03  0.59238171361E+03  0.33540043021E+03  0.81922552030E+03  0.50400001928E-02 0. -1.
       -1    1    3    3    0  502 -0.45576409455E+03 -0.59238171361E+03 -0.15099984840E+04  0.16848538293E+04  0.50400001928E-02 0.  1.
</event>
<event>
 5   0  0.1014015E-05  0.2200611E+04  0.7818609E-02  0.8518174E-01
       -2   -1    0    0    0  501  0.00000000000E+00  0.00000000000E+00  0.12996563981E+04  0.12996563981E+04  0.25500000920E-02 0.  1.
        2   -1    0    0  501    0  0.00000000000E+00  0.00000000000E+00 -0.93153223716E+03  0.93153223716E+03  0.25500000920E-02 0. -1.
    10030    2    1    2    0    0  0.00000000000E+00  0.00000000000E+00  0.36812416091E+03  0.22311886352E+04  0.22006106716E+04 0.  0.
        1    1    3    3  502    0 -0.39663046362E+02 -0.84413740997E+03 -0.53037852643E+03  0.99771865046E+03  0.50400001928E-02 0. -1.
       -1    1    3    3    0  502  0.39663046362E+02  0.84413740997E+03  0.89850268734E+03  0.12334699848E+04  0.50400001928E-02 0.  1.
</event>
<event>
 5   0  0.1015876E-05  0.2199180E+04  0.7818609E-02  0.8518770E-01
        2   -1    0    0  501    0  0.00000000000E+00  0.00000000000E+00  0.10461157698E+04  0.10461157698E+04  0.25500000920E-02 0. -1.
       -2   -1    0    0    0  501  0.00000000000E+00  0.00000000000E+00 -0.11557974853E+04  0.11557974853E+04  0.25500000920E-02 0.  1.
    10030    2    1    2    0    0  0.00000000000E+00  0.00000000000E+00 -0.10968171544E+03  0.22019132551E+04  0.21991798253E+04 0.  0.
        5    1    3    3  502    0 -0.67513659971E+03 -0.66994542620E+02  0.81155437870E+03  0.10577997431E+04  0.46999998093E+01 0. -1.
       -5    1    3    3    0  502  0.67513659971E+03  0.66994542620E+02 -0.92123609414E+03  0.11441135119E+04  0.46999998093E+01 0.  1.
</event>
<event>
 5   0  0.4794967E-06  0.2199581E+04  0.7818609E-02  0.8518602E-01
       -1   -1    0    0    0  501  0.00000000000E+00  0.00000000000E+00  0.58342315161E+03  0.58342315163E+03  0.50400001928E-02 0. -1.
        1   -1    0    0  501    0  0.00000000000E+00  0.00000000000E+00 -0.20731766891E+04  0.20731766891E+04  0.50400001928E-02 0.  1.
    10030    2    1    2    0    0  0.00000000000E+00  0.00000000000E+00 -0.14897535375E+04  0.26565998407E+04  0.21995811218E+04 0.  0.
        5    1    3    3  502    0  0.18042073755E+03  0.12984415555E+02 -0.20550747494E+04  0.20630255823E+04  0.46999998093E+01 0.  1.
       -5    1    3    3    0  502 -0.18042073755E+03 -0.12984415555E+02  0.56532121193E+03  0.59357425841E+03  0.46999998093E+01 0. -1.
</event>
<event>
 5   0  0.1035928E-05  0.2196854E+04  0.7818609E-02  0.8519739E-01
        2   -1    0    0  501    0  0.00000000000E+00  0.00000000000E+00  0.22325733261E+04  0.22325733261E+04  0.25500000920E-02 0. -1.
       -2   -1    0    0    0  501  0.00000000000E+00  0.00000000000E+00 -0.54042656965E+03  0.54042656966E+03  0.25500000920E-02 0.  1.
    10030    2    1    2    0    0  0.00000000000E+00  0.00000000000E+00  0.16921467565E+04  0.27729998958E+04  0.21968540636E+04 0.  0.
        3    1    3    3  502    0  0.62063645757E+03  0.51192010811E+03  0.17900630026E+04  0.19625435978E+04  0.10100000352E+00 0. -1.
       -3    1    3    3    0  502 -0.62063645757E+03 -0.51192010811E+03 -0.97916246150E+02  0.81045629803E+03  0.10100000352E+00 0.  1.
</event>
<event>
 5   0  0.4630615E-06  0.2197261E+04  0.7818609E-02  0.8519569E-01
       -1   -1    0    0    0  501  0.00000000000E+00  0.00000000000E+00  0.50571103856E+03  0.50571103859E+03  0.50400001928E-02 0.  1.
        1   -1    0    0  501    0  0.00000000000E+00  0.00000000000E+00 -0.23867176597E+04  0.23867176597E+04  0.50400001928E-02 0. -1.
    10030    2    1    2    0    0  0.00000000000E+00  0.00000000000E+00 -0.18810066211E+04  0.28924286983E+04  0.21972614469E+04 0.  0.
        2    1    3    3  502    0 -0.99391381633E+03  0.12439898077E+03 -0.34645358663E+03  0.10598914418E+04  0.25500000920E-02 0.  1.
       -2    1    3    3    0  502  0.99391381633E+03 -0.12439898077E+03 -0.15345530345E+04  0.18325372565E+04  0.25500000920E-02 0. -1.
</event>
<event>
 5   0  0.4408787E-06  0.2198916E+04  0.7818609E-02  0.8518879E-01
       -1   -1    0    0    0  501  0.00000000000E+00  0.00000000000E+00  0.10475491406E+04  0.10475491406E+04  0.50400001928E-02 0. -1.
        1   -1    0    0  501    0  0.00000000000E+00  0.00000000000E+00 -0.11539391547E+04  0.11539391547E+04  0.50400001928E-02 0.  1.
    10030    2    1    2    0    0  0.00000000000E+00  0.00000000000E+00 -0.10639001406E+03  0.22014882953E+04  0.21989160692E+04 0.  0.
        1    1    3    3  502    0 -0.73818065855E+03 -0.11894321398E+03 -0.86020851482E+03  0.11397442089E+04  0.50400001928E-02 0.  1.
       -1    1    3    3    0  502  0.73818065855E+03  0.11894321398E+03  0.75381850076E+03  0.10617440864E+04  0.50400001928E-02 0. -1.
</event>
<event>
 5   0  0.4462201E-06  0.2187343E+04  0.7818609E-02  0.8523715E-01
        1   -1    0    0  501    0  0.00000000000E+00  0.00000000000E+00  0.64737793882E+03  0.64737793884E+03  0.50400001928E-02 0. -1.
       -1   -1    0    0    0  501  0.00000000000E+00  0.00000000000E+00 -0.18476335729E+04  0.18476335729E+04  0.50400001928E-02 0.  1.
    10030    2    1    2    0    0  0.00000000000E+00  0.00000000000E+00 -0.12002556341E+04  0.24950115118E+04  0.21873428759E+04 0.  0.
        3    1    3    3  502    0  0.93405129722E+03  0.47256429933E+03 -0.96146348192E+03  0.14213306723E+04  0.10100000352E+00 0.  1.
       -3    1    3    3    0  502 -0.93405129722E+03 -0.47256429933E+03 -0.23879215219E+03  0.10736808394E+04  0.10100000352E+00 0. -1.
</event>
<event>
 5   0  0.4462201E-06  0.2198522E+04  0.7818609E-02  0.8519043E-01
       -1   -1    0    0    0  501  0.00000000000E+00  0.00000000000E+00  0.59050944147E+03  0.59050944149E+03  0.50400001928E-02 0. -1.
        1   -1    0    0  501    0  0.00000000000E+00  0.00000000000E+00 -0.20463266442E+04  0.20463266442E+04  0.50400001928E-02 0.  1.
    10030    2    1    2    0    0  0.00000000000E+00  0.00000000000E+00 -0.14558172028E+04  0.26368360857E+04  0.21985224163E+04 0.  0.
        3    1    3    3  502    0  0.48838589562E+03 -0.88276974057E+03 -0.20433013538E+03  0.10293464006E+04  0.10100000352E+00 0. -1.
       -3    1    3    3    0  502 -0.48838589562E+03  0.88276974057E+03 -0.12514870674E+04  0.16074896852E+04  0.10100000352E+00 0.  1.
</event>
<event>
 5   0  0.9963573E-06  0.2200312E+04  0.7818609E-02  0.8518298E-01
       -2   -1    0    0    0  501  0.00000000000E+00  0.00000000000E+00  0.14440660478E+04  0.14440660478E+04  0.25500000920E-02 0. -1.
        2   -1    0    0  501    0  0.00000000000E+00  0.00000000000E+00 -0.83814916723E+03  0.83814916724E+03  0.25500000920E-02 0.  1.
    10030    2    1    2    0    0  0.00000000000E+00  0.00000000000E+00  0.60591688060E+03  0.22822152151E+04  0.22003115738E+04 0.  0.
        2    1    3    3  502    0 -0.50141601546E+03 -0.62180549329E+03 -0.48169468347E+03  0.93278607416E+03  0.25500000920E-02 0.  1.
       -2    1    3    3    0  502  0.50141601546E+03  0.62180549329E+03  0.10876115641E+04  0.13494291409E+04  0.25500000920E-02 0. -1.
</event>
<event>
 5   0  0.4794967E-06  0.2200367E+04  0.7818609E-02  0.8518275E-01
        1   -1    0    0  501    0  0.00000000000E+00  0.00000000000E+00  0.10231318237E+04  0.10231318237E+04  0.50400001928E-02 0. -1.
       -1   -1    0    0    0  501  0.00000000000E+00  0.00000000000E+00 -0.11830382630E+04  0.11830382630E+04  0.50400001928E-02 0.  1.
    10030    2    1    2    0    0  0.00000000000E+00  0.00000000000E+00 -0.15990643930E+03  0.22061700868E+04  0.22003673290E+04 0.  0.
        5    1    3    3  502    0  0.94560930383E+03  0.10110854667E+03  0.47466205045E+03  0.10628857163E+04  0.46999998093E+01 0.  1.
       -5    1    3    3    0  502 -0.94560930383E+03 -0.10110854667E+03 -0.63456848975E+03  0.11432843705E+04  0.46999998093E+01 0. -1.
</event>
<event>
 5   0  0.1015876E-05  0.2203621E+04  0.7818609E-02  0.8516923E-01
        2   -1    0    0  501    0  0.00000000000E+00  0.00000000000E+00  0.16391682180E+04  0.16391682180E+04  0.25500000920E-02 0. -1.
       -2   -1    0    0    0  501  0.00000000000E+00  0.00000000000E+00 -0.74061102804E+03  0.74061102805E+03  0.25500000920E-02 0.  1.
    10030    2    1    2    0    0  0.00000000000E+00  0.00000000000E+00  0.89855718994E+03  0.23797792460E+04  0.22036207106E+04 0.  0.
        5    1    3    3  502    0 -0.82753456057E+03  0.54898596763E+03  0.96467721596E+03  0.13844938651E+04  0.46999998093E+01 0. -1.
       -5    1    3    3    0  502  0.82753456057E+03 -0.54898596763E+03 -0.66120026016E+02  0.99528538090E+03  0.46999998093E+01 0.  1.
</event>
<event>
 5   0  0.4630615E-06  0.2230072E+04  0.7818609E-02  0.8506015E-01
        1   -1    0    0  501    0  0.00000000000E+00  0.00000000000E+00  0.11727786055E+04  0.11727786055E+04  0.50400001928E-02 0. -1.
       -1   -1    0    0    0  501  0.00000000000E+00  0.00000000000E+00 -0.10601366953E+04  0.10601366953E+04  0.50400001928E-02 0.  1.
    10030    2    1    2    0    0  0.00000000000E+00  0.00000000000E+00  0.11264191019E+03  0.22329153009E+04  0.22300723174E+04 0.  0.
        2    1    3    3  502    0  0.21234692867E+03  0.64374714451E+03 -0.83013477025E+03  0.10717393997E+04  0.25500000920E-02 0.  1.
       -2    1    3    3    0  502 -0.21234692867E+03 -0.64374714451E+03  0.94277668044E+03  0.11611759011E+04  0.25500000920E-02 0. -1.
</event>
<event>
 5   0  0.3546750E-06  0.2197956E+04  0.7818609E-02  0.8519279E-01
        4   -1    0    0  501    0  0.00000000000E+00  0.00000000000E+00  0.11779404404E+04  0.11779411250E+04  0.12699999809E+01 0.  1.
       -4   -1    0    0    0  501  0.00000000000E+00  0.00000000000E+00 -0.10253072771E+04  0.10253080637E+04  0.12699999809E+01 0. -1.
    10030    2    1    2    0    0  0.00000000000E+00  0.00000000000E+00  0.15263316326E+03  0.22032491887E+04  0.21979558924E+04 0.  0.
        5    1    3    3  502    0 -0.49329293198E+02 -0.80977842335E+03  0.81942230781E+03  0.11531042809E+04  0.46999998093E+01 0.  1.
       -5    1    3    3    0  502  0.49329293198E+02  0.80977842335E+03 -0.66678914455E+03  0.10501449078E+04  0.46999998093E+01 0. -1.
</event>
<event>
 5   0  0.4408787E-06  0.2202303E+04  0.7818609E-02  0.8517470E-01
       -1   -1    0    0    0  501  0.00000000000E+00  0.00000000000E+00  0.94032700300E+03  0.94032700301E+03  0.50400001928E-02 0. -1.
        1   -1    0    0  501    0  0.00000000000E+00  0.00000000000E+00 -0.12894818316E+04  0.12894818316E+04  0.50400001928E-02 0.  1.
    10030    2    1    2    0    0  0.00000000000E+00  0.00000000000E+00 -0.34915482859E+03  0.22298088346E+04  0.22023029639E+04 0.  0.
        1    1    3    3  502    0 -0.79863601862E+03  0.65768584440E+03 -0.55633355927E+03  0.11746817396E+04  0.50400001928E-02 0. -1.
       -1    1    3    3    0  502  0.79863601862E+03 -0.65768584440E+03  0.20717873068E+03  0.10551270950E+04  0.50400001928E-02 0.  1.
</event>
<event>
 5   0  0.4630615E-06  0.2206028E+04  0.7818609E-02  0.8515923E-01
       -1   -1    0    0    0  501  0.00000000000E+00  0.00000000000E+00  0.74890564790E+03  0.74890564791E+03  0.50400001928E-02 0. -1.
        1   -1    0    0  501    0  0.00000000000E+00  0.00000000000E+00 -0.16245563541E+04  0.16245563541E+04  0.50400001928E-02 0.  1.
    10030    2    1    2    0    0  0.00000000000E+00  0.00000000000E+00 -0.87565070620E+03  0.23734620020E+04  0.22060275873E+04 0.  0.
        2    1    3    3  502    0 -0.22386110298E+03 -0.30259594637E+03 -0.15533207040E+04  0.15982751045E+04  0.25500000920E-02 0.  1.
       -2    1    3    3    0  502  0.22386110298E+03  0.30259594637E+03  0.67766999779E+03  0.77518689753E+03  0.25500000920E-02 0. -1.
</event>
<event>
 5   0  0.1014015E-05  0.2189206E+04  0.7818609E-02  0.8522934E-01
       -2   -1    0    0    0  501  0.00000000000E+00  0.00000000000E+00  0.15015869691E+04  0.15015869691E+04  0.25500000920E-02 0. -1.
        2   -1    0    0  501    0  0.00000000000E+00  0.00000000000E+00 -0.79792661797E+03  0.79792661797E+03  0.25500000920E-02 0.  1.
    10030    2    1    2    0    0  0.00000000000E+00  0.00000000000E+00  0.70366035117E+03  0.22995135871E+04  0.21892064424E+04 0.  0.
        1    1    3    3  502    0  0.71653982695E+03 -0.15418296351E+03  0.12057852922E+04  0.14110704734E+04  0.50400001928E-02 0. -1.
       -1    1    3    3    0  502 -0.71653982695E+03  0.15418296351E+03 -0.50212494108E+03  0.88844311372E+03  0.50400001928E-02 0.  1.
</event>
<event>
 5   0  0.1014015E-05  0.2262483E+04  0.7818609E-02  0.8492862E-01
        2   -1    0    0  501    0  0.00000000000E+00  0.00000000000E+00  0.15949805664E+04  0.15949805664E+04  0.25500000920E-02 0.  1.
       -2   -1    0    0    0  501  0.00000000000E+00  0.00000000000E+00 -0.80233423565E+03  0.80233423565E+03  0.25500000920E-02 0. -1.
    10030    2    1    2    0    0  0.00000000000E+00  0.00000000000E+00  0.79264633078E+03  0.23973148021E+04  0.22624831612E+04 0.  0.
        1    1    3    3  502    0 -0.18140374477E+03 -0.11162570067E+04  0.36691125795E+03  0.11889326705E+04  0.50400001928E-02 0.  1.
       -1    1    3    3    0  502  0.18140374477E+03  0.11162570067E+04  0.42573507283E+03  0.12083821316E+04  0.50400001928E-02 0. -1.
</event>
<event>
 5   0  0.3546750E-06  0.2197836E+04  0.7818609E-02  0.8519329E-01
       -3   -1    0    0    0  501  0.00000000000E+00  0.00000000000E+00  0.66640651455E+03  0.66640652221E+03  0.10100000352E+00 0.  1.
        3   -1    0    0  501    0  0.00000000000E+00  0.00000000000E+00 -0.18121386926E+04  0.18121386954E+04  0.10100000352E+00 0. -1.
    10030    2    1    2    0    0  0.00000000000E+00  0.00000000000E+00 -0.11457321781E+04  0.24785452176E+04  0.21978362478E+04 0.  0.
        1    1    3    3  502    0 -0.92572916682E+03  0.47589470367E+03 -0.17548131237E+03  0.10555775435E+04  0.50400001928E-02 0.  1.
       -1    1    3    3    0  502  0.92572916682E+03 -0.47589470367E+03 -0.97025086568E+03  0.14229676741E+04  0.50400001928E-02 0. -1.
</event>
<event>
 5   0  0.4309945E-06  0.2199916E+04  0.7818609E-02  0.8518463E-01
        1   -1    0    0  501    0  0.00000000000E+00  0.00000000000E+00  0.15460884246E+04  0.15460884246E+04  0.50400001928E-02 0. -1.
       -1   -1    0    0    0  501  0.00000000000E+00  0.00000000000E+00 -0.78256066295E+03  0.78256066297E+03  0.50400001928E-02 0.  1.
    10030    2    1    2    0    0  0.00000000000E+00  0.00000000000E+00  0.76352776161E+03  0.23286490875E+04  0.21999163462E+04 0.  0.
        4    1    3    3  502    0  0.19412877967E+02 -0.53024823379E+03  0.14016638289E+04  0.14987338494E+04  0.12699999809E+01 0. -1.
       -4    1    3    3    0  502 -0.19412877967E+02  0.53024823379E+03 -0.63813606726E+03  0.82991523814E+03  0.12699999809E+01 0.  1.
</event>
<event>
 5   0  0.1015876E-05  0.2193962E+04  0.7818609E-02  0.8520946E-01
       -2   -1    0    0    0  501  0.00000000000E+00  0.00000000000E+00  0.73661501145E+03  0.73661501145E+03  0.25500000920E-02 0. -1.
        2   -1    0    0  501    0  0.00000000000E+00  0.00000000000E+00 -0.16336445685E+04  0.16336445685E+04  0.25500000920E-02 0.  1.
    10030    2    1    2    0    0  0.00000000000E+00  0.00000000000E+00 -0.89702955709E+03  0.23702595800E+04  0.21939618160E+04 0.  0.
        5    1    3    3  502    0 -0.32529220044E+03  0.26287669984E+03  0.64708853588E+03  0.77049648815E+03  0.46999998093E+01 0. -1.
       -5    1    3    3    0  502  0.32529220044E+03 -0.26287669984E+03 -0.15441180930E+04  0.15997630918E+04  0.46999998093E+01 0.  1.
</event>
<event>
 5   0  0.4794967E-06  0.2205013E+04  0.7818609E-02  0.8516344E-01
        1   -1    0    0  501    0  0.00000000000E+00  0.00000000000E+00  0.14551023062E+04  0.14551023062E+04  0.50400001928E-02 0. -1.
       -1   -1    0    0    0  501  0.00000000000E+00  0.00000000000E+00 -0.83535071189E+03  0.83535071190E+03  0.50400001928E-02 0.  1.
    10030    2    1    2    0    0  0.00000000000E+00  0.00000000000E+00  0.61975159429E+03  0.22904530181E+04  0.22050131495E+04 0.  0.
        5    1    3    3  502    0 -0.15057640637E+03 -0.37389063002E+03  0.13758110455E+04  0.14336476486E+04  0.46999998093E+01 0. -1.
       -5    1    3    3    0  502  0.15057640637E+03  0.37389063002E+03 -0.75605945123E+03  0.85680536948E+03  0.46999998093E+01 0.  1.
</event>
<event>
 5   0  0.4630615E-06  0.2201163E+04  0.7818609E-02  0.8517944E-01
        1   -1    0    0  501    0  0.00000000000E+00  0.00000000000E+00  0.11440022259E+04  0.11440022259E+04  0.50400001928E-02 0. -1.
       -1   -1    0    0    0  501  0.00000000000E+00  0.00000000000E+00 -0.10588090318E+04  0.10588090318E+04  0.50400001928E-02 0.  1.
    10030    2    1    2    0    0  0.00000000000E+00  0.00000000000E+00  0.85193194063E+02  0.22028112578E+04  0.22011632282E+04 0.  0.
        2    1    3    3  502    0  0.82119855413E+03  0.62051965013E+03  0.43259106221E+03  0.11164885707E+04  0.25500000920E-02 0. -1.
       -2    1    3    3    0  502 -0.82119855413E+03 -0.62051965013E+03 -0.34739786814E+03  0.10863226870E+04  0.25500000920E-02 0.  1.
</event>
<event>
 5   0  0.1015876E-05  0.2201435E+04  0.7818609E-02  0.8517831E-01
        2   -1    0    0  501    0  0.00000000000E+00  0.00000000000E+00  0.13703806440E+04  0.13703806440E+04  0.25500000920E-02 0.  1.
       -2   -1    0    0    0  501  0.00000000000E+00  0.00000000000E+00 -0.88411886410E+03  0.88411886410E+03  0.25500000920E-02 0. -1.
    10030    2    1    2    0    0  0.00000000000E+00  0.00000000000E+00  0.48626177993E+03  0.22544995081E+04  0.22014353303E+04 0.  0.
        5    1    3    3  502    0 -0.51693395625E+03 -0.41749061391E+02  0.12374057388E+04  0.13416999484E+04  0.46999998093E+01 0.  1.
       -5    1    3    3    0  502  0.51693395625E+03  0.41749061391E+02 -0.75114395886E+03  0.91279955970E+03  0.46999998093E+01 0. -1.
</event>
<event>
 5   0  0.1014015E-05  0.2201046E+04  0.7818609E-02  0.8517993E-01
       -2   -1    0    0    0  501  0.00000000000E+00  0.00000000000E+00  0.78210961508E+03  0.78210961508E+03  0.25500000920E-02 0.  1.
        2   -1    0    0  501    0  0.00000000000E+00  0.00000000000E+00 -0.15485693853E+04  0.15485693853E+04  0.25500000920E-02 0. -1.
    10030    2    1    2    0    0  0.00000000000E+00  0.00000000000E+00 -0.76645977026E+03  0.23306790004E+04  0.22010461203E+04 0.  0.
        1    1    3    3  502    0 -0.22408781338E+03 -0.78942154123E+03  0.39327330164E+03  0.90998110292E+03  0.50400001928E-02 0.  1.
       -1    1    3    3    0  502  0.22408781338E+03  0.78942154123E+03 -0.11597330719E+04  0.14206978975E+04  0.50400001928E-02 0. -1.
</event>
<event>
 5   0  0.4630615E-06  0.2230934E+04  0.7818609E-02  0.8505662E-01
        1   -1    0    0  501    0  0.00000000000E+00  0.00000000000E+00  0.14509246470E+04  0.14509246470E+04  0.50400001928E-02 0.  1.
       -1   -1    0    0    0  501  0.00000000000E+00  0.00000000000E+00 -0.85756779026E+03  0.85756779027E+03  0.50400001928E-02 0. -1.
    10030    2    1    2    0    0  0.00000000000E+00  0.00000000000E+00  0.59335685671E+03  0.23084924372E+04  0.22309336551E+04 0.  0.
        2    1    3    3  502    0  0.72061804457E+03  0.63316343407E+03 -0.29239289027E+03  0.10028359301E+04  0.25500000920E-02 0.  1.
       -2    1    3    3    0  502 -0.72061804457E+03 -0.63316343407E+03  0.88574974698E+03  0.13056565072E+04  0.25500000920E-02 0. -1.
</event>
<event>
 5   0  0.4794967E-06  0.2196155E+04  0.7818609E-02  0.8520030E-01
        1   -1    0    0  501    0  0.00000000000E+00  0.00000000000E+00  0.21306784707E+04  0.21306784707E+04  0.50400001928E-02 0. -1.
       -1   -1    0    0    0  501  0.00000000000E+00  0.00000000000E+00 -0.56591101539E+03  0.56591101541E+03  0.50400001928E-02 0.  1.
    10030    2    1    2    0    0  0.00000000000E+00  0.00000000000E+00  0.15647674553E+04  0.26965894861E+04  0.21961552011E+04 0.  0.
        5    1    3    3  502    0  0.10039607953E+04  0.66473447018E+02  0.24240590659E+03  0.10349583137E+04  0.46999998093E+01 0.  1.
       -5    1    3    3    0  502 -0.10039607953E+04 -0.66473447018E+02  0.13223615487E+04  0.16616311724E+04  0.46999998093E+01 0. -1.
</event>
<event>
 5   0  0.4462201E-06  0.2199228E+04  0.7818609E-02  0.8518750E-01
        1   -1    0    0  501    0  0.00000000000E+00  0.00000000000E+00  0.14538442217E+04  0.14538442217E+04  0.50400001928E-02 0. -1.
       -1   -1    0    0    0  501  0.00000000000E+00  0.00000000000E+00 -0.83169197409E+03  0.83169197411E+03  0.50400001928E-02 0.  1.
    10030    2    1    2    0    0  0.00000000000E+00  0.00000000000E+00  0.62215224756E+03  0.22855361958E+04  0.21992276560E+04 0.  0.
        3    1    3    3  502    0  0.93501937987E+03  0.40850878727E+02 -0.28883068042E+03  0.97946577642E+03  0.10100000352E+00 0.  1.
       -3    1    3    3    0  502 -0.93501937987E+03 -0.40850878727E+02  0.91098292798E+03  0.13060704193E+04  0.10100000352E+00 0. -1.
</event>
<event>
 5   0  0.4462201E-06  0.2197608E+04  0.7818609E-02  0.8519424E-01
       -1   -1    0    0    0  501  0.00000000000E+00  0.00000000000E+00  0.68484431292E+03  0.68484431294E+03  0.50400001928E-02 0.  1.
        1   -1    0    0  501    0  0.00000000000E+00  0.00000000000E+00 -0.17629854921E+04  0.17629854921E+04  0.50400001928E-02 0. -1.
    10030    2    1    2    0    0  0.00000000000E+00  0.00000000000E+00 -0.10781411791E+04  0.24478298050E+04  0.21976083255E+04 0.  0.
        3    1    3    3  502    0 -0.10042947047E+04 -0.26802092287E+03 -0.14223665329E+03  0.10491302802E+04  0.10100000352E+00 0.  1.
       -3    1    3    3    0  502  0.10042947047E+04  0.26802092287E+03 -0.93590452584E+03  0.13986995248E+04  0.10100000352E+00 0. -1.
</event>
<event>
 5   0  0.4794967E-06  0.2191837E+04  0.7818609E-02  0.8521834E-01
        1   -1    0    0  501    0  0.00000000000E+00  0.00000000000E+00  0.70114641857E+03  0.70114641859E+03  0.50400001928E-02 0. -1.
       -1   -1    0    0    0  501  0.00000000000E+00  0.00000000000E+00 -0.17129619347E+04  0.17129619347E+04  0.50400001928E-02 0.  1.
    10030    2    1    2    0    0  0.00000000000E+00  0.00000000000E+00 -0.10118155162E+04  0.24141083533E+04  0.21918367875E+04 0.  0.
        5    1    3    3  502    0  0.14615844182E+03 -0.97494657721E+03  0.21311592094E+02  0.98608285275E+03  0.46999998093E+01 0. -1.
       -5    1    3    3    0  502 -0.14615844182E+03  0.97494657721E+03 -0.10331271083E+04  0.14280255006E+04  0.46999998093E+01 0.  1.
</event>
<event>
 5   0  0.4309945E-06  0.2194818E+04  0.7818609E-02  0.8520588E-01
        1   -1    0    0  501    0  0.00000000000E+00  0.00000000000E+00  0.20937001283E+04  0.20937001283E+04  0.50400001928E-02 0.  1.
       -1   -1    0    0    0  501  0.00000000000E+00  0.00000000000E+00 -0.57520505057E+03  0.57520505059E+03  0.50400001928E-02 0. -1.
    10030    2    1    2    0    0  0.00000000000E+00  0.00000000000E+00  0.15184950777E+04  0.26689051789E+04  0.21948183416E+04 0.  0.
        4    1    3    3  502    0 -0.75538786805E+03 -0.28135090304E+03 -0.14627545065E+03  0.81924799798E+03  0.12699999809E+01 0. -1.
       -4    1    3    3    0  502  0.75538786805E+03  0.28135090304E+03  0.16647705283E+04  0.18496571809E+04  0.12699999809E+01 0.  1.
</event>
<event>
 5   0  0.4794967E-06  0.2205971E+04  0.7818609E-02  0.8515947E-01
        1   -1    0    0  501    0  0.00000000000E+00  0.00000000000E+00  0.15480055555E+04  0.15480055555E+04  0.50400001928E-02 0. -1.
       -1   -1    0    0    0  501  0.00000000000E+00  0.00000000000E+00 -0.78589997446E+03  0.78589997448E+03  0.50400001928E-02 0.  1.
    10030    2    1    2    0    0  0.00000000000E+00  0.00000000000E+00  0.76210558100E+03  0.23339055299E+04  0.22059714654E+04 0.  0.
        5    1    3    3  502    0 -0.27708964894E+02 -0.10353951679E+04 -0.20071530606E+02  0.10359709922E+04  0.46999998093E+01 0.  1.
       -5    1    3    3    0  502  0.27708964894E+02  0.10353951679E+04  0.78217711161E+03  0.12979345377E+04  0.46999998093E+01 0. -1.
</event>
<event>
 5   0  0.9963173E-06  0.2204531E+04  0.7818609E-02  0.8516545E-01
        2   -1    0    0  501    0  0.00000000000E+00  0.00000000000E+00  0.22661736391E+04  0.22661736391E+04  0.25500000920E-02 0.  1.
       -2   -1    0    0    0  501  0.00000000000E+00  0.00000000000E+00 -0.53614111038E+03  0.53614111039E+03  0.25500000920E-02 0. -1.
    10030    2    1    2    0    0  0.00000000000E+00  0.00000000000E+00  0.17300325288E+04  0.28023147495E+04  0.22045306541E+04 0.  0.
        4    1    3    3  502    0 -0.28354693346E+03 -0.74122691653E+01  0.22189874429E+04  0.22370428449E+04  0.12699999809E+01 0.  1.
       -4    1    3    3    0  502  0.28354693346E+03  0.74122691653E+01 -0.48895491414E+03  0.56527190464E+03  0.12699999809E+01 0. -1.
</event>
<event>
 5   0  0.4462201E-06  0.2197839E+04  0.7818609E-02  0.8519328E-01
        1   -1    0    0  501    0  0.00000000000E+00  0.00000000000E+00  0.22956953163E+04  0.22956953163E+04  0.50400001928E-02 0. -1.
       -1   -1    0    0    0  501  0.00000000000E+00  0.00000000000E+00 -0.52603847542E+03  0.52603847545E+03  0.50400001928E-02 0.  1.
    10030    2    1    2    0    0  0.00000000000E+00  0.00000000000E+00  0.17696568409E+04  0.28217337918E+04  0.21978389971E+04 0.  0.
        3    1    3    3  502    0 -0.81566785327E+03  0.94643047543E+02  0.18224496098E+04  0.19988981824E+04  0.10100000352E+00 0. -1.
       -3    1    3    3    0  502  0.81566785327E+03 -0.94643047543E+02 -0.52792768921E+02  0.82283560931E+03  0.10100000352E+00 0.  1.
</event>
<event>
 5   0  0.1035928E-05  0.2198155E+04  0.7818609E-02  0.8519197E-01
        2   -1    0    0  501    0  0.00000000000E+00  0.00000000000E+00  0.18013643181E+04  0.18013643181E+04  0.25500000920E-02 0.  1.
       -2   -1    0    0    0  501  0.00000000000E+00  0.00000000000E+00 -0.67058673700E+03  0.67058673700E+03  0.25500000920E-02 0. -1.
    10030    2    1    2    0    0  0.00000000000E+00  0.00000000000E+00  0.11307775811E+04  0.24719510551E+04  0.21981546990E+04 0.  0.
        3    1    3    3  502    0  0.82159972517E+03  0.29255874018E+03 -0.18676632731E+03  0.89190716785E+03  0.10100000352E+00 0. -1.
       -3    1    3    3    0  502 -0.82159972517E+03 -0.29255874018E+03  0.13175439084E+04  0.15800438872E+04  0.10100000352E+00 0.  1.
</event>
<event>
 5   0  0.1035928E-05  0.2202092E+04  0.7818609E-02  0.8517558E-01
       -2   -1    0    0    0  501  0.00000000000E+00  0.00000000000E+00  0.13275778023E+04  0.13275778023E+04  0.25500000920E-02 0.  1.
        2   -1    0    0  501    0  0.00000000000E+00  0.00000000000E+00 -0.91316822287E+03  0.91316822287E+03  0.25500000920E-02 0. -1.
    10030    2    1    2    0    0  0.00000000000E+00  0.00000000000E+00  0.41440957947E+03  0.22407460252E+04  0.22020916080E+04 0.  0.
        3    1    3    3  502    0 -0.22724140867E+03  0.58091195982E+02  0.13018618734E+04  0.13228218295E+04  0.10100000352E+00 0.  1.
       -3    1    3    3    0  502  0.22724140867E+03 -0.58091195982E+02 -0.88745229396E+03  0.91792419573E+03  0.10100000352E+00 0. -1.
</event>
<event>
 5   0  0.3546750E-06  0.2208891E+04  0.7818609E-02  0.8514736E-01
        4   -1    0    0  501    0  0.00000000000E+00  0.00000000000E+00  0.80443758070E+03  0.80443858320E+03  0.12699999809E+01 0.  1.
       -4   -1    0    0    0  501  0.00000000000E+00  0.00000000000E+00 -0.15163370998E+04  0.15163376317E+04  0.12699999809E+01 0. -1.
    10030    2    1    2    0    0  0.00000000000E+00  0.00000000000E+00 -0.71189951913E+03  0.23207762149E+04  0.22088914220E+04 0.  0.
        5    1    3    3  502    0 -0.85842934738E+02 -0.95774741042E+03 -0.92672474639E+03  0.13354736827E+04  0.46999998093E+01 0. -1.
       -5    1    3    3    0  502  0.85842934738E+02  0.95774741042E+03  0.21482522726E+03  0.98530253216E+03  0.46999998093E+01 0.  1.
</event>
<event>
 5   0  0.1015876E-05  0.2214238E+04  0.7818609E-02  0.8512525E-01
       -2   -1    0    0    0  501  0.00000000000E+00  0.00000000000E+00  0.50969732704E+03  0.50969732705E+03  0.25500000920E-02 0. -1.
        2   -1    0    0  501    0  0.00000000000E+00  0.00000000000E+00 -0.24047847458E+04  0.24047847458E+04  0.25500000920E-02 0.  1.
    10030    2    1    2    0    0  0.00000000000E+00  0.00000000000E+00 -0.18950874187E+04  0.29144820728E+04  0.22142378888E+04 0.  0.
        5    1    3    3  502    0 -0.48173459681E+03 -0.23683759323E+03 -0.22220139445E+04  0.22859414531E+04  0.46999998093E+01 0.  1.
       -5    1    3    3    0  502  0.48173459681E+03  0.23683759323E+03  0.32692652583E+03  0.62854061970E+03  0.46999998093E+01 0. -1.
</event>
<event>
 5   0  0.4794967E-06  0.2204210E+04  0.7818609E-02  0.8516678E-01
       -1   -1    0    0    0  501  0.00000000000E+00  0.00000000000E+00  0.79361505549E+03  0.79361505551E+03  0.50400001928E-02 0. -1.
        1   -1    0    0  501    0  0.00000000000E+00  0.00000000000E+00 -0.15305090803E+04  0.15305090803E+04  0.50400001928E-02 0.  1.
    10030    2    1    2    0    0  0.00000000000E+00  0.00000000000E+00 -0.73689402484E+03  0.23241241359E+04  0.22042096531E+04 0.  0.
        5    1    3    3  502    0 -0.34416555546E+03 -0.94268770346E+03 -0.84875358558E+03  0.13143495634E+04  0.46999998093E+01 0. -1.
       -5    1    3    3    0  502  0.34416555546E+03  0.94268770346E+03  0.11185956074E+03  0.10097745724E+04  0.46999998093E+01 0.  1.
</event>
<event>
 5   0  0.4630615E-06  0.2200604E+04  0.7818609E-02  0.8518177E-01
        1   -1    0    0  501    0  0.00000000000E+00  0.00000000000E+00  0.19028142635E+04  0.19028142635E+04  0.50400001928E-02 0. -1.
       -1   -1    0    0    0  501  0.00000000000E+00  0.00000000000E+00 -0.63624948478E+03  0.63624948480E+03  0.50400001928E-02 0.  1.
    10030    2    1    2    0    0  0.00000000000E+00  0.00000000000E+00  0.12665647787E+04  0.25390637483E+04  0.22006040942E+04 0.  0.
        2    1    3    3  502    0  0.34798521442E+03  0.96354201167E+03  0.17009450853E+03  0.10384792052E+04  0.25500000920E-02 0.  1.
       -2    1    3    3    0  502 -0.34798521442E+03 -0.96354201167E+03  0.10964702702E+04  0.15005845431E+04  0.25500000920E-02 0. -1.
</event>
<event>
 5   0  0.1015876E-05  0.2200436E+04  0.7818609E-02  0.8518247E-01
        2   -1    0    0  501    0  0.00000000000E+00  0.00000000000E+00  0.17341342487E+04  0.17341342487E+04  0.25500000920E-02 0. -1.
       -2   -1    0    0    0  501  0.00000000000E+00  0.00000000000E+00 -0.69803103059E+03  0.69803103059E+03  0.25500000920E-02 0.  1.
    10030    2    1    2    0    0  0.00000000000E+00  0.00000000000E+00  0.10361032181E+04  0.24321652793E+04  0.22004358812E+04 0.  0.
        5    1    3    3  502    0  0.90235687475E+02  0.10954923423E+04  0.57003031214E+03  0.12382255844E+04  0.46999998093E+01 0.  1.
       -5    1    3    3    0  502 -0.90235687475E+02 -0.10954923423E+04  0.46607290596E+03  0.11939396948E+04  0.46999998093E+01 0. -1.
</event>
<event>
 5   0  0.1014015E-05  0.2201994E+04  0.7818609E-02  0.8517599E-01
        2   -1    0    0  501    0  0.00000000000E+00  0.00000000000E+00  0.19930759441E+04  0.19930759441E+04  0.25500000920E-02 0. -1.
       -2   -1    0    0    0  501  0.00000000000E+00  0.00000000000E+00 -0.60820260334E+03  0.60820260335E+03  0.25500000920E-02 0.  1.
    10030    2    1    2    0    0  0.00000000000E+00  0.00000000000E+00  0.13848733408E+04  0.26012785474E+04  0.22019936220E+04 0.  0.
        1    1    3    3  502    0  0.38337706585E+03 -0.61975764385E+03  0.16673847595E+04  0.18196838868E+04  0.50400001928E-02 0. -1.
       -1    1    3    3    0  502 -0.38337706585E+03  0.61975764385E+03 -0.28251141876E+03  0.78159466060E+03  0.50400001928E-02 0.  1.
</event>
<event>
 5   0  0.4630615E-06  0.2202422E+04  0.7818609E-02  0.8517421E-01
       -1   -1    0    0    0  501  0.00000000000E+00  0.00000000000E+00  0.20938426524E+04  0.20938426524E+04  0.50400001928E-02 0. -1.
        1   -1    0    0  501    0  0.00000000000E+00  0.00000000000E+00 -0.57915782672E+03  0.57915782675E+03  0.50400001928E-02 0.  1.
    10030    2    1    2    0    0  0.00000000000E+00  0.00000000000E+00  0.15146848256E+04  0.26730004791E+04  0.22024217217E+04 0.  0.
        2    1    3    3  502    0  0.94853591019E+02 -0.38848042099E+03 -0.48792152323E+03  0.63085787152E+03  0.25500000920E-02 0.  1.
       -2    1    3    3    0  502 -0.94853591019E+02  0.38848042099E+03  0.20026063489E+04  0.20421426076E+04  0.25500000920E-02 0. -1.
</event>
<event>
 5   0  0.1014015E-05  0.2201604E+04  0.7818609E-02  0.8517761E-01
       -2   -1    0    0    0  501  0.00000000000E+00  0.00000000000E+00  0.74963010634E+03  0.74963010634E+03  0.25500000920E-02 0.  1.
        2   -1    0    0  501    0  0.00000000000E+00  0.00000000000E+00 -0.16164835856E+04  0.16164835856E+04  0.25500000920E-02 0. -1.
    10030    2    1    2    0    0  0.00000000000E+00  0.00000000000E+00 -0.86685347930E+03  0.23661136920E+04  0.22016037447E+04 0.  0.
        1    1    3    3  502    0 -0.34101735441E+03  0.10254880179E+04 -0.20838520149E+03  0.11006102412E+04  0.50400001928E-02 0.  1.
       -1    1    3    3    0  502  0.34101735441E+03 -0.10254880179E+04 -0.65846827781E+03  0.12655034507E+04  0.50400001928E-02 0. -1.
</event>
<event>
 5   0  0.4309945E-06  0.2218173E+04  0.7818609E-02  0.8510902E-01
        1   -1    0    0  501    0  0.00000000000E+00  0.00000000000E+00  0.18422440325E+04  0.18422440325E+04  0.50400001928E-02 0. -1.
       -1   -1    0    0    0  501  0.00000000000E+00  0.00000000000E+00 -0.66770361185E+03  0.66770361187E+03  0.50400001928E-02 0.  1.
    10030    2    1    2    0    0  0.00000000000E+00  0.00000000000E+00  0.11745404207E+04  0.25099476444E+04  0.22181731172E+04 0.  0.
        4    1    3    3  502    0  0.57416270918E+02  0.10970540074E+04  0.41474399499E+03  0.11742394635E+04  0.12699999809E+01 0. -1.
       -4    1    3    3    0  502 -0.57416270918E+02 -0.10970540074E+04  0.75979642569E+03  0.13357081810E+04  0.12699999809E+01 0.  1.
</event>
<event>
 5   0  0.1035928E-05  0.2204163E+04  0.7818609E-02  0.8516697E-01
        2   -1    0    0  501    0  0.00000000000E+00  0.00000000000E+00  0.27043149990E+04  0.27043149990E+04  0.25500000920E-02 0. -1.
       -2   -1    0    0    0  501  0.00000000000E+00  0.00000000000E+00 -0.44912809177E+03  0.44912809177E+03  0.25500000920E-02 0.  1.
    10030    2    1    2    0    0  0.00000000000E+00  0.00000000000E+00  0.22551869073E+04  0.31534430908E+04  0.22041631837E+04 0.  0.
        3    1    3    3  502    0  0.20494766717E+03  0.34555811067E+02  0.26760224687E+04  0.26840815773E+04  0.10100000352E+00 0. -1.
       -3    1    3    3    0  502 -0.20494766717E+03 -0.34555811067E+02 -0.42083556146E+03  0.46936151349E+03  0.10100000352E+00 0.  1.
</event>
<event>
 5   0  0.4309945E-06  0.2199701E+04  0.7818609E-02  0.8518552E-01
        1   -1    0    0  501    0  0.00000000000E+00  0.00000000000E+00  0.86047218422E+03  0.86047218424E+03  0.50400001928E-02 0. -1.
       -1   -1    0    0    0  501  0.00000000000E+00  0.00000000000E+00 -0.14058227323E+04  0.14058227323E+04  0.50400001928E-02 0.  1.
    10030    2    1    2    0    0  0.00000000000E+00  0.00000000000E+00 -0.54535054805E+03  0.22662949165E+04  0.21997012134E+04 0.  0.
        4    1    3    3  502    0 -0.55592191997E+03 -0.91212675804E+03 -0.54260969127E+03  0.11981032067E+04  0.12699999809E+01 0.  1.
       -4    1    3    3    0  502  0.55592191997E+03  0.91212675804E+03 -0.27408567857E+01  0.10681917099E+04  0.12699999809E+01 0. -1.
</event>
<event>
 5   0  0.1035928E-05  0.2200865E+04  0.7818609E-02  0.8518068E-01
       -2   -1    0    0    0  501  0.00000000000E+00  0.00000000000E+00  0.10286270159E+04  0.10286270159E+04  0.25500000920E-02 0. -1.
        2   -1    0    0  501    0  0.00000000000E+00  0.00000000000E+00 -0.11772504571E+04  0.11772504571E+04  0.25500000920E-02 0.  1.
    10030    2    1    2    0    0  0.00000000000E+00  0.00000000000E+00 -0.14862344114E+03  0.22058774730E+04  0.22008649433E+04 0.  0.
        3    1    3    3  502    0  0.50612819827E+03  0.79819934771E+03  0.49058852344E+03  0.10648779561E+04  0.10100000352E+00 0. -1.
       -3    1    3    3    0  502 -0.50612819827E+03 -0.79819934771E+03 -0.63921196458E+03  0.11409995169E+04  0.10100000352E+00 0.  1.
</event>
<event>
 5   0  0.9963173E-06  0.2201673E+04  0.7818609E-02  0.8517732E-01
        2   -1    0    0  501    0  0.00000000000E+00  0.00000000000E+00  0.15583688155E+04  0.15583688155E+04  0.25500000920E-02 0. -1.
       -2   -1    0    0    0  501  0.00000000000E+00  0.00000000000E+00 -0.77763428727E+03  0.77763428728E+03  0.25500000920E-02 0.  1.
    10030    2    1    2    0    0  0.00000000000E+00  0.00000000000E+00  0.78073452823E+03  0.23360031028E+04  0.22016730213E+04 0.  0.
        4    1    3    3  502    0  0.81824600194E+02 -0.69111829096E+03 -0.51460858577E+03  0.86554223857E+03  0.12699999809E+01 0.  1.
       -4    1    3    3    0  502 -0.81824600194E+02  0.69111829096E+03  0.12953431140E+04  0.14704608642E+04  0.12699999809E+01 0. -1.
</event>
<event>
 5   0  0.9963573E-06  0.2207926E+04  0.7818609E-02  0.8515136E-01
        2   -1    0    0  501    0  0.00000000000E+00  0.00000000000E+00  0.17250662741E+04  0.17250662741E+04  0.25500000920E-02 0.  1.
       -2   -1    0    0    0  501  0.00000000000E+00  0.00000000000E+00 -0.70648552820E+03  0.70648552820E+03  0.25500000920E-02 0. -1.
    10030    2    1    2    0    0  0.00000000000E+00  0.00000000000E+00  0.10185807459E+04  0.24315518023E+04  0.22079260475E+04 0.  0.
        2    1    3    3  502    0  0.56719174261E+03  0.56908562936E+03  0.13430493317E+04  0.15650387963E+04  0.25500000920E-02 0.  1.
       -2    1    3    3    0  502 -0.56719174261E+03 -0.56908562936E+03 -0.32446858581E+03  0.86651300603E+03  0.25500000920E-02 0. -1.
</event>
<event>
 5   0  0.9963573E-06  0.2223465E+04  0.7818609E-02  0.8508725E-01
       -2   -1    0    0    0  501  0.00000000000E+00  0.00000000000E+00  0.58804629776E+03  0.58804629777E+03  0.25500000920E-02 0. -1.
        2   -1    0    0  501    0  0.00000000000E+00  0.00000000000E+00 -0.21017881906E+04  0.21017881906E+04  0.25500000920E-02 0.  1.
    10030    2    1    2    0    0  0.00000000000E+00  0.00000000000E+00 -0.15137418928E+04  0.26898344884E+04  0.22234646515E+04 0.  0.
        2    1    3    3  502    0 -0.42691634252E+03 -0.82329292855E+02  0.48092952245E+03  0.64832775781E+03  0.25500000920E-02 0. -1.
       -2    1    3    3    0  502  0.42691634252E+03  0.82329292855E+02 -0.19946714153E+04  0.20415067306E+04  0.25500000920E-02 0.  1.
</event>
<event>
 5   0  0.4309945E-06  0.2199212E+04  0.7818609E-02  0.8518756E-01
        1   -1    0    0  501    0  0.00000000000E+00  0.00000000000E+00  0.14912202330E+04  0.14912202330E+04  0.50400001928E-02 0.  1.
       -1   -1    0    0    0  501  0.00000000000E+00  0.00000000000E+00 -0.81083506558E+03  0.81083506560E+03  0.50400001928E-02 0. -1.
    10030    2    1    2    0    0  0.00000000000E+00  0.00000000000E+00  0.68038516737E+03  0.23020552986E+04  0.21992122730E+04 0.  0.
        4    1    3    3  502    0  0.37014416246E+03  0.63340982527E+03  0.11975918506E+04  0.14044367416E+04  0.12699999809E+01 0.  1.
       -4    1    3    3    0  502 -0.37014416246E+03 -0.63340982527E+03 -0.51720668319E+03  0.89761855695E+03  0.12699999809E+01 0. -1.
</event>
<event>
 5   0  0.9963573E-06  0.2200317E+04  0.7818609E-02  0.8518296E-01
       -2   -1    0    0    0  501  0.00000000000E+00  0.00000000000E+00  0.11911523958E+04  0.11911523958E+04  0.25500000920E-02 0. -1.
        2   -1    0    0  501    0  0.00000000000E+00  0.00000000000E+00 -0.10161153509E+04  0.10161153509E+04  0.25500000920E-02 0.  1.
    10030    2    1    2    0    0  0.00000000000E+00  0.00000000000E+00  0.17503704491E+03  0.22072677468E+04  0.22003165542E+04 0.  0.
        2    1    3    3  502    0  0.42091419247E+03  0.41279209849E+03  0.10193136379E+04  0.11775255269E+04  0.25500000920E-02 0. -1.
       -2    1    3    3    0  502 -0.42091419247E+03 -0.41279209849E+03 -0.84427659298E+03  0.10297422199E+04  0.25500000920E-02 0.  1.
</event>
<event>
 5   0  0.1015876E-05  0.2197401E+04  0.7818609E-02  0.8519511E-01
        2   -1    0    0  501    0  0.00000000000E+00  0.00000000000E+00  0.25454096877E+04  0.25454096877E+04  0.25500000920E-02 0. -1.
       -2   -1    0    0    0  501  0.00000000000E+00  0.00000000000E+00 -0.47424283569E+03  0.47424283570E+03  0.25500000920E-02 0.  1.
    10030    2    1    2    0    0  0.00000000000E+00  0.00000000000E+00  0.20711668521E+04  0.30196525234E+04  0.21974005628E+04 0.  0.
        5    1    3    3  502    0  0.62260464205E+03 -0.83351353334E+03  0.15209262785E+04  0.18427208647E+04  0.46999998093E+01 0. -1.
       -5    1    3    3    0  502 -0.62260464205E+03  0.83351353334E+03  0.55024057352E+03  0.11769316587E+04  0.46999998093E+01 0.  1.
</event>
<event>
 5   0  0.1015876E-05  0.2198827E+04  0.7818609E-02  0.8518917E-01
        2   -1    0    0  501    0  0.00000000000E+00  0.00000000000E+00  0.20595280399E+04  0.20595280399E+04  0.25500000920E-02 0. -1.
       -2   -1    0    0    0  501  0.00000000000E+00  0.00000000000E+00 -0.58688680492E+03  0.58688680493E+03  0.25500000920E-02 0.  1.
    10030    2    1    2    0    0  0.00000000000E+00  0.00000000000E+00  0.14726412349E+04  0.26464148448E+04  0.21988268063E+04 0.  0.
        5    1    3    3  502    0 -0.75643006901E+03 -0.52050099846E+03  0.14640302385E+04  0.17281534561E+04  0.46999998093E+01 0. -1.
       -5    1    3    3    0  502  0.75643006901E+03  0.52050099846E+03  0.86109964703E+01  0.91826138869E+03  0.46999998093E+01 0.  1.
</event>
<event>
 5   0  0.1035928E-05  0.2214281E+04  0.7818609E-02  0.8512507E-01
        2   -1    0    0  501    0  0.00000000000E+00  0.00000000000E+00  0.17194860453E+04  0.17194860453E+04  0.25500000920E-02 0. -1.
       -2   -1    0    0    0  501  0.00000000000E+00  0.00000000000E+00 -0.71286424593E+03  0.71286424593E+03  0.25500000920E-02 0.  1.
    10030    2    1    2    0    0  0.00000000000E+00  0.00000000000E+00  0.10066217994E+04  0.24323502912E+04  0.22142810328E+04 0.  0.
        3    1    3    3  502    0 -0.79518254786E+03  0.76827494995E+03  0.56543523937E+03  0.12418851409E+04  0.10100000352E+00 0.  1.
       -3    1    3    3    0  502  0.79518254786E+03 -0.76827494995E+03  0.44118656000E+03  0.11904651503E+04  0.10100000352E+00 0. -1.
</event>
<event>
 5   0  0.4794967E-06  0.2196007E+04  0.7818609E-02  0.8520092E-01
       -1   -1    0    0    0  501  0.00000000000E+00  0.00000000000E+00  0.78715879049E+03  0.78715879051E+03  0.50400001928E-02 0.  1.
        1   -1    0    0  501    0  0.00000000000E+00  0.00000000000E+00 -0.15315986909E+04  0.15315986909E+04  0.50400001928E-02 0. -1.
    10030    2    1    2    0    0  0.00000000000E+00  0.00000000000E+00 -0.74443990038E+03  0.23187574814E+04  0.21960067150E+04 0.  0.
        5    1    3    3  502    0 -0.39814148243E+03  0.19692020368E+03 -0.14324875438E+04  0.14997789370E+04  0.46999998093E+01 0. -1.
       -5    1    3    3    0  502  0.39814148243E+03 -0.19692020368E+03  0.68804764340E+03  0.81897854443E+03  0.46999998093E+01 0.  1.
</event>
<event>
 5   0  0.4408787E-06  0.2196596E+04  0.7818609E-02  0.8519846E-01
       -1   -1    0    0    0  501  0.00000000000E+00  0.00000000000E+00  0.51236053668E+03  0.51236053670E+03  0.50400001928E-02 0. -1.
        1   -1    0    0  501    0  0.00000000000E+00  0.00000000000E+00 -0.23543165203E+04  0.23543165203E+04  0.50400001928E-02 0.  1.
    10030    2    1    2    0    0  0.00000000000E+00  0.00000000000E+00 -0.18419559836E+04  0.28666770570E+04  0.21965963452E+04 0.  0.
        1    1    3    3  502    0 -0.61081998523E+03  0.15655681637E+03 -0.20945458718E+04  0.21874033693E+04  0.50400001928E-02 0.  1.
       -1    1    3    3    0  502  0.61081998523E+03 -0.15655681637E+03  0.25258988819E+03  0.67927368766E+03  0.50400001928E-02 0. -1.
</event>
<event>
 5   0  0.1035928E-05  0.2192573E+04  0.7818609E-02  0.8521526E-01
       -2   -1    0    0    0  501  0.00000000000E+00  0.00000000000E+00  0.66687116554E+03  0.66687116554E+03  0.25500000920E-02 0. -1.
        2   -1    0    0  501    0  0.00000000000E+00  0.00000000000E+00 -0.18022133393E+04  0.18022133393E+04  0.25500000920E-02 0.  1.
    10030    2    1    2    0    0  0.00000000000E+00  0.00000000000E+00 -0.11353421738E+04  0.24690845049E+04  0.21925730183E+04 0.  0.
        3    1    3    3  502    0  0.15484022186E+03 -0.53004991452E+03 -0.16341633278E+04  0.17249400565E+04  0.10100000352E+00 0.  1.
       -3    1    3    3    0  502 -0.15484022186E+03  0.53004991452E+03  0.49882115403E+03  0.74414444841E+03  0.10100000352E+00 0. -1.
</event>
<event>
 5   0  0.4630615E-06  0.2200077E+04  0.7818609E-02  0.8518396E-01
        1   -1    0    0  501    0  0.00000000000E+00  0.00000000000E+00  0.13548088550E+04  0.13548088550E+04  0.50400001928E-02 0.  1.
       -1   -1    0    0    0  501  0.00000000000E+00  0.00000000000E+00 -0.89317719502E+03  0.89317719503E+03  0.50400001928E-02 0. -1.
    10030    2    1    2    0    0  0.00000000000E+00  0.00000000000E+00  0.46163165996E+03  0.22479860500E+04  0.22000767013E+04 0.  0.
        2    1    3    3  502    0  0.72211914050E+03  0.82096247590E+03  0.35448424249E+03  0.11493887585E+04  0.25500000920E-02 0.  1.
       -2    1    3    3    0  502 -0.72211914050E+03 -0.82096247590E+03  0.10714741747E+03  0.10985972915E+04  0.25500000920E-02 0. -1.
</event>
<event>
 5   0  0.9963173E-06  0.2199094E+04  0.7818609E-02  0.8518805E-01
        2   -1    0    0  501    0  0.00000000000E+00  0.00000000000E+00  0.13376185512E+04  0.13376185512E+04  0.25500000920E-02 0. -1.
       -2   -1    0    0    0  501  0.00000000000E+00  0.00000000000E+00 -0.90384757626E+03  0.90384757626E+03  0.25500000920E-02 0.  1.
    10030    2    1    2    0    0  0.00000000000E+00  0.00000000000E+00  0.43377097490E+03  0.22414661274E+04  0.21990937092E+04 0.  0.
        4    1    3    3  502    0 -0.41425566352E+03 -0.35875457213E+03 -0.75473373295E+03  0.93270425020E+03  0.12699999809E+01 0.  1.
       -4    1    3    3    0  502  0.41425566352E+03  0.35875457213E+03  0.11885047079E+04  0.13087618772E+04  0.12699999809E+01 0. -1.
</event>
<event>
 5   0  0.4309945E-06  0.2200311E+04  0.7818609E-02  0.8518299E-01
       -1   -1    0    0    0  501  0.00000000000E+00  0.00000000000E+00  0.14810550566E+04  0.14810550566E+04  0.50400001928E-02 0. -1.
        1   -1    0    0  501    0  0.00000000000E+00  0.00000000000E+00 -0.81721641336E+03  0.81721641338E+03  0.50400001928E-02 0.  1.
    10030    2    1    2    0    0  0.00000000000E+00  0.00000000000E+00  0.66383864323E+03  0.22982714700E+04  0.22003113428E+04 0.  0.
        4    1    3    3  502    0 -0.97047707678E+03  0.48204897506E+03  0.13333964469E+03  0.10917774703E+04  0.12699999809E+01 0.  1.
       -4    1    3    3    0  502  0.97047707678E+03 -0.48204897506E+03  0.53049899853E+03  0.12064939997E+04  0.12699999809E+01 0. -1.
</event>
<event>
 5   0  0.9963173E-06  0.2200624E+04  0.7818609E-02  0.8518169E-01
        2   -1    0    0  501    0  0.00000000000E+00  0.00000000000E+00  0.17764892848E+04  0.17764892848E+04  0.25500000920E-02 0. -1.
       -2   -1    0    0    0  501  0.00000000000E+00  0.00000000000E+00 -0.68150491702E+03  0.68150491702E+03  0.25500000920E-02 0.  1.
    10030    2    1    2    0    0  0.00000000000E+00  0.00000000000E+00  0.10949843677E+04  0.24579942018E+04  0.22006237139E+04 0.  0.
        4    1    3    3  502    0 -0.31971496398E+03 -0.95847157706E+03  0.10341034887E+04  0.14457721330E+04  0.12699999809E+01 0. -1.
       -4    1    3    3    0  502  0.31971496398E+03  0.95847157706E+03  0.60880879013E+02  0.10122220688E+04  0.12699999809E+01 0.  1.
</event>
<event>
 5   0  0.1014015E-05  0.2200209E+04  0.7818609E-02  0.8518341E-01
       -2   -1    0    0    0  501  0.00000000000E+00  0.00000000000E+00  0.16801878781E+04  0.16801878781E+04  0.25500000920E-02 0. -1.
        2   -1    0    0  501    0  0.00000000000E+00  0.00000000000E+00 -0.72029456353E+03  0.72029456353E+03  0.25500000920E-02 0.  1.
    10030    2    1    2    0    0  0.00000000000E+00  0.00000000000E+00  0.95989331454E+03  0.24004824416E+04  0.22002092576E+04 0.  0.
        1    1    3    3  502    0 -0.92270954122E+03 -0.54371850519E+03  0.20565108486E+03  0.10905572333E+04  0.50400001928E-02 0.  1.
       -1    1    3    3    0  502  0.92270954122E+03  0.54371850519E+03  0.75424222967E+03  0.13099252083E+04  0.50400001928E-02 0. -1.
</event>
<event>
 5   0  0.9963573E-06  0.2217685E+04  0.7818609E-02  0.8511103E-01
       -2   -1    0    0    0  501  0.00000000000E+00  0.00000000000E+00  0.75231913349E+03  0.75231913350E+03  0.25500000920E-02 0.  1.
        2   -1    0    0  501    0  0.00000000000E+00  0.00000000000E+00 -0.16343215925E+04  0.16343215925E+04  0.25500000920E-02 0. -1.
    10030    2    1    2    0    0  0.00000000000E+00  0.00000000000E+00 -0.88200245900E+03  0.23866407260E+04  0.22176847425E+04 0.  0.
        2    1    3    3  502    0 -0.16597004302E+03 -0.10484994308E+04 -0.96228040890E+02  0.10659066317E+04  0.25500000920E-02 0.  1.
       -2    1    3    3    0  502  0.16597004302E+03  0.10484994308E+04 -0.78577441811E+03  0.13207340943E+04  0.25500000920E-02 0. -1.
</event>
<event>
 5   0  0.4462201E-06  0.2200159E+04  0.7818609E-02  0.8518362E-01
       -1   -1    0    0    0  501  0.00000000000E+00  0.00000000000E+00  0.16139418481E+04  0.16139418481E+04  0.50400001928E-02 0.  1.
        1   -1    0    0  501    0  0.00000000000E+00  0.00000000000E+00 -0.74982529943E+03  0.74982529945E+03  0.50400001928E-02 0. -1.
    10030    2    1    2    0    0  0.00000000000E+00  0.00000000000E+00  0.86411654870E+03  0.23637671476E+04  0.22001585666E+04 0.  0.
        3    1    3    3  502    0  0.65945228648E+03  0.11950921475E+02  0.13779573136E+04  0.15276735616E+04  0.10100000352E+00 0.  1.
       -3    1    3    3    0  502 -0.65945228648E+03 -0.11950921475E+02 -0.51384076486E+03  0.83609358597E+03  0.10100000352E+00 0. -1.
</event>
<event>
 5   0  0.4408787E-06  0.2201565E+04  0.7818609E-02  0.8517777E-01
       -1   -1    0    0    0  501  0.00000000000E+00  0.00000000000E+00  0.75669051438E+03  0.75669051439E+03  0.50400001928E-02 0.  1.
        1   -1    0    0  501    0  0.00000000000E+00  0.00000000000E+00 -0.16013446540E+04  0.16013446541E+04  0.50400001928E-02 0. -1.
    10030    2    1    2    0    0  0.00000000000E+00  0.00000000000E+00 -0.84465413967E+03  0.23580351684E+04  0.22015651796E+04 0.  0.
        1    1    3    3  502    0  0.28721200779E+03  0.10575546176E+04 -0.31096747860E+03  0.11391282980E+04  0.50400001928E-02 0. -1.
       -1    1    3    3    0  502 -0.28721200779E+03 -0.10575546176E+04 -0.53368666107E+03  0.12189068704E+04  0.50400001928E-02 0.  1.
</event>
<event>
 5   0  0.4630615E-06  0.2203033E+04  0.7818609E-02  0.8517167E-01
        1   -1    0    0  501    0  0.00000000000E+00  0.00000000000E+00  0.12217154826E+04  0.12217154826E+04  0.50400001928E-02 0.  1.
       -1   -1    0    0    0  501  0.00000000000E+00  0.00000000000E+00 -0.99314310081E+03  0.99314310082E+03  0.50400001928E-02 0. -1.
    10030    2    1    2    0    0  0.00000000000E+00  0.00000000000E+00  0.22857238182E+03  0.22148585835E+04  0.22030327304E+04 0.  0.
        2    1    3    3  502    0  0.82335563143E+03  0.95252655284E+02 -0.61510862288E+03  0.10321560842E+04  0.25500000920E-02 0. -1.
       -2    1    3    3    0  502 -0.82335563143E+03 -0.95252655284E+02  0.84368100470E+03  0.11827024993E+04  0.25500000920E-02 0.  1.
</event>
<event>
 5   0  0.9963573E-06  0.2204440E+04  0.7818609E-02  0.8516583E-01
        2   -1    0    0  501    0  0.00000000000E+00  0.00000000000E+00  0.77764707739E+03  0.77764707740E+03  0.25500000920E-02 0. -1.
       -2   -1    0    0    0  501  0.00000000000E+00  0.00000000000E+00 -0.15622620536E+04  0.15622620536E+04  0.25500000920E-02 0.  1.
    10030    2    1    2    0    0  0.00000000000E+00  0.00000000000E+00 -0.78461497623E+03  0.23399091310E+04  0.22044396296E+04 0.  0.
        2    1    3    3  502    0 -0.32945339002E+03  0.10426272378E+04 -0.24493198028E+03  0.11205368214E+04  0.25500000920E-02 0. -1.
       -2    1    3    3    0  502  0.32945339002E+03 -0.10426272378E+04 -0.53968299595E+03  0.12193723096E+04  0.25500000920E-02 0.  1.
</event>
<event>
 5   0  0.1015876E-05  0.2199479E+04  0.7818609E-02  0.8518645E-01
       -2   -1    0    0    0  501  0.00000000000E+00  0.00000000000E+00  0.11845238436E+04  0.11845238436E+04  0.25500000920E-02 0. -1.
        2   -1    0    0  501    0  0.00000000000E+00  0.00000000000E+00 -0.10210237415E+04  0.10210237415E+04  0.25500000920E-02 0.  1.
    10030    2    1    2    0    0  0.00000000000E+00  0.00000000000E+00  0.16350010212E+03  0.22055475852E+04  0.21994789990E+04 0.  0.
        5    1    3    3  502    0  0.68200732557E+02  0.91918424499E+03  0.68328338081E+03  0.11473662382E+04  0.46999998093E+01 0. -1.
       -5    1    3    3    0  502 -0.68200732557E+02 -0.91918424499E+03 -0.51978327869E+03  0.10581813469E+04  0.46999998093E+01 0.  1.
</event>
<event>
 5   0  0.4408787E-06  0.2196020E+04  0.7818609E-02  0.8520087E-01
       -1   -1    0    0    0  501  0.00000000000E+00  0.00000000000E+00  0.77792888502E+03  0.77792888503E+03  0.50400001928E-02 0.  1.
        1   -1    0    0  501    0  0.00000000000E+00  0.00000000000E+00 -0.15497889141E+04  0.15497889141E+04  0.50400001928E-02 0. -1.
    10030    2    1    2    0    0  0.00000000000E+00  0.00000000000E+00 -0.77186002906E+03  0.23277177991E+04  0.21960196374E+04 0.  0.
        1    1    3    3  502    0  0.29607251335E+03 -0.13334854116E+03  0.72587064527E+03  0.79519114701E+03  0.50400001928E-02 0.  1.
       -1    1    3    3    0  502 -0.29607251335E+03  0.13334854116E+03 -0.14977306743E+04  0.15325266521E+04  0.50400001928E-02 0. -1.
</event>
<event>
 5   0  0.1014015E-05  0.2201227E+04  0.7818609E-02  0.8517917E-01
        2   -1    0    0  501    0  0.00000000000E+00  0.00000000000E+00  0.10021885381E+04  0.10021885381E+04  0.25500000920E-02 0. -1.
       -2   -1    0    0    0  501  0.00000000000E+00  0.00000000000E+00 -0.12087053153E+04  0.12087053153E+04  0.25500000920E-02 0.  1.
    10030    2    1    2    0    0  0.00000000000E+00  0.00000000000E+00 -0.20651677723E+03  0.22108938534E+04  0.22012274875E+04 0.  0.
        1    1    3    3  502    0 -0.30429646694E+03  0.14547522142E+03 -0.11555189168E+04  0.12037372416E+04  0.50400001928E-02 0.  1.
       -1    1    3    3    0  502  0.30429646694E+03 -0.14547522142E+03  0.94900213953E+03  0.10071566118E+04  0.50400001928E-02 0. -1.
</event>
<event>
 5   0  0.4408787E-06  0.2201580E+04  0.7818609E-02  0.8517771E-01
        1   -1    0    0  501    0  0.00000000000E+00  0.00000000000E+00  0.12825981748E+04  0.12825981748E+04  0.50400001928E-02 0.  1.
       -1   -1    0    0    0  501  0.00000000000E+00  0.00000000000E+00 -0.94475277403E+03  0.94475277405E+03  0.50400001928E-02 0. -1.
    10030    2    1    2    0    0  0.00000000000E+00  0.00000000000E+00  0.33784540075E+03  0.22273509488E+04  0.22015795999E+04 0.  0.
        1    1    3    3  502    0  0.22611424525E+03 -0.98575806179E+03 -0.27078143814E+03  0.10469809910E+04  0.50400001928E-02 0. -1.
       -1    1    3    3    0  502 -0.22611424525E+03  0.98575806179E+03  0.60862683889E+03  0.11803699578E+04  0.50400001928E-02 0.  1.
</event>
<event>
 5   0  0.1015876E-05  0.2200804E+04  0.7818609E-02  0.8518094E-01
        2   -1    0    0  501    0  0.00000000000E+00  0.00000000000E+00  0.15442566748E+04  0.15442566748E+04  0.25500000920E-02 0.  1.
       -2   -1    0    0    0  501  0.00000000000E+00  0.00000000000E+00 -0.78412100340E+03  0.78412100340E+03  0.25500000920E-02 0. -1.
    10030    2    1    2    0    0  0.00000000000E+00  0.00000000000E+00  0.76013567141E+03  0.23283776782E+04  0.22008035745E+04 0.  0.
        5    1    3    3  502    0 -0.68903696695E+03  0.46140209455E+03  0.11453212077E+04  0.14140178901E+04  0.46999998093E+01 0.  1.
       -5    1    3    3    0  502  0.68903696695E+03 -0.46140209455E+03 -0.38518553632E+03  0.91435978809E+03  0.46999998093E+01 0. -1.
</event>
<event>
 5   0  0.9963173E-06  0.2201796E+04  0.7818609E-02  0.8517681E-01
       -2   -1    0    0    0  501  0.00000000000E+00  0.00000000000E+00  0.18350854813E+04  0.18350854813E+04  0.25500000920E-02 0. -1.
        2   -1    0    0  501    0  0.00000000000E+00  0.00000000000E+00 -0.66044654395E+03  0.66044654395E+03  0.25500000920E-02 0.  1.
    10030    2    1    2    0    0  0.00000000000E+00  0.00000000000E+00  0.11746389373E+04  0.24955320252E+04  0.22017955073E+04 0.  0.
        4    1    3    3  502    0  0.38809248620E+03 -0.39273219579E+03  0.16668091926E+04  0.17558783708E+04  0.12699999809E+01 0. -1.
       -4    1    3    3    0  502 -0.38809248620E+03  0.39273219579E+03 -0.49217025529E+03  0.73965365445E+03  0.12699999809E+01 0.  1.
</event>
<event>
 5   0  0.1015876E-05  0.2200584E+04  0.7818609E-02  0.8518185E-01
       -2   -1    0    0    0  501  0.00000000000E+00  0.00000000000E+00  0.45031431321E+03  0.45031431322E+03  0.25500000920E-02 0.  1.
        2   -1    0    0  501    0  0.00000000000E+00  0.00000000000E+00 -0.26884391241E+04  0.26884391241E+04  0.25500000920E-02 0. -1.
    10030    2    1    2    0    0  0.00000000000E+00  0.00000000000E+00 -0.22381248109E+04  0.31387534374E+04  0.22005841205E+04 0.  0.
        5    1    3    3  502    0 -0.39223396937E+03 -0.15963128838E+03 -0.25675334499E+04  0.26022259205E+04  0.46999998093E+01 0. -1.
       -5    1    3    3    0  502  0.39223396937E+03  0.15963128838E+03  0.32940863895E+03  0.53652751688E+03  0.46999998093E+01 0.  1.
</event>
<event>
 5   0  0.1015876E-05  0.2200297E+04  0.7818609E-02  0.8518305E-01
        2   -1    0    0  501    0  0.00000000000E+00  0.00000000000E+00  0.80316081366E+03  0.80316081366E+03  0.25500000920E-02 0. -1.
       -2   -1    0    0    0  501  0.00000000000E+00  0.00000000000E+00 -0.15069542106E+04  0.15069542106E+04  0.25500000920E-02 0.  1.
    10030    2    1    2    0    0  0.00000000000E+00  0.00000000000E+00 -0.70379339690E+03  0.23101150242E+04  0.22002968617E+04 0.  0.
        5    1    3    3  502    0 -0.29219174430E+02 -0.89844050684E+03 -0.10177878646E+04  0.13579261143E+04  0.46999998093E+01 0.  1.
       -5    1    3    3    0  502  0.29219174430E+02  0.89844050684E+03  0.31399446769E+03  0.95218890995E+03  0.46999998093E+01 0. -1.
</event>
<event>
 5   0  0.3546750E-06  0.2201535E+04  0.7818609E-02  0.8517790E-01
       -4   -1    0    0    0  501  0.00000000000E+00  0.00000000000E+00  0.10272375373E+04  0.10272383224E+04  0.12699999809E+01 0.  1.
        4   -1    0    0  501    0  0.00000000000E+00  0.00000000000E+00 -0.11795587657E+04  0.11795594494E+04  0.12699999809E+01 0. -1.
    10030    2    1    2    0    0  0.00000000000E+00  0.00000000000E+00 -0.15232122835E+03  0.22067977717E+04  0.22015346122E+04 0.  0.
        5    1    3    3  502    0  0.10360373063E+04  0.30859971027E+03 -0.28416450785E+03  0.11177560730E+04  0.46999998093E+01 0. -1.
       -5    1    3    3    0  502 -0.10360373063E+04 -0.30859971027E+03  0.13184327950E+03  0.10890416987E+04  0.46999998093E+01 0.  1.
</event>
<event>
 5   0  0.1014015E-05  0.2136184E+04  0.7818609E-02  0.8545470E-01
        2   -1    0    0  501    0  0.00000000000E+00  0.00000000000E+00  0.21050849189E+04  0.21050849189E+04  0.25500000920E-02 0.  1.
       -2   -1    0    0    0  501  0.00000000000E+00  0.00000000000E+00 -0.54193544502E+03  0.54193544502E+03  0.25500000920E-02 0. -1.
    10030    2    1    2    0    0  0.00000000000E+00  0.00000000000E+00  0.15631494739E+04  0.26470203640E+04  0.21361836366E+04 0.  0.
        1    1    3    3  502    0 -0.59165343673E+03  0.70966925673E+03  0.11758336264E+03  0.93140221727E+03  0.50400001928E-02 0. -1.
       -1    1    3    3    0  502  0.59165343673E+03 -0.70966925673E+03  0.14455661113E+04  0.17156181467E+04  0.50400001928E-02 0.  1.
</event>
<event>
 5   0  0.4630615E-06  0.2199262E+04  0.7818609E-02  0.8518736E-01
        1   -1    0    0  501    0  0.00000000000E+00  0.00000000000E+00  0.14009340574E+04  0.14009340574E+04  0.50400001928E-02 0. -1.
       -1   -1    0    0    0  501  0.00000000000E+00  0.00000000000E+00 -0.86312978756E+03  0.86312978758E+03  0.50400001928E-02 0.  1.
    10030    2    1    2    0    0  0.00000000000E+00  0.00000000000E+00  0.53780426984E+03  0.22640638450E+04  0.21992616173E+04 0.  0.
        2    1    3    3  502    0 -0.57324787804E+03  0.86745743837E+02  0.12308052330E+04  0.13605217659E+04  0.25500000920E-02 0. -1.
       -2    1    3    3    0  502  0.57324787804E+03 -0.86745743837E+02 -0.69300096319E+03  0.90354207912E+03  0.25500000920E-02 0.  1.
</event>
<event>
 5   0  0.9963173E-06  0.2192808E+04  0.7818609E-02  0.8521427E-01
        2   -1    0    0  501    0  0.00000000000E+00  0.00000000000E+00  0.20804730131E+04  0.20804730131E+04  0.25500000920E-02 0. -1.
       -2   -1    0    0    0  501  0.00000000000E+00  0.00000000000E+00 -0.57780227286E+03  0.57780227286E+03  0.25500000920E-02 0.  1.
    10030    2    1    2    0    0  0.00000000000E+00  0.00000000000E+00  0.15026707403E+04  0.26582752860E+04  0.21928082776E+04 0.  0.
        4    1    3    3  502    0 -0.39463555579E+03  0.90232337144E+03  0.16720779925E+03  0.99894181491E+03  0.12699999809E+01 0.  1.
       -4    1    3    3    0  502  0.39463555579E+03 -0.90232337144E+03  0.13354629410E+04  0.16593334711E+04  0.12699999809E+01 0. -1.
</event>
<event>
 5   0  0.4462201E-06  0.2197025E+04  0.7818609E-02  0.8519667E-01
        1   -1    0    0  501    0  0.00000000000E+00  0.00000000000E+00  0.12726653922E+04  0.12726653922E+04  0.50400001928E-02 0.  1.
       -1   -1    0    0    0  501  0.00000000000E+00  0.00000000000E+00 -0.94819076222E+03  0.94819076223E+03  0.50400001928E-02 0. -1.
    10030    2    1    2    0    0  0.00000000000E+00  0.00000000000E+00  0.32447463002E+03  0.22208561545E+04  0.21970248686E+04 0.  0.
        3    1    3    3  502    0  0.55729481335E+03  0.85491172773E+03 -0.24871645083E+03  0.10503863357E+04  0.10100000352E+00 0. -1.
       -3    1    3    3    0  502 -0.55729481335E+03 -0.85491172773E+03  0.57319108085E+03  0.11704698187E+04  0.10100000352E+00 0.  1.
</event>
<event>
 5   0  0.1035928E-05  0.2200646E+04  0.7818609E-02  0.8518159E-01
       -2   -1    0    0    0  501  0.00000000000E+00  0.00000000000E+00  0.10612068965E+04  0.10612068965E+04  0.25500000920E-02 0. -1.
        2   -1    0    0  501    0  0.00000000000E+00  0.00000000000E+00 -0.11408813534E+04  0.11408813534E+04  0.25500000920E-02 0.  1.
    10030    2    1    2    0    0  0.00000000000E+00  0.00000000000E+00 -0.79674456889E+02  0.22020882499E+04  0.22006464144E+04 0.  0.
        3    1    3    3  502    0 -0.21957914519E+03  0.51097669886E+03 -0.98987960619E+03  0.11354179111E+04  0.10100000352E+00 0.  1.
       -3    1    3    3    0  502  0.21957914519E+03 -0.51097669886E+03  0.91020514930E+03  0.10666703389E+04  0.10100000352E+00 0. -1.
</event>
<event>
 5   0  0.4309945E-06  0.2198597E+04  0.7818609E-02  0.8519012E-01
        1   -1    0    0  501    0  0.00000000000E+00  0.00000000000E+00  0.59844746409E+03  0.59844746412E+03  0.50400001928E-02 0.  1.
       -1   -1    0    0    0  501  0.00000000000E+00  0.00000000000E+00 -0.20193209509E+04  0.20193209509E+04  0.50400001928E-02 0. -1.
    10030    2    1    2    0    0  0.00000000000E+00  0.00000000000E+00 -0.14208734868E+04  0.26177684150E+04  0.21985972822E+04 0.  0.
        4    1    3    3  502    0  0.44701658055E+03  0.10041929066E+04 -0.69243177404E+03  0.12991114624E+04  0.12699999809E+01 0. -1.
       -4    1    3    3    0  502 -0.44701658055E+03 -0.10041929066E+04 -0.72844171277E+03  0.13186569527E+04  0.12699999809E+01 0.  1.
</event>
<event>
 5   0  0.1014015E-05  0.2199038E+04  0.7818609E-02  0.8518829E-01
        2   -1    0    0  501    0  0.00000000000E+00  0.00000000000E+00  0.19461558449E+04  0.19461558449E+04  0.25500000920E-02 0.  1.
       -2   -1    0    0    0  501  0.00000000000E+00  0.00000000000E+00 -0.62119464523E+03  0.62119464523E+03  0.25500000920E-02 0. -1.
    10030    2    1    2    0    0  0.00000000000E+00  0.00000000000E+00  0.13249611997E+04  0.25673504901E+04  0.21990375983E+04 0.  0.
        1    1    3    3  502    0 -0.10381078290E+04  0.26982310873E+03  0.38017718068E+03  0.11379837712E+04  0.50400001928E-02 0. -1.
       -1    1    3    3    0  502  0.10381078290E+04 -0.26982310873E+03  0.94478401898E+03  0.14293667190E+04  0.50400001928E-02 0.  1.
</event>
<event>
 5   0  0.4794967E-06  0.2232166E+04  0.7818609E-02  0.8505158E-01
        1   -1    0    0  501    0  0.00000000000E+00  0.00000000000E+00  0.98245826891E+03  0.98245826893E+03  0.50400001928E-02 0.  1.
       -1   -1    0    0    0  501  0.00000000000E+00  0.00000000000E+00 -0.12678818518E+04  0.12678818518E+04  0.50400001928E-02 0. -1.
    10030    2    1    2    0    0  0.00000000000E+00  0.00000000000E+00 -0.28542358292E+03  0.22503401208E+04  0.22321657728E+04 0.  0.
        5    1    3    3  502    0  0.10012717336E+04 -0.47574924013E+03 -0.27313472992E+03  0.11417123519E+04  0.46999998093E+01 0.  1.
       -5    1    3    3    0  502 -0.10012717336E+04  0.47574924013E+03 -0.12288852994E+02  0.11086277688E+04  0.46999998093E+01 0. -1.
</event>
<event>
 5   0  0.4309945E-06  0.2203762E+04  0.7818609E-02  0.8516864E-01
        1   -1    0    0  501    0  0.00000000000E+00  0.00000000000E+00  0.99397796804E+03  0.99397796805E+03  0.50400001928E-02 0.  1.
       -1   -1    0    0    0  501  0.00000000000E+00  0.00000000000E+00 -0.12214972511E+04  0.12214972511E+04  0.50400001928E-02 0. -1.
    10030    2    1    2    0    0  0.00000000000E+00  0.00000000000E+00 -0.22751928306E+03  0.22154752192E+04  0.22037616528E+04 0.  0.
        4    1    3    3  502    0  0.78276389584E+03  0.61189434907E+03  0.36522400542E+03  0.10585481558E+04  0.12699999809E+01 0.  1.
       -4    1    3    3    0  502 -0.78276389584E+03 -0.61189434907E+03 -0.59274328848E+03  0.11569270634E+04  0.12699999809E+01 0. -1.
</event>
<event>
 5   0  0.1035928E-05  0.2214535E+04  0.7818609E-02  0.8512403E-01
       -2   -1    0    0    0  501  0.00000000000E+00  0.00000000000E+00  0.15879960339E+04  0.15879960339E+04  0.25500000920E-02 0.  1.
        2   -1    0    0  501    0  0.00000000000E+00  0.00000000000E+00 -0.77206796414E+03  0.77206796415E+03  0.25500000920E-02 0. -1.
    10030    2    1    2    0    0  0.00000000000E+00  0.00000000000E+00  0.81592806972E+03  0.23600639980E+04  0.22145345921E+04 0.  0.
        3    1    3    3  502    0  0.10254749459E+04 -0.19626366098E+03  0.80086861639E+03  0.13158680937E+04  0.10100000352E+00 0. -1.
       -3    1    3    3    0  502 -0.10254749459E+04  0.19626366098E+03  0.15059453336E+02  0.10441959043E+04  0.10100000352E+00 0.  1.
</event>
<event>
 5   0  0.4794967E-06  0.2200190E+04  0.7818609E-02  0.8518349E-01
       -1   -1    0    0    0  501  0.00000000000E+00  0.00000000000E+00  0.69528093724E+03  0.69528093726E+03  0.50400001928E-02 0.  1.
        1   -1    0    0  501    0  0.00000000000E+00  0.00000000000E+00 -0.17406050622E+04  0.17406050622E+04  0.50400001928E-02 0. -1.
    10030    2    1    2    0    0  0.00000000000E+00  0.00000000000E+00 -0.10453241250E+04  0.24358859995E+04  0.22001904636E+04 0.  0.
        5    1    3    3  502    0 -0.30182484401E+03  0.61704414279E+03 -0.14739819190E+04  0.16261877193E+04  0.46999998093E+01 0. -1.
       -5    1    3    3    0  502  0.30182484401E+03 -0.61704414279E+03  0.42865779406E+03  0.80969828023E+03  0.46999998093E+01 0.  1.
</event>
<event>
 5   0  0.4462201E-06  0.2198505E+04  0.7818609E-02  0.8519051E-01
        1   -1    0    0  501    0  0.00000000000E+00  0.00000000000E+00  0.14438818744E+04  0.14438818744E+04  0.50400001928E-02 0.  1.
       -1   -1    0    0    0  501  0.00000000000E+00  0.00000000000E+00 -0.83687994726E+03  0.83687994727E+03  0.50400001928E-02 0. -1.
    10030    2    1    2    0    0  0.00000000000E+00  0.00000000000E+00  0.60700192711E+03  0.22807618217E+04  0.21985047527E+04 0.  0.
        3    1    3    3  502    0 -0.34359097305E+03  0.86137192222E+02 -0.77604956323E+03  0.85306934504E+03  0.10100000352E+00 0. -1.
       -3    1    3    3    0  502  0.34359097305E+03 -0.86137192222E+02  0.13830514903E+04  0.14276924766E+04  0.10100000352E+00 0.  1.
</event>
<event>
 5   0  0.4630615E-06  0.2200519E+04  0.7818609E-02  0.8518212E-01
       -1   -1    0    0    0  501  0.00000000000E+00  0.00000000000E+00  0.62163889622E+03  0.62163889624E+03  0.50400001928E-02 0.  1.
        1   -1    0    0  501    0  0.00000000000E+00  0.00000000000E+00 -0.19473859367E+04  0.19473859367E+04  0.50400001928E-02 0. -1.
    10030    2    1    2    0    0  0.00000000000E+00  0.00000000000E+00 -0.13257470404E+04  0.25690248329E+04  0.22005188881E+04 0.  0.
        2    1    3    3  502    0  0.59482666668E+03 -0.21787209640E+03 -0.17131258008E+04  0.18264958316E+04  0.25500000920E-02 0. -1.
       -2    1    3    3    0  502 -0.59482666668E+03  0.21787209640E+03  0.38737876030E+03  0.74252900127E+03  0.25500000920E-02 0.  1.
</event>
<event>
 5   0  0.9963573E-06  0.2223404E+04  0.7818609E-02  0.8508749E-01
        2   -1    0    0  501    0  0.00000000000E+00  0.00000000000E+00  0.11449425100E+04  0.11449425100E+04  0.25500000920E-02 0. -1.
       -2   -1    0    0    0  501  0.00000000000E+00  0.00000000000E+00 -0.10794269365E+04  0.10794269365E+04  0.25500000920E-02 0.  1.
    10030    2    1    2    0    0  0.00000000000E+00  0.00000000000E+00  0.65515573486E+02  0.22243694465E+04  0.22234044041E+04 0.  0.
        2    1    3    3  502    0 -0.29816149935E+03 -0.10106667165E+04 -0.32170418806E+03  0.11017445603E+04  0.25500000920E-02 0.  1.
       -2    1    3    3    0  502  0.29816149935E+03  0.10106667165E+04  0.38721976155E+03  0.11226248862E+04  0.25500000920E-02 0. -1.
</event>
<event>
 5   0  0.4630615E-06  0.2198190E+04  0.7818609E-02  0.8519182E-01
        1   -1    0    0  501    0  0.00000000000E+00  0.00000000000E+00  0.12872890973E+04  0.12872890973E+04  0.50400001928E-02 0. -1.
       -1   -1    0    0    0  501  0.00000000000E+00  0.00000000000E+00 -0.93841380597E+03  0.93841380599E+03  0.50400001928E-02 0.  1.
    10030    2    1    2    0    0  0.00000000000E+00  0.00000000000E+00  0.34887529132E+03  0.22257029033E+04  0.21981900384E+04 0.  0.
        2    1    3    3  502    0  0.36131076887E+03 -0.30950289013E+03  0.11776323625E+04  0.12701005834E+04  0.25500000920E-02 0. -1.
       -2    1    3    3    0  502 -0.36131076887E+03  0.30950289013E+03 -0.82875707120E+03  0.95560231989E+03  0.25500000920E-02 0.  1.
</event>
<event>
 5   0  0.4630615E-06  0.2175136E+04  0.7818609E-02  0.8528849E-01
        1   -1    0    0  501    0  0.00000000000E+00  0.00000000000E+00  0.18503508560E+04  0.18503508560E+04  0.50400001928E-02 0.  1.
       -1   -1    0    0    0  501  0.00000000000E+00  0.00000000000E+00 -0.63923220901E+03  0.63923220903E+03  0.50400001928E-02 0. -1.
    10030    2    1    2    0    0  0.00000000000E+00  0.00000000000E+00  0.12111186470E+04  0.24895830650E+04  0.21751357338E+04 0.  0.
        2    1    3    3  502    0  0.70310354458E+03 -0.28555199851E+03 -0.28610658791E+03  0.81101881477E+03  0.25500000920E-02 0. -1.
       -2    1    3    3    0  502 -0.70310354458E+03  0.28555199851E+03  0.14972252349E+04  0.16785642503E+04  0.25500000920E-02 0.  1.
</event>
<event>
 5   0  0.4462201E-06  0.2191717E+04  0.7818609E-02  0.8521884E-01
        1   -1    0    0  501    0  0.00000000000E+00  0.00000000000E+00  0.15950399229E+04  0.15950399229E+04  0.50400001928E-02 0. -1.
       -1   -1    0    0    0  501  0.00000000000E+00  0.00000000000E+00 -0.75290021840E+03  0.75290021841E+03  0.50400001928E-02 0.  1.
    10030    2    1    2    0    0  0.00000000000E+00  0.00000000000E+00  0.84213970454E+03  0.23479401414E+04  0.21917170496E+04 0.  0.
        3    1    3    3  502    0  0.42806490364E+03 -0.92777374909E+02  0.14971899659E+04  0.15599439116E+04  0.10100000352E+00 0. -1.
       -3    1    3    3    0  502 -0.42806490364E+03  0.92777374909E+02 -0.65505026137E+03  0.78799622978E+03  0.10100000352E+00 0.  1.
</event>
<event>
 5   0  0.1014015E-05  0.2201894E+04  0.7818609E-02  0.8517640E-01
        2   -1    0    0  501    0  0.00000000000E+00  0.00000000000E+00  0.10144264652E+04  0.10144264652E+04  0.25500000920E-02 0. -1.
       -2   -1    0    0    0  501  0.00000000000E+00  0.00000000000E+00 -0.11948472323E+04  0.11948472323E+04  0.25500000920E-02 0.  1.
    10030    2    1    2    0    0  0.00000000000E+00  0.00000000000E+00 -0.18042076704E+03  0.22092736975E+04  0.22018943247E+04 0.  0.
        1    1    3    3  502    0 -0.51819003777E+02  0.56332097293E+03 -0.10378697424E+04  0.11820276350E+04  0.50400001928E-02 0.  1.
       -1    1    3    3    0  502  0.51819003777E+02 -0.56332097293E+03  0.85744897533E+03  0.10272460625E+04  0.50400001928E-02 0. -1.
</event>
<event>
 5   0  0.9963173E-06  0.2201977E+04  0.7818609E-02  0.8517606E-01
        2   -1    0    0  501    0  0.00000000000E+00  0.00000000000E+00  0.14524633692E+04  0.14524633692E+04  0.25500000920E-02 0.  1.
       -2   -1    0    0    0  501  0.00000000000E+00  0.00000000000E+00 -0.83456555256E+03  0.83456555257E+03  0.25500000920E-02 0. -1.
    10030    2    1    2    0    0  0.00000000000E+00  0.00000000000E+00  0.61789781668E+03  0.22870289218E+04  0.22019771973E+04 0.  0.
        4    1    3    3  502    0  0.68464936058E+02 -0.80452885426E+03  0.10863375748E+04  0.13535453683E+04  0.12699999809E+01 0.  1.
       -4    1    3    3    0  502 -0.68464936058E+02  0.80452885426E+03 -0.46843975809E+03  0.93348355351E+03  0.12699999809E+01 0. -1.
</event>
<event>
 5   0  0.4408787E-06  0.2201171E+04  0.7818609E-02  0.8517941E-01
        1   -1    0    0  501    0  0.00000000000E+00  0.00000000000E+00  0.16656160800E+04  0.16656160801E+04  0.50400001928E-02 0.  1.
       -1   -1    0    0    0  501  0.00000000000E+00  0.00000000000E+00 -0.72723132492E+03  0.72723132494E+03  0.50400001928E-02 0. -1.
    10030    2    1    2    0    0  0.00000000000E+00  0.00000000000E+00  0.93838475513E+03  0.23928474050E+04  0.22011707691E+04 0.  0.
        1    1    3    3  502    0 -0.99035177043E+03 -0.33607257058E+03  0.84189860397E+03  0.13425850667E+04  0.50400001928E-02 0.  1.
       -1    1    3    3    0  502  0.99035177043E+03  0.33607257058E+03  0.96486151155E+02  0.10502623383E+04  0.50400001928E-02 0. -1.
</event>
<event>
 5   0  0.1014015E-05  0.2199225E+04  0.7818609E-02  0.8518751E-01
       -2   -1    0    0    0  501  0.00000000000E+00  0.00000000000E+00  0.10760979900E+04  0.10760979900E+04  0.25500000920E-02 0.  1.
        2   -1    0    0  501    0  0.00000000000E+00  0.00000000000E+00 -0.11236406931E+04  0.11236406931E+04  0.25500000920E-02 0. -1.
    10030    2    1    2    0    0  0.00000000000E+00  0.00000000000E+00 -0.47542703120E+02  0.21997386831E+04  0.21992248555E+04 0.  0.
        1    1    3    3  502    0 -0.85561944506E+03 -0.62404259476E+03  0.27232770403E+03  0.10934697862E+04  0.50400001928E-02 0.  1.
       -1    1    3    3    0  502  0.85561944506E+03  0.62404259476E+03 -0.31987040715E+03  0.11062688969E+04  0.50400001928E-02 0. -1.
</event>
<event>
 5   0  0.9963173E-06  0.2231393E+04  0.7818609E-02  0.8505474E-01
       -2   -1    0    0    0  501  0.00000000000E+00  0.00000000000E+00  0.14869989800E+04  0.14869989800E+04  0.25500000920E-02 0.  1.
        2   -1    0    0  501    0  0.00000000000E+00  0.00000000000E+00 -0.83710831724E+03  0.83710831725E+03  0.25500000920E-02 0. -1.
    10030    2    1    2    0    0  0.00000000000E+00  0.00000000000E+00  0.64989066273E+03  0.23241072972E+04  0.22313934784E+04 0.  0.
        4    1    3    3  502    0 -0.94374872308E+03  0.21466778036E+03 -0.25312293094E+03  0.10004082863E+04  0.12699999809E+01 0. -1.
       -4    1    3    3    0  502  0.94374872308E+03 -0.21466778036E+03  0.90301359367E+03  0.13236990109E+04  0.12699999809E+01 0.  1.
</event>
<event>
 5   0  0.1015876E-05  0.2200250E+04  0.7818609E-02  0.8518324E-01
        2   -1    0    0  501    0  0.00000000000E+00  0.00000000000E+00  0.14363590113E+04  0.14363590113E+04  0.25500000920E-02 0. -1.
       -2   -1    0    0    0  501  0.00000000000E+00  0.00000000000E+00 -0.84259888001E+03  0.84259888001E+03  0.25500000920E-02 0.  1.
    10030    2    1    2    0    0  0.00000000000E+00  0.00000000000E+00  0.59376013130E+03  0.22789578913E+04  0.22002495260E+04 0.  0.
        5    1    3    3  502    0  0.47649163393E+03 -0.44091378322E+03  0.12167971537E+04  0.13791543223E+04  0.46999998093E+01 0. -1.
       -5    1    3    3    0  502 -0.47649163393E+03  0.44091378322E+03 -0.62303702244E+03  0.89980356899E+03  0.46999998093E+01 0.  1.
</event>
<event>
 5   0  0.1014015E-05  0.2171108E+04  0.7818609E-02  0.8530551E-01
        2   -1    0    0  501    0  0.00000000000E+00  0.00000000000E+00  0.95362995036E+03  0.95362995036E+03  0.25500000920E-02 0.  1.
       -2   -1    0    0    0  501  0.00000000000E+00  0.00000000000E+00 -0.12357277083E+04  0.12357277083E+04  0.25500000920E-02 0. -1.
    10030    2    1    2    0    0  0.00000000000E+00  0.00000000000E+00 -0.28209775797E+03  0.21893576587E+04  0.21711075083E+04 0.  0.
        1    1    3    3  502    0 -0.45738472245E+03  0.90998716281E+03  0.23780793895E+03  0.10458632973E+04  0.50400001928E-02 0.  1.
       -1    1    3    3    0  502  0.45738472245E+03 -0.90998716281E+03 -0.51990569692E+03  0.11434943614E+04  0.50400001928E-02 0. -1.
</event>
<event>
 5   0  0.1015876E-05  0.2202327E+04  0.7818609E-02  0.8517460E-01
       -2   -1    0    0    0  501  0.00000000000E+00  0.00000000000E+00  0.57820835445E+03  0.57820835446E+03  0.25500000920E-02 0. -1.
        2   -1    0    0  501    0  0.00000000000E+00  0.00000000000E+00 -0.20971012324E+04  0.20971012324E+04  0.25500000920E-02 0.  1.
    10030    2    1    2    0    0  0.00000000000E+00  0.00000000000E+00 -0.15188928779E+04  0.26753095868E+04  0.22023273623E+04 0.  0.
        5    1    3    3  502    0  0.64344065368E+03 -0.87443606025E+03 -0.98305906873E+03  0.14646096821E+04  0.46999998093E+01 0. -1.
       -5    1    3    3    0  502 -0.64344065368E+03  0.87443606025E+03 -0.53583380919E+03  0.12106999047E+04  0.46999998093E+01 0.  1.
</event>
<event>
 5   0  0.1014015E-05  0.2198560E+04  0.7818609E-02  0.8519028E-01
       -2   -1    0    0    0  501  0.00000000000E+00  0.00000000000E+00  0.62664618595E+03  0.62664618596E+03  0.25500000920E-02 0. -1.
        2   -1    0    0  501    0  0.00000000000E+00  0.00000000000E+00 -0.19283864496E+04  0.19283864496E+04  0.25500000920E-02 0.  1.
    10030    2    1    2    0    0  0.00000000000E+00  0.00000000000E+00 -0.13017402637E+04  0.25550326356E+04  0.21985595409E+04 0.  0.
        1    1    3    3  502    0  0.90838196978E+03  0.59925416393E+03 -0.83147967044E+03  0.13695334236E+04  0.50400001928E-02 0.  1.
       -1    1    3    3    0  502 -0.90838196978E+03 -0.59925416393E+03 -0.47026059322E+03  0.11854992120E+04  0.50400001928E-02 0. -1.
</event>
<event>
 5   0  0.4309945E-06  0.2200548E+04  0.7818609E-02  0.8518200E-01
        1   -1    0    0  501    0  0.00000000000E+00  0.00000000000E+00  0.12546807680E+04  0.12546807680E+04  0.50400001928E-02 0. -1.
       -1   -1    0    0    0  501  0.00000000000E+00  0.00000000000E+00 -0.96486927982E+03  0.96486927984E+03  0.50400001928E-02 0.  1.
    10030    2    1    2    0    0  0.00000000000E+00  0.00000000000E+00  0.28981148818E+03  0.22195500479E+04  0.22005480491E+04 0.  0.
        4    1    3    3  502    0 -0.31233380651E+03  0.10433657774E+04  0.30257823715E+03  0.11303626651E+04  0.12699999809E+01 0. -1.
       -4    1    3    3    0  502  0.31233380651E+03 -0.10433657774E+04 -0.12766748971E+02  0.10891873828E+04  0.12699999809E+01 0.  1.
</event>
<event>
 5   0  0.4462201E-06  0.2199820E+04  0.7818609E-02  0.8518503E-01
        1   -1    0    0  501    0  0.00000000000E+00  0.00000000000E+00  0.17018168110E+04  0.17018168110E+04  0.50400001928E-02 0. -1.
       -1   -1    0    0    0  501  0.00000000000E+00  0.00000000000E+00 -0.71088830173E+03  0.71088830175E+03  0.50400001928E-02 0.  1.
    10030    2    1    2    0    0  0.00000000000E+00  0.00000000000E+00  0.99092850929E+03  0.24127051128E+04  0.21998196859E+04 0.  0.
        3    1    3    3  502    0 -0.65136832131E+03 -0.44876975319E+03  0.13337086891E+04  0.15506301490E+04  0.10100000352E+00 0. -1.
       -3    1    3    3    0  502  0.65136832131E+03  0.44876975319E+03 -0.34278017977E+03  0.86207496381E+03  0.10100000352E+00 0.  1.
</event>
<event>
 5   0  0.1014015E-05  0.2191704E+04  0.7818609E-02  0.8521889E-01
        2   -1    0    0  501    0  0.00000000000E+00  0.00000000000E+00  0.16990432778E+04  0.16990432778E+04  0.25500000920E-02 0. -1.
       -2   -1    0    0    0  501  0.00000000000E+00  0.00000000000E+00 -0.70680473654E+03  0.70680473655E+03  0.25500000920E-02 0.  1.
    10030    2    1    2    0    0  0.00000000000E+00  0.00000000000E+00  0.99223854123E+03  0.24058480143E+04  0.21917042103E+04 0.  0.
        1    1    3    3  502    0  0.12192779123E+03 -0.59324423531E+03 -0.50639797281E+03  0.78945805202E+03  0.50400001928E-02 0.  1.
       -1    1    3    3    0  502 -0.12192779123E+03  0.59324423531E+03  0.14986365140E+04  0.16163899623E+04  0.50400001928E-02 0. -1.
</event>
<event>
 5   0  0.4630615E-06  0.2195642E+04  0.7818609E-02  0.8520244E-01
        1   -1    0    0  501    0  0.00000000000E+00  0.00000000000E+00  0.13951495077E+04  0.13951495077E+04  0.50400001928E-02 0. -1.
       -1   -1    0    0    0  501  0.00000000000E+00  0.00000000000E+00 -0.86385773256E+03  0.86385773257E+03  0.50400001928E-02 0.  1.
    10030    2    1    2    0    0  0.00000000000E+00  0.00000000000E+00  0.53129177516E+03  0.22590072403E+04  0.21956417653E+04 0.  0.
        2    1    3    3  502    0 -0.28047234492E+03  0.97339576117E+03 -0.16970480011E+03  0.10271142893E+04  0.25500000920E-02 0. -1.
       -2    1    3    3    0  502  0.28047234492E+03 -0.97339576117E+03  0.70099657527E+03  0.12318929510E+04  0.25500000920E-02 0.  1.
</event>
<event>
 5   0  0.9963573E-06  0.2186582E+04  0.7818609E-02  0.8524034E-01
        2   -1    0    0  501    0  0.00000000000E+00  0.00000000000E+00  0.29624042375E+04  0.29624042375E+04  0.25500000920E-02 0.  1.
       -2   -1    0    0    0  501  0.00000000000E+00  0.00000000000E+00 -0.40348475766E+03  0.40348475766E+03  0.25500000920E-02 0. -1.
    10030    2    1    2    0    0  0.00000000000E+00  0.00000000000E+00  0.25589194799E+04  0.33658889952E+04  0.21865817669E+04 0.  0.
        2    1    3    3  502    0  0.12326253081E+03  0.30490129457E+03 -0.32553683111E+03  0.46274472374E+03  0.25500000920E-02 0. -1.
       -2    1    3    3    0  502 -0.12326253081E+03 -0.30490129457E+03  0.28844563110E+04  0.29031442715E+04  0.25500000920E-02 0.  1.
</event>
<event>
 5   0  0.4309945E-06  0.2202615E+04  0.7818609E-02  0.8517340E-01
       -1   -1    0    0    0  501  0.00000000000E+00  0.00000000000E+00  0.54962683865E+03  0.54962683868E+03  0.50400001928E-02 0.  1.
        1   -1    0    0  501    0  0.00000000000E+00  0.00000000000E+00 -0.22067304286E+04  0.22067304287E+04  0.50400001928E-02 0. -1.
    10030    2    1    2    0    0  0.00000000000E+00  0.00000000000E+00 -0.16571035900E+04  0.27563572673E+04  0.22026150542E+04 0.  0.
        4    1    3    3  502    0 -0.85360770188E+03  0.69462885837E+03 -0.88047061183E+03  0.14093918798E+04  0.12699999809E+01 0. -1.
       -4    1    3    3    0  502  0.85360770188E+03 -0.69462885837E+03 -0.77663297816E+03  0.13469653876E+04  0.12699999809E+01 0.  1.
</event>
<event>
 5   0  0.1015876E-05  0.2202130E+04  0.7818609E-02  0.8517542E-01
       -2   -1    0    0    0  501  0.00000000000E+00  0.00000000000E+00  0.24026064650E+04  0.24026064650E+04  0.25500000920E-02 0. -1.
        2   -1    0    0  501    0  0.00000000000E+00  0.00000000000E+00 -0.50459525444E+03  0.50459525444E+03  0.25500000920E-02 0.  1.
    10030    2    1    2    0    0  0.00000000000E+00  0.00000000000E+00  0.18980112106E+04  0.29072017195E+04  0.22021297151E+04 0.  0.
        5    1    3    3  502    0  0.93178103141E+02 -0.37947544614E+03 -0.40996800401E+03  0.56637410555E+03  0.46999998093E+01 0.  1.
       -5    1    3    3    0  502 -0.93178103141E+02  0.37947544614E+03  0.23079792146E+04  0.23408276139E+04  0.46999998093E+01 0. -1.
</event>
<event>
 5   0  0.4309945E-06  0.2200630E+04  0.7818609E-02  0.8518166E-01
       -1   -1    0    0    0  501  0.00000000000E+00  0.00000000000E+00  0.15735459036E+04  0.15735459036E+04  0.50400001928E-02 0.  1.
        1   -1    0    0  501    0  0.00000000000E+00  0.00000000000E+00 -0.76940456715E+03  0.76940456717E+03  0.50400001928E-02 0. -1.
    10030    2    1    2    0    0  0.00000000000E+00  0.00000000000E+00  0.80414133641E+03  0.23429504707E+04  0.22006302778E+04 0.  0.
        4    1    3    3  502    0  0.77505577948E+03  0.60407070386E+03  0.92914151911E+03  0.13523751151E+04  0.12699999809E+01 0.  1.
       -4    1    3    3    0  502 -0.77505577948E+03 -0.60407070386E+03 -0.12500018270E+03  0.99057535561E+03  0.12699999809E+01 0. -1.
</event>
<event>
 5   0  0.1014015E-05  0.2194520E+04  0.7818609E-02  0.8520712E-01
        2   -1    0    0  501    0  0.00000000000E+00  0.00000000000E+00  0.98838244970E+03  0.98838244970E+03  0.25500000920E-02 0.  1.
       -2   -1    0    0    0  501  0.00000000000E+00  0.00000000000E+00 -0.12181311672E+04  0.12181311672E+04  0.25500000920E-02 0. -1.
    10030    2    1    2    0    0  0.00000000000E+00  0.00000000000E+00 -0.22974871752E+03  0.22065136169E+04  0.21945199631E+04 0.  0.
        1    1    3    3  502    0  0.81027544803E+03  0.21233956718E+03  0.59776228473E+03  0.10290549755E+04  0.50400001928E-02 0.  1.
       -1    1    3    3    0  502 -0.81027544803E+03 -0.21233956718E+03 -0.82751100225E+03  0.11774586415E+04  0.50400001928E-02 0. -1.
</event>
<event>
 5   0  0.4630615E-06  0.2195251E+04  0.7818609E-02  0.8520407E-01
        1   -1    0    0  501    0  0.00000000000E+00  0.00000000000E+00  0.94204684101E+03  0.94204684102E+03  0.50400001928E-02 0.  1.
       -1   -1    0    0    0  501  0.00000000000E+00  0.00000000000E+00 -0.12788975467E+04  0.12788975467E+04  0.50400001928E-02 0. -1.
    10030    2    1    2    0    0  0.00000000000E+00  0.00000000000E+00 -0.33685070565E+03  0.22209443877E+04  0.21952506862E+04 0.  0.
        2    1    3    3  502    0 -0.10177925666E+03 -0.13961704826E+03 -0.12650536760E+04  0.12767978464E+04  0.25500000920E-02 0. -1.
       -2    1    3    3    0  502  0.10177925666E+03  0.13961704826E+03  0.92820297038E+03  0.94414654132E+03  0.25500000920E-02 0.  1.
</event>
<event>
 5   0  0.4630615E-06  0.2206428E+04  0.7818609E-02  0.8515758E-01
        1   -1    0    0  501    0  0.00000000000E+00  0.00000000000E+00  0.11108329664E+04  0.11108329664E+04  0.50400001928E-02 0. -1.
       -1   -1    0    0    0  501  0.00000000000E+00  0.00000000000E+00 -0.10956468851E+04  0.10956468852E+04  0.50400001928E-02 0.  1.
    10030    2    1    2    0    0  0.00000000000E+00  0.00000000000E+00  0.15186081248E+02  0.22064798516E+04  0.22064275919E+04 0.  0.
        2    1    3    3  502    0  0.18202784411E+03  0.70097244062E+03 -0.82464309737E+03  0.10975120667E+04  0.25500000920E-02 0.  1.
       -2    1    3    3    0  502 -0.18202784411E+03 -0.70097244062E+03  0.83982917861E+03  0.11089677848E+04  0.25500000920E-02 0. -1.
</event>
<event>
 5   0  0.4462201E-06  0.2196777E+04  0.7818609E-02  0.8519771E-01
        1   -1    0    0  501    0  0.00000000000E+00  0.00000000000E+00  0.89719722926E+03  0.89719722928E+03  0.50400001928E-02 0.  1.
       -1   -1    0    0    0  501  0.00000000000E+00  0.00000000000E+00 -0.13446960871E+04  0.13446960871E+04  0.50400001928E-02 0. -1.
    10030    2    1    2    0    0  0.00000000000E+00  0.00000000000E+00 -0.44749885779E+03  0.22418933163E+04  0.21967772791E+04 0.  0.
        3    1    3    3  502    0 -0.10202352996E+04 -0.40650644195E+03 -0.20520933867E+03  0.11172459160E+04  0.10100000352E+00 0.  1.
       -3    1    3    3    0  502  0.10202352996E+04  0.40650644195E+03 -0.24228951913E+03  0.11246474004E+04  0.10100000352E+00 0. -1.
</event>
<event>
 5   0  0.4794967E-06  0.2194458E+04  0.7818609E-02  0.8520738E-01
       -1   -1    0    0    0  501  0.00000000000E+00  0.00000000000E+00  0.80749344322E+03  0.80749344324E+03  0.50400001928E-02 0. -1.
        1   -1    0    0  501    0  0.00000000000E+00  0.00000000000E+00 -0.14909245800E+04  0.14909245800E+04  0.50400001928E-02 0.  1.
    10030    2    1    2    0    0  0.00000000000E+00  0.00000000000E+00 -0.68343113677E+03  0.22984180232E+04  0.21944583138E+04 0.  0.
        5    1    3    3  502    0 -0.10729079067E+04 -0.94240310721E+02 -0.56110754508E+03  0.12144448854E+04  0.46999998093E+01 0. -1.
       -5    1    3    3    0  502  0.10729079067E+04  0.94240310721E+02 -0.12232359169E+03  0.10839731379E+04  0.46999998093E+01 0.  1.
</event>
<event>
 5   0  0.4309945E-06  0.2197864E+04  0.7818609E-02  0.8519318E-01
       -1   -1    0    0    0  501  0.00000000000E+00  0.00000000000E+00  0.37706492637E+03  0.37706492641E+03  0.50400001928E-02 0.  1.
        1   -1    0    0  501    0  0.00000000000E+00  0.00000000000E+00 -0.32027690056E+04  0.32027690056E+04  0.50400001928E-02 0. -1.
    10030    2    1    2    0    0  0.00000000000E+00  0.00000000000E+00 -0.28257040792E+04  0.35798339320E+04  0.21978642900E+04 0.  0.
        4    1    3    3  502    0  0.87306196689E+03  0.66610648134E+02 -0.33124496628E+03  0.93616185409E+03  0.12699999809E+01 0.  1.
       -4    1    3    3    0  502 -0.87306196689E+03 -0.66610648134E+02 -0.24944591129E+04  0.26436720779E+04  0.12699999809E+01 0. -1.
</event>
<event>
 5   0  0.9963173E-06  0.2205941E+04  0.7818609E-02  0.8515959E-01
       -2   -1    0    0    0  501  0.00000000000E+00  0.00000000000E+00  0.98453478747E+03  0.98453478747E+03  0.25500000920E-02 0. -1.
        2   -1    0    0  501    0  0.00000000000E+00  0.00000000000E+00 -0.12356538281E+04  0.12356538281E+04  0.25500000920E-02 0.  1.
    10030    2    1    2    0    0  0.00000000000E+00  0.00000000000E+00 -0.25111904068E+03  0.22201886156E+04  0.22059412314E+04 0.  0.
        4    1    3    3  502    0  0.10128456358E+02  0.68810738413E+03  0.74195190468E+03  0.10119726278E+04  0.12699999809E+01 0. -1.
       -4    1    3    3    0  502 -0.10128456358E+02 -0.68810738413E+03 -0.99307094536E+03  0.12082159878E+04  0.12699999809E+01 0.  1.
</event>
<event>
 5   0  0.1014015E-05  0.2200484E+04  0.7818609E-02  0.8518226E-01
        2   -1    0    0  501    0  0.00000000000E+00  0.00000000000E+00  0.93280374348E+03  0.93280374349E+03  0.25500000920E-02 0. -1.
       -2   -1    0    0    0  501  0.00000000000E+00  0.00000000000E+00 -0.12977360083E+04  0.12977360083E+04  0.25500000920E-02 0.  1.
    10030    2    1    2    0    0  0.00000000000E+00  0.00000000000E+00 -0.36493226482E+03  0.22305397518E+04  0.22004844981E+04 0.  0.
        1    1    3    3  502    0  0.67267218484E+03  0.39253187942E+02 -0.10641184670E+04  0.12595145068E+04  0.50400001928E-02 0.  1.
       -1    1    3    3    0  502 -0.67267218484E+03 -0.39253187942E+02  0.69918620219E+03  0.97102524498E+03  0.50400001928E-02 0. -1.
</event>
<event>
 5   0  0.1015876E-05  0.2202347E+04  0.7818609E-02  0.8517452E-01
       -2   -1    0    0    0  501  0.00000000000E+00  0.00000000000E+00  0.85763787775E+03  0.85763787775E+03  0.25500000920E-02 0. -1.
        2   -1    0    0  501    0  0.00000000000E+00  0.00000000000E+00 -0.14138643205E+04  0.14138643205E+04  0.25500000920E-02 0.  1.
    10030    2    1    2    0    0  0.00000000000E+00  0.00000000000E+00 -0.55622644279E+03  0.22715021983E+04  0.22023474706E+04 0.  0.
        5    1    3    3  502    0 -0.20979411506E+03 -0.95411802823E+03  0.24598307937E+03  0.10074147844E+04  0.46999998093E+01 0.  1.
       -5    1    3    3    0  502  0.20979411506E+03  0.95411802823E+03 -0.80220952217E+03  0.12640874139E+04  0.46999998093E+01 0. -1.
</event>
<event>
 5   0  0.9963573E-06  0.2209818E+04  0.7818609E-02  0.8514353E-01
       -2   -1    0    0    0  501  0.00000000000E+00  0.00000000000E+00  0.96497479750E+03  0.96497479750E+03  0.25500000920E-02 0. -1.
        2   -1    0    0  501    0  0.00000000000E+00  0.00000000000E+00 -0.12651360700E+04  0.12651360701E+04  0.25500000920E-02 0.  1.
    10030    2    1    2    0    0  0.00000000000E+00  0.00000000000E+00 -0.30016127255E+03  0.22301108675E+04  0.22098184749E+04 0.  0.
        2    1    3    3  502    0  0.10279513302E+03 -0.44851917098E+03 -0.11638388925E+04  0.12515019991E+04  0.25500000920E-02 0.  1.
       -2    1    3    3    0  502 -0.10279513302E+03  0.44851917098E+03  0.86367761996E+03  0.97860886841E+03  0.25500000920E-02 0. -1.
</event>
<event>
 5   0  0.4630615E-06  0.2195511E+04  0.7818609E-02  0.8520299E-01
       -1   -1    0    0    0  501  0.00000000000E+00  0.00000000000E+00  0.73298760606E+03  0.73298760608E+03  0.50400001928E-02 0. -1.
        1   -1    0    0  501    0  0.00000000000E+00  0.00000000000E+00 -0.16440484336E+04  0.16440484336E+04  0.50400001928E-02 0.  1.
    10030    2    1    2    0    0  0.00000000000E+00  0.00000000000E+00 -0.91106082753E+03  0.23770360397E+04  0.21955109889E+04 0.  0.
        2    1    3    3  502    0  0.68168424118E+03 -0.51042294510E+03  0.29444900069E+03  0.90106892166E+03  0.25500000920E-02 0. -1.
       -2    1    3    3    0  502 -0.68168424118E+03  0.51042294510E+03 -0.12055098282E+04  0.14759671180E+04  0.25500000920E-02 0.  1.
</event>
<event>
 5   0  0.4408787E-06  0.2208948E+04  0.7818609E-02  0.8514713E-01
       -1   -1    0    0    0  501  0.00000000000E+00  0.00000000000E+00  0.47555236976E+03  0.47555236979E+03  0.50400001928E-02 0.  1.
        1   -1    0    0  501    0  0.00000000000E+00  0.00000000000E+00 -0.25651495361E+04  0.25651495361E+04  0.50400001928E-02 0. -1.
    10030    2    1    2    0    0  0.00000000000E+00  0.00000000000E+00 -0.20895971664E+04  0.30407019059E+04  0.22089481123E+04 0.  0.
        1    1    3    3  502    0 -0.19600962395E+03  0.10144856854E+04 -0.15819343136E+04  0.18894753640E+04  0.50400001928E-02 0. -1.
       -1    1    3    3    0  502  0.19600962395E+03 -0.10144856854E+04 -0.50766285274E+03  0.11512265419E+04  0.50400001928E-02 0.  1.
</event>
<event>
 5   0  0.1015876E-05  0.2200811E+04  0.7818609E-02  0.8518091E-01
       -2   -1    0    0    0  501  0.00000000000E+00  0.00000000000E+00  0.11367801270E+04  0.11367801270E+04  0.25500000920E-02 0.  1.
        2   -1    0    0  501    0  0.00000000000E+00  0.00000000000E+00 -0.10651949280E+04  0.10651949280E+04  0.25500000920E-02 0. -1.
    10030    2    1    2    0    0  0.00000000000E+00  0.00000000000E+00  0.71585198963E+02  0.22019750550E+04  0.22008111464E+04 0.  0.
        5    1    3    3  502    0  0.73334295563E+03 -0.36384264785E+02 -0.78424724032E+03  0.10743284085E+04  0.46999998093E+01 0. -1.
       -5    1    3    3    0  502 -0.73334295563E+03  0.36384264785E+02  0.85583243928E+03  0.11276466465E+04  0.46999998093E+01 0.  1.
</event>
<event>
 5   0  0.1014015E-05  0.2204376E+04  0.7818609E-02  0.8516609E-01
        2   -1    0    0  501    0  0.00000000000E+00  0.00000000000E+00  0.11603123285E+04  0.11603123285E+04  0.25500000920E-02 0. -1.
       -2   -1    0    0    0  501  0.00000000000E+00  0.00000000000E+00 -0.10469751414E+04  0.10469751414E+04  0.25500000920E-02 0.  1.
    10030    2    1    2    0    0  0.00000000000E+00  0.00000000000E+00  0.11333718718E+03  0.22072874699E+04  0.22043757975E+04 0.  0.
        1    1    3    3  502    0 -0.18263621898E+02  0.80690465933E+03  0.80825277083E+03  0.11422351906E+04  0.50400001928E-02 0. -1.
       -1    1    3    3    0  502  0.18263621898E+02 -0.80690465933E+03 -0.69491558365E+03  0.10650522793E+04  0.50400001928E-02 0.  1.
</event>
<event>
 5   0  0.4794967E-06  0.2193563E+04  0.7818609E-02  0.8521112E-01
       -1   -1    0    0    0  501  0.00000000000E+00  0.00000000000E+00  0.71404791403E+03  0.71404791405E+03  0.50400001928E-02 0.  1.
        1   -1    0    0  501    0  0.00000000000E+00  0.00000000000E+00 -0.16846616696E+04  0.16846616696E+04  0.50400001928E-02 0. -1.
    10030    2    1    2    0    0  0.00000000000E+00  0.00000000000E+00 -0.97061375560E+03  0.23987095837E+04  0.21935625371E+04 0.  0.
        5    1    3    3  502    0 -0.32354049514E+03  0.92125289370E+03 -0.10315447695E+04  0.14203844718E+04  0.46999998093E+01 0. -1.
       -5    1    3    3    0  502  0.32354049514E+03 -0.92125289370E+03  0.60931013915E+02  0.97832511192E+03  0.46999998093E+01 0.  1.
</event>
<event>
 5   0  0.4462201E-06  0.2206478E+04  0.7818609E-02  0.8515737E-01
       -1   -1    0    0    0  501  0.00000000000E+00  0.00000000000E+00  0.14809016722E+04  0.14809016722E+04  0.50400001928E-02 0.  1.
        1   -1    0    0  501    0  0.00000000000E+00  0.00000000000E+00 -0.82188892617E+03  0.82188892619E+03  0.50400001928E-02 0. -1.
    10030    2    1    2    0    0  0.00000000000E+00  0.00000000000E+00  0.65901274606E+03  0.23027905984E+04  0.22064783572E+04 0.  0.
        3    1    3    3  502    0 -0.57207961332E+03  0.93832982743E+03  0.22832763238E+03  0.11224399614E+04  0.10100000352E+00 0. -1.
       -3    1    3    3    0  502  0.57207961332E+03 -0.93832982743E+03  0.43068511368E+03  0.11803506370E+04  0.10100000352E+00 0.  1.
</event>
<event>
 5   0  0.1015876E-05  0.2199499E+04  0.7818609E-02  0.8518637E-01
       -2   -1    0    0    0  501  0.00000000000E+00  0.00000000000E+00  0.73322415116E+03  0.73322415116E+03  0.25500000920E-02 0. -1.
        2   -1    0    0  501    0  0.00000000000E+00  0.00000000000E+00 -0.16494944127E+04  0.16494944127E+04  0.25500000920E-02 0.  1.
    10030    2    1    2    0    0  0.00000000000E+00  0.00000000000E+00 -0.91627026151E+03  0.23827185638E+04  0.21994991617E+04 0.  0.
        5    1    3    3  502    0  0.42885159398E+02  0.84129433119E+03  0.30772980038E+03  0.89684726048E+03  0.46999998093E+01 0. -1.
       -5    1    3    3    0  502 -0.42885159398E+02 -0.84129433119E+03 -0.12240000619E+04  0.14858713034E+04  0.46999998093E+01 0.  1.
</event>
<event>
 5   0  0.4462201E-06  0.2192459E+04  0.7818609E-02  0.8521573E-01
       -1   -1    0    0    0  501  0.00000000000E+00  0.00000000000E+00  0.50498152755E+03  0.50498152758E+03  0.50400001928E-02 0. -1.
        1   -1    0    0  501    0  0.00000000000E+00  0.00000000000E+00 -0.23797285290E+04  0.23797285290E+04  0.50400001928E-02 0.  1.
    10030    2    1    2    0    0  0.00000000000E+00  0.00000000000E+00 -0.18747470015E+04  0.28847100566E+04  0.21924588459E+04 0.  0.
        3    1    3    3  502    0 -0.64817118214E+03  0.76244210178E+02 -0.20962575184E+04  0.21955032805E+04  0.10100000352E+00 0.  1.
       -3    1    3    3    0  502  0.64817118214E+03 -0.76244210178E+02  0.22151051693E+03  0.68920677612E+03  0.10100000352E+00 0. -1.
</event>
<event>
 5   0  0.1015876E-05  0.2198400E+04  0.7818609E-02  0.8519095E-01
        2   -1    0    0  501    0  0.00000000000E+00  0.00000000000E+00  0.16453723772E+04  0.16453723772E+04  0.25500000920E-02 0. -1.
       -2   -1    0    0    0  501  0.00000000000E+00  0.00000000000E+00 -0.73432627233E+03  0.73432627234E+03  0.25500000920E-02 0.  1.
    10030    2    1    2    0    0  0.00000000000E+00  0.00000000000E+00  0.91104610490E+03  0.23796986496E+04  0.21983995673E+04 0.  0.
        5    1    3    3  502    0  0.59081184865E+03  0.87417350111E+03  0.78912739864E+03  0.13175667315E+04  0.46999998093E+01 0. -1.
       -5    1    3    3    0  502 -0.59081184865E+03 -0.87417350111E+03  0.12191870626E+03  0.10621319181E+04  0.46999998093E+01 0.  1.
</event>
<event>
 5   0  0.4630615E-06  0.2199508E+04  0.7818609E-02  0.8518633E-01
        1   -1    0    0  501    0  0.00000000000E+00  0.00000000000E+00  0.18851511772E+04  0.18851511772E+04  0.50400001928E-02 0. -1.
       -1   -1    0    0    0  501  0.00000000000E+00  0.00000000000E+00 -0.64157148318E+03  0.64157148320E+03  0.50400001928E-02 0.  1.
    10030    2    1    2    0    0  0.00000000000E+00  0.00000000000E+00  0.12435796940E+04  0.25267226604E+04  0.21995083421E+04 0.  0.
        2    1    3    3  502    0 -0.48816143818E+03  0.73337145508E+03  0.13779926998E+04  0.16355424670E+04  0.25500000920E-02 0. -1.
       -2    1    3    3    0  502  0.48816143818E+03 -0.73337145508E+03 -0.13441300580E+03  0.89118019333E+03  0.25500000920E-02 0.  1.
</event>
<event>
 5   0  0.1014015E-05  0.2200354E+04  0.7818609E-02  0.8518281E-01
        2   -1    0    0  501    0  0.00000000000E+00  0.00000000000E+00  0.12874630525E+04  0.12874630525E+04  0.25500000920E-02 0. -1.
       -2   -1    0    0    0  501  0.00000000000E+00  0.00000000000E+00 -0.94013539345E+03  0.94013539346E+03  0.25500000920E-02 0.  1.
    10030    2    1    2    0    0  0.00000000000E+00  0.00000000000E+00  0.34732765901E+03  0.22275984459E+04  0.22003541382E+04 0.  0.
        1    1    3    3  502    0  0.56743154166E+03 -0.44944960035E+01 -0.78055142473E+03  0.96501776235E+03  0.50400001928E-02 0.  1.
       -1    1    3    3    0  502 -0.56743154166E+03  0.44944960035E+01  0.11278790837E+04  0.12625806836E+04  0.50400001928E-02 0. -1.
</event>
<event>
 5   0  0.4630615E-06  0.2200314E+04  0.7818609E-02  0.8518297E-01
       -1   -1    0    0    0  501  0.00000000000E+00  0.00000000000E+00  0.48888069525E+03  0.48888069528E+03  0.50400001928E-02 0.  1.
        1   -1    0    0  501    0  0.00000000000E+00  0.00000000000E+00 -0.24757487402E+04  0.24757487402E+04  0.50400001928E-02 0. -1.
    10030    2    1    2    0    0  0.00000000000E+00  0.00000000000E+00 -0.19868680449E+04  0.29646294355E+04  0.22003143097E+04 0.  0.
        2    1    3    3  502    0  0.40354921482E+03 -0.23536026262E+03  0.34859922222E+03  0.58289607971E+03  0.25500000920E-02 0.  1.
       -2    1    3    3    0  502 -0.40354921482E+03  0.23536026262E+03 -0.23354672671E+04  0.23817333558E+04  0.25500000920E-02 0. -1.
</event>
<event>
 5   0  0.9963173E-06  0.2207242E+04  0.7818609E-02  0.8515420E-01
       -2   -1    0    0    0  501  0.00000000000E+00  0.00000000000E+00  0.44707209473E+03  0.44707209474E+03  0.25500000920E-02 0.  1.
        2   -1    0    0  501    0  0.00000000000E+00  0.00000000000E+00 -0.27243473216E+04  0.27243473216E+04  0.25500000920E-02 0. -1.
    10030    2    1    2    0    0  0.00000000000E+00  0.00000000000E+00 -0.22772752269E+04  0.31714194164E+04  0.22072423192E+04 0.  0.
        4    1    3    3  502    0 -0.78566934805E+02  0.10586266497E+04 -0.15723465571E+04  0.18971395455E+04  0.12699999809E+01 0. -1.
       -4    1    3    3    0  502  0.78566934805E+02 -0.10586266497E+04 -0.70492866979E+03  0.12742798708E+04  0.12699999809E+01 0.  1.
</event>
<event>
 5   0  0.4309945E-06  0.2197265E+04  0.7818609E-02  0.8519567E-01
        1   -1    0    0  501    0  0.00000000000E+00  0.00000000000E+00  0.11733896149E+04  0.11733896149E+04  0.50400001928E-02 0. -1.
       -1   -1    0    0    0  501  0.00000000000E+00  0.00000000000E+00 -0.10286382731E+04  0.10286382732E+04  0.50400001928E-02 0.  1.
    10030    2    1    2    0    0  0.00000000000E+00  0.00000000000E+00  0.14475134174E+03  0.22020278881E+04  0.21972650884E+04 0.  0.
        4    1    3    3  502    0 -0.21999992588E+03  0.10745718584E+04  0.98930471193E+01  0.10969066193E+04  0.12699999809E+01 0. -1.
       -4    1    3    3    0  502  0.21999992588E+03 -0.10745718584E+04  0.13485829463E+03  0.11051212688E+04  0.12699999809E+01 0.  1.
</event>
<event>
 5   0  0.4630615E-06  0.2200029E+04  0.7818609E-02  0.8518416E-01
        1   -1    0    0  501    0  0.00000000000E+00  0.00000000000E+00  0.16371654939E+04  0.16371654939E+04  0.50400001928E-02 0.  1.
       -1   -1    0    0    0  501  0.00000000000E+00  0.00000000000E+00 -0.73910190933E+03  0.73910190934E+03  0.50400001928E-02 0. -1.
    10030    2    1    2    0    0  0.00000000000E+00  0.00000000000E+00  0.89806358460E+03  0.23762674033E+04  0.22000292202E+04 0.  0.
        2    1    3    3  502    0  0.62296060818E+03 -0.33792218949E+03 -0.45964642911E+03  0.84471661834E+03  0.25500000920E-02 0. -1.
       -2    1    3    3    0  502 -0.62296060818E+03  0.33792218949E+03  0.13577100137E+04  0.15315507849E+04  0.25500000920E-02 0.  1.
</event>
<event>
 5   0  0.4462201E-06  0.2199563E+04  0.7818609E-02  0.8518610E-01
        1   -1    0    0  501    0  0.00000000000E+00  0.00000000000E+00  0.14166587790E+04  0.14166587790E+04  0.50400001928E-02 0. -1.
       -1   -1    0    0    0  501  0.00000000000E+00  0.00000000000E+00 -0.85378306122E+03  0.85378306123E+03  0.50400001928E-02 0.  1.
    10030    2    1    2    0    0  0.00000000000E+00  0.00000000000E+00  0.56287571774E+03  0.22704418402E+04  0.21995629284E+04 0.  0.
        3    1    3    3  502    0 -0.61453273940E+03 -0.88277264372E+03  0.51813301084E+03  0.11939011079E+04  0.10100000352E+00 0. -1.
       -3    1    3    3    0  502  0.61453273940E+03  0.88277264372E+03  0.44742706904E+02  0.10765407323E+04  0.10100000352E+00 0.  1.
</event>
<event>
 5   0  0.4630615E-06  0.2199038E+04  0.7818609E-02  0.8518829E-01
        1   -1    0    0  501    0  0.00000000000E+00  0.00000000000E+00  0.23161243329E+04  0.23161243329E+04  0.50400001928E-02 0. -1.
       -1   -1    0    0    0  501  0.00000000000E+00  0.00000000000E+00 -0.52196760320E+03  0.52196760323E+03  0.50400001928E-02 0.  1.
    10030    2    1    2    0    0  0.00000000000E+00  0.00000000000E+00  0.17941567297E+04  0.28380919362E+04  0.21990378503E+04 0.  0.
        2    1    3    3  502    0 -0.62773101408E+03  0.45447383422E+03 -0.10955244057E+03  0.78268411845E+03  0.25500000920E-02 0.  1.
       -2    1    3    3    0  502  0.62773101408E+03 -0.45447383422E+03  0.19037091703E+04  0.20554078177E+04  0.25500000920E-02 0. -1.
</event>
<event>
 5   0  0.4462201E-06  0.2202819E+04  0.7818609E-02  0.8517256E-01
       -1   -1    0    0    0  501  0.00000000000E+00  0.00000000000E+00  0.84964088619E+03  0.84964088621E+03  0.50400001928E-02 0.  1.
        1   -1    0    0  501    0  0.00000000000E+00  0.00000000000E+00 -0.14277835493E+04  0.14277835493E+04  0.50400001928E-02 0. -1.
    10030    2    1    2    0    0  0.00000000000E+00  0.00000000000E+00 -0.57814266309E+03  0.22774244355E+04  0.22028193572E+04 0.  0.
        3    1    3    3  502    0 -0.64669222308E+03 -0.89152118305E+03 -0.27968538645E+03  0.11363295195E+04  0.10100000352E+00 0. -1.
       -3    1    3    3    0  502  0.64669222308E+03  0.89152118305E+03 -0.29845727664E+03  0.11410949160E+04  0.10100000352E+00 0.  1.
</event>
<event>
 5   0  0.4794967E-06  0.2197018E+04  0.7818609E-02  0.8519670E-01
       -1   -1    0    0    0  501  0.00000000000E+00  0.00000000000E+00  0.55730134281E+03  0.55730134283E+03  0.50400001928E-02 0. -1.
        1   -1    0    0  501    0  0.00000000000E+00  0.00000000000E+00 -0.21652946520E+04  0.21652946520E+04  0.50400001928E-02 0.  1.
    10030    2    1    2    0    0  0.00000000000E+00  0.00000000000E+00 -0.16079933092E+04  0.27225959949E+04  0.21970176305E+04 0.  0.
        5    1    3    3  502    0 -0.31667277958E+03 -0.10182045464E+03  0.49337658644E+03  0.59505596405E+03  0.46999998093E+01 0. -1.
       -5    1    3    3    0  502  0.31667277958E+03  0.10182045464E+03 -0.21013698957E+04  0.21275400308E+04  0.46999998093E+01 0.  1.
</event>
<event>
 5   0  0.4794967E-06  0.2200114E+04  0.7818609E-02  0.8518381E-01
       -1   -1    0    0    0  501  0.00000000000E+00  0.00000000000E+00  0.74200455015E+03  0.74200455017E+03  0.50400001928E-02 0. -1.
        1   -1    0    0  501    0  0.00000000000E+00  0.00000000000E+00 -0.16308873445E+04  0.16308873445E+04  0.50400001928E-02 0.  1.
    10030    2    1    2    0    0  0.00000000000E+00  0.00000000000E+00 -0.88888279434E+03  0.23728918947E+04  0.22001143883E+04 0.  0.
        5    1    3    3  502    0  0.53712750006E+03 -0.35172991659E+03 -0.14078322761E+04  0.15473311518E+04  0.46999998093E+01 0.  1.
       -5    1    3    3    0  502 -0.53712750006E+03  0.35172991659E+03  0.51894948180E+03  0.82556074289E+03  0.46999998093E+01 0. -1.
</event>
<event>
 5   0  0.4794967E-06  0.2205878E+04  0.7818609E-02  0.8515985E-01
       -1   -1    0    0    0  501  0.00000000000E+00  0.00000000000E+00  0.67559290980E+03  0.67559290981E+03  0.50400001928E-02 0. -1.
        1   -1    0    0  501    0  0.00000000000E+00  0.00000000000E+00 -0.18006034607E+04  0.18006034607E+04  0.50400001928E-02 0.  1.
    10030    2    1    2    0    0  0.00000000000E+00  0.00000000000E+00 -0.11250105509E+04  0.24761963705E+04  0.22058784476E+04 0.  0.
        5    1    3    3  502    0 -0.69335685131E+03 -0.80968408132E+03 -0.88024839982E+03  0.13824584515E+04  0.46999998093E+01 0.  1.
       -5    1    3    3    0  502  0.69335685131E+03  0.80968408132E+03 -0.24476215105E+03  0.10937379190E+04  0.46999998093E+01 0. -1.
</event>
<event>
 5   0  0.9963173E-06  0.2200273E+04  0.7818609E-02  0.8518315E-01
       -2   -1    0    0    0  501  0.00000000000E+00  0.00000000000E+00  0.80846048525E+03  0.80846048526E+03  0.25500000920E-02 0.  1.
        2   -1    0    0  501    0  0.00000000000E+00  0.00000000000E+00 -0.14970431518E+04  0.14970431518E+04  0.25500000920E-02 0. -1.
    10030    2    1    2    0    0  0.00000000000E+00  0.00000000000E+00 -0.68858266652E+03  0.23055036370E+04  0.22002729221E+04 0.  0.
        4    1    3    3  502    0 -0.65162812145E+03 -0.40795001799E+03 -0.11688554613E+04  0.13990236339E+04  0.12699999809E+01 0. -1.
       -4    1    3    3    0  502  0.65162812145E+03  0.40795001799E+03  0.48027279477E+03  0.90648000317E+03  0.12699999809E+01 0.  1.
</event>
<event>
 5   0  0.4309945E-06  0.2198814E+04  0.7818609E-02  0.8518922E-01
        1   -1    0    0  501    0  0.00000000000E+00  0.00000000000E+00  0.11973206462E+04  0.11973206462E+04  0.50400001928E-02 0.  1.
       -1   -1    0    0    0  501  0.00000000000E+00  0.00000000000E+00 -0.10095000913E+04  0.10095000913E+04  0.50400001928E-02 0. -1.
    10030    2    1    2    0    0  0.00000000000E+00  0.00000000000E+00  0.18782055488E+03  0.22068207375E+04  0.21988135907E+04 0.  0.
        4    1    3    3  502    0 -0.88682754828E+03 -0.10032221399E+03  0.73824976519E+03  0.11582495309E+04  0.12699999809E+01 0.  1.
       -4    1    3    3    0  502  0.88682754828E+03  0.10032221399E+03 -0.55042921031E+03  0.10485712067E+04  0.12699999809E+01 0. -1.
</event>
<event>
 5   0  0.1035928E-05  0.2200249E+04  0.7818609E-02  0.8518324E-01
        2   -1    0    0  501    0  0.00000000000E+00  0.00000000000E+00  0.16690383649E+04  0.16690383649E+04  0.25500000920E-02 0.  1.
       -2   -1    0    0    0  501  0.00000000000E+00  0.00000000000E+00 -0.72513246676E+03  0.72513246677E+03  0.25500000920E-02 0. -1.
    10030    2    1    2    0    0  0.00000000000E+00  0.00000000000E+00  0.94390589813E+03  0.23941708317E+04  0.22002489920E+04 0.  0.
        3    1    3    3  502    0 -0.46691673231E+03  0.33827923768E+03  0.14914558583E+04  0.15990261614E+04  0.10100000352E+00 0.  1.
       -3    1    3    3    0  502  0.46691673231E+03 -0.33827923768E+03 -0.54754996014E+03  0.79514467023E+03  0.10100000352E+00 0. -1.
</event>
<event>
 5   0  0.1014015E-05  0.2197813E+04  0.7818609E-02  0.8519339E-01
       -2   -1    0    0    0  501  0.00000000000E+00  0.00000000000E+00  0.70810385621E+03  0.70810385622E+03  0.25500000920E-02 0.  1.
        2   -1    0    0  501    0  0.00000000000E+00  0.00000000000E+00 -0.17053931892E+04  0.17053931892E+04  0.25500000920E-02 0. -1.
    10030    2    1    2    0    0  0.00000000000E+00  0.00000000000E+00 -0.99728933299E+03  0.24134970454E+04  0.21978129981E+04 0.  0.
        1    1    3    3  502    0  0.37913746614E+03  0.11013275516E+02 -0.16312315565E+04  0.16747486084E+04  0.50400001928E-02 0. -1.
       -1    1    3    3    0  502 -0.37913746614E+03 -0.11013275516E+02  0.63394222348E+03  0.73874843702E+03  0.50400001928E-02 0.  1.
</event>
<event>
 5   0  0.4309945E-06  0.2206284E+04  0.7818609E-02  0.8515817E-01
        1   -1    0    0  501    0  0.00000000000E+00  0.00000000000E+00  0.15198991104E+04  0.15198991104E+04  0.50400001928E-02 0.  1.
       -1   -1    0    0    0  501  0.00000000000E+00  0.00000000000E+00 -0.80065976462E+03  0.80065976464E+03  0.50400001928E-02 0. -1.
    10030    2    1    2    0    0  0.00000000000E+00  0.00000000000E+00  0.71923934580E+03  0.23205588751E+04  0.22062838113E+04 0.  0.
        4    1    3    3  502    0  0.29579194118E+03 -0.18300963989E+03  0.14607117089E+04  0.15015544313E+04  0.12699999809E+01 0.  1.
       -4    1    3    3    0  502 -0.29579194118E+03  0.18300963989E+03 -0.74147236310E+03  0.81900444376E+03  0.12699999809E+01 0. -1.
</event>
<event>
 5   0  0.1014015E-05  0.2202830E+04  0.7818609E-02  0.8517251E-01
        2   -1    0    0  501    0  0.00000000000E+00  0.00000000000E+00  0.71339771456E+03  0.71339771457E+03  0.25500000920E-02 0.  1.
       -2   -1    0    0    0  501  0.00000000000E+00  0.00000000000E+00 -0.17004750169E+04  0.17004750169E+04  0.25500000920E-02 0. -1.
    10030    2    1    2    0    0  0.00000000000E+00  0.00000000000E+00 -0.98707730234E+03  0.24138727315E+04  0.22028299896E+04 0.  0.
        1    1    3    3  502    0 -0.99639961169E+03  0.46109712537E+03 -0.58964674344E+03  0.12462367461E+04  0.50400001928E-02 0.  1.
       -1    1    3    3    0  502  0.99639961169E+03 -0.46109712537E+03 -0.39743055890E+03  0.11676359854E+04  0.50400001928E-02 0. -1.
</event>
<event>
 5   0  0.1035928E-05  0.2200830E+04  0.7818609E-02  0.8518083E-01
        2   -1    0    0  501    0  0.00000000000E+00  0.00000000000E+00  0.13420464809E+04  0.13420464809E+04  0.25500000920E-02 0.  1.
       -2   -1    0    0    0  501  0.00000000000E+00  0.00000000000E+00 -0.90228881812E+03  0.90228881812E+03  0.25500000920E-02 0. -1.
    10030    2    1    2    0    0  0.00000000000E+00  0.00000000000E+00  0.43975766280E+03  0.22443352990E+04  0.22008303280E+04 0.  0.
        3    1    3    3  502    0 -0.63762234735E+03 -0.78486825011E+03 -0.22267336433E+03  0.10354534588E+04  0.10100000352E+00 0.  1.
       -3    1    3    3    0  502  0.63762234735E+03  0.78486825011E+03  0.66243102712E+03  0.12088818403E+04  0.10100000352E+00 0. -1.
</event>
<event>
 5   0  0.4630615E-06  0.2199884E+04  0.7818609E-02  0.8518477E-01
        1   -1    0    0  501    0  0.00000000000E+00  0.00000000000E+00  0.14716109154E+04  0.14716109154E+04  0.50400001928E-02 0. -1.
       -1   -1    0    0    0  501  0.00000000000E+00  0.00000000000E+00 -0.82214127416E+03  0.82214127418E+03  0.50400001928E-02 0.  1.
    10030    2    1    2    0    0  0.00000000000E+00  0.00000000000E+00  0.64946964125E+03  0.22937521896E+04  0.21998836997E+04 0.  0.
        2    1    3    3  502    0  0.67558919197E+03 -0.41309555156E+03 -0.47125553554E+03  0.92149360867E+03  0.25500000920E-02 0.  1.
       -2    1    3    3    0  502 -0.67558919197E+03  0.41309555156E+03  0.11207251768E+04  0.13722585809E+04  0.25500000920E-02 0. -1.
</event>
<event>
 5   0  0.1035928E-05  0.2198086E+04  0.7818609E-02  0.8519225E-01
       -2   -1    0    0    0  501  0.00000000000E+00  0.00000000000E+00  0.17601851353E+04  0.17601851353E+04  0.25500000920E-02 0.  1.
        2   -1    0    0  501    0  0.00000000000E+00  0.00000000000E+00 -0.68623232862E+03  0.68623232862E+03  0.25500000920E-02 0. -1.
    10030    2    1    2    0    0  0.00000000000E+00  0.00000000000E+00  0.10739528067E+04  0.24464174639E+04  0.21980863897E+04 0.  0.
        3    1    3    3  502    0  0.53075433949E+03 -0.43790132320E+03  0.14907898458E+04  0.16419232967E+04  0.10100000352E+00 0.  1.
       -3    1    3    3    0  502 -0.53075433949E+03  0.43790132320E+03 -0.41683703909E+03  0.80449416723E+03  0.10100000352E+00 0. -1.
</event>
<event>
 5   0  0.4309945E-06  0.2207929E+04  0.7818609E-02  0.8515135E-01
        1   -1    0    0  501    0  0.00000000000E+00  0.00000000000E+00  0.11381317204E+04  0.11381317204E+04  0.50400001928E-02 0.  1.
       -1   -1    0    0    0  501  0.00000000000E+00  0.00000000000E+00 -0.10708228504E+04  0.10708228504E+04  0.50400001928E-02 0. -1.
    10030    2    1    2    0    0  0.00000000000E+00  0.00000000000E+00  0.67308869954E+02  0.22089545708E+04  0.22079288512E+04 0.  0.
        4    1    3    3  502    0 -0.18774752080E+03 -0.84777189374E+03 -0.64840234667E+03  0.10836943902E+04  0.12699999809E+01 0. -1.
       -4    1    3    3    0  502  0.18774752080E+03  0.84777189374E+03  0.71571121663E+03  0.11252601805E+04  0.12699999809E+01 0.  1.
</event>
<event>
 5   0  0.4630615E-06  0.2198979E+04  0.7818609E-02  0.8518853E-01
        1   -1    0    0  501    0  0.00000000000E+00  0.00000000000E+00  0.32628978799E+04  0.32628978799E+04  0.50400001928E-02 0. -1.
       -1   -1    0    0    0  501  0.00000000000E+00  0.00000000000E+00 -0.37049183909E+03  0.37049183912E+03  0.50400001928E-02 0.  1.
    10030    2    1    2    0    0  0.00000000000E+00  0.00000000000E+00  0.28924060408E+04  0.36333897190E+04  0.21989788870E+04 0.  0.
        2    1    3    3  502    0  0.18143759926E+03 -0.69642940035E+03  0.28196509493E+04  0.29100455302E+04  0.25500000920E-02 0. -1.
       -2    1    3    3    0  502 -0.18143759926E+03  0.69642940035E+03  0.72755091491E+02  0.72334418878E+03  0.25500000920E-02 0.  1.
</event>
<event>
 5   0  0.4309945E-06  0.2199478E+04  0.7818609E-02  0.8518646E-01
       -1   -1    0    0    0  501  0.00000000000E+00  0.00000000000E+00  0.80902060736E+03  0.80902060738E+03  0.50400001928E-02 0.  1.
        1   -1    0    0  501    0  0.00000000000E+00  0.00000000000E+00 -0.14949252938E+04  0.14949252938E+04  0.50400001928E-02 0. -1.
    10030    2    1    2    0    0  0.00000000000E+00  0.00000000000E+00 -0.68590468644E+03  0.23039459012E+04  0.21994775463E+04 0.  0.
        4    1    3    3  502    0 -0.24033033071E+03  0.46917116926E+03  0.66805501143E+03  0.85098728846E+03  0.12699999809E+01 0.  1.
       -4    1    3    3    0  502  0.24033033071E+03 -0.46917116926E+03 -0.13539596979E+04  0.14529586127E+04  0.12699999809E+01 0. -1.
</event>
<event>
 5   0  0.1014015E-05  0.2196507E+04  0.7818609E-02  0.8519884E-01
        2   -1    0    0  501    0  0.00000000000E+00  0.00000000000E+00  0.14229127945E+04  0.14229127945E+04  0.25500000920E-02 0.  1.
       -2   -1    0    0    0  501  0.00000000000E+00  0.00000000000E+00 -0.84766980995E+03  0.84766980995E+03  0.25500000920E-02 0. -1.
    10030    2    1    2    0    0  0.00000000000E+00  0.00000000000E+00  0.57524298456E+03  0.22705826045E+04  0.21965065155E+04 0.  0.
        1    1    3    3  502    0  0.40074254538E+03 -0.12475508454E+03  0.13367381968E+04  0.14010808063E+04  0.50400001928E-02 0.  1.
       -1    1    3    3    0  502 -0.40074254538E+03  0.12475508454E+03 -0.76149521225E+03  0.86950179822E+03  0.50400001928E-02 0. -1.
</event>
<event>
 5   0  0.4408787E-06  0.2203029E+04  0.7818609E-02  0.8517168E-01
       -1   -1    0    0    0  501  0.00000000000E+00  0.00000000000E+00  0.12569512612E+04  0.12569512612E+04  0.50400001928E-02 0.  1.
        1   -1    0    0  501    0  0.00000000000E+00  0.00000000000E+00 -0.96529941294E+03  0.96529941295E+03  0.50400001928E-02 0. -1.
    10030    2    1    2    0    0  0.00000000000E+00  0.00000000000E+00  0.29165184824E+03  0.22222506741E+04  0.22030291097E+04 0.  0.
        1    1    3    3  502    0 -0.43871752632E+03 -0.78976871888E+03 -0.48985226297E+03  0.10276978821E+04  0.50400001928E-02 0. -1.
       -1    1    3    3    0  502  0.43871752632E+03  0.78976871888E+03  0.78150411121E+03  0.11945527921E+04  0.50400001928E-02 0.  1.
</event>
<event>
 5   0  0.4309945E-06  0.2200693E+04  0.7818609E-02  0.8518140E-01
       -1   -1    0    0    0  501  0.00000000000E+00  0.00000000000E+00  0.85451947961E+03  0.85451947963E+03  0.50400001928E-02 0. -1.
        1   -1    0    0  501    0  0.00000000000E+00  0.00000000000E+00 -0.14168927875E+04  0.14168927875E+04  0.50400001928E-02 0.  1.
    10030    2    1    2    0    0  0.00000000000E+00  0.00000000000E+00 -0.56237330791E+03  0.22714122672E+04  0.22006930613E+04 0.  0.
        4    1    3    3  502    0  0.10687216523E+04 -0.25096691888E+03 -0.35849700861E+03  0.11548472118E+04  0.12699999809E+01 0. -1.
       -4    1    3    3    0  502 -0.10687216523E+04  0.25096691888E+03 -0.20387629930E+03  0.11165650554E+04  0.12699999809E+01 0.  1.
</event>
<event>
 5   0  0.9963573E-06  0.2200356E+04  0.7818609E-02  0.8518280E-01
       -2   -1    0    0    0  501  0.00000000000E+00  0.00000000000E+00  0.86478067718E+03  0.86478067718E+03  0.25500000920E-02 0.  1.
        2   -1    0    0  501    0  0.00000000000E+00  0.00000000000E+00 -0.13996509641E+04  0.13996509641E+04  0.25500000920E-02 0. -1.
    10030    2    1    2    0    0  0.00000000000E+00  0.00000000000E+00 -0.53487028695E+03  0.22644316413E+04  0.22003555245E+04 0.  0.
        2    1    3    3  502    0  0.45883089227E+03 -0.96472623471E+03  0.32228700328E+01  0.10682850193E+04  0.25500000920E-02 0.  1.
       -2    1    3    3    0  502 -0.45883089227E+03  0.96472623471E+03 -0.53809315698E+03  0.11961466220E+04  0.25500000920E-02 0. -1.
</event>
<event>
 5   0  0.9963573E-06  0.2188641E+04  0.7818609E-02  0.8523171E-01
        2   -1    0    0  501    0  0.00000000000E+00  0.00000000000E+00  0.14596419040E+04  0.14596419040E+04  0.25500000920E-02 0. -1.
       -2   -1    0    0    0  501  0.00000000000E+00  0.00000000000E+00 -0.82043266456E+03  0.82043266457E+03  0.25500000920E-02 0.  1.
    10030    2    1    2    0    0  0.00000000000E+00  0.00000000000E+00  0.63920923941E+03  0.22800745685E+04  0.21886414933E+04 0.  0.
        2    1    3    3  502    0  0.54854623632E+03 -0.27470872394E+03  0.12636458671E+04  0.14046952459E+04  0.25500000920E-02 0. -1.
       -2    1    3    3    0  502 -0.54854623632E+03  0.27470872394E+03 -0.62443662773E+03  0.87537932261E+03  0.25500000920E-02 0.  1.
</event>
<event>
 5   0  0.1015876E-05  0.2206808E+04  0.7818609E-02  0.8515600E-01
        2   -1    0    0  501    0  0.00000000000E+00  0.00000000000E+00  0.22771948764E+04  0.22771948764E+04  0.25500000920E-02 0. -1.
       -2   -1    0    0    0  501  0.00000000000E+00  0.00000000000E+00 -0.53464911610E+03  0.53464911611E+03  0.25500000920E-02 0.  1.
    10030    2    1    2    0    0  0.00000000000E+00  0.00000000000E+00  0.17425457603E+04  0.28118439925E+04  0.22068078556E+04 0.  0.
        5    1    3    3  502    0 -0.75366918288E+03 -0.50373981678E+03  0.16727915081E+04  0.19026362132E+04  0.46999998093E+01 0. -1.
       -5    1    3    3    0  502  0.75366918288E+03  0.50373981678E+03  0.69754252192E+02  0.90920777930E+03  0.46999998093E+01 0.  1.
</event>
<event>
 5   0  0.1014015E-05  0.2194738E+04  0.7818609E-02  0.8520622E-01
        2   -1    0    0  501    0  0.00000000000E+00  0.00000000000E+00  0.20421233015E+04  0.20421233015E+04  0.25500000920E-02 0.  1.
       -2   -1    0    0    0  501  0.00000000000E+00  0.00000000000E+00 -0.58968942184E+03  0.58968942185E+03  0.25500000920E-02 0. -1.
    10030    2    1    2    0    0  0.00000000000E+00  0.00000000000E+00  0.14524338796E+04  0.26318127233E+04  0.21947378057E+04 0.  0.
        1    1    3    3  502    0  0.24783699268E+03  0.73582014419E+03 -0.20369338193E+03  0.80271131387E+03  0.50400001928E-02 0. -1.
       -1    1    3    3    0  502 -0.24783699268E+03 -0.73582014419E+03  0.16561272616E+04  0.18291014094E+04  0.50400001928E-02 0.  1.
</event>
<event>
 5   0  0.4462201E-06  0.2199348E+04  0.7818609E-02  0.8518700E-01
       -1   -1    0    0    0  501  0.00000000000E+00  0.00000000000E+00  0.11097998292E+04  0.11097998292E+04  0.50400001928E-02 0.  1.
        1   -1    0    0  501    0  0.00000000000E+00  0.00000000000E+00 -0.10896405155E+04  0.10896405155E+04  0.50400001928E-02 0. -1.
    10030    2    1    2    0    0  0.00000000000E+00  0.00000000000E+00  0.20159313658E+02  0.21994403447E+04  0.21993479561E+04 0.  0.
        3    1    3    3  502    0 -0.43410975559E+02 -0.10178176237E+04  0.42415697335E+03  0.11035154626E+04  0.10100000352E+00 0.  1.
       -3    1    3    3    0  502  0.43410975559E+02  0.10178176237E+04 -0.40399765970E+03  0.10959248821E+04  0.10100000352E+00 0. -1.
</event>
<event>
 5   0  0.9963173E-06  0.2150292E+04  0.7818609E-02  0.8539407E-01
       -2   -1    0    0    0  501  0.00000000000E+00  0.00000000000E+00  0.13364540751E+04  0.13364540751E+04  0.25500000920E-02 0.  1.
        2   -1    0    0  501    0  0.00000000000E+00  0.00000000000E+00 -0.86492947314E+03  0.86492947315E+03  0.25500000920E-02 0. -1.
    10030    2    1    2    0    0  0.00000000000E+00  0.00000000000E+00  0.47152460198E+03  0.22013835483E+04  0.21502916259E+04 0.  0.
        4    1    3    3  502    0 -0.10475236547E+04 -0.45229383330E+02  0.47929122791E+03  0.11528543700E+04  0.12699999809E+01 0. -1.
       -4    1    3    3    0  502  0.10475236547E+04  0.45229383330E+02 -0.77666259335E+01  0.10485291783E+04  0.12699999809E+01 0.  1.
</event>
<event>
 5   0  0.1015876E-05  0.2194219E+04  0.7818609E-02  0.8520838E-01
        2   -1    0    0  501    0  0.00000000000E+00  0.00000000000E+00  0.75632756327E+03  0.75632756327E+03  0.25500000920E-02 0.  1.
       -2   -1    0    0    0  501  0.00000000000E+00  0.00000000000E+00 -0.15914384794E+04  0.15914384794E+04  0.25500000920E-02 0. -1.
    10030    2    1    2    0    0  0.00000000000E+00  0.00000000000E+00 -0.83511091616E+03  0.23477660427E+04  0.21942185737E+04 0.  0.
        5    1    3    3  502    0  0.95236777036E+03 -0.17632606382E+03  0.13380156449E+03  0.97776285440E+03  0.46999998093E+01 0.  1.
       -5    1    3    3    0  502 -0.95236777036E+03  0.17632606382E+03 -0.96891248065E+03  0.13700031883E+04  0.46999998093E+01 0. -1.
</event>
<event>
 5   0  0.1014015E-05  0.2196132E+04  0.7818609E-02  0.8520040E-01
       -2   -1    0    0    0  501  0.00000000000E+00  0.00000000000E+00  0.11077205807E+04  0.11077205807E+04  0.25500000920E-02 0. -1.
        2   -1    0    0  501    0  0.00000000000E+00  0.00000000000E+00 -0.10884954651E+04  0.10884954651E+04  0.25500000920E-02 0.  1.
    10030    2    1    2    0    0  0.00000000000E+00  0.00000000000E+00  0.19225115587E+02  0.21962160458E+04  0.21961318983E+04 0.  0.
        1    1    3    3  502    0  0.12443317855E+01 -0.59735540627E+02  0.11060937811E+04  0.11077063401E+04  0.50400001928E-02 0. -1.
       -1    1    3    3    0  502 -0.12443317855E+01  0.59735540627E+02 -0.10868686656E+04  0.10885097057E+04  0.50400001928E-02 0.  1.
</event>
<event>
 5   0  0.4408787E-06  0.2199844E+04  0.7818609E-02  0.8518493E-01
       -1   -1    0    0    0  501  0.00000000000E+00  0.00000000000E+00  0.76314001936E+03  0.76314001938E+03  0.50400001928E-02 0. -1.
        1   -1    0    0  501    0  0.00000000000E+00  0.00000000000E+00 -0.15853300580E+04  0.15853300580E+04  0.50400001928E-02 0.  1.
    10030    2    1    2    0    0  0.00000000000E+00  0.00000000000E+00 -0.82219003867E+03  0.23484700774E+04  0.21998443683E+04 0.  0.
        1    1    3    3  502    0 -0.10524710944E+04  0.24564657560E+03 -0.19285453302E+03  0.10978299120E+04  0.50400001928E-02 0.  1.
       -1    1    3    3    0  502  0.10524710944E+04 -0.24564657560E+03 -0.62933550565E+03  0.12506401654E+04  0.50400001928E-02 0. -1.
</event>
<event>
 5   0  0.4630615E-06  0.2199310E+04  0.7818609E-02  0.8518716E-01
       -1   -1    0    0    0  501  0.00000000000E+00  0.00000000000E+00  0.59879509185E+03  0.59879509187E+03  0.50400001928E-02 0. -1.
        1   -1    0    0  501    0  0.00000000000E+00  0.00000000000E+00 -0.20194565826E+04  0.20194565826E+04  0.50400001928E-02 0.  1.
    10030    2    1    2    0    0  0.00000000000E+00  0.00000000000E+00 -0.14206614908E+04  0.26182516745E+04  0.21993096098E+04 0.  0.
        2    1    3    3  502    0  0.89926691653E+03 -0.45174344429E+03 -0.18262411427E+03  0.10227925957E+04  0.25500000920E-02 0. -1.
       -2    1    3    3    0  502 -0.89926691653E+03  0.45174344429E+03 -0.12380373765E+04  0.15954590788E+04  0.25500000920E-02 0.  1.
</event>
<event>
 5   0  0.4630615E-06  0.2200239E+04  0.7818609E-02  0.8518329E-01
       -1   -1    0    0    0  501  0.00000000000E+00  0.00000000000E+00  0.86508549613E+03  0.86508549614E+03  0.50400001928E-02 0.  1.
        1   -1    0    0  501    0  0.00000000000E+00  0.00000000000E+00 -0.13990094603E+04  0.13990094603E+04  0.50400001928E-02 0. -1.
    10030    2    1    2    0    0  0.00000000000E+00  0.00000000000E+00 -0.53392396414E+03  0.22640949564E+04  0.22002388898E+04 0.  0.
        2    1    3    3  502    0  0.13950073497E+03 -0.90119321138E+03  0.36624482987E+03  0.98272322386E+03  0.25500000920E-02 0.  1.
       -2    1    3    3    0  502 -0.13950073497E+03  0.90119321138E+03 -0.90016879401E+03  0.12813717326E+04  0.25500000920E-02 0. -1.
</event>
<event>
 5   0  0.9963573E-06  0.2200861E+04  0.7818609E-02  0.8518070E-01
        2   -1    0    0  501    0  0.00000000000E+00  0.00000000000E+00  0.91018261164E+03  0.91018261165E+03  0.25500000920E-02 0. -1.
       -2   -1    0    0    0  501  0.00000000000E+00  0.00000000000E+00 -0.13304441292E+04  0.13304441292E+04  0.25500000920E-02 0.  1.
    10030    2    1    2    0    0  0.00000000000E+00  0.00000000000E+00 -0.42026151759E+03  0.22406267409E+04  0.22008608427E+04 0.  0.
        2    1    3    3  502    0 -0.10034143619E+04 -0.25525529580E+03 -0.58962788854E+03  0.11914934723E+04  0.25500000920E-02 0.  1.
       -2    1    3    3    0  502  0.10034143619E+04  0.25525529580E+03  0.16936637095E+03  0.10491332686E+04  0.25500000920E-02 0. -1.
</event>
<event>
 5   0  0.9963173E-06  0.2204539E+04  0.7818609E-02  0.8516541E-01
        2   -1    0    0  501    0  0.00000000000E+00  0.00000000000E+00  0.17934432522E+04  0.17934432522E+04  0.25500000920E-02 0. -1.
       -2   -1    0    0    0  501  0.00000000000E+00  0.00000000000E+00 -0.67746690390E+03  0.67746690391E+03  0.25500000920E-02 0.  1.
    10030    2    1    2    0    0  0.00000000000E+00  0.00000000000E+00  0.11159763483E+04  0.24709101561E+04  0.22045393600E+04 0.  0.
        4    1    3    3  502    0 -0.22685015617E+03 -0.20022535196E+03  0.17459845909E+04  0.17720087442E+04  0.12699999809E+01 0. -1.
       -4    1    3    3    0  502  0.22685015617E+03  0.20022535196E+03 -0.63000824261E+03  0.69890141191E+03  0.12699999809E+01 0.  1.
</event>
<event>
 5   0  0.1015876E-05  0.2201744E+04  0.7818609E-02  0.8517703E-01
        2   -1    0    0  501    0  0.00000000000E+00  0.00000000000E+00  0.15404167344E+04  0.15404167344E+04  0.25500000920E-02 0. -1.
       -2   -1    0    0    0  501  0.00000000000E+00  0.00000000000E+00 -0.78674764716E+03  0.78674764716E+03  0.25500000920E-02 0.  1.
    10030    2    1    2    0    0  0.00000000000E+00  0.00000000000E+00  0.75366908721E+03  0.23271643815E+04  0.22017440736E+04 0.  0.
        5    1    3    3  502    0  0.53072483546E+03  0.91208420875E+03  0.70827443888E+03  0.12709214081E+04  0.46999998093E+01 0. -1.
       -5    1    3    3    0  502 -0.53072483546E+03 -0.91208420875E+03  0.45394648338E+02  0.10562429734E+04  0.46999998093E+01 0.  1.
</event>
<event>
 5   0  0.4408787E-06  0.2183990E+04  0.7818609E-02  0.8525122E-01
        1   -1    0    0  501    0  0.00000000000E+00  0.00000000000E+00  0.17310480045E+04  0.17310480045E+04  0.50400001928E-02 0.  1.
       -1   -1    0    0    0  501  0.00000000000E+00  0.00000000000E+00 -0.68886172799E+03  0.68886172801E+03  0.50400001928E-02 0. -1.
    10030    2    1    2    0    0  0.00000000000E+00  0.00000000000E+00  0.10421862765E+04  0.24199097325E+04  0.21839896700E+04 0.  0.
        1    1    3    3  502    0  0.10649842273E+04  0.67903159438E+02  0.77773965621E+03  0.13204852201E+04  0.50400001928E-02 0. -1.
       -1    1    3    3    0  502 -0.10649842273E+04 -0.67903159438E+02  0.26444662029E+03  0.10994245124E+04  0.50400001928E-02 0.  1.
</event>
<event>
 5   0  0.4309945E-06  0.2200411E+04  0.7818609E-02  0.8518257E-01
        1   -1    0    0  501    0  0.00000000000E+00  0.00000000000E+00  0.12367696938E+04  0.12367696938E+04  0.50400001928E-02 0.  1.
       -1   -1    0    0    0  501  0.00000000000E+00  0.00000000000E+00 -0.97872095814E+03  0.97872095815E+03  0.50400001928E-02 0. -1.
    10030    2    1    2    0    0  0.00000000000E+00  0.00000000000E+00  0.25804873564E+03  0.22154906519E+04  0.22004112522E+04 0.  0.
        4    1    3    3  502    0  0.93145328793E+02 -0.80040704303E+03 -0.62519073351E+03  0.10198983052E+04  0.12699999809E+01 0. -1.
       -4    1    3    3    0  502 -0.93145328793E+02  0.80040704303E+03  0.88323946914E+03  0.11955923467E+04  0.12699999809E+01 0.  1.
</event>
<event>
 5   0  0.9963573E-06  0.2199213E+04  0.7818609E-02  0.8518756E-01
       -2   -1    0    0    0  501  0.00000000000E+00  0.00000000000E+00  0.88860987757E+03  0.88860987757E+03  0.25500000920E-02 0. -1.
        2   -1    0    0  501    0  0.00000000000E+00  0.00000000000E+00 -0.13607029826E+04  0.13607029826E+04  0.25500000920E-02 0.  1.
    10030    2    1    2    0    0  0.00000000000E+00  0.00000000000E+00 -0.47209310506E+03  0.22493128602E+04  0.21992126871E+04 0.  0.
        2    1    3    3  502    0 -0.13310888786E+03  0.28681991587E+03 -0.13132007247E+04  0.13507330541E+04  0.25500000920E-02 0.  1.
       -2    1    3    3    0  502  0.13310888786E+03 -0.28681991587E+03  0.84110761961E+03  0.89857980610E+03  0.25500000920E-02 0. -1.
</event>
<event>
 5   0  0.1014015E-05  0.2201355E+04  0.7818609E-02  0.8517864E-01
       -2   -1    0    0    0  501  0.00000000000E+00  0.00000000000E+00  0.75850931169E+03  0.75850931169E+03  0.25500000920E-02 0.  1.
        2   -1    0    0  501    0  0.00000000000E+00  0.00000000000E+00 -0.15971997222E+04  0.15971997222E+04  0.25500000920E-02 0. -1.
    10030    2    1    2    0    0  0.00000000000E+00  0.00000000000E+00 -0.83869041056E+03  0.23557090339E+04  0.22013549118E+04 0.  0.
        1    1    3    3  502    0 -0.10901474954E+04  0.13113429120E+03 -0.50135490068E+03  0.12070519875E+04  0.50400001928E-02 0. -1.
       -1    1    3    3    0  502  0.10901474954E+04 -0.13113429120E+03 -0.33733550987E+03  0.11486570464E+04  0.50400001928E-02 0.  1.
</event>
<event>
 5   0  0.1014015E-05  0.2201356E+04  0.7818609E-02  0.8517864E-01
       -2   -1    0    0    0  501  0.00000000000E+00  0.00000000000E+00  0.29764902498E+04  0.29764902498E+04  0.25500000920E-02 0. -1.
        2   -1    0    0  501    0  0.00000000000E+00  0.00000000000E+00 -0.40702022558E+03  0.40702022559E+03  0.25500000920E-02 0.  1.
    10030    2    1    2    0    0  0.00000000000E+00  0.00000000000E+00  0.25694700242E+04  0.33835104754E+04  0.22013557031E+04 0.  0.
        1    1    3    3  502    0 -0.43236284104E+02 -0.80659410480E+03  0.24339312667E+04  0.25644657996E+04  0.50400001928E-02 0. -1.
       -1    1    3    3    0  502  0.43236284104E+02  0.80659410480E+03  0.13553875751E+03  0.81904467581E+03  0.50400001928E-02 0.  1.
</event>
<event>
 5   0  0.4630615E-06  0.2200172E+04  0.7818609E-02  0.8518357E-01
       -1   -1    0    0    0  501  0.00000000000E+00  0.00000000000E+00  0.88067201516E+03  0.88067201517E+03  0.50400001928E-02 0.  1.
        1   -1    0    0  501    0  0.00000000000E+00  0.00000000000E+00 -0.13741652481E+04  0.13741652481E+04  0.50400001928E-02 0. -1.
    10030    2    1    2    0    0  0.00000000000E+00  0.00000000000E+00 -0.49349323294E+03  0.22548372633E+04  0.22001717008E+04 0.  0.
        2    1    3    3  502    0 -0.10342227385E+04  0.82772944177E+02 -0.62151089227E+03  0.12094394662E+04  0.25500000920E-02 0. -1.
       -2    1    3    3    0  502  0.10342227385E+04 -0.82772944177E+02  0.12801765933E+03  0.10453977971E+04  0.25500000920E-02 0.  1.
</event>
<event>
 5   0  0.1015876E-05  0.2208823E+04  0.7818609E-02  0.8514765E-01
        2   -1    0    0  501    0  0.00000000000E+00  0.00000000000E+00  0.15043800415E+04  0.15043800415E+04  0.25500000920E-02 0. -1.
       -2   -1    0    0    0  501  0.00000000000E+00  0.00000000000E+00 -0.81078243435E+03  0.81078243436E+03  0.25500000920E-02 0.  1.
    10030    2    1    2    0    0  0.00000000000E+00  0.00000000000E+00  0.69359760716E+03  0.23151624759E+04  0.22088231367E+04 0.  0.
        5    1    3    3  502    0  0.79521459244E+03  0.71777074251E+03  0.62832176655E+03  0.12419224691E+04  0.46999998093E+01 0. -1.
       -5    1    3    3    0  502 -0.79521459244E+03 -0.71777074251E+03  0.65275840607E+02  0.10732400068E+04  0.46999998093E+01 0.  1.
</event>
<event>
 5   0  0.4309945E-06  0.2201990E+04  0.7818609E-02  0.8517600E-01
       -1   -1    0    0    0  501  0.00000000000E+00  0.00000000000E+00  0.10883992535E+04  0.10883992536E+04  0.50400001928E-02 0. -1.
        1   -1    0    0  501    0  0.00000000000E+00  0.00000000000E+00 -0.11137360530E+04  0.11137360530E+04  0.50400001928E-02 0.  1.
    10030    2    1    2    0    0  0.00000000000E+00  0.00000000000E+00 -0.25336799476E+02  0.22021353066E+04  0.22019895447E+04 0.  0.
        4    1    3    3  502    0  0.32068072185E+02 -0.24691672737E+03  0.10598724734E+04  0.10887274701E+04  0.12699999809E+01 0. -1.
       -4    1    3    3    0  502 -0.32068072185E+02  0.24691672737E+03 -0.10852092729E+04  0.11134078365E+04  0.12699999809E+01 0.  1.
</event>
<event>
 5   0  0.4408787E-06  0.2198161E+04  0.7818609E-02  0.8519194E-01
       -1   -1    0    0    0  501  0.00000000000E+00  0.00000000000E+00  0.73054425525E+03  0.73054425527E+03  0.50400001928E-02 0. -1.
        1   -1    0    0  501    0  0.00000000000E+00  0.00000000000E+00 -0.16535318168E+04  0.16535318168E+04  0.50400001928E-02 0.  1.
    10030    2    1    2    0    0  0.00000000000E+00  0.00000000000E+00 -0.92298756152E+03  0.23840760720E+04  0.21981612040E+04 0.  0.
        1    1    3    3  502    0  0.95904577017E+03 -0.24173357856E+03  0.58395970189E+02  0.99076435222E+03  0.50400001928E-02 0. -1.
       -1    1    3    3    0  502 -0.95904577017E+03  0.24173357856E+03 -0.98138353171E+03  0.13933117198E+04  0.50400001928E-02 0.  1.
</event>
<event>
 5   0  0.4408787E-06  0.2204481E+04  0.7818609E-02  0.8516565E-01
        1   -1    0    0  501    0  0.00000000000E+00  0.00000000000E+00  0.90449713961E+03  0.90449713962E+03  0.50400001928E-02 0.  1.
       -1   -1    0    0    0  501  0.00000000000E+00  0.00000000000E+00 -0.13432150840E+04  0.13432150840E+04  0.50400001928E-02 0. -1.
    10030    2    1    2    0    0  0.00000000000E+00  0.00000000000E+00 -0.43871794438E+03  0.22477122236E+04  0.22044810740E+04 0.  0.
        1    1    3    3  502    0  0.30778907282E+03 -0.69817720842E+03  0.59169537136E+03  0.96555110700E+03  0.50400001928E-02 0.  1.
       -1    1    3    3    0  502 -0.30778907282E+03  0.69817720842E+03 -0.10304133157E+04  0.12821611166E+04  0.50400001928E-02 0. -1.
</event>
<event>
 5   0  0.4630615E-06  0.2199268E+04  0.7818609E-02  0.8518733E-01
        1   -1    0    0  501    0  0.00000000000E+00  0.00000000000E+00  0.17081085938E+04  0.17081085938E+04  0.50400001928E-02 0. -1.
       -1   -1    0    0    0  501  0.00000000000E+00  0.00000000000E+00 -0.70791444426E+03  0.70791444428E+03  0.50400001928E-02 0.  1.
    10030    2    1    2    0    0  0.00000000000E+00  0.00000000000E+00  0.10001941496E+04  0.24160230381E+04  0.21992678290E+04 0.  0.
        2    1    3    3  502    0 -0.10359741556E+04  0.32158911045E+03  0.30195200818E+03  0.11259826918E+04  0.25500000920E-02 0. -1.
       -2    1    3    3    0  502  0.10359741556E+04 -0.32158911045E+03  0.69824214140E+03  0.12900403463E+04  0.25500000920E-02 0.  1.
</event>
<event>
 5   0  0.4408787E-06  0.2198862E+04  0.7818609E-02  0.8518902E-01
        1   -1    0    0  501    0  0.00000000000E+00  0.00000000000E+00  0.19434923159E+04  0.19434923159E+04  0.50400001928E-02 0.  1.
       -1   -1    0    0    0  501  0.00000000000E+00  0.00000000000E+00 -0.62194652652E+03  0.62194652654E+03  0.50400001928E-02 0. -1.
    10030    2    1    2    0    0  0.00000000000E+00  0.00000000000E+00  0.13215457894E+04  0.25654388424E+04  0.21988617921E+04 0.  0.
        1    1    3    3  502    0 -0.22544152900E+03 -0.67361598219E+03 -0.31826890557E+03  0.77838131448E+03  0.50400001928E-02 0. -1.
       -1    1    3    3    0  502  0.22544152900E+03  0.67361598219E+03  0.16398146949E+04  0.17870575280E+04  0.50400001928E-02 0.  1.
</event>
<event>
 5   0  0.1035928E-05  0.2243470E+04  0.7818609E-02  0.8500550E-01
        2   -1    0    0  501    0  0.00000000000E+00  0.00000000000E+00  0.23917554988E+04  0.23917554988E+04  0.25500000920E-02 0.  1.
       -2   -1    0    0    0  501  0.00000000000E+00  0.00000000000E+00 -0.52609458223E+03  0.52609458224E+03  0.25500000920E-02 0. -1.
    10030    2    1    2    0    0  0.00000000000E+00  0.00000000000E+00  0.18656609166E+04  0.29178500811E+04  0.22434701781E+04 0.  0.
        3    1    3    3  502    0 -0.25134376609E+03  0.16807646942E+03 -0.47209475097E+03  0.56062184440E+03  0.10100000352E+00 0. -1.
       -3    1    3    3    0  502  0.25134376609E+03 -0.16807646942E+03  0.23377556676E+04  0.23572282367E+04  0.10100000352E+00 0.  1.
</event>
<event>
 5   0  0.4462201E-06  0.2195410E+04  0.7818609E-02  0.8520341E-01
        1   -1    0    0  501    0  0.00000000000E+00  0.00000000000E+00  0.17773610885E+04  0.17773610886E+04  0.50400001928E-02 0.  1.
       -1   -1    0    0    0  501  0.00000000000E+00  0.00000000000E+00 -0.67794668633E+03  0.67794668635E+03  0.50400001928E-02 0. -1.
    10030    2    1    2    0    0  0.00000000000E+00  0.00000000000E+00  0.10994144022E+04  0.24553077749E+04  0.21954098118E+04 0.  0.
        3    1    3    3  502    0  0.86413572876E+03 -0.55716905885E+03  0.11976495728E+03  0.10351384318E+04  0.10100000352E+00 0. -1.
       -3    1    3    3    0  502 -0.86413572876E+03  0.55716905885E+03  0.97964944493E+03  0.14201693431E+04  0.10100000352E+00 0.  1.
</event>
<event>
 5   0  0.9963173E-06  0.2206862E+04  0.7818609E-02  0.8515577E-01
        2   -1    0    0  501    0  0.00000000000E+00  0.00000000000E+00  0.10566803070E+04  0.10566803070E+04  0.25500000920E-02 0. -1.
       -2   -1    0    0    0  501  0.00000000000E+00  0.00000000000E+00 -0.11522504165E+04  0.11522504165E+04  0.25500000920E-02 0.  1.
    10030    2    1    2    0    0  0.00000000000E+00  0.00000000000E+00 -0.95570109476E+02  0.22089307235E+04  0.22068623190E+04 0.  0.
        4    1    3    3  502    0  0.68352361441E+03  0.28797191904E+03  0.76994231060E+03  0.10690861201E+04  0.12699999809E+01 0. -1.
       -4    1    3    3    0  502 -0.68352361441E+03 -0.28797191904E+03 -0.86551242007E+03  0.11398446034E+04  0.12699999809E+01 0.  1.
</event>
<event>
 5   0  0.1035928E-05  0.2200921E+04  0.7818609E-02  0.8518045E-01
        2   -1    0    0  501    0  0.00000000000E+00  0.00000000000E+00  0.99349482137E+03  0.99349482137E+03  0.25500000920E-02 0. -1.
       -2   -1    0    0    0  501  0.00000000000E+00  0.00000000000E+00 -0.12189433056E+04  0.12189433056E+04  0.25500000920E-02 0.  1.
    10030    2    1    2    0    0  0.00000000000E+00  0.00000000000E+00 -0.22544848420E+03  0.22124381269E+04  0.22009214994E+04 0.  0.
        3    1    3    3  502    0 -0.39719941480E+02 -0.10045392022E+04  0.33720823988E+03  0.10603707322E+04  0.10100000352E+00 0. -1.
       -3    1    3    3    0  502  0.39719941480E+02  0.10045392022E+04 -0.56265672408E+03  0.11520673947E+04  0.10100000352E+00 0.  1.
</event>
<event>
 5   0  0.9963573E-06  0.2200453E+04  0.7818609E-02  0.8518240E-01
       -2   -1    0    0    0  501  0.00000000000E+00  0.00000000000E+00  0.93995840443E+03  0.93995840443E+03  0.25500000920E-02 0. -1.
        2   -1    0    0  501    0  0.00000000000E+00  0.00000000000E+00 -0.12878210352E+04  0.12878210352E+04  0.25500000920E-02 0.  1.
    10030    2    1    2    0    0  0.00000000000E+00  0.00000000000E+00 -0.34786263080E+03  0.22277794397E+04  0.22004528675E+04 0.  0.
        2    1    3    3  502    0 -0.54672140594E+03 -0.50372825882E+03 -0.99508441841E+03  0.12421108864E+04  0.25500000920E-02 0.  1.
       -2    1    3    3    0  502  0.54672140594E+03  0.50372825882E+03  0.64722178761E+03  0.98566855322E+03  0.25500000920E-02 0. -1.
</event>
<event>
 5   0  0.4794967E-06  0.2199533E+04  0.7818609E-02  0.8518623E-01
       -1   -1    0    0    0  501  0.00000000000E+00  0.00000000000E+00  0.12610826785E+04  0.12610826786E+04  0.50400001928E-02 0.  1.
        1   -1    0    0  501    0  0.00000000000E+00  0.00000000000E+00 -0.95908526668E+03  0.95908526669E+03  0.50400001928E-02 0. -1.
    10030    2    1    2    0    0  0.00000000000E+00  0.00000000000E+00  0.30199741186E+03  0.22201679452E+04  0.21995325113E+04 0.  0.
        5    1    3    3  502    0  0.50345359899E+03  0.96925183972E+03  0.28084879872E+03  0.11277467769E+04  0.46999998093E+01 0.  1.
       -5    1    3    3    0  502 -0.50345359899E+03 -0.96925183972E+03  0.21148613140E+02  0.10924211683E+04  0.46999998093E+01 0. -1.
</event>
<event>
 5   0  0.4408787E-06  0.2210966E+04  0.7818609E-02  0.8513878E-01
        1   -1    0    0  501    0  0.00000000000E+00  0.00000000000E+00  0.14197331862E+04  0.14197331862E+04  0.50400001928E-02 0.  1.
       -1   -1    0    0    0  501  0.00000000000E+00  0.00000000000E+00 -0.86079024256E+03  0.86079024258E+03  0.50400001928E-02 0. -1.
    10030    2    1    2    0    0  0.00000000000E+00  0.00000000000E+00  0.55894294363E+03  0.22805234288E+04  0.22109658285E+04 0.  0.
        1    1    3    3  502    0 -0.49944649162E+03 -0.22871090568E+03 -0.71005165383E+03  0.89773538835E+03  0.50400001928E-02 0. -1.
       -1    1    3    3    0  502  0.49944649162E+03  0.22871090568E+03  0.12689945975E+04  0.13827880404E+04  0.50400001928E-02 0.  1.
</event>
<event>
 5   0  0.9963173E-06  0.2199187E+04  0.7818609E-02  0.8518767E-01
       -2   -1    0    0    0  501  0.00000000000E+00  0.00000000000E+00  0.78386332563E+03  0.78386332564E+03  0.25500000920E-02 0.  1.
        2   -1    0    0  501    0  0.00000000000E+00  0.00000000000E+00 -0.15424958631E+04  0.15424958631E+04  0.25500000920E-02 0. -1.
    10030    2    1    2    0    0  0.00000000000E+00  0.00000000000E+00 -0.75863253746E+03  0.23263591887E+04  0.21991870653E+04 0.  0.
        4    1    3    3  502    0 -0.93741721899E+03  0.32770492910E+03 -0.87881083128E+03  0.13260662325E+04  0.12699999809E+01 0. -1.
       -4    1    3    3    0  502  0.93741721899E+03 -0.32770492910E+03  0.12017829382E+03  0.10002929562E+04  0.12699999809E+01 0.  1.
</event>
<event>
 5   0  0.9963173E-06  0.2201122E+04  0.7818609E-02  0.8517961E-01
       -2   -1    0    0    0  501  0.00000000000E+00  0.00000000000E+00  0.59891690364E+03  0.59891690364E+03  0.25500000920E-02 0. -1.
        2   -1    0    0  501    0  0.00000000000E+00  0.00000000000E+00 -0.20223757993E+04  0.20223757993E+04  0.25500000920E-02 0.  1.
    10030    2    1    2    0    0  0.00000000000E+00  0.00000000000E+00 -0.14234588957E+04  0.26212927029E+04  0.22011224879E+04 0.  0.
        4    1    3    3  502    0  0.68701993357E+03  0.81215508537E+03 -0.10478074720E+04  0.14931491497E+04  0.12699999809E+01 0.  1.
       -4    1    3    3    0  502 -0.68701993357E+03 -0.81215508537E+03 -0.37565142362E+03  0.11281435533E+04  0.12699999809E+01 0. -1.
</event>
<event>
 5   0  0.1015876E-05  0.2198907E+04  0.7818609E-02  0.8518883E-01
        2   -1    0    0  501    0  0.00000000000E+00  0.00000000000E+00  0.17827089456E+04  0.17827089456E+04  0.25500000920E-02 0.  1.
       -2   -1    0    0    0  501  0.00000000000E+00  0.00000000000E+00 -0.67806822302E+03  0.67806822302E+03  0.25500000920E-02 0. -1.
    10030    2    1    2    0    0  0.00000000000E+00  0.00000000000E+00  0.11046407226E+04  0.24607771686E+04  0.21989072622E+04 0.  0.
        5    1    3    3  502    0  0.38307671975E+02  0.10969404153E+04  0.48127399943E+03  0.11984959345E+04  0.46999998093E+01 0.  1.
       -5    1    3    3    0  502 -0.38307671975E+02 -0.10969404153E+04  0.62336672315E+03  0.12622812341E+04  0.46999998093E+01 0. -1.
</event>
<event>
 5   0  0.1035928E-05  0.2197938E+04  0.7818609E-02  0.8519287E-01
       -2   -1    0    0    0  501  0.00000000000E+00  0.00000000000E+00  0.39892065465E+03  0.39892065465E+03  0.25500000920E-02 0. -1.
        2   -1    0    0  501    0  0.00000000000E+00  0.00000000000E+00 -0.30275013012E+04  0.30275013012E+04  0.25500000920E-02 0.  1.
    10030    2    1    2    0    0  0.00000000000E+00  0.00000000000E+00 -0.26285806465E+04  0.34264219558E+04  0.21979379436E+04 0.  0.
        3    1    3    3  502    0 -0.23084319549E+03  0.86329078238E+03 -0.23114828766E+04  0.24782075488E+04  0.10100000352E+00 0.  1.
       -3    1    3    3    0  502  0.23084319549E+03 -0.86329078238E+03 -0.31709776994E+03  0.94821440706E+03  0.10100000352E+00 0. -1.
</event>
<event>
 5   0  0.9963173E-06  0.2199773E+04  0.7818609E-02  0.8518523E-01
        2   -1    0    0  501    0  0.00000000000E+00  0.00000000000E+00  0.10648533145E+04  0.10648533145E+04  0.25500000920E-02 0.  1.
       -2   -1    0    0    0  501  0.00000000000E+00  0.00000000000E+00 -0.11360721399E+04  0.11360721399E+04  0.25500000920E-02 0. -1.
    10030    2    1    2    0    0  0.00000000000E+00  0.00000000000E+00 -0.71218825452E+02  0.22009254544E+04  0.21997728825E+04 0.  0.
        4    1    3    3  502    0  0.96334385956E+03  0.37977527046E+03 -0.40659732954E+03  0.11124673699E+04  0.12699999809E+01 0. -1.
       -4    1    3    3    0  502 -0.96334385956E+03 -0.37977527046E+03  0.33537850409E+03  0.10884580845E+04  0.12699999809E+01 0.  1.
</event>
<event>
 5   0  0.4794967E-06  0.2197559E+04  0.7818609E-02  0.8519445E-01
       -1   -1    0    0    0  501  0.00000000000E+00  0.00000000000E+00  0.94440338351E+03  0.94440338353E+03  0.50400001928E-02 0. -1.
        1   -1    0    0  501    0  0.00000000000E+00  0.00000000000E+00 -0.12783910793E+04  0.12783910793E+04  0.50400001928E-02 0.  1.
    10030    2    1    2    0    0  0.00000000000E+00  0.00000000000E+00 -0.33398769578E+03  0.22227944628E+04  0.21975594288E+04 0.  0.
        5    1    3    3  502    0 -0.20548856327E+02  0.10978011360E+04 -0.12522582494E+03  0.11051213449E+04  0.46999998093E+01 0. -1.
       -5    1    3    3    0  502  0.20548856327E+02 -0.10978011360E+04 -0.20876187084E+03  0.11176731179E+04  0.46999998093E+01 0.  1.
</event>
<event>
 5   0  0.4630615E-06  0.2192575E+04  0.7818609E-02  0.8521525E-01
       -1   -1    0    0    0  501  0.00000000000E+00  0.00000000000E+00  0.84727543259E+03  0.84727543260E+03  0.50400001928E-02 0. -1.
        1   -1    0    0  501    0  0.00000000000E+00  0.00000000000E+00 -0.14184840933E+04  0.14184840933E+04  0.50400001928E-02 0.  1.
    10030    2    1    2    0    0  0.00000000000E+00  0.00000000000E+00 -0.57120866069E+03  0.22657595259E+04  0.21925754024E+04 0.  0.
        2    1    3    3  502    0 -0.20573210262E+03 -0.75141999810E+03  0.51143040862E+03  0.93194354682E+03  0.25500000920E-02 0. -1.
       -2    1    3    3    0  502  0.20573210262E+03  0.75141999810E+03 -0.10826390693E+04  0.13338159791E+04  0.25500000920E-02 0.  1.
</event>
<event>
 5   0  0.9963173E-06  0.2192224E+04  0.7818609E-02  0.8521672E-01
       -2   -1    0    0    0  501  0.00000000000E+00  0.00000000000E+00  0.87387866793E+03  0.87387866793E+03  0.25500000920E-02 0. -1.
        2   -1    0    0  501    0  0.00000000000E+00  0.00000000000E+00 -0.13748601921E+04  0.13748601921E+04  0.25500000920E-02 0.  1.
    10030    2    1    2    0    0  0.00000000000E+00  0.00000000000E+00 -0.50098152416E+03  0.22487388600E+04  0.21922235226E+04 0.  0.
        4    1    3    3  502    0 -0.69841658645E+03 -0.69201755385E+03 -0.74752887932E+03  0.12351012353E+04  0.12699999809E+01 0. -1.
       -4    1    3    3    0  502  0.69841658645E+03  0.69201755385E+03  0.24654735516E+03  0.10136376247E+04  0.12699999809E+01 0.  1.
</event>
<event>
 5   0  0.1035928E-05  0.2193170E+04  0.7818609E-02  0.8521276E-01
        2   -1    0    0  501    0  0.00000000000E+00  0.00000000000E+00  0.12654605505E+04  0.12654605505E+04  0.25500000920E-02 0. -1.
       -2   -1    0    0    0  501  0.00000000000E+00  0.00000000000E+00 -0.95024544064E+03  0.95024544064E+03  0.25500000920E-02 0.  1.
    10030    2    1    2    0    0  0.00000000000E+00  0.00000000000E+00  0.31521510985E+03  0.22157059911E+04  0.21931695041E+04 0.  0.
        3    1    3    3  502    0  0.61923252407E+03  0.14849103770E+03 -0.74431445563E+03  0.97954199818E+03  0.10100000352E+00 0.  1.
       -3    1    3    3    0  502 -0.61923252407E+03 -0.14849103770E+03  0.10595295655E+04  0.12361639929E+04  0.10100000352E+00 0. -1.
</event>
<event>
 5   0  0.3546750E-06  0.2199905E+04  0.7818609E-02  0.8518468E-01
        3   -1    0    0  501    0  0.00000000000E+00  0.00000000000E+00  0.24945802418E+04  0.24945802439E+04  0.10100000352E+00 0.  1.
       -3   -1    0    0    0  501  0.00000000000E+00  0.00000000000E+00 -0.48500971961E+03  0.48500973013E+03  0.10100000352E+00 0. -1.
    10030    2    1    2    0    0  0.00000000000E+00  0.00000000000E+00  0.20095705222E+04  0.29795899740E+04  0.21999051637E+04 0.  0.
        4    1    3    3  502    0  0.70024053947E+03 -0.31185584690E+03 -0.63663150426E+02  0.76918495304E+03  0.12699999809E+01 0. -1.
       -4    1    3    3    0  502 -0.70024053947E+03  0.31185584690E+03  0.20732336726E+04  0.22104050209E+04  0.12699999809E+01 0.  1.
</event>
<event>
 5   0  0.9963573E-06  0.2205849E+04  0.7818609E-02  0.8515998E-01
        2   -1    0    0  501    0  0.00000000000E+00  0.00000000000E+00  0.85710236511E+03  0.85710236511E+03  0.25500000920E-02 0. -1.
       -2   -1    0    0    0  501  0.00000000000E+00  0.00000000000E+00 -0.14192493995E+04  0.14192493995E+04  0.25500000920E-02 0.  1.
    10030    2    1    2    0    0  0.00000000000E+00  0.00000000000E+00 -0.56214703443E+03  0.22763517646E+04  0.22058486050E+04 0.  0.
        2    1    3    3  502    0  0.60097503664E+03 -0.87321408596E+03  0.33240099771E+02  0.10605558631E+04  0.25500000920E-02 0. -1.
       -2    1    3    3    0  502 -0.60097503664E+03  0.87321408596E+03 -0.59538713420E+03  0.12157959015E+04  0.25500000920E-02 0.  1.
</event>
<event>
 5   0  0.9963173E-06  0.2201501E+04  0.7818609E-02  0.8517803E-01
       -2   -1    0    0    0  501  0.00000000000E+00  0.00000000000E+00  0.90568357805E+03  0.90568357805E+03  0.25500000920E-02 0. -1.
        2   -1    0    0  501    0  0.00000000000E+00  0.00000000000E+00 -0.13378316095E+04  0.13378316095E+04  0.25500000920E-02 0.  1.
    10030    2    1    2    0    0  0.00000000000E+00  0.00000000000E+00 -0.43214803142E+03  0.22435151875E+04  0.22015014139E+04 0.  0.
        4    1    3    3  502    0  0.32408639787E+03  0.38596038474E+02  0.85523930527E+03  0.91540020190E+03  0.12699999809E+01 0. -1.
       -4    1    3    3    0  502 -0.32408639787E+03 -0.38596038474E+02 -0.12873873367E+04  0.13281149856E+04  0.12699999809E+01 0.  1.
</event>
<event>
 5   0  0.4408787E-06  0.2201314E+04  0.7818609E-02  0.8517881E-01
       -1   -1    0    0    0  501  0.00000000000E+00  0.00000000000E+00  0.10066429031E+04  0.10066429031E+04  0.50400001928E-02 0. -1.
        1   -1    0    0  501    0  0.00000000000E+00  0.00000000000E+00 -0.12034513474E+04  0.12034513474E+04  0.50400001928E-02 0.  1.
    10030    2    1    2    0    0  0.00000000000E+00  0.00000000000E+00 -0.19680844436E+03  0.22100942505E+04  0.22013139332E+04 0.  0.
        1    1    3    3  502    0 -0.25347408309E+03  0.27928260368E+03 -0.11365488375E+04  0.11974936925E+04  0.50400001928E-02 0.  1.
       -1    1    3    3    0  502  0.25347408309E+03 -0.27928260368E+03  0.93974039316E+03  0.10126005580E+04  0.50400001928E-02 0. -1.
</event>
<event>
 5   0  0.9963573E-06  0.2201947E+04  0.7818609E-02  0.8517618E-01
       -2   -1    0    0    0  501  0.00000000000E+00  0.00000000000E+00  0.78875615605E+03  0.78875615605E+03  0.25500000920E-02 0. -1.
        2   -1    0    0  501    0  0.00000000000E+00  0.00000000000E+00 -0.15367767892E+04  0.15367767892E+04  0.25500000920E-02 0.  1.
    10030    2    1    2    0    0  0.00000000000E+00  0.00000000000E+00 -0.74802063318E+03  0.23255329453E+04  0.22019465507E+04 0.  0.
        2    1    3    3  502    0  0.67329973234E+03 -0.87074518931E+03 -0.34787384018E+03  0.11543595293E+04  0.25500000920E-02 0. -1.
       -2    1    3    3    0  502 -0.67329973234E+03  0.87074518931E+03 -0.40014679299E+03  0.11711734159E+04  0.25500000920E-02 0.  1.
</event>
<event>
 5   0  0.4794967E-06  0.2201270E+04  0.7818609E-02  0.8517900E-01
        1   -1    0    0  501    0  0.00000000000E+00  0.00000000000E+00  0.15414858975E+04  0.15414858975E+04  0.50400001928E-02 0. -1.
       -1   -1    0    0    0  501  0.00000000000E+00  0.00000000000E+00 -0.78586372183E+03  0.78586372184E+03  0.50400001928E-02 0.  1.
    10030    2    1    2    0    0  0.00000000000E+00  0.00000000000E+00  0.75562217564E+03  0.23273496193E+04  0.22012704010E+04 0.  0.
        5    1    3    3  502    0 -0.71984123864E+03  0.77825382225E+03  0.69060271755E+03  0.12652290797E+04  0.46999998093E+01 0.  1.
       -5    1    3    3    0  502  0.71984123864E+03 -0.77825382225E+03  0.65019458084E+02  0.10621205396E+04  0.46999998093E+01 0. -1.
</event>
<event>
 5   0  0.4462201E-06  0.2199013E+04  0.7818609E-02  0.8518839E-01
       -1   -1    0    0    0  501  0.00000000000E+00  0.00000000000E+00  0.15437220687E+04  0.15437220687E+04  0.50400001928E-02 0.  1.
        1   -1    0    0  501    0  0.00000000000E+00  0.00000000000E+00 -0.78311675726E+03  0.78311675728E+03  0.50400001928E-02 0. -1.
    10030    2    1    2    0    0  0.00000000000E+00  0.00000000000E+00  0.76060531144E+03  0.23268388260E+04  0.21990130701E+04 0.  0.
        3    1    3    3  502    0 -0.52662266374E+03  0.59600917226E+03 -0.42300886160E+03  0.90083010084E+03  0.10100000352E+00 0. -1.
       -3    1    3    3    0  502  0.52662266374E+03 -0.59600917226E+03  0.11836141730E+04  0.14260087251E+04  0.10100000352E+00 0.  1.
</event>
<event>
 5   0  0.1015876E-05  0.2205541E+04  0.7818609E-02  0.8516125E-01
        2   -1    0    0  501    0  0.00000000000E+00  0.00000000000E+00  0.12646111405E+04  0.12646111405E+04  0.25500000920E-02 0.  1.
       -2   -1    0    0    0  501  0.00000000000E+00  0.00000000000E+00 -0.96164147860E+03  0.96164147861E+03  0.25500000920E-02 0. -1.
    10030    2    1    2    0    0  0.00000000000E+00  0.00000000000E+00  0.30296966185E+03  0.22262526191E+04  0.22055407745E+04 0.  0.
        5    1    3    3  502    0 -0.49620646019E+03  0.60181833898E+03  0.93833995480E+03  0.12202090497E+04  0.46999998093E+01 0.  1.
       -5    1    3    3    0  502  0.49620646019E+03 -0.60181833898E+03 -0.63537029295E+03  0.10060435693E+04  0.46999998093E+01 0. -1.
</event>
<event>
 5   0  0.4794967E-06  0.2199361E+04  0.7818609E-02  0.8518694E-01
       -1   -1    0    0    0  501  0.00000000000E+00  0.00000000000E+00  0.59741975189E+03  0.59741975191E+03  0.50400001928E-02 0. -1.
        1   -1    0    0  501    0  0.00000000000E+00  0.00000000000E+00 -0.20242000648E+04  0.20242000648E+04  0.50400001928E-02 0.  1.
    10030    2    1    2    0    0  0.00000000000E+00  0.00000000000E+00 -0.14267803129E+04  0.26216198167E+04  0.21993609077E+04 0.  0.
        5    1    3    3  502    0 -0.61106835079E+03 -0.24309914859E+03  0.33716860774E+03  0.73905783632E+03  0.46999998093E+01 0. -1.
       -5    1    3    3    0  502  0.61106835079E+03  0.24309914859E+03 -0.17639489207E+04  0.18825619804E+04  0.46999998093E+01 0.  1.
</event>
<event>
 5   0  0.1035928E-05  0.2197305E+04  0.7818609E-02  0.8519551E-01
        2   -1    0    0  501    0  0.00000000000E+00  0.00000000000E+00  0.19093189486E+04  0.19093189486E+04  0.25500000920E-02 0. -1.
       -2   -1    0    0    0  501  0.00000000000E+00  0.00000000000E+00 -0.63218200224E+03  0.63218200224E+03  0.25500000920E-02 0.  1.
    10030    2    1    2    0    0  0.00000000000E+00  0.00000000000E+00  0.12771369464E+04  0.25415009509E+04  0.21973047817E+04 0.  0.
        3    1    3    3  502    0  0.65280942637E+03 -0.16235494095E+03  0.16432645773E+04  0.17756232019E+04  0.10100000352E+00 0. -1.
       -3    1    3    3    0  502 -0.65280942637E+03  0.16235494095E+03 -0.36612763092E+03  0.76587774894E+03  0.10100000352E+00 0.  1.
</event>
<event>
 5   0  0.4408787E-06  0.2193537E+04  0.7818609E-02  0.8521123E-01
        1   -1    0    0  501    0  0.00000000000E+00  0.00000000000E+00  0.59562025550E+03  0.59562025552E+03  0.50400001928E-02 0.  1.
       -1   -1    0    0    0  501  0.00000000000E+00  0.00000000000E+00 -0.20195765290E+04  0.20195765290E+04  0.50400001928E-02 0. -1.
    10030    2    1    2    0    0  0.00000000000E+00  0.00000000000E+00 -0.14239562735E+04  0.26151967845E+04  0.21935365857E+04 0.  0.
        1    1    3    3  502    0 -0.41851282069E+03  0.66272492858E+02 -0.19180489008E+04  0.19642954489E+04  0.50400001928E-02 0. -1.
       -1    1    3    3    0  502  0.41851282069E+03 -0.66272492858E+02  0.49409262732E+03  0.65090133568E+03  0.50400001928E-02 0.  1.
</event>
<event>
 5   0  0.4462201E-06  0.2202571E+04  0.7818609E-02  0.8517359E-01
        1   -1    0    0  501    0  0.00000000000E+00  0.00000000000E+00  0.12776689218E+04  0.12776689218E+04  0.50400001928E-02 0.  1.
       -1   -1    0    0    0  501  0.00000000000E+00  0.00000000000E+00 -0.94925210364E+03  0.94925210365E+03  0.50400001928E-02 0. -1.
    10030    2    1    2    0    0  0.00000000000E+00  0.00000000000E+00  0.32841681818E+03  0.22269210255E+04  0.22025711447E+04 0.  0.
        3    1    3    3  502    0 -0.10895840757E+04  0.10664441295E+02  0.26839512223E+01  0.10896395744E+04  0.10100000352E+00 0.  1.
       -3    1    3    3    0  502  0.10895840757E+04 -0.10664441295E+02  0.32573286695E+03  0.11372814511E+04  0.10100000352E+00 0. -1.
</event>
<event>
 5   0  0.1035928E-05  0.2194174E+04  0.7818609E-02  0.8520857E-01
        2   -1    0    0  501    0  0.00000000000E+00  0.00000000000E+00  0.21068927479E+04  0.21068927479E+04  0.25500000920E-02 0.  1.
       -2   -1    0    0    0  501  0.00000000000E+00  0.00000000000E+00 -0.57126759548E+03  0.57126759549E+03  0.25500000920E-02 0. -1.
    10030    2    1    2    0    0  0.00000000000E+00  0.00000000000E+00  0.15356251525E+04  0.26781603434E+04  0.21941736978E+04 0.  0.
        3    1    3    3  502    0  0.49494388525E+03 -0.23145724555E+03  0.19290036511E+04  0.20048932646E+04  0.10100000352E+00 0.  1.
       -3    1    3    3    0  502 -0.49494388525E+03  0.23145724555E+03 -0.39337849866E+03  0.67326707886E+03  0.10100000352E+00 0. -1.
</event>
<event>
 5   0  0.1015876E-05  0.2223459E+04  0.7818609E-02  0.8508727E-01
        2   -1    0    0  501    0  0.00000000000E+00  0.00000000000E+00  0.15468003131E+04  0.15468003131E+04  0.25500000920E-02 0. -1.
       -2   -1    0    0    0  501  0.00000000000E+00  0.00000000000E+00 -0.79903166275E+03  0.79903166275E+03  0.25500000920E-02 0.  1.
    10030    2    1    2    0    0  0.00000000000E+00  0.00000000000E+00  0.74776865032E+03  0.23458319758E+04  0.22234589505E+04 0.  0.
        5    1    3    3  502    0 -0.84021460648E+03 -0.62629621656E+03 -0.17636566087E+02  0.10481129110E+04  0.46999998093E+01 0.  1.
       -5    1    3    3    0  502  0.84021460648E+03  0.62629621656E+03  0.76540521641E+03  0.12977190648E+04  0.46999998093E+01 0. -1.
</event>
<event>
 5   0  0.1015876E-05  0.2197830E+04  0.7818609E-02  0.8519332E-01
       -2   -1    0    0    0  501  0.00000000000E+00  0.00000000000E+00  0.92462595809E+03  0.92462595809E+03  0.25500000920E-02 0. -1.
        2   -1    0    0  501    0  0.00000000000E+00  0.00000000000E+00 -0.13060565908E+04  0.13060565908E+04  0.25500000920E-02 0.  1.
    10030    2    1    2    0    0  0.00000000000E+00  0.00000000000E+00 -0.38143063273E+03  0.22306825489E+04  0.21978296809E+04 0.  0.
        5    1    3    3  502    0  0.71347406361E+03 -0.79557972877E+03  0.69236971369E+02  0.10708913075E+04  0.46999998093E+01 0. -1.
       -5    1    3    3    0  502 -0.71347406361E+03  0.79557972877E+03 -0.45066760410E+03  0.11597912414E+04  0.46999998093E+01 0.  1.
</event>
<event>
 5   0  0.4309945E-06  0.2200463E+04  0.7818609E-02  0.8518235E-01
        1   -1    0    0  501    0  0.00000000000E+00  0.00000000000E+00  0.75604919613E+03  0.75604919615E+03  0.50400001928E-02 0.  1.
       -1   -1    0    0    0  501  0.00000000000E+00  0.00000000000E+00 -0.16010985881E+04  0.16010985882E+04  0.50400001928E-02 0. -1.
    10030    2    1    2    0    0  0.00000000000E+00  0.00000000000E+00 -0.84504939201E+03  0.23571477843E+04  0.22004629518E+04 0.  0.
        4    1    3    3  502    0  0.81160805732E+02  0.35261300593E+03 -0.15355399270E+04  0.15775954768E+04  0.12699999809E+01 0. -1.
       -4    1    3    3    0  502 -0.81160805732E+02 -0.35261300593E+03  0.69049053494E+03  0.77955230747E+03  0.12699999809E+01 0.  1.
</event>
<event>
 5   0  0.4794967E-06  0.2198281E+04  0.7818609E-02  0.8519144E-01
       -1   -1    0    0    0  501  0.00000000000E+00  0.00000000000E+00  0.10228263655E+04  0.10228263655E+04  0.50400001928E-02 0.  1.
        1   -1    0    0  501    0  0.00000000000E+00  0.00000000000E+00 -0.11811486805E+04  0.11811486805E+04  0.50400001928E-02 0. -1.
    10030    2    1    2    0    0  0.00000000000E+00  0.00000000000E+00 -0.15832231498E+03  0.22039750461E+04  0.21982811577E+04 0.  0.
        5    1    3    3  502    0 -0.10596641760E+04 -0.13226394266E+03 -0.34003890272E+03  0.11207276483E+04  0.46999998093E+01 0. -1.
       -5    1    3    3    0  502  0.10596641760E+04  0.13226394266E+03  0.18171658774E+03  0.10832473977E+04  0.46999998093E+01 0.  1.
</event>
<event>
 5   0  0.4309945E-06  0.2192776E+04  0.7818609E-02  0.8521441E-01
       -1   -1    0    0    0  501  0.00000000000E+00  0.00000000000E+00  0.11790606630E+04  0.11790606631E+04  0.50400001928E-02 0.  1.
        1   -1    0    0  501    0  0.00000000000E+00  0.00000000000E+00 -0.10195118024E+04  0.10195118024E+04  0.50400001928E-02 0. -1.
    10030    2    1    2    0    0  0.00000000000E+00  0.00000000000E+00  0.15954886064E+03  0.21985724655E+04  0.21927756490E+04 0.  0.
        4    1    3    3  502    0 -0.82949309960E+03 -0.68054304563E+03 -0.14635895709E+03  0.10828758915E+04  0.12699999809E+01 0. -1.
       -4    1    3    3    0  502  0.82949309960E+03  0.68054304563E+03  0.30590781773E+03  0.11156965739E+04  0.12699999809E+01 0.  1.
</event>
<event>
 5   0  0.4462201E-06  0.2198512E+04  0.7818609E-02  0.8519048E-01
       -1   -1    0    0    0  501  0.00000000000E+00  0.00000000000E+00  0.64776356293E+03  0.64776356295E+03  0.50400001928E-02 0. -1.
        1   -1    0    0  501    0  0.00000000000E+00  0.00000000000E+00 -0.18654399976E+04  0.18654399976E+04  0.50400001928E-02 0.  1.
    10030    2    1    2    0    0  0.00000000000E+00  0.00000000000E+00 -0.12176764347E+04  0.25132035606E+04  0.21985122782E+04 0.  0.
        3    1    3    3  502    0 -0.92235996023E+03 -0.53260850580E+03 -0.91968846464E+03  0.14072123503E+04  0.10100000352E+00 0.  1.
       -3    1    3    3    0  502  0.92235996023E+03  0.53260850580E+03 -0.29798797005E+03  0.11059912103E+04  0.10100000352E+00 0. -1.
</event>
<event>
 5   0  0.4309945E-06  0.2197769E+04  0.7818609E-02  0.8519357E-01
       -1   -1    0    0    0  501  0.00000000000E+00  0.00000000000E+00  0.54911106858E+03  0.54911106860E+03  0.50400001928E-02 0. -1.
        1   -1    0    0  501    0  0.00000000000E+00  0.00000000000E+00 -0.21990945641E+04  0.21990945641E+04  0.50400001928E-02 0.  1.
    10030    2    1    2    0    0  0.00000000000E+00  0.00000000000E+00 -0.16499834956E+04  0.27482056327E+04  0.21977690198E+04 0.  0.
        4    1    3    3  502    0 -0.13919725563E+03  0.10801949596E+04 -0.64228645431E+03  0.12644091620E+04  0.12699999809E+01 0. -1.
       -4    1    3    3    0  502  0.13919725563E+03 -0.10801949596E+04 -0.10076970412E+04  0.14837964707E+04  0.12699999809E+01 0.  1.
</event>
<event>
 5   0  0.1035928E-05  0.2198415E+04  0.7818609E-02  0.8519088E-01
       -2   -1    0    0    0  501  0.00000000000E+00  0.00000000000E+00  0.13153223392E+04  0.13153223392E+04  0.25500000920E-02 0.  1.
        2   -1    0    0  501    0  0.00000000000E+00  0.00000000000E+00 -0.91860134407E+03  0.91860134408E+03  0.25500000920E-02 0. -1.
    10030    2    1    2    0    0  0.00000000000E+00  0.00000000000E+00  0.39672099515E+03  0.22339236833E+04  0.21984147641E+04 0.  0.
        3    1    3    3  502    0 -0.55960822718E+03 -0.24098625624E+03 -0.73130541495E+03  0.95186310138E+03  0.10100000352E+00 0. -1.
       -3    1    3    3    0  502  0.55960822718E+03  0.24098625624E+03  0.11280264101E+04  0.12820605819E+04  0.10100000352E+00 0.  1.
</event>
<event>
 5   0  0.1015876E-05  0.2197740E+04  0.7818609E-02  0.8519370E-01
        2   -1    0    0  501    0  0.00000000000E+00  0.00000000000E+00  0.95712212998E+03  0.95712212998E+03  0.25500000920E-02 0. -1.
       -2   -1    0    0    0  501  0.00000000000E+00  0.00000000000E+00 -0.12616099111E+04  0.12616099111E+04  0.25500000920E-02 0.  1.
    10030    2    1    2    0    0  0.00000000000E+00  0.00000000000E+00 -0.30448778108E+03  0.22187320410E+04  0.21977395344E+04 0.  0.
        5    1    3    3  502    0 -0.96874068505E+03 -0.30681143754E+02  0.37047865532E+03  0.10376301709E+04  0.46999998093E+01 0. -1.
       -5    1    3    3    0  502  0.96874068505E+03  0.30681143754E+02 -0.67496643640E+03  0.11811018702E+04  0.46999998093E+01 0.  1.
</event>
<event>
 5   0  0.1015876E-05  0.2197224E+04  0.7818609E-02  0.8519585E-01
        2   -1    0    0  501    0  0.00000000000E+00  0.00000000000E+00  0.96200530285E+03  0.96200530285E+03  0.25500000920E-02 0. -1.
       -2   -1    0    0    0  501  0.00000000000E+00  0.00000000000E+00 -0.12546167185E+04  0.12546167186E+04  0.25500000920E-02 0.  1.
    10030    2    1    2    0    0  0.00000000000E+00  0.00000000000E+00 -0.29261141570E+03  0.22166220214E+04  0.21972236448E+04 0.  0.
        5    1    3    3  502    0  0.64919897493E+03  0.58391081472E+03  0.52629983545E+03  0.10195218268E+04  0.46999998093E+01 0. -1.
       -5    1    3    3    0  502 -0.64919897493E+03 -0.58391081472E+03 -0.81891125115E+03  0.11971001946E+04  0.46999998093E+01 0.  1.
</event>
<event>
 5   0  0.4408787E-06  0.2220122E+04  0.7818609E-02  0.8510099E-01
       -1   -1    0    0    0  501  0.00000000000E+00  0.00000000000E+00  0.48187309095E+03  0.48187309098E+03  0.50400001928E-02 0.  1.
        1   -1    0    0  501    0  0.00000000000E+00  0.00000000000E+00 -0.25571792022E+04  0.25571792022E+04  0.50400001928E-02 0. -1.
    10030    2    1    2    0    0  0.00000000000E+00  0.00000000000E+00 -0.20753061113E+04  0.30390522932E+04  0.22201223807E+04 0.  0.
        1    1    3    3  502    0  0.58694082987E+03  0.22860440742E+03  0.21355154974E+03  0.66510433564E+03  0.50400001928E-02 0.  1.
       -1    1    3    3    0  502 -0.58694082987E+03 -0.22860440742E+03 -0.22888576610E+04  0.23739479576E+04  0.50400001928E-02 0. -1.
</event>
<event>
 5   0  0.1014015E-05  0.2198366E+04  0.7818609E-02  0.8519108E-01
       -2   -1    0    0    0  501  0.00000000000E+00  0.00000000000E+00  0.58919739038E+03  0.58919739038E+03  0.25500000920E-02 0.  1.
        2   -1    0    0  501    0  0.00000000000E+00  0.00000000000E+00 -0.20505924238E+04  0.20505924238E+04  0.25500000920E-02 0. -1.
    10030    2    1    2    0    0  0.00000000000E+00  0.00000000000E+00 -0.14613950335E+04  0.26397898142E+04  0.21983663979E+04 0.  0.
        1    1    3    3  502    0  0.77878131555E+02 -0.79851620408E+03 -0.16329026876E+04  0.18193582162E+04  0.50400001928E-02 0. -1.
       -1    1    3    3    0  502 -0.77878131555E+02  0.79851620408E+03  0.17150765418E+03  0.82043159802E+03  0.50400001928E-02 0.  1.
</event>
<event>
 5   0  0.1014015E-05  0.2196237E+04  0.7818609E-02  0.8519996E-01
        2   -1    0    0  501    0  0.00000000000E+00  0.00000000000E+00  0.14052795826E+04  0.14052795826E+04  0.25500000920E-02 0. -1.
       -2   -1    0    0    0  501  0.00000000000E+00  0.00000000000E+00 -0.85809599184E+03  0.85809599184E+03  0.25500000920E-02 0.  1.
    10030    2    1    2    0    0  0.00000000000E+00  0.00000000000E+00  0.54718359081E+03  0.22633755745E+04  0.21962374892E+04 0.  0.
        1    1    3    3  502    0 -0.65700437289E+03  0.86893514989E+03  0.41624934393E+03  0.11661760403E+04  0.50400001928E-02 0. -1.
       -1    1    3    3    0  502  0.65700437289E+03 -0.86893514989E+03  0.13093424688E+03  0.10971995342E+04  0.50400001928E-02 0.  1.
</event>
<event>
 5   0  0.4462201E-06  0.2196682E+04  0.7818609E-02  0.8519810E-01
       -1   -1    0    0    0  501  0.00000000000E+00  0.00000000000E+00  0.13061911291E+04  0.13061911291E+04  0.50400001928E-02 0. -1.
        1   -1    0    0  501    0  0.00000000000E+00  0.00000000000E+00 -0.92356546947E+03  0.92356546949E+03  0.50400001928E-02 0.  1.
    10030    2    1    2    0    0  0.00000000000E+00  0.00000000000E+00  0.38262565963E+03  0.22297565986E+04  0.21966820647E+04 0.  0.
        3    1    3    3  502    0 -0.56981444709E+03  0.55677282731E+03 -0.57615891495E+03  0.98318034501E+03  0.10100000352E+00 0.  1.
       -3    1    3    3    0  502  0.56981444709E+03 -0.55677282731E+03  0.95878457458E+03  0.12465762536E+04  0.10100000352E+00 0. -1.
</event>
<event>
 5   0  0.9963173E-06  0.2200677E+04  0.7818609E-02  0.8518146E-01
       -2   -1    0    0    0  501  0.00000000000E+00  0.00000000000E+00  0.85361862479E+03  0.85361862480E+03  0.25500000920E-02 0.  1.
        2   -1    0    0  501    0  0.00000000000E+00  0.00000000000E+00 -0.14183674914E+04  0.14183674914E+04  0.25500000920E-02 0. -1.
    10030    2    1    2    0    0  0.00000000000E+00  0.00000000000E+00 -0.56474886659E+03  0.22719861162E+04  0.22006770844E+04 0.  0.
        4    1    3    3  502    0 -0.48687127563E+01  0.55863215964E+03  0.69631425527E+03  0.89271986039E+03  0.12699999809E+01 0.  1.
       -4    1    3    3    0  502  0.48687127563E+01 -0.55863215964E+03 -0.12610631219E+04  0.13792662558E+04  0.12699999809E+01 0. -1.
</event>
<event>
 5   0  0.4630615E-06  0.2191084E+04  0.7818609E-02  0.8522148E-01
        1   -1    0    0  501    0  0.00000000000E+00  0.00000000000E+00  0.19542982583E+04  0.19542982583E+04  0.50400001928E-02 0.  1.
       -1   -1    0    0    0  501  0.00000000000E+00  0.00000000000E+00 -0.61413977667E+03  0.61413977669E+03  0.50400001928E-02 0. -1.
    10030    2    1    2    0    0  0.00000000000E+00  0.00000000000E+00  0.13401584816E+04  0.25684380350E+04  0.21910840202E+04 0.  0.
        2    1    3    3  502    0  0.59664648267E+03  0.23129800433E+02  0.17467962771E+04  0.18460279647E+04  0.25500000920E-02 0.  1.
       -2    1    3    3    0  502 -0.59664648267E+03 -0.23129800433E+02 -0.40663779545E+03  0.72241007028E+03  0.25500000920E-02 0. -1.
</event>
<event>
 5   0  0.9963573E-06  0.2197504E+04  0.7818609E-02  0.8519468E-01
        2   -1    0    0  501    0  0.00000000000E+00  0.00000000000E+00  0.12165427397E+04  0.12165427397E+04  0.25500000920E-02 0. -1.
       -2   -1    0    0    0  501  0.00000000000E+00  0.00000000000E+00 -0.99236581106E+03  0.99236581107E+03  0.25500000920E-02 0.  1.
    10030    2    1    2    0    0  0.00000000000E+00  0.00000000000E+00  0.22417692861E+03  0.22089085507E+04  0.21975035131E+04 0.  0.
        2    1    3    3  502    0  0.13288761952E+03 -0.37296857572E+02 -0.98361716109E+03  0.99325369096E+03  0.25500000920E-02 0.  1.
       -2    1    3    3    0  502 -0.13288761952E+03  0.37296857572E+02  0.12077940897E+04  0.12156548598E+04  0.25500000920E-02 0. -1.
</event>
<event>
 5   0  0.4408787E-06  0.2198592E+04  0.7818609E-02  0.8519014E-01
       -1   -1    0    0    0  501  0.00000000000E+00  0.00000000000E+00  0.73727348425E+03  0.73727348427E+03  0.50400001928E-02 0. -1.
        1   -1    0    0  501    0  0.00000000000E+00  0.00000000000E+00 -0.16390820459E+04  0.16390820459E+04  0.50400001928E-02 0.  1.
    10030    2    1    2    0    0  0.00000000000E+00  0.00000000000E+00 -0.90180856161E+03  0.23763555301E+04  0.21985920322E+04 0.  0.
        1    1    3    3  502    0  0.82461931052E+03 -0.27599883709E+02 -0.12360629336E+04  0.14861394069E+04  0.50400001928E-02 0.  1.
       -1    1    3    3    0  502 -0.82461931052E+03  0.27599883709E+02  0.33425437200E+03  0.89021612325E+03  0.50400001928E-02 0. -1.
</event>
<event>
 5   0  0.9963573E-06  0.2197832E+04  0.7818609E-02  0.8519331E-01
        2   -1    0    0  501    0  0.00000000000E+00  0.00000000000E+00  0.12159562120E+04  0.12159562120E+04  0.25500000920E-02 0.  1.
       -2   -1    0    0    0  501  0.00000000000E+00  0.00000000000E+00 -0.99314161739E+03  0.99314161740E+03  0.25500000920E-02 0. -1.
    10030    2    1    2    0    0  0.00000000000E+00  0.00000000000E+00  0.22281459460E+03  0.22090978294E+04  0.21978323130E+04 0.  0.
        2    1    3    3  502    0 -0.41980528589E+03  0.50375480702E+02 -0.90811059914E+03  0.10017180379E+04  0.25500000920E-02 0. -1.
       -2    1    3    3    0  502  0.41980528589E+03 -0.50375480702E+02  0.11309251937E+04  0.12073797915E+04  0.25500000920E-02 0.  1.
</event>
<event>
 5   0  0.1015876E-05  0.2198772E+04  0.7818609E-02  0.8518939E-01
       -2   -1    0    0    0  501  0.00000000000E+00  0.00000000000E+00  0.18821095449E+04  0.18821095449E+04  0.25500000920E-02 0.  1.
        2   -1    0    0  501    0  0.00000000000E+00  0.00000000000E+00 -0.64217803110E+03  0.64217803110E+03  0.25500000920E-02 0. -1.
    10030    2    1    2    0    0  0.00000000000E+00  0.00000000000E+00  0.12399315138E+04  0.25242875760E+04  0.21987718407E+04 0.  0.
        5    1    3    3  502    0 -0.46121834960E+03 -0.83881566775E+03  0.12406461625E+04  0.15670223614E+04  0.46999998093E+01 0.  1.
       -5    1    3    3    0  502  0.46121834960E+03  0.83881566775E+03 -0.71464868853E+00  0.95726521466E+03  0.46999998093E+01 0. -1.
</event>
<event>
 5   0  0.1015876E-05  0.2212194E+04  0.7818609E-02  0.8513370E-01
        2   -1    0    0  501    0  0.00000000000E+00  0.00000000000E+00  0.13396595309E+04  0.13396595309E+04  0.25500000920E-02 0.  1.
       -2   -1    0    0    0  501  0.00000000000E+00  0.00000000000E+00 -0.91325502022E+03  0.91325502022E+03  0.25500000920E-02 0. -1.
    10030    2    1    2    0    0  0.00000000000E+00  0.00000000000E+00  0.42640451068E+03  0.22529145511E+04  0.22121941976E+04 0.  0.
        5    1    3    3  502    0 -0.68683919989E+03 -0.33392626643E+03  0.10280386921E+04  0.12806796947E+04  0.46999998093E+01 0.  1.
       -5    1    3    3    0  502  0.68683919989E+03  0.33392626643E+03 -0.60163418139E+03  0.97223485646E+03  0.46999998093E+01 0. -1.
</event>
<event>
 5   0  0.1015876E-05  0.2203039E+04  0.7818609E-02  0.8517164E-01
       -2   -1    0    0    0  501  0.00000000000E+00  0.00000000000E+00  0.62429426949E+03  0.62429426950E+03  0.25500000920E-02 0. -1.
        2   -1    0    0  501    0  0.00000000000E+00  0.00000000000E+00 -0.19435464163E+04  0.19435464163E+04  0.25500000920E-02 0.  1.
    10030    2    1    2    0    0  0.00000000000E+00  0.00000000000E+00 -0.13192521468E+04  0.25678406858E+04  0.22030387107E+04 0.  0.
        5    1    3    3  502    0 -0.32924578852E+03  0.86231179133E+02  0.56145664409E+03  0.65657768672E+03  0.46999998093E+01 0. -1.
       -5    1    3    3    0  502  0.32924578852E+03 -0.86231179133E+02 -0.18807087909E+04  0.19112629991E+04  0.46999998093E+01 0.  1.
</event>
<event>
 5   0  0.4408787E-06  0.2198387E+04  0.7818609E-02  0.8519100E-01
       -1   -1    0    0    0  501  0.00000000000E+00  0.00000000000E+00  0.52396217976E+03  0.52396217978E+03  0.50400001928E-02 0. -1.
        1   -1    0    0  501    0  0.00000000000E+00  0.00000000000E+00 -0.23059415821E+04  0.23059415821E+04  0.50400001928E-02 0.  1.
    10030    2    1    2    0    0  0.00000000000E+00  0.00000000000E+00 -0.17819794023E+04  0.28299037618E+04  0.21983868429E+04 0.  0.
        1    1    3    3  502    0 -0.54714369707E+03  0.59284500021E+03  0.70066953897E+02  0.80977823974E+03  0.50400001928E-02 0. -1.
       -1    1    3    3    0  502  0.54714369707E+03 -0.59284500021E+03 -0.18520463562E+04  0.20201255221E+04  0.50400001928E-02 0.  1.
</event>
<event>
 5   0  0.4462201E-06  0.2199018E+04  0.7818609E-02  0.8518837E-01
       -1   -1    0    0    0  501  0.00000000000E+00  0.00000000000E+00  0.63609433238E+03  0.63609433240E+03  0.50400001928E-02 0. -1.
        1   -1    0    0  501    0  0.00000000000E+00  0.00000000000E+00 -0.19005351863E+04  0.19005351863E+04  0.50400001928E-02 0.  1.
    10030    2    1    2    0    0  0.00000000000E+00  0.00000000000E+00 -0.12644408540E+04  0.25366295187E+04  0.21990176539E+04 0.  0.
        3    1    3    3  502    0 -0.22686670529E+03  0.65576012981E+03 -0.16160590559E+04  0.17587315691E+04  0.10100000352E+00 0.  1.
       -3    1    3    3    0  502  0.22686670529E+03 -0.65576012981E+03  0.35161820198E+03  0.77789794959E+03  0.10100000352E+00 0. -1.
</event>
<event>
 5   0  0.4462201E-06  0.2200767E+04  0.7818609E-02  0.8518109E-01
        1   -1    0    0  501    0  0.00000000000E+00  0.00000000000E+00  0.10936907913E+04  0.10936907913E+04  0.50400001928E-02 0. -1.
       -1   -1    0    0    0  501  0.00000000000E+00  0.00000000000E+00 -0.11071170206E+04  0.11071170207E+04  0.50400001928E-02 0.  1.
    10030    2    1    2    0    0  0.00000000000E+00  0.00000000000E+00 -0.13426229326E+02  0.22008078120E+04  0.22007668576E+04 0.  0.
        3    1    3    3  502    0  0.52703092971E+03 -0.21566570891E+03  0.93488307174E+03  0.10946596123E+04  0.10100000352E+00 0. -1.
       -3    1    3    3    0  502 -0.52703092971E+03  0.21566570891E+03 -0.94830930106E+03  0.11061481996E+04  0.10100000352E+00 0.  1.
</event>
<event>
 5   0  0.1014015E-05  0.2173128E+04  0.7818609E-02  0.8529697E-01
       -2   -1    0    0    0  501  0.00000000000E+00  0.00000000000E+00  0.88521946486E+03  0.88521946487E+03  0.25500000920E-02 0. -1.
        2   -1    0    0  501    0  0.00000000000E+00  0.00000000000E+00 -0.13337052415E+04  0.13337052415E+04  0.25500000920E-02 0.  1.
    10030    2    1    2    0    0  0.00000000000E+00  0.00000000000E+00 -0.44848577660E+03  0.22189247063E+04  0.21731284731E+04 0.  0.
        1    1    3    3  502    0  0.54380049330E+03  0.15046198206E+03  0.72390766950E+03  0.91782356613E+03  0.50400001928E-02 0. -1.
       -1    1    3    3    0  502 -0.54380049330E+03 -0.15046198206E+03 -0.11723934461E+04  0.13011011402E+04  0.50400001928E-02 0.  1.
</event>
<event>
 5   0  0.4794967E-06  0.2198839E+04  0.7818609E-02  0.8518912E-01
        1   -1    0    0  501    0  0.00000000000E+00  0.00000000000E+00  0.11503455803E+04  0.11503455803E+04  0.50400001928E-02 0.  1.
       -1   -1    0    0    0  501  0.00000000000E+00  0.00000000000E+00 -0.10507475899E+04  0.10507475899E+04  0.50400001928E-02 0. -1.
    10030    2    1    2    0    0  0.00000000000E+00  0.00000000000E+00  0.99597990367E+02  0.22010931703E+04  0.21988386445E+04 0.  0.
        5    1    3    3  502    0 -0.10319093731E+04  0.37851349092E+03  0.74141389863E+02  0.11016480622E+04  0.46999998093E+01 0.  1.
       -5    1    3    3    0  502  0.10319093731E+04 -0.37851349092E+03  0.25456600504E+02  0.10994451081E+04  0.46999998093E+01 0. -1.
</event>
<event>
 5   0  0.1014015E-05  0.2196920E+04  0.7818609E-02  0.8519711E-01
       -2   -1    0    0    0  501  0.00000000000E+00  0.00000000000E+00  0.79481656302E+03  0.79481656302E+03  0.25500000920E-02 0. -1.
        2   -1    0    0  501    0  0.00000000000E+00  0.00000000000E+00 -0.15181047192E+04  0.15181047192E+04  0.25500000920E-02 0.  1.
    10030    2    1    2    0    0  0.00000000000E+00  0.00000000000E+00 -0.72328815614E+03  0.23129212822E+04  0.21969203674E+04 0.  0.
        1    1    3    3  502    0  0.34175244304E+03  0.38416869527E+03 -0.13835855598E+04  0.14760383871E+04  0.50400001928E-02 0.  1.
       -1    1    3    3    0  502 -0.34175244304E+03 -0.38416869527E+03  0.66029740370E+03  0.83688289509E+03  0.50400001928E-02 0. -1.
</event>
<event>
 5   0  0.1035928E-05  0.2200391E+04  0.7818609E-02  0.8518265E-01
        2   -1    0    0  501    0  0.00000000000E+00  0.00000000000E+00  0.70669131879E+03  0.70669131880E+03  0.25500000920E-02 0. -1.
       -2   -1    0    0    0  501  0.00000000000E+00  0.00000000000E+00 -0.17128133202E+04  0.17128133202E+04  0.25500000920E-02 0.  1.
    10030    2    1    2    0    0  0.00000000000E+00  0.00000000000E+00 -0.10061220014E+04  0.24195046390E+04  0.22003911508E+04 0.  0.
        3    1    3    3  502    0  0.42347044862E+03 -0.77970364108E+03 -0.12183500825E+04  0.15071967099E+04  0.10100000352E+00 0.  1.
       -3    1    3    3    0  502 -0.42347044862E+03  0.77970364108E+03  0.21222808110E+03  0.91230792903E+03  0.10100000352E+00 0. -1.
</event>
<event>
 5   0  0.9963573E-06  0.2198807E+04  0.7818609E-02  0.8518925E-01
        2   -1    0    0  501    0  0.00000000000E+00  0.00000000000E+00  0.22155070236E+04  0.22155070236E+04  0.25500000920E-02 0. -1.
       -2   -1    0    0    0  501  0.00000000000E+00  0.00000000000E+00 -0.54555801745E+03  0.54555801746E+03  0.25500000920E-02 0.  1.
    10030    2    1    2    0    0  0.00000000000E+00  0.00000000000E+00  0.16699490061E+04  0.27610650411E+04  0.21988066031E+04 0.  0.
        2    1    3    3  502    0  0.10779297667E+04 -0.21583422260E+03  0.81857193018E+03  0.13706119066E+04  0.25500000920E-02 0. -1.
       -2    1    3    3    0  502 -0.10779297667E+04  0.21583422260E+03  0.85137707597E+03  0.13904531345E+04  0.25500000920E-02 0.  1.
</event>
<event>
 5   0  0.4630615E-06  0.2199676E+04  0.7818609E-02  0.8518563E-01
        1   -1    0    0  501    0  0.00000000000E+00  0.00000000000E+00  0.11245559165E+04  0.11245559165E+04  0.50400001928E-02 0. -1.
       -1   -1    0    0    0  501  0.00000000000E+00  0.00000000000E+00 -0.10756637276E+04  0.10756637276E+04  0.50400001928E-02 0.  1.
    10030    2    1    2    0    0  0.00000000000E+00  0.00000000000E+00  0.48892188903E+02  0.22002196441E+04  0.21996763481E+04 0.  0.
        2    1    3    3  502    0  0.63130213562E+03 -0.70788115338E+03 -0.53247315497E+03  0.10877342389E+04  0.25500000920E-02 0.  1.
       -2    1    3    3    0  502 -0.63130213562E+03  0.70788115338E+03  0.58136534388E+03  0.11124854052E+04  0.25500000920E-02 0. -1.
</event>
<event>
 5   0  0.1015876E-05  0.2193753E+04  0.7818609E-02  0.8521033E-01
       -2   -1    0    0    0  501  0.00000000000E+00  0.00000000000E+00  0.10959972352E+04  0.10959972352E+04  0.25500000920E-02 0. -1.
        2   -1    0    0  501    0  0.00000000000E+00  0.00000000000E+00 -0.10977567149E+04  0.10977567149E+04  0.25500000920E-02 0.  1.
    10030    2    1    2    0    0  0.00000000000E+00  0.00000000000E+00 -0.17594797556E+01  0.21937539501E+04  0.21937532445E+04 0.  0.
        5    1    3    3  502    0 -0.39576114687E+03  0.44576309868E+03  0.91987275364E+03  0.10961384942E+04  0.46999998093E+01 0. -1.
       -5    1    3    3    0  502  0.39576114687E+03 -0.44576309868E+03 -0.92163223340E+03  0.10976154560E+04  0.46999998093E+01 0.  1.
</event>
<event>
 5   0  0.3546750E-06  0.2202597E+04  0.7818609E-02  0.8517348E-01
        3   -1    0    0  501    0  0.00000000000E+00  0.00000000000E+00  0.16053353943E+04  0.16053353975E+04  0.10100000352E+00 0.  1.
       -3   -1    0    0    0  501  0.00000000000E+00  0.00000000000E+00 -0.75551702676E+03  0.75551703351E+03  0.10100000352E+00 0. -1.
    10030    2    1    2    0    0  0.00000000000E+00  0.00000000000E+00  0.84981836758E+03  0.23608524310E+04  0.22025968635E+04 0.  0.
        1    1    3    3  502    0  0.95489641169E+03  0.73506131501E+02 -0.15787338641E+03  0.97064633857E+03  0.50400001928E-02 0.  1.
       -1    1    3    3    0  502 -0.95489641169E+03 -0.73506131501E+02  0.10076917540E+04  0.13902060925E+04  0.50400001928E-02 0. -1.
</event>
<event>
 5   0  0.1015876E-05  0.2196972E+04  0.7818609E-02  0.8519690E-01
        2   -1    0    0  501    0  0.00000000000E+00  0.00000000000E+00  0.10142498673E+04  0.10142498673E+04  0.25500000920E-02 0. -1.
       -2   -1    0    0    0  501  0.00000000000E+00  0.00000000000E+00 -0.11897180931E+04  0.11897180931E+04  0.25500000920E-02 0.  1.
    10030    2    1    2    0    0  0.00000000000E+00  0.00000000000E+00 -0.17546822582E+03  0.22039679604E+04  0.21969719325E+04 0.  0.
        5    1    3    3  502    0 -0.80030999645E+03 -0.27927931506E+03  0.61317259808E+03  0.10461815097E+04  0.46999998093E+01 0. -1.
       -5    1    3    3    0  502  0.80030999645E+03  0.27927931506E+03 -0.78864082391E+03  0.11577864507E+04  0.46999998093E+01 0.  1.
</event>
<event>
 5   0  0.1014015E-05  0.2202310E+04  0.7818609E-02  0.8517467E-01
        2   -1    0    0  501    0  0.00000000000E+00  0.00000000000E+00  0.75208624970E+03  0.75208624971E+03  0.25500000920E-02 0.  1.
       -2   -1    0    0    0  501  0.00000000000E+00  0.00000000000E+00 -0.16122389568E+04  0.16122389568E+04  0.25500000920E-02 0. -1.
    10030    2    1    2    0    0  0.00000000000E+00  0.00000000000E+00 -0.86015270709E+03  0.23643252065E+04  0.22023103784E+04 0.  0.
        1    1    3    3  502    0  0.48799223969E+03  0.39567478174E+03  0.54080224893E+03  0.82895236979E+03  0.50400001928E-02 0.  1.
       -1    1    3    3    0  502 -0.48799223969E+03 -0.39567478174E+03 -0.14009549560E+04  0.15353728367E+04  0.50400001928E-02 0. -1.
</event>
<event>
 5   0  0.9963173E-06  0.2166154E+04  0.7818609E-02  0.8532649E-01
        2   -1    0    0  501    0  0.00000000000E+00  0.00000000000E+00  0.14052674498E+04  0.14052674498E+04  0.25500000920E-02 0.  1.
       -2   -1    0    0    0  501  0.00000000000E+00  0.00000000000E+00 -0.83475594509E+03  0.83475594509E+03  0.25500000920E-02 0. -1.
    10030    2    1    2    0    0  0.00000000000E+00  0.00000000000E+00  0.57051150473E+03  0.22400233949E+04  0.21661536032E+04 0.  0.
        4    1    3    3  502    0  0.81571075900E+03 -0.60591278499E+03 -0.10241438854E+03  0.10212759986E+04  0.12699999809E+01 0. -1.
       -4    1    3    3    0  502 -0.81571075900E+03  0.60591278499E+03  0.67292589327E+03  0.12187473963E+04  0.12699999809E+01 0.  1.
</event>
<event>
 5   0  0.4630615E-06  0.2199375E+04  0.7818609E-02  0.8518688E-01
       -1   -1    0    0    0  501  0.00000000000E+00  0.00000000000E+00  0.14102742897E+04  0.14102742897E+04  0.50400001928E-02 0.  1.
        1   -1    0    0  501    0  0.00000000000E+00  0.00000000000E+00 -0.85750199217E+03  0.85750199218E+03  0.50400001928E-02 0. -1.
    10030    2    1    2    0    0  0.00000000000E+00  0.00000000000E+00  0.55277229752E+03  0.22677762819E+04  0.21993753776E+04 0.  0.
        2    1    3    3  502    0 -0.21808307172E+03 -0.47604283387E+03 -0.72071275755E+03  0.89084447843E+03  0.25500000920E-02 0. -1.
       -2    1    3    3    0  502  0.21808307172E+03  0.47604283387E+03  0.12734850551E+04  0.13769318034E+04  0.25500000920E-02 0.  1.
</event>
<event>
 5   0  0.4630615E-06  0.2199887E+04  0.7818609E-02  0.8518475E-01
       -1   -1    0    0    0  501  0.00000000000E+00  0.00000000000E+00  0.73492938026E+03  0.73492938027E+03  0.50400001928E-02 0.  1.
        1   -1    0    0  501    0  0.00000000000E+00  0.00000000000E+00 -0.16462472407E+04  0.16462472407E+04  0.50400001928E-02 0. -1.
    10030    2    1    2    0    0  0.00000000000E+00  0.00000000000E+00 -0.91131786040E+03  0.23811766209E+04  0.21998867829E+04 0.  0.
        2    1    3    3  502    0  0.50001486981E+02  0.10052848597E+04 -0.93581141692E+03  0.13743510490E+04  0.25500000920E-02 0. -1.
       -2    1    3    3    0  502 -0.50001486981E+02 -0.10052848597E+04  0.24493556525E+02  0.10068255719E+04  0.25500000920E-02 0.  1.
</event>
<event>
 5   0  0.1015876E-05  0.2191456E+04  0.7818609E-02  0.8521993E-01
        2   -1    0    0  501    0  0.00000000000E+00  0.00000000000E+00  0.13188535386E+04  0.13188535386E+04  0.25500000920E-02 0. -1.
       -2   -1    0    0    0  501  0.00000000000E+00  0.00000000000E+00 -0.91035144599E+03  0.91035144599E+03  0.25500000920E-02 0.  1.
    10030    2    1    2    0    0  0.00000000000E+00  0.00000000000E+00  0.40850209264E+03  0.22292049846E+04  0.21914563431E+04 0.  0.
        5    1    3    3  502    0 -0.13387713989E+03 -0.10156906956E+04  0.59959390008E+03  0.11870491198E+04  0.46999998093E+01 0. -1.
       -5    1    3    3    0  502  0.13387713989E+03  0.10156906956E+04 -0.19109180744E+03  0.10421558648E+04  0.46999998093E+01 0.  1.
</event>
<event>
 5   0  0.1035928E-05  0.2197463E+04  0.7818609E-02  0.8519485E-01
        2   -1    0    0  501    0  0.00000000000E+00  0.00000000000E+00  0.22288686388E+04  0.22288686388E+04  0.25500000920E-02 0. -1.
       -2   -1    0    0    0  501  0.00000000000E+00  0.00000000000E+00 -0.54162486308E+03  0.54162486308E+03  0.25500000920E-02 0.  1.
    10030    2    1    2    0    0  0.00000000000E+00  0.00000000000E+00  0.16872437757E+04  0.27704935019E+04  0.21974627836E+04 0.  0.
        3    1    3    3  502    0 -0.10526590116E+04  0.15239491083E+00  0.44669047276E+03  0.11435136232E+04  0.10100000352E+00 0.  1.
       -3    1    3    3    0  502  0.10526590116E+04 -0.15239491083E+00  0.12405533029E+04  0.16269798786E+04  0.10100000352E+00 0. -1.
</event>
<event>
 5   0  0.4630615E-06  0.2199091E+04  0.7818609E-02  0.8518807E-01
        1   -1    0    0  501    0  0.00000000000E+00  0.00000000000E+00  0.13265253280E+04  0.13265253280E+04  0.50400001928E-02 0. -1.
       -1   -1    0    0    0  501  0.00000000000E+00  0.00000000000E+00 -0.91140360785E+03  0.91140360787E+03  0.50400001928E-02 0.  1.
    10030    2    1    2    0    0  0.00000000000E+00  0.00000000000E+00  0.41512172013E+03  0.22379289359E+04  0.21990906938E+04 0.  0.
        2    1    3    3  502    0  0.40061495389E+03 -0.85493674015E+02 -0.83085164522E+03  0.92634548951E+03  0.25500000920E-02 0.  1.
       -2    1    3    3    0  502 -0.40061495389E+03  0.85493674015E+02  0.12459733653E+04  0.13115834463E+04  0.25500000920E-02 0. -1.
</event>
<event>
 5   0  0.9963173E-06  0.2200476E+04  0.7818609E-02  0.8518230E-01
       -2   -1    0    0    0  501  0.00000000000E+00  0.00000000000E+00  0.17786401843E+04  0.17786401843E+04  0.25500000920E-02 0.  1.
        2   -1    0    0  501    0  0.00000000000E+00  0.00000000000E+00 -0.68058955559E+03  0.68058955560E+03  0.25500000920E-02 0. -1.
    10030    2    1    2    0    0  0.00000000000E+00  0.00000000000E+00  0.10980506287E+04  0.24592297399E+04  0.22004762508E+04 0.  0.
        4    1    3    3  502    0 -0.13224922373E+03 -0.17452712458E+03  0.17540404036E+04  0.17676563367E+04  0.12699999809E+01 0.  1.
       -4    1    3    3    0  502  0.13224922373E+03  0.17452712458E+03 -0.65598977487E+03  0.69157340320E+03  0.12699999809E+01 0. -1.
</event>
<event>
 5   0  0.4309945E-06  0.2183292E+04  0.7818609E-02  0.8525415E-01
        1   -1    0    0  501    0  0.00000000000E+00  0.00000000000E+00  0.14144733511E+04  0.14144733512E+04  0.50400001928E-02 0.  1.
       -1   -1    0    0    0  501  0.00000000000E+00  0.00000000000E+00 -0.84249832036E+03  0.84249832038E+03  0.50400001928E-02 0. -1.
    10030    2    1    2    0    0  0.00000000000E+00  0.00000000000E+00  0.57197503078E+03  0.22569716715E+04  0.21832923969E+04 0.  0.
        4    1    3    3  502    0 -0.41210834936E+03 -0.27757196071E+03 -0.71882843617E+03  0.87383946954E+03  0.12699999809E+01 0. -1.
       -4    1    3    3    0  502  0.41210834936E+03  0.27757196071E+03  0.12908034670E+04  0.13831322020E+04  0.12699999809E+01 0.  1.
</event>
<event>
 5   0  0.4462201E-06  0.2198954E+04  0.7818609E-02  0.8518864E-01
        1   -1    0    0  501    0  0.00000000000E+00  0.00000000000E+00  0.14809233600E+04  0.14809233600E+04  0.50400001928E-02 0. -1.
       -1   -1    0    0    0  501  0.00000000000E+00  0.00000000000E+00 -0.81628120953E+03  0.81628120954E+03  0.50400001928E-02 0.  1.
    10030    2    1    2    0    0  0.00000000000E+00  0.00000000000E+00  0.66464215050E+03  0.22972045696E+04  0.21989542165E+04 0.  0.
        3    1    3    3  502    0  0.48902980448E+03 -0.30067167476E+03 -0.64728417953E+03  0.86517652820E+03  0.10100000352E+00 0.  1.
       -3    1    3    3    0  502 -0.48902980448E+03  0.30067167476E+03  0.13119263300E+04  0.14320280414E+04  0.10100000352E+00 0. -1.
</event>
<event>
 5   0  0.1014015E-05  0.2198329E+04  0.7818609E-02  0.8519124E-01
       -2   -1    0    0    0  501  0.00000000000E+00  0.00000000000E+00  0.55833924108E+03  0.55833924109E+03  0.25500000920E-02 0.  1.
        2   -1    0    0  501    0  0.00000000000E+00  0.00000000000E+00 -0.21638501951E+04  0.21638501951E+04  0.25500000920E-02 0. -1.
    10030    2    1    2    0    0  0.00000000000E+00  0.00000000000E+00 -0.16055109540E+04  0.27221894362E+04  0.21983288887E+04 0.  0.
        1    1    3    3  502    0  0.58975123075E+02  0.10969199094E+04 -0.75558418304E+03  0.13332737192E+04  0.50400001928E-02 0.  1.
       -1    1    3    3    0  502 -0.58975123075E+02 -0.10969199094E+04 -0.84992677098E+03  0.13889157169E+04  0.50400001928E-02 0. -1.
</event>
<event>
 5   0  0.4630615E-06  0.2199392E+04  0.7818609E-02  0.8518681E-01
        1   -1    0    0  501    0  0.00000000000E+00  0.00000000000E+00  0.15717298554E+04  0.15717298554E+04  0.50400001928E-02 0. -1.
       -1   -1    0    0    0  501  0.00000000000E+00  0.00000000000E+00 -0.76942659908E+03  0.76942659909E+03  0.50400001928E-02 0.  1.
    10030    2    1    2    0    0  0.00000000000E+00  0.00000000000E+00  0.80230325628E+03  0.23411564545E+04  0.21993915134E+04 0.  0.
        2    1    3    3  502    0 -0.10116283816E+03  0.10923412744E+04  0.31947668421E+03  0.11425886098E+04  0.25500000920E-02 0.  1.
       -2    1    3    3    0  502  0.10116283816E+03 -0.10923412744E+04  0.48282657207E+03  0.11985678446E+04  0.25500000920E-02 0. -1.
</event>
<event>
 5   0  0.1014015E-05  0.2197914E+04  0.7818609E-02  0.8519297E-01
        2   -1    0    0  501    0  0.00000000000E+00  0.00000000000E+00  0.10098040408E+04  0.10098040408E+04  0.25500000920E-02 0.  1.
       -2   -1    0    0    0  501  0.00000000000E+00  0.00000000000E+00 -0.11959810065E+04  0.11959810066E+04  0.25500000920E-02 0. -1.
    10030    2    1    2    0    0  0.00000000000E+00  0.00000000000E+00 -0.18617696571E+03  0.22057850474E+04  0.21979139685E+04 0.  0.
        1    1    3    3  502    0 -0.57726946945E+03 -0.28042997344E+03 -0.98837369081E+03  0.11784581295E+04  0.50400001928E-02 0. -1.
       -1    1    3    3    0  502  0.57726946945E+03  0.28042997344E+03  0.80219672509E+03  0.10273269179E+04  0.50400001928E-02 0.  1.
</event>
<event>
 5   0  0.1035928E-05  0.2200462E+04  0.7818609E-02  0.8518236E-01
        2   -1    0    0  501    0  0.00000000000E+00  0.00000000000E+00  0.22366786202E+04  0.22366786202E+04  0.25500000920E-02 0.  1.
       -2   -1    0    0    0  501  0.00000000000E+00  0.00000000000E+00 -0.54120815089E+03  0.54120815090E+03  0.25500000920E-02 0. -1.
    10030    2    1    2    0    0  0.00000000000E+00  0.00000000000E+00  0.16954704693E+04  0.27778867711E+04  0.22004624061E+04 0.  0.
        3    1    3    3  502    0 -0.25408708774E+03 -0.91770695873E+03  0.15435082474E+04  0.18136052576E+04  0.10100000352E+00 0.  1.
       -3    1    3    3    0  502  0.25408708774E+03  0.91770695873E+03  0.15196222191E+03  0.96428151354E+03  0.10100000352E+00 0. -1.
</event>
<event>
 5   0  0.4408787E-06  0.2182916E+04  0.7818609E-02  0.8525573E-01
       -1   -1    0    0    0  501  0.00000000000E+00  0.00000000000E+00  0.50289300939E+03  0.50289300942E+03  0.50400001928E-02 0.  1.
        1   -1    0    0  501    0  0.00000000000E+00  0.00000000000E+00 -0.23688552280E+04  0.23688552280E+04  0.50400001928E-02 0. -1.
    10030    2    1    2    0    0  0.00000000000E+00  0.00000000000E+00 -0.18659622186E+04  0.28717482374E+04  0.21829161546E+04 0.  0.
        1    1    3    3  502    0  0.68213362481E+03  0.28762235571E+03 -0.19880928950E+04  0.21214490946E+04  0.50400001928E-02 0. -1.
       -1    1    3    3    0  502 -0.68213362481E+03 -0.28762235571E+03  0.12213067642E+03  0.75029914284E+03  0.50400001928E-02 0.  1.
</event>
<event>
 5   0  0.4408787E-06  0.2203013E+04  0.7818609E-02  0.8517175E-01
        1   -1    0    0  501    0  0.00000000000E+00  0.00000000000E+00  0.13443021504E+04  0.13443021504E+04  0.50400001928E-02 0. -1.
       -1   -1    0    0    0  501  0.00000000000E+00  0.00000000000E+00 -0.90256257809E+03  0.90256257811E+03  0.50400001928E-02 0.  1.
    10030    2    1    2    0    0  0.00000000000E+00  0.00000000000E+00  0.44173957231E+03  0.22468647285E+04  0.22030132225E+04 0.  0.
        1    1    3    3  502    0 -0.85137417203E+03  0.47367850404E+02 -0.49031586406E+03  0.98361137683E+03  0.50400001928E-02 0.  1.
       -1    1    3    3    0  502  0.85137417203E+03 -0.47367850404E+02  0.93205543637E+03  0.12632533517E+04  0.50400001928E-02 0. -1.
</event>
<event>
 5   0  0.1014015E-05  0.2199912E+04  0.7818609E-02  0.8518465E-01
       -2   -1    0    0    0  501  0.00000000000E+00  0.00000000000E+00  0.69923068515E+03  0.69923068516E+03  0.25500000920E-02 0.  1.
        2   -1    0    0  501    0  0.00000000000E+00  0.00000000000E+00 -0.17303344085E+04  0.17303344085E+04  0.25500000920E-02 0. -1.
    10030    2    1    2    0    0  0.00000000000E+00  0.00000000000E+00 -0.10311037234E+04  0.24295650937E+04  0.21999117383E+04 0.  0.
        1    1    3    3  502    0 -0.18658223485E+03  0.64025077496E+02 -0.17106402282E+04  0.17219762284E+04  0.50400001928E-02 0. -1.
       -1    1    3    3    0  502  0.18658223485E+03 -0.64025077496E+02  0.67953650479E+03  0.70758886529E+03  0.50400001928E-02 0.  1.
</event>
<event>
 5   0  0.4630615E-06  0.2187488E+04  0.7818609E-02  0.8523654E-01
        1   -1    0    0  501    0  0.00000000000E+00  0.00000000000E+00  0.12339101902E+04  0.12339101902E+04  0.50400001928E-02 0.  1.
       -1   -1    0    0    0  501  0.00000000000E+00  0.00000000000E+00 -0.96950005590E+03  0.96950005591E+03  0.50400001928E-02 0. -1.
    10030    2    1    2    0    0  0.00000000000E+00  0.00000000000E+00  0.26441013426E+03  0.22034102461E+04  0.21874880556E+04 0.  0.
        2    1    3    3  502    0  0.23958792096E+03 -0.88982997003E+03 -0.46121485618E+03  0.10304944886E+04  0.25500000920E-02 0. -1.
       -2    1    3    3    0  502 -0.23958792096E+03  0.88982997003E+03  0.72562499044E+03  0.11729157575E+04  0.25500000920E-02 0.  1.
</event>
<event>
 5   0  0.4408787E-06  0.2200290E+04  0.7818609E-02  0.8518307E-01
       -1   -1    0    0    0  501  0.00000000000E+00  0.00000000000E+00  0.12188018706E+04  0.12188018706E+04  0.50400001928E-02 0. -1.
        1   -1    0    0  501    0  0.00000000000E+00  0.00000000000E+00 -0.99303985726E+03  0.99303985728E+03  0.50400001928E-02 0.  1.
    10030    2    1    2    0    0  0.00000000000E+00  0.00000000000E+00  0.22576201333E+03  0.22118417279E+04  0.22002898315E+04 0.  0.
        1    1    3    3  502    0 -0.23821005935E+03 -0.10214125281E+04 -0.22096384727E+03  0.10718454211E+04  0.50400001928E-02 0.  1.
       -1    1    3    3    0  502  0.23821005935E+03  0.10214125281E+04  0.44672586060E+03  0.11399963068E+04  0.50400001928E-02 0. -1.
</event>
<event>
 5   0  0.1035928E-05  0.2234437E+04  0.7818609E-02  0.8504230E-01
       -2   -1    0    0    0  501  0.00000000000E+00  0.00000000000E+00  0.15519306986E+04  0.15519306986E+04  0.25500000920E-02 0.  1.
        2   -1    0    0  501    0  0.00000000000E+00  0.00000000000E+00 -0.80427380546E+03  0.80427380547E+03  0.25500000920E-02 0. -1.
    10030    2    1    2    0    0  0.00000000000E+00  0.00000000000E+00  0.74765689318E+03  0.23562045041E+04  0.22344370287E+04 0.  0.
        3    1    3    3  502    0  0.39787121560E+03 -0.61776712320E+03 -0.51360323062E+03  0.89650767504E+03  0.10100000352E+00 0. -1.
       -3    1    3    3    0  502 -0.39787121560E+03  0.61776712320E+03  0.12612601238E+04  0.14596968291E+04  0.10100000352E+00 0.  1.
</event>
<event>
 5   0  0.4309945E-06  0.2199198E+04  0.7818609E-02  0.8518762E-01
        1   -1    0    0  501    0  0.00000000000E+00  0.00000000000E+00  0.20887371334E+04  0.20887371334E+04  0.50400001928E-02 0. -1.
       -1   -1    0    0    0  501  0.00000000000E+00  0.00000000000E+00 -0.57887494253E+03  0.57887494255E+03  0.50400001928E-02 0.  1.
    10030    2    1    2    0    0  0.00000000000E+00  0.00000000000E+00  0.15098621908E+04  0.26676120759E+04  0.21991976610E+04 0.  0.
        4    1    3    3  502    0 -0.13294638828E+03 -0.10407071203E+04  0.11542434910E+04  0.15598159192E+04  0.12699999809E+01 0. -1.
       -4    1    3    3    0  502  0.13294638828E+03  0.10407071203E+04  0.35561869984E+03  0.11077961567E+04  0.12699999809E+01 0.  1.
</event>
<event>
 5   0  0.4408787E-06  0.2202911E+04  0.7818609E-02  0.8517217E-01
       -1   -1    0    0    0  501  0.00000000000E+00  0.00000000000E+00  0.98631122400E+03  0.98631122401E+03  0.50400001928E-02 0.  1.
        1   -1    0    0  501    0  0.00000000000E+00  0.00000000000E+00 -0.12300423136E+04  0.12300423136E+04  0.50400001928E-02 0. -1.
    10030    2    1    2    0    0  0.00000000000E+00  0.00000000000E+00 -0.24373108961E+03  0.22163535376E+04  0.22029112918E+04 0.  0.
        1    1    3    3  502    0 -0.37572005604E+03 -0.58887475460E+03  0.73495631622E+03  0.10139525748E+04  0.50400001928E-02 0.  1.
       -1    1    3    3    0  502  0.37572005604E+03  0.58887475460E+03 -0.97868740583E+03  0.12024009629E+04  0.50400001928E-02 0. -1.
</event>
<event>
 5   0  0.4309945E-06  0.2194175E+04  0.7818609E-02  0.8520856E-01
        1   -1    0    0  501    0  0.00000000000E+00  0.00000000000E+00  0.24621782060E+04  0.24621782060E+04  0.50400001928E-02 0. -1.
       -1   -1    0    0    0  501  0.00000000000E+00  0.00000000000E+00 -0.48883587871E+03  0.48883587874E+03  0.50400001928E-02 0.  1.
    10030    2    1    2    0    0  0.00000000000E+00  0.00000000000E+00  0.19733423273E+04  0.29510140848E+04  0.21941750586E+04 0.  0.
        4    1    3    3  502    0  0.48436622558E+03  0.27300493269E+03  0.22586496508E+04  0.23260787157E+04  0.12699999809E+01 0. -1.
       -4    1    3    3    0  502 -0.48436622558E+03 -0.27300493269E+03 -0.28530732348E+03  0.62493536905E+03  0.12699999809E+01 0.  1.
</event>
<event>
 5   0  0.9963573E-06  0.2200088E+04  0.7818609E-02  0.8518391E-01
       -2   -1    0    0    0  501  0.00000000000E+00  0.00000000000E+00  0.11200369610E+04  0.11200369610E+04  0.25500000920E-02 0.  1.
        2   -1    0    0  501    0  0.00000000000E+00  0.00000000000E+00 -0.10804083301E+04  0.10804083301E+04  0.25500000920E-02 0. -1.
    10030    2    1    2    0    0  0.00000000000E+00  0.00000000000E+00  0.39628630933E+02  0.22004452911E+04  0.22000884188E+04 0.  0.
        2    1    3    3  502    0 -0.80509599013E+03  0.71150995637E+03  0.25580023329E+03  0.11044726030E+04  0.25500000920E-02 0. -1.
       -2    1    3    3    0  502  0.80509599013E+03 -0.71150995637E+03 -0.21617160236E+03  0.10959726881E+04  0.25500000920E-02 0.  1.
</event>
<event>
 5   0  0.9963173E-06  0.2197907E+04  0.7818609E-02  0.8519300E-01
       -2   -1    0    0    0  501  0.00000000000E+00  0.00000000000E+00  0.14294805929E+04  0.14294805929E+04  0.25500000920E-02 0. -1.
        2   -1    0    0  501    0  0.00000000000E+00  0.00000000000E+00 -0.84485139784E+03  0.84485139784E+03  0.25500000920E-02 0.  1.
    10030    2    1    2    0    0  0.00000000000E+00  0.00000000000E+00  0.58462919509E+03  0.22743319908E+04  0.21979068926E+04 0.  0.
        4    1    3    3  502    0  0.88946046309E+03 -0.50216891298E+03 -0.12722573933E+03  0.10293209092E+04  0.12699999809E+01 0.  1.
       -4    1    3    3    0  502 -0.88946046309E+03  0.50216891298E+03  0.71185493442E+03  0.12450110815E+04  0.12699999809E+01 0. -1.
</event>
<event>
 5   0  0.1035928E-05  0.2200472E+04  0.7818609E-02  0.8518232E-01
        2   -1    0    0  501    0  0.00000000000E+00  0.00000000000E+00  0.10018878342E+04  0.10018878342E+04  0.25500000920E-02 0.  1.
       -2   -1    0    0    0  501  0.00000000000E+00  0.00000000000E+00 -0.12082381598E+04  0.12082381598E+04  0.25500000920E-02 0. -1.
    10030    2    1    2    0    0  0.00000000000E+00  0.00000000000E+00 -0.20635032559E+03  0.22101259940E+04  0.22004718704E+04 0.  0.
        3    1    3    3  502    0  0.55629795629E+03 -0.39856458204E+02  0.84938606181E+03  0.10161262941E+04  0.10100000352E+00 0.  1.
       -3    1    3    3    0  502 -0.55629795629E+03  0.39856458204E+02 -0.10557363874E+04  0.11939996999E+04  0.10100000352E+00 0. -1.
</event>
<event>
 5   0  0.4462201E-06  0.2201715E+04  0.7818609E-02  0.8517714E-01
       -1   -1    0    0    0  501  0.00000000000E+00  0.00000000000E+00  0.88735942797E+03  0.88735942798E+03  0.50400001928E-02 0. -1.
        1   -1    0    0  501    0  0.00000000000E+00  0.00000000000E+00 -0.13657236704E+04  0.13657236704E+04  0.50400001928E-02 0.  1.
    10030    2    1    2    0    0  0.00000000000E+00  0.00000000000E+00 -0.47836424246E+03  0.22530830984E+04  0.22017154902E+04 0.  0.
        3    1    3    3  502    0  0.14024612936E+03 -0.87281961142E+03 -0.91054066688E+03  0.12690813083E+04  0.10100000352E+00 0.  1.
       -3    1    3    3    0  502 -0.14024612936E+03  0.87281961142E+03  0.43217642443E+03  0.98400179009E+03  0.10100000352E+00 0. -1.
</event>
<event>
 5   0  0.1015876E-05  0.2207497E+04  0.7818609E-02  0.8515314E-01
       -2   -1    0    0    0  501  0.00000000000E+00  0.00000000000E+00  0.58337747690E+03  0.58337747691E+03  0.25500000920E-02 0. -1.
        2   -1    0    0  501    0  0.00000000000E+00  0.00000000000E+00 -0.20882884538E+04  0.20882884538E+04  0.25500000920E-02 0.  1.
    10030    2    1    2    0    0  0.00000000000E+00  0.00000000000E+00 -0.15049109769E+04  0.26716659307E+04  0.22074967264E+04 0.  0.
        5    1    3    3  502    0  0.87597177890E+03 -0.29377506849E+03 -0.21661127782E+02  0.92418701719E+03  0.46999998093E+01 0. -1.
       -5    1    3    3    0  502 -0.87597177890E+03  0.29377506849E+03 -0.14832498491E+04  0.17474789135E+04  0.46999998093E+01 0.  1.
</event>
<event>
 5   0  0.9963573E-06  0.2192980E+04  0.7818609E-02  0.8521356E-01
       -2   -1    0    0    0  501  0.00000000000E+00  0.00000000000E+00  0.72702159472E+03  0.72702159473E+03  0.25500000920E-02 0.  1.
        2   -1    0    0  501    0  0.00000000000E+00  0.00000000000E+00 -0.16537205299E+04  0.16537205299E+04  0.25500000920E-02 0. -1.
    10030    2    1    2    0    0  0.00000000000E+00  0.00000000000E+00 -0.92669893521E+03  0.23807421247E+04  0.21929801977E+04 0.  0.
        2    1    3    3  502    0 -0.41195915390E+03 -0.78896837893E+03  0.23187867477E+03  0.91975494957E+03  0.25500000920E-02 0.  1.
       -2    1    3    3    0  502  0.41195915390E+03  0.78896837893E+03 -0.11585776100E+04  0.14609871751E+04  0.25500000920E-02 0. -1.
</event>
<event>
 5   0  0.4462201E-06  0.2203304E+04  0.7818609E-02  0.8517054E-01
       -1   -1    0    0    0  501  0.00000000000E+00  0.00000000000E+00  0.15947037874E+04  0.15947037874E+04  0.50400001928E-02 0.  1.
        1   -1    0    0  501    0  0.00000000000E+00  0.00000000000E+00 -0.76104217066E+03  0.76104217068E+03  0.50400001928E-02 0. -1.
    10030    2    1    2    0    0  0.00000000000E+00  0.00000000000E+00  0.83366161672E+03  0.23557459581E+04  0.22033037303E+04 0.  0.
        3    1    3    3  502    0 -0.31826992787E+03  0.65760503416E+02 -0.70862183215E+03  0.77959290787E+03  0.10100000352E+00 0. -1.
       -3    1    3    3    0  502  0.31826992787E+03 -0.65760503416E+02  0.15422834489E+04  0.15761530502E+04  0.10100000352E+00 0.  1.
</event>
<event>
 5   0  0.1015876E-05  0.2199662E+04  0.7818609E-02  0.8518569E-01
        2   -1    0    0  501    0  0.00000000000E+00  0.00000000000E+00  0.94444014556E+03  0.94444014556E+03  0.25500000920E-02 0.  1.
       -2   -1    0    0    0  501  0.00000000000E+00  0.00000000000E+00 -0.12807890484E+04  0.12807890484E+04  0.25500000920E-02 0. -1.
    10030    2    1    2    0    0  0.00000000000E+00  0.00000000000E+00 -0.33634890285E+03  0.22252291940E+04  0.21996623335E+04 0.  0.
        5    1    3    3  502    0 -0.74833138068E+03  0.78012271398E+03 -0.37305048320E+03  0.11435821165E+04  0.46999998093E+01 0. -1.
       -5    1    3    3    0  502  0.74833138068E+03 -0.78012271398E+03  0.36701580354E+02  0.10816470775E+04  0.46999998093E+01 0.  1.
</event>
<event>
 5   0  0.4794967E-06  0.2195275E+04  0.7818609E-02  0.8520397E-01
        1   -1    0    0  501    0  0.00000000000E+00  0.00000000000E+00  0.13238466230E+04  0.13238466230E+04  0.50400001928E-02 0. -1.
       -1   -1    0    0    0  501  0.00000000000E+00  0.00000000000E+00 -0.91008172188E+03  0.91008172190E+03  0.50400001928E-02 0.  1.
    10030    2    1    2    0    0  0.00000000000E+00  0.00000000000E+00  0.41376490110E+03  0.22339283449E+04  0.21952754854E+04 0.  0.
        5    1    3    3  502    0  0.10325794951E+03 -0.71772686814E+03 -0.63163612457E+03  0.96165500324E+03  0.46999998093E+01 0.  1.
       -5    1    3    3    0  502 -0.10325794951E+03  0.71772686814E+03  0.10454010257E+04  0.12722733416E+04  0.46999998093E+01 0. -1.
</event>
<event>
 5   0  0.1015876E-05  0.2197737E+04  0.7818609E-02  0.8519370E-01
        2   -1    0    0  501    0  0.00000000000E+00  0.00000000000E+00  0.11242039284E+04  0.11242039285E+04  0.25500000920E-02 0.  1.
       -2   -1    0    0    0  501  0.00000000000E+00  0.00000000000E+00 -0.10741043826E+04  0.10741043826E+04  0.25500000920E-02 0. -1.
    10030    2    1    2    0    0  0.00000000000E+00  0.00000000000E+00  0.50099545877E+02  0.21983083110E+04  0.21977373514E+04 0.  0.
        5    1    3    3  502    0  0.48752368052E+02  0.80889917896E+03  0.76739863003E+03  0.11160723196E+04  0.46999998093E+01 0.  1.
       -5    1    3    3    0  502 -0.48752368052E+02 -0.80889917896E+03 -0.71729908415E+03  0.10822359915E+04  0.46999998093E+01 0. -1.
</event>
<event>
 5   0  0.1014015E-05  0.2201919E+04  0.7818609E-02  0.8517630E-01
        2   -1    0    0  501    0  0.00000000000E+00  0.00000000000E+00  0.97422174750E+03  0.97422174750E+03  0.25500000920E-02 0. -1.
       -2   -1    0    0    0  501  0.00000000000E+00  0.00000000000E+00 -0.12441843009E+04  0.12441843009E+04  0.25500000920E-02 0.  1.
    10030    2    1    2    0    0  0.00000000000E+00  0.00000000000E+00 -0.26996255341E+03  0.22184060484E+04  0.22019186214E+04 0.  0.
        1    1    3    3  502    0 -0.94369856675E+03 -0.31260667015E+01 -0.70626738648E+03  0.11787240468E+04  0.50400001928E-02 0.  1.
       -1    1    3    3    0  502  0.94369856675E+03  0.31260667015E+01  0.43630483307E+03  0.10396820017E+04  0.50400001928E-02 0. -1.
</event>
<event>
 5   0  0.9963173E-06  0.2201242E+04  0.7818609E-02  0.8517911E-01
       -2   -1    0    0    0  501  0.00000000000E+00  0.00000000000E+00  0.26431241615E+04  0.26431241615E+04  0.25500000920E-02 0.  1.
        2   -1    0    0  501    0  0.00000000000E+00  0.00000000000E+00 -0.45830867384E+03  0.45830867385E+03  0.25500000920E-02 0. -1.
    10030    2    1    2    0    0  0.00000000000E+00  0.00000000000E+00  0.21848154877E+04  0.31014328353E+04  0.22012421305E+04 0.  0.
        4    1    3    3  502    0 -0.15012701456E+02 -0.84315330601E+03  0.20889148556E+04  0.22527094276E+04  0.12699999809E+01 0.  1.
       -4    1    3    3    0  502  0.15012701456E+02  0.84315330601E+03  0.95900632073E+02  0.84872340770E+03  0.12699999809E+01 0. -1.
</event>
<event>
 5   0  0.4462201E-06  0.2198509E+04  0.7818609E-02  0.8519049E-01
        1   -1    0    0  501    0  0.00000000000E+00  0.00000000000E+00  0.10052008425E+04  0.10052008425E+04  0.50400001928E-02 0. -1.
       -1   -1    0    0    0  501  0.00000000000E+00  0.00000000000E+00 -0.12021086524E+04  0.12021086524E+04  0.50400001928E-02 0.  1.
    10030    2    1    2    0    0  0.00000000000E+00  0.00000000000E+00 -0.19690780990E+03  0.22073094950E+04  0.21985091587E+04 0.  0.
        3    1    3    3  502    0 -0.10060924567E+04  0.44281260005E+03 -0.90968199849E+02  0.11029869690E+04  0.10100000352E+00 0.  1.
       -3    1    3    3    0  502  0.10060924567E+04 -0.44281260005E+03 -0.10593961005E+03  0.11043225260E+04  0.10100000352E+00 0. -1.
</event>
<event>
 5   0  0.4309945E-06  0.2201072E+04  0.7818609E-02  0.8517982E-01
       -1   -1    0    0    0  501  0.00000000000E+00  0.00000000000E+00  0.60886304872E+03  0.60886304875E+03  0.50400001928E-02 0. -1.
        1   -1    0    0  501    0  0.00000000000E+00  0.00000000000E+00 -0.19892476756E+04  0.19892476756E+04  0.50400001928E-02 0.  1.
    10030    2    1    2    0    0  0.00000000000E+00  0.00000000000E+00 -0.13803846269E+04  0.25981107244E+04  0.22010719248E+04 0.  0.
        4    1    3    3  502    0  0.10283855408E+03  0.77650465175E+03  0.22233143552E+03  0.81422854440E+03  0.12699999809E+01 0. -1.
       -4    1    3    3    0  502 -0.10283855408E+03 -0.77650465175E+03 -0.16027160624E+04  0.17838821800E+04  0.12699999809E+01 0.  1.
</event>
<event>
 5   0  0.1014015E-05  0.2189492E+04  0.7818609E-02  0.8522814E-01
       -2   -1    0    0    0  501  0.00000000000E+00  0.00000000000E+00  0.11884531712E+04  0.11884531712E+04  0.25500000920E-02 0.  1.
        2   -1    0    0  501    0  0.00000000000E+00  0.00000000000E+00 -0.10084276365E+04  0.10084276365E+04  0.25500000920E-02 0. -1.
    10030    2    1    2    0    0  0.00000000000E+00  0.00000000000E+00  0.18002553461E+03  0.21968808077E+04  0.21894921991E+04 0.  0.
        1    1    3    3  502    0  0.10004537951E+04  0.21690617226E+03 -0.29925640385E+03  0.10665413630E+04  0.50400001928E-02 0. -1.
       -1    1    3    3    0  502 -0.10004537951E+04 -0.21690617226E+03  0.47928193846E+03  0.11303394447E+04  0.50400001928E-02 0.  1.
</event>
<event>
 5   0  0.4408787E-06  0.2200852E+04  0.7818609E-02  0.8518074E-01
       -1   -1    0    0    0  501  0.00000000000E+00  0.00000000000E+00  0.51625151776E+03  0.51625151779E+03  0.50400001928E-02 0. -1.
        1   -1    0    0  501    0  0.00000000000E+00  0.00000000000E+00 -0.23456343836E+04  0.23456343836E+04  0.50400001928E-02 0.  1.
    10030    2    1    2    0    0  0.00000000000E+00  0.00000000000E+00 -0.18293828658E+04  0.28618859014E+04  0.22008519357E+04 0.  0.
        1    1    3    3  502    0 -0.14764908803E+03 -0.87034650976E+03 -0.17690089630E+04  0.19770422381E+04  0.50400001928E-02 0.  1.
       -1    1    3    3    0  502  0.14764908803E+03  0.87034650976E+03 -0.60373902857E+02  0.88484366326E+03  0.50400001928E-02 0. -1.
</event>
<event>
 5   0  0.9963173E-06  0.2199109E+04  0.7818609E-02  0.8518799E-01
       -2   -1    0    0    0  501  0.00000000000E+00  0.00000000000E+00  0.15783210643E+04  0.15783210643E+04  0.25500000920E-02 0. -1.
        2   -1    0    0  501    0  0.00000000000E+00  0.00000000000E+00 -0.76601680792E+03  0.76601680792E+03  0.25500000920E-02 0.  1.
    10030    2    1    2    0    0  0.00000000000E+00  0.00000000000E+00  0.81230425638E+03  0.23443378722E+04  0.21991093320E+04 0.  0.
        4    1    3    3  502    0  0.29404893135E+03 -0.86747403344E+03 -0.24233208350E+03  0.94747159552E+03  0.12699999809E+01 0. -1.
       -4    1    3    3    0  502 -0.29404893135E+03  0.86747403344E+03  0.10546363399E+04  0.13968662767E+04  0.12699999809E+01 0.  1.
</event>
<event>
 5   0  0.1015876E-05  0.2223406E+04  0.7818609E-02  0.8508749E-01
       -2   -1    0    0    0  501  0.00000000000E+00  0.00000000000E+00  0.88761130576E+03  0.88761130576E+03  0.25500000920E-02 0. -1.
        2   -1    0    0  501    0  0.00000000000E+00  0.00000000000E+00 -0.13923707056E+04  0.13923707056E+04  0.25500000920E-02 0.  1.
    10030    2    1    2    0    0  0.00000000000E+00  0.00000000000E+00 -0.50475939982E+03  0.22799820113E+04  0.22234063777E+04 0.  0.
        5    1    3    3  502    0 -0.63224083398E+03  0.71379645725E+02 -0.11871891842E+04  0.13469460921E+04  0.46999998093E+01 0.  1.
       -5    1    3    3    0  502  0.63224083398E+03 -0.71379645725E+02  0.68242978438E+03  0.93303591923E+03  0.46999998093E+01 0. -1.
</event>
<event>
 5   0  0.1015876E-05  0.2196742E+04  0.7818609E-02  0.8519786E-01
       -2   -1    0    0    0  501  0.00000000000E+00  0.00000000000E+00  0.73893757831E+03  0.73893757831E+03  0.25500000920E-02 0. -1.
        2   -1    0    0  501    0  0.00000000000E+00  0.00000000000E+00 -0.16326390797E+04  0.16326390797E+04  0.25500000920E-02 0.  1.
    10030    2    1    2    0    0  0.00000000000E+00  0.00000000000E+00 -0.89370150139E+03  0.23715766580E+04  0.21967415577E+04 0.  0.
        5    1    3    3  502    0 -0.97043513629E+03  0.45417017869E+03 -0.18599804079E+03  0.10874889729E+04  0.46999998093E+01 0.  1.
       -5    1    3    3    0  502  0.97043513629E+03 -0.45417017869E+03 -0.70770346061E+03  0.12840876851E+04  0.46999998093E+01 0. -1.
</event>
<event>
 5   0  0.4309945E-06  0.2193536E+04  0.7818609E-02  0.8521123E-01
        1   -1    0    0  501    0  0.00000000000E+00  0.00000000000E+00  0.83838415475E+03  0.83838415476E+03  0.50400001928E-02 0.  1.
       -1   -1    0    0    0  501  0.00000000000E+00  0.00000000000E+00 -0.14347841410E+04  0.14347841410E+04  0.50400001928E-02 0. -1.
    10030    2    1    2    0    0  0.00000000000E+00  0.00000000000E+00 -0.59639998625E+03  0.22731682958E+04  0.21935362220E+04 0.  0.
        4    1    3    3  502    0 -0.44517017256E+03  0.81219291475E+03  0.31054744882E+03  0.97687007538E+03  0.12699999809E+01 0.  1.
       -4    1    3    3    0  502  0.44517017256E+03 -0.81219291475E+03 -0.90694743507E+03  0.12962982204E+04  0.12699999809E+01 0. -1.
</event>
<event>
 5   0  0.4309945E-06  0.2202922E+04  0.7818609E-02  0.8517213E-01
        1   -1    0    0  501    0  0.00000000000E+00  0.00000000000E+00  0.23838011600E+04  0.23838011600E+04  0.50400001928E-02 0.  1.
       -1   -1    0    0    0  501  0.00000000000E+00  0.00000000000E+00 -0.50894169704E+03  0.50894169706E+03  0.50400001928E-02 0. -1.
    10030    2    1    2    0    0  0.00000000000E+00  0.00000000000E+00  0.18748594630E+04  0.28927428571E+04  0.22029215218E+04 0.  0.
        4    1    3    3  502    0 -0.91831180991E+02 -0.68627151259E+03 -0.18744302379E+03  0.71731308009E+03  0.12699999809E+01 0. -1.
       -4    1    3    3    0  502  0.91831180991E+02  0.68627151259E+03  0.20623024867E+04  0.21754297770E+04  0.12699999809E+01 0.  1.
</event>
<event>
 5   0  0.4408787E-06  0.2200962E+04  0.7818609E-02  0.8518028E-01
       -1   -1    0    0    0  501  0.00000000000E+00  0.00000000000E+00  0.13849851490E+04  0.13849851490E+04  0.50400001928E-02 0. -1.
        1   -1    0    0  501    0  0.00000000000E+00  0.00000000000E+00 -0.87441955615E+03  0.87441955616E+03  0.50400001928E-02 0.  1.
    10030    2    1    2    0    0  0.00000000000E+00  0.00000000000E+00  0.51056559286E+03  0.22594047052E+04  0.22009616983E+04 0.  0.
        1    1    3    3  502    0 -0.65787858329E+02  0.43508356378E+03 -0.78017955979E+03  0.89571529813E+03  0.50400001928E-02 0.  1.
       -1    1    3    3    0  502  0.65787858329E+02 -0.43508356378E+03  0.12907451526E+04  0.13636894070E+04  0.50400001928E-02 0. -1.
</event>
<event>
 5   0  0.1015876E-05  0.2198288E+04  0.7818609E-02  0.8519141E-01
       -2   -1    0    0    0  501  0.00000000000E+00  0.00000000000E+00  0.13438490534E+04  0.13438490534E+04  0.25500000920E-02 0.  1.
        2   -1    0    0  501    0  0.00000000000E+00  0.00000000000E+00 -0.89899800923E+03  0.89899800923E+03  0.25500000920E-02 0. -1.
    10030    2    1    2    0    0  0.00000000000E+00  0.00000000000E+00  0.44485104415E+03  0.22428470626E+04  0.21982880828E+04 0.  0.
        5    1    3    3  502    0  0.63564643732E+03 -0.79613160592E+03 -0.19851908386E+03  0.10379324852E+04  0.46999998093E+01 0. -1.
       -5    1    3    3    0  502 -0.63564643732E+03  0.79613160592E+03  0.64337012802E+03  0.12049145774E+04  0.46999998093E+01 0.  1.
</event>
<event>
 5   0  0.9963173E-06  0.2194000E+04  0.7818609E-02  0.8520930E-01
       -2   -1    0    0    0  501  0.00000000000E+00  0.00000000000E+00  0.75967111687E+03  0.75967111687E+03  0.25500000920E-02 0.  1.
        2   -1    0    0  501    0  0.00000000000E+00  0.00000000000E+00 -0.15841183468E+04  0.15841183468E+04  0.25500000920E-02 0. -1.
    10030    2    1    2    0    0  0.00000000000E+00  0.00000000000E+00 -0.82444722993E+03  0.23437894637E+04  0.21939999579E+04 0.  0.
        4    1    3    3  502    0  0.44780636419E+02  0.91452969149E+03 -0.10576559379E+04  0.13989308624E+04  0.12699999809E+01 0. -1.
       -4    1    3    3    0  502 -0.44780636419E+02 -0.91452969149E+03  0.23320870794E+03  0.94485860126E+03  0.12699999809E+01 0.  1.
</event>
<event>
 5   0  0.1014015E-05  0.2199661E+04  0.7818609E-02  0.8518569E-01
        2   -1    0    0  501    0  0.00000000000E+00  0.00000000000E+00  0.16153084990E+04  0.16153084990E+04  0.25500000920E-02 0.  1.
       -2   -1    0    0    0  501  0.00000000000E+00  0.00000000000E+00 -0.74885184374E+03  0.74885184374E+03  0.25500000920E-02 0. -1.
    10030    2    1    2    0    0  0.00000000000E+00  0.00000000000E+00  0.86645665526E+03  0.23641603427E+04  0.21996606535E+04 0.  0.
        1    1    3    3  502    0  0.19061086709E+02  0.82388641270E+03 -0.34957657921E+03  0.89518485846E+03  0.50400001928E-02 0. -1.
       -1    1    3    3    0  502 -0.19061086709E+02 -0.82388641270E+03  0.12160332345E+04  0.14689754843E+04  0.50400001928E-02 0.  1.
</event>
<event>
 5   0  0.1014015E-05  0.2198231E+04  0.7818609E-02  0.8519165E-01
        2   -1    0    0  501    0  0.00000000000E+00  0.00000000000E+00  0.10096908551E+04  0.10096908551E+04  0.25500000920E-02 0. -1.
       -2   -1    0    0    0  501  0.00000000000E+00  0.00000000000E+00 -0.11964598423E+04  0.11964598423E+04  0.25500000920E-02 0.  1.
    10030    2    1    2    0    0  0.00000000000E+00  0.00000000000E+00 -0.18676898725E+03  0.22061506974E+04  0.21982307079E+04 0.  0.
        1    1    3    3  502    0 -0.90541890743E+02  0.10093365776E+04 -0.52047194718E+03  0.11392318503E+04  0.50400001928E-02 0.  1.
       -1    1    3    3    0  502  0.90541890743E+02 -0.10093365776E+04  0.33370295993E+03  0.10669188471E+04  0.50400001928E-02 0. -1.
</event>
<event>
 5   0  0.4630615E-06  0.2201335E+04  0.7818609E-02  0.8517873E-01
        1   -1    0    0  501    0  0.00000000000E+00  0.00000000000E+00  0.26048664112E+04  0.26048664112E+04  0.50400001928E-02 0. -1.
       -1   -1    0    0    0  501  0.00000000000E+00  0.00000000000E+00 -0.46507895484E+03  0.46507895486E+03  0.50400001928E-02 0.  1.
    10030    2    1    2    0    0  0.00000000000E+00  0.00000000000E+00  0.21397874563E+04  0.30699453660E+04  0.22013346388E+04 0.  0.
        2    1    3    3  502    0 -0.58394417676E+03 -0.73410152470E+03  0.26685967769E+03  0.97524865430E+03  0.25500000920E-02 0.  1.
       -2    1    3    3    0  502  0.58394417676E+03  0.73410152470E+03  0.18729277786E+04  0.20946967117E+04  0.25500000920E-02 0. -1.
</event>
<event>
 5   0  0.4794967E-06  0.2195693E+04  0.7818609E-02  0.8520223E-01
       -1   -1    0    0    0  501  0.00000000000E+00  0.00000000000E+00  0.56218811441E+03  0.56218811443E+03  0.50400001928E-02 0. -1.
        1   -1    0    0  501    0  0.00000000000E+00  0.00000000000E+00 -0.21438861514E+04  0.21438861514E+04  0.50400001928E-02 0.  1.
    10030    2    1    2    0    0  0.00000000000E+00  0.00000000000E+00 -0.15816980370E+04  0.27060742658E+04  0.21956933420E+04 0.  0.
        5    1    3    3  502    0 -0.64030708742E+03 -0.15972851909E+03 -0.18721329062E+04  0.19850466177E+04  0.46999998093E+01 0.  1.
       -5    1    3    3    0  502  0.64030708742E+03  0.15972851909E+03  0.29043486926E+03  0.72102764808E+03  0.46999998093E+01 0. -1.
</event>
<event>
 5   0  0.1015876E-05  0.2201725E+04  0.7818609E-02  0.8517710E-01
       -2   -1    0    0    0  501  0.00000000000E+00  0.00000000000E+00  0.15726645009E+04  0.15726645009E+04  0.25500000920E-02 0.  1.
        2   -1    0    0  501    0  0.00000000000E+00  0.00000000000E+00 -0.77060199983E+03  0.77060199983E+03  0.25500000920E-02 0. -1.
    10030    2    1    2    0    0  0.00000000000E+00  0.00000000000E+00  0.80206250109E+03  0.23432665008E+04  0.22017251504E+04 0.  0.
        5    1    3    3  502    0  0.75727092499E+02  0.26341036502E+03  0.15357607441E+04  0.15600329375E+04  0.46999998093E+01 0.  1.
       -5    1    3    3    0  502 -0.75727092499E+02 -0.26341036502E+03 -0.73369824297E+03  0.78323356330E+03  0.46999998093E+01 0. -1.
</event>
<event>
 5   0  0.4309945E-06  0.2195501E+04  0.7818609E-02  0.8520303E-01
        1   -1    0    0  501    0  0.00000000000E+00  0.00000000000E+00  0.20198603698E+04  0.20198603698E+04  0.50400001928E-02 0. -1.
       -1   -1    0    0    0  501  0.00000000000E+00  0.00000000000E+00 -0.59660378638E+03  0.59660378640E+03  0.50400001928E-02 0.  1.
    10030    2    1    2    0    0  0.00000000000E+00  0.00000000000E+00  0.14232565834E+04  0.26164641562E+04  0.21955011679E+04 0.  0.
        4    1    3    3  502    0 -0.40099734990E+03  0.99317193808E+03  0.42495288247E+03  0.11522916030E+04  0.12699999809E+01 0.  1.
       -4    1    3    3    0  502  0.40099734990E+03 -0.99317193808E+03  0.99830370093E+03  0.14641725531E+04  0.12699999809E+01 0. -1.
</event>
<event>
 5   0  0.9963573E-06  0.2197888E+04  0.7818609E-02  0.8519308E-01
        2   -1    0    0  501    0  0.00000000000E+00  0.00000000000E+00  0.89099318208E+03  0.89099318208E+03  0.25500000920E-02 0. -1.
       -2   -1    0    0    0  501  0.00000000000E+00  0.00000000000E+00 -0.13554288891E+04  0.13554288891E+04  0.25500000920E-02 0.  1.
    10030    2    1    2    0    0  0.00000000000E+00  0.00000000000E+00 -0.46443570704E+03  0.22464220712E+04  0.21978879853E+04 0.  0.
        2    1    3    3  502    0  0.80459715701E+03 -0.54642269760E+03  0.29066837435E+03  0.10151071142E+04  0.25500000920E-02 0. -1.
       -2    1    3    3    0  502 -0.80459715701E+03  0.54642269760E+03 -0.75510408138E+03  0.12313149570E+04  0.25500000920E-02 0.  1.
</event>
<event>
 5   0  0.4408787E-06  0.2191511E+04  0.7818609E-02  0.8521970E-01
       -1   -1    0    0    0  501  0.00000000000E+00  0.00000000000E+00  0.10041811528E+04  0.10041811528E+04  0.50400001928E-02 0.  1.
        1   -1    0    0  501    0  0.00000000000E+00  0.00000000000E+00 -0.11956809630E+04  0.11956809630E+04  0.50400001928E-02 0. -1.
    10030    2    1    2    0    0  0.00000000000E+00  0.00000000000E+00 -0.19149981021E+03  0.21998621158E+04  0.21915111570E+04 0.  0.
        1    1    3    3  502    0  0.80986525893E+03 -0.44290167913E+03  0.49695469296E+03  0.10483356342E+04  0.50400001928E-02 0.  1.
       -1    1    3    3    0  502 -0.80986525893E+03  0.44290167913E+03 -0.68845450318E+03  0.11515264817E+04  0.50400001928E-02 0. -1.
</event>
<event>
 5   0  0.1035928E-05  0.2199875E+04  0.7818609E-02  0.8518480E-01
        2   -1    0    0  501    0  0.00000000000E+00  0.00000000000E+00  0.12747000331E+04  0.12747000331E+04  0.25500000920E-02 0.  1.
       -2   -1    0    0    0  501  0.00000000000E+00  0.00000000000E+00 -0.94913515790E+03  0.94913515790E+03  0.25500000920E-02 0. -1.
    10030    2    1    2    0    0  0.00000000000E+00  0.00000000000E+00  0.32556487521E+03  0.22238351910E+04  0.21998751030E+04 0.  0.
        3    1    3    3  502    0  0.10954439972E+03  0.95749210501E+03 -0.37315362313E+03  0.10334576640E+04  0.10100000352E+00 0. -1.
       -3    1    3    3    0  502 -0.10954439972E+03 -0.95749210501E+03  0.69871849833E+03  0.11903775270E+04  0.10100000352E+00 0.  1.
</event>
<event>
 5   0  0.1015876E-05  0.2201133E+04  0.7818609E-02  0.8517956E-01
       -2   -1    0    0    0  501  0.00000000000E+00  0.00000000000E+00  0.92396795391E+03  0.92396795391E+03  0.25500000920E-02 0. -1.
        2   -1    0    0  501    0  0.00000000000E+00  0.00000000000E+00 -0.13109190007E+04  0.13109190007E+04  0.25500000920E-02 0.  1.
    10030    2    1    2    0    0  0.00000000000E+00  0.00000000000E+00 -0.38695104682E+03  0.22348869546E+04  0.22011334779E+04 0.  0.
        5    1    3    3  502    0 -0.31310309927E+03 -0.90577390000E+03 -0.74285049381E+03  0.12125629282E+04  0.46999998093E+01 0.  1.
       -5    1    3    3    0  502  0.31310309927E+03  0.90577390000E+03  0.35589944698E+03  0.10223240264E+04  0.46999998093E+01 0. -1.
</event>
<event>
 5   0  0.4408787E-06  0.2202723E+04  0.7818609E-02  0.8517296E-01
       -1   -1    0    0    0  501  0.00000000000E+00  0.00000000000E+00  0.12785062321E+04  0.12785062321E+04  0.50400001928E-02 0. -1.
        1   -1    0    0  501    0  0.00000000000E+00  0.00000000000E+00 -0.94876112100E+03  0.94876112101E+03  0.50400001928E-02 0.  1.
    10030    2    1    2    0    0  0.00000000000E+00  0.00000000000E+00  0.32974511112E+03  0.22272673531E+04  0.22027228659E+04 0.  0.
        1    1    3    3  502    0 -0.81880047485E+03 -0.34779848454E+03 -0.49166908878E+03  0.10164332228E+04  0.50400001928E-02 0.  1.
       -1    1    3    3    0  502  0.81880047485E+03  0.34779848454E+03  0.82141419990E+03  0.12108341304E+04  0.50400001928E-02 0. -1.
</event>
<event>
 5   0  0.4309945E-06  0.2196023E+04  0.7818609E-02  0.8520085E-01
       -1   -1    0    0    0  501  0.00000000000E+00  0.00000000000E+00  0.94373510042E+03  0.94373510044E+03  0.50400001928E-02 0.  1.
        1   -1    0    0  501    0  0.00000000000E+00  0.00000000000E+00 -0.12775082305E+04  0.12775082305E+04  0.50400001928E-02 0. -1.
    10030    2    1    2    0    0  0.00000000000E+00  0.00000000000E+00 -0.33377313003E+03  0.22212433309E+04  0.21960230948E+04 0.  0.
        4    1    3    3  502    0  0.54619377180E+03 -0.62317840460E+02 -0.11282846792E+04  0.12550852878E+04  0.12699999809E+01 0. -1.
       -4    1    3    3    0  502 -0.54619377180E+03  0.62317840460E+02  0.79451154913E+03  0.96615804307E+03  0.12699999809E+01 0.  1.
</event>
<event>
 5   0  0.4794967E-06  0.2202861E+04  0.7818609E-02  0.8517238E-01
        1   -1    0    0  501    0  0.00000000000E+00  0.00000000000E+00  0.16854866675E+04  0.16854866675E+04  0.50400001928E-02 0. -1.
       -1   -1    0    0    0  501  0.00000000000E+00  0.00000000000E+00 -0.71976191762E+03  0.71976191764E+03  0.50400001928E-02 0.  1.
    10030    2    1    2    0    0  0.00000000000E+00  0.00000000000E+00  0.96572474986E+03  0.24052485851E+04  0.22028609724E+04 0.  0.
        5    1    3    3  502    0 -0.95780687877E+03  0.17186379753E+03  0.10462061692E+04  0.14288109113E+04  0.46999998093E+01 0. -1.
       -5    1    3    3    0  502  0.95780687877E+03 -0.17186379753E+03 -0.80481419328E+02  0.97643767378E+03  0.46999998093E+01 0.  1.
</event>
<event>
 5   0  0.4794967E-06  0.2203711E+04  0.7818609E-02  0.8516885E-01
        1   -1    0    0  501    0  0.00000000000E+00  0.00000000000E+00  0.13779148349E+04  0.13779148349E+04  0.50400001928E-02 0. -1.
       -1   -1    0    0    0  501  0.00000000000E+00  0.00000000000E+00 -0.88110341077E+03  0.88110341078E+03  0.50400001928E-02 0.  1.
    10030    2    1    2    0    0  0.00000000000E+00  0.00000000000E+00  0.49681142417E+03  0.22590182457E+04  0.22037109255E+04 0.  0.
        5    1    3    3  502    0 -0.29481941590E+03  0.96143820395E+03 -0.21320857266E+03  0.10279892477E+04  0.46999998093E+01 0.  1.
       -5    1    3    3    0  502  0.29481941590E+03 -0.96143820395E+03  0.71001999683E+03  0.12310289980E+04  0.46999998093E+01 0. -1.
</event>
<event>
 5   0  0.1015876E-05  0.2204154E+04  0.7818609E-02  0.8516701E-01
       -2   -1    0    0    0  501  0.00000000000E+00  0.00000000000E+00  0.82811381652E+03  0.82811381652E+03  0.25500000920E-02 0. -1.
        2   -1    0    0  501    0  0.00000000000E+00  0.00000000000E+00 -0.14666747052E+04  0.14666747052E+04  0.25500000920E-02 0.  1.
    10030    2    1    2    0    0  0.00000000000E+00  0.00000000000E+00 -0.63856088872E+03  0.22947885218E+04  0.22041538855E+04 0.  0.
        5    1    3    3  502    0 -0.77625181960E+03 -0.78208146866E+03 -0.33828442537E+03  0.11526824166E+04  0.46999998093E+01 0. -1.
       -5    1    3    3    0  502  0.77625181960E+03  0.78208146866E+03 -0.30027646336E+03  0.11421061052E+04  0.46999998093E+01 0.  1.
</event>
<event>
 5   0  0.1015876E-05  0.2201720E+04  0.7818609E-02  0.8517713E-01
        2   -1    0    0  501    0  0.00000000000E+00  0.00000000000E+00  0.22202718082E+04  0.22202718082E+04  0.25500000920E-02 0.  1.
       -2   -1    0    0    0  501  0.00000000000E+00  0.00000000000E+00 -0.54583068777E+03  0.54583068778E+03  0.25500000920E-02 0. -1.
    10030    2    1    2    0    0  0.00000000000E+00  0.00000000000E+00  0.16744411205E+04  0.27661024960E+04  0.22017197716E+04 0.  0.
        5    1    3    3  502    0  0.33824474908E+02 -0.13868649910E+03 -0.53414063645E+03  0.55290717995E+03  0.46999998093E+01 0. -1.
       -5    1    3    3    0  502 -0.33824474908E+02  0.13868649910E+03  0.22085817569E+04  0.22131953161E+04  0.46999998093E+01 0.  1.
</event>
<event>
 5   0  0.1035928E-05  0.2200370E+04  0.7818609E-02  0.8518274E-01
        2   -1    0    0  501    0  0.00000000000E+00  0.00000000000E+00  0.25938276362E+04  0.25938276362E+04  0.25500000920E-02 0.  1.
       -2   -1    0    0    0  501  0.00000000000E+00  0.00000000000E+00 -0.46664891082E+03  0.46664891083E+03  0.25500000920E-02 0. -1.
    10030    2    1    2    0    0  0.00000000000E+00  0.00000000000E+00  0.21271787254E+04  0.30604765471E+04  0.22003698247E+04 0.  0.
        3    1    3    3  502    0 -0.24755705444E+01  0.66920881838E+03  0.22781814840E+04  0.23744383452E+04  0.10100000352E+00 0.  1.
       -3    1    3    3    0  502  0.24755705444E+01 -0.66920881838E+03 -0.15100275860E+03  0.68603820182E+03  0.10100000352E+00 0. -1.
</event>
<event>
 5   0  0.1015876E-05  0.2203623E+04  0.7818609E-02  0.8516922E-01
       -2   -1    0    0    0  501  0.00000000000E+00  0.00000000000E+00  0.13213524432E+04  0.13213524432E+04  0.25500000920E-02 0.  1.
        2   -1    0    0  501    0  0.00000000000E+00  0.00000000000E+00 -0.91874710053E+03  0.91874710054E+03  0.25500000920E-02 0. -1.
    10030    2    1    2    0    0  0.00000000000E+00  0.00000000000E+00  0.40260534270E+03  0.22400995438E+04  0.22036231311E+04 0.  0.
        5    1    3    3  502    0 -0.66874521654E+03 -0.20023819537E+03 -0.66524602593E+03  0.96430797184E+03  0.46999998093E+01 0. -1.
       -5    1    3    3    0  502  0.66874521654E+03  0.20023819537E+03  0.10678513686E+04  0.12757915719E+04  0.46999998093E+01 0.  1.
</event>
<event>
 5   0  0.4630615E-06  0.2197494E+04  0.7818609E-02  0.8519472E-01
        1   -1    0    0  501    0  0.00000000000E+00  0.00000000000E+00  0.16680375335E+04  0.16680375335E+04  0.50400001928E-02 0. -1.
       -1   -1    0    0    0  501  0.00000000000E+00  0.00000000000E+00 -0.72375196059E+03  0.72375196060E+03  0.50400001928E-02 0.  1.
    10030    2    1    2    0    0  0.00000000000E+00  0.00000000000E+00  0.94428557292E+03  0.23917894941E+04  0.21974944234E+04 0.  0.
        2    1    3    3  502    0 -0.62643183423E+03  0.11290171056E+03 -0.50263248252E+03  0.81105058515E+03  0.25500000920E-02 0.  1.
       -2    1    3    3    0  502  0.62643183423E+03 -0.11290171056E+03  0.14469180554E+04  0.15807389090E+04  0.25500000920E-02 0. -1.
</event>
<event>
 5   0  0.1035928E-05  0.2193341E+04  0.7818609E-02  0.8521205E-01
       -2   -1    0    0    0  501  0.00000000000E+00  0.00000000000E+00  0.15321377717E+04  0.15321377717E+04  0.25500000920E-02 0.  1.
        2   -1    0    0  501    0  0.00000000000E+00  0.00000000000E+00 -0.78497254108E+03  0.78497254108E+03  0.25500000920E-02 0. -1.
    10030    2    1    2    0    0  0.00000000000E+00  0.00000000000E+00  0.74716523058E+03  0.23171103127E+04  0.21933409037E+04 0.  0.
        3    1    3    3  502    0  0.54265659477E+03  0.87368143853E+03  0.77570729536E+03  0.12882225173E+04  0.10100000352E+00 0.  1.
       -3    1    3    3    0  502 -0.54265659477E+03 -0.87368143853E+03 -0.28542064783E+02  0.10288877954E+04  0.10100000352E+00 0. -1.
</event>
<event>
 5   0  0.9963573E-06  0.2200463E+04  0.7818609E-02  0.8518236E-01
       -2   -1    0    0    0  501  0.00000000000E+00  0.00000000000E+00  0.12617724925E+04  0.12617724925E+04  0.25500000920E-02 0.  1.
        2   -1    0    0  501    0  0.00000000000E+00  0.00000000000E+00 -0.95937196225E+03  0.95937196226E+03  0.25500000920E-02 0. -1.
    10030    2    1    2    0    0  0.00000000000E+00  0.00000000000E+00  0.30240053029E+03  0.22211444548E+04  0.22004628169E+04 0.  0.
        2    1    3    3  502    0  0.61098427287E+03  0.21663138070E+03  0.10485314794E+04  0.12327405242E+04  0.25500000920E-02 0.  1.
       -2    1    3    3    0  502 -0.61098427287E+03 -0.21663138070E+03 -0.74613094908E+03  0.98840393058E+03  0.25500000920E-02 0. -1.
</event>
<event>
 5   0  0.1035928E-05  0.2220080E+04  0.7818609E-02  0.8510117E-01
       -2   -1    0    0    0  501  0.00000000000E+00  0.00000000000E+00  0.10028838652E+04  0.10028838652E+04  0.25500000920E-02 0.  1.
        2   -1    0    0  501    0  0.00000000000E+00  0.00000000000E+00 -0.12286455092E+04  0.12286455092E+04  0.25500000920E-02 0. -1.
    10030    2    1    2    0    0  0.00000000000E+00  0.00000000000E+00 -0.22576164392E+03  0.22315293744E+04  0.22200799600E+04 0.  0.
        3    1    3    3  502    0 -0.30994206980E+03 -0.10045740746E+04  0.24526501204E+03  0.10795314235E+04  0.10100000352E+00 0.  1.
       -3    1    3    3    0  502  0.30994206980E+03  0.10045740746E+04 -0.47102665595E+03  0.11519979509E+04  0.10100000352E+00 0. -1.
</event>
<event>
 5   0  0.4630615E-06  0.2197519E+04  0.7818609E-02  0.8519462E-01
       -1   -1    0    0    0  501  0.00000000000E+00  0.00000000000E+00  0.12970925055E+04  0.12970925055E+04  0.50400001928E-02 0.  1.
        1   -1    0    0  501    0  0.00000000000E+00  0.00000000000E+00 -0.93075247639E+03  0.93075247640E+03  0.50400001928E-02 0. -1.
    10030    2    1    2    0    0  0.00000000000E+00  0.00000000000E+00  0.36634002914E+03  0.22278449819E+04  0.21975186567E+04 0.  0.
        2    1    3    3  502    0 -0.78644068167E+03 -0.57295376452E+03  0.70061261329E+03  0.11990091726E+04  0.25500000920E-02 0.  1.
       -2    1    3    3    0  502  0.78644068167E+03  0.57295376452E+03 -0.33427258415E+03  0.10288358093E+04  0.25500000920E-02 0. -1.
</event>
<event>
 5   0  0.9963573E-06  0.2200764E+04  0.7818609E-02  0.8518110E-01
        2   -1    0    0  501    0  0.00000000000E+00  0.00000000000E+00  0.13774781473E+04  0.13774781473E+04  0.25500000920E-02 0.  1.
       -2   -1    0    0    0  501  0.00000000000E+00  0.00000000000E+00 -0.87902716509E+03  0.87902716509E+03  0.25500000920E-02 0. -1.
    10030    2    1    2    0    0  0.00000000000E+00  0.00000000000E+00  0.49845098218E+03  0.22565053124E+04  0.22007641498E+04 0.  0.
        2    1    3    3  502    0  0.76324622663E+03  0.71665529093E+03  0.59647900829E+03  0.12049592590E+04  0.25500000920E-02 0.  1.
       -2    1    3    3    0  502 -0.76324622663E+03 -0.71665529093E+03 -0.98028026110E+02  0.10515460534E+04  0.25500000920E-02 0. -1.
</event>
<event>
 5   0  0.4309945E-06  0.2201326E+04  0.7818609E-02  0.8517876E-01
        1   -1    0    0  501    0  0.00000000000E+00  0.00000000000E+00  0.12875747744E+04  0.12875747744E+04  0.50400001928E-02 0. -1.
       -1   -1    0    0    0  501  0.00000000000E+00  0.00000000000E+00 -0.94088476071E+03  0.94088476073E+03  0.50400001928E-02 0.  1.
    10030    2    1    2    0    0  0.00000000000E+00  0.00000000000E+00  0.34669001368E+03  0.22284595351E+04  0.22013264034E+04 0.  0.
        4    1    3    3  502    0 -0.83629304296E+03  0.51611987160E+03  0.67512795824E+03  0.11922940696E+04  0.12699999809E+01 0. -1.
       -4    1    3    3    0  502  0.83629304296E+03 -0.51611987160E+03 -0.32843794456E+03  0.10361654655E+04  0.12699999809E+01 0.  1.
</event>
<event>
 5   0  0.4309945E-06  0.2199012E+04  0.7818609E-02  0.8518839E-01
       -1   -1    0    0    0  501  0.00000000000E+00  0.00000000000E+00  0.73056968717E+03  0.73056968719E+03  0.50400001928E-02 0. -1.
        1   -1    0    0  501    0  0.00000000000E+00  0.00000000000E+00 -0.16547547189E+04  0.16547547189E+04  0.50400001928E-02 0.  1.
    10030    2    1    2    0    0  0.00000000000E+00  0.00000000000E+00 -0.92418503175E+03  0.23853244061E+04  0.21990121759E+04 0.  0.
        4    1    3    3  502    0 -0.25624159293E+03  0.64898942645E+03  0.45964648402E+03  0.83553787033E+03  0.12699999809E+01 0. -1.
       -4    1    3    3    0  502  0.25624159293E+03 -0.64898942645E+03 -0.13838315158E+04  0.15497865358E+04  0.12699999809E+01 0.  1.
</event>
<event>
 5   0  0.9963173E-06  0.2194825E+04  0.7818609E-02  0.8520585E-01
        2   -1    0    0  501    0  0.00000000000E+00  0.00000000000E+00  0.26182948776E+04  0.26182948776E+04  0.25500000920E-02 0. -1.
       -2   -1    0    0    0  501  0.00000000000E+00  0.00000000000E+00 -0.45996144481E+03  0.45996144481E+03  0.25500000920E-02 0.  1.
    10030    2    1    2    0    0  0.00000000000E+00  0.00000000000E+00  0.21583334328E+04  0.30782563224E+04  0.21948254553E+04 0.  0.
        4    1    3    3  502    0 -0.49470174195E+03  0.53451932416E+03 -0.72146827252E+02  0.73187942926E+03  0.12699999809E+01 0.  1.
       -4    1    3    3    0  502  0.49470174195E+03 -0.53451932416E+03  0.22304802600E+04  0.23463768931E+04  0.12699999809E+01 0. -1.
</event>
<event>
 5   0  0.4462201E-06  0.2206802E+04  0.7818609E-02  0.8515602E-01
       -1   -1    0    0    0  501  0.00000000000E+00  0.00000000000E+00  0.69728415075E+03  0.69728415077E+03  0.50400001928E-02 0. -1.
        1   -1    0    0  501    0  0.00000000000E+00  0.00000000000E+00 -0.17460507297E+04  0.17460507297E+04  0.50400001928E-02 0.  1.
    10030    2    1    2    0    0  0.00000000000E+00  0.00000000000E+00 -0.10487665789E+04  0.24433348805E+04  0.22068017584E+04 0.  0.
        3    1    3    3  502    0  0.34847840447E+03 -0.10049550818E+04 -0.19946387933E+03  0.10822004270E+04  0.10100000352E+00 0.  1.
       -3    1    3    3    0  502 -0.34847840447E+03  0.10049550818E+04 -0.84930269960E+03  0.13611344535E+04  0.10100000352E+00 0. -1.
</event>
<event>
 5   0  0.4630615E-06  0.2201671E+04  0.7818609E-02  0.8517733E-01
       -1   -1    0    0    0  501  0.00000000000E+00  0.00000000000E+00  0.31291799680E+04  0.31291799680E+04  0.50400001928E-02 0.  1.
        1   -1    0    0  501    0  0.00000000000E+00  0.00000000000E+00 -0.38727056910E+03  0.38727056914E+03  0.50400001928E-02 0. -1.
    10030    2    1    2    0    0  0.00000000000E+00  0.00000000000E+00  0.27419093989E+04  0.35164505372E+04  0.22016714624E+04 0.  0.
        2    1    3    3  502    0 -0.24751769005E+03 -0.16710508042E+03  0.30632425140E+04  0.30777660428E+04  0.25500000920E-02 0.  1.
       -2    1    3    3    0  502  0.24751769005E+03  0.16710508042E+03 -0.32133311503E+03  0.43868449438E+03  0.25500000920E-02 0. -1.
</event>
<event>
 5   0  0.1014015E-05  0.2197220E+04  0.7818609E-02  0.8519586E-01
       -2   -1    0    0    0  501  0.00000000000E+00  0.00000000000E+00  0.53518039808E+03  0.53518039808E+03  0.25500000920E-02 0. -1.
        2   -1    0    0  501    0  0.00000000000E+00  0.00000000000E+00 -0.22552088932E+04  0.22552088932E+04  0.25500000920E-02 0.  1.
    10030    2    1    2    0    0  0.00000000000E+00  0.00000000000E+00 -0.17200284951E+04  0.27903892913E+04  0.21972196915E+04 0.  0.
        1    1    3    3  502    0  0.63431708627E+02 -0.10140092310E+04 -0.32919783437E+03  0.10679932192E+04  0.50400001928E-02 0. -1.
       -1    1    3    3    0  502 -0.63431708627E+02  0.10140092310E+04 -0.13908306607E+04  0.17223960720E+04  0.50400001928E-02 0.  1.
</event>
<event>
 5   0  0.1035928E-05  0.2196227E+04  0.7818609E-02  0.8520000E-01
       -2   -1    0    0    0  501  0.00000000000E+00  0.00000000000E+00  0.69006158716E+03  0.69006158716E+03  0.25500000920E-02 0. -1.
        2   -1    0    0  501    0  0.00000000000E+00  0.00000000000E+00 -0.17474570022E+04  0.17474570022E+04  0.25500000920E-02 0.  1.
    10030    2    1    2    0    0  0.00000000000E+00  0.00000000000E+00 -0.10573954150E+04  0.24375185893E+04  0.21962267209E+04 0.  0.
        3    1    3    3  502    0  0.58728668730E+03 -0.14300536681E+03  0.48881252552E+03  0.77736341779E+03  0.10100000352E+00 0. -1.
       -3    1    3    3    0  502 -0.58728668730E+03  0.14300536681E+03 -0.15462079405E+04  0.16601551716E+04  0.10100000352E+00 0.  1.
</event>
<event>
 5   0  0.9963573E-06  0.2198718E+04  0.7818609E-02  0.8518962E-01
       -2   -1    0    0    0  501  0.00000000000E+00  0.00000000000E+00  0.13467539567E+04  0.13467539567E+04  0.25500000920E-02 0.  1.
        2   -1    0    0  501    0  0.00000000000E+00  0.00000000000E+00 -0.89740982412E+03  0.89740982412E+03  0.25500000920E-02 0. -1.
    10030    2    1    2    0    0  0.00000000000E+00  0.00000000000E+00  0.44934413259E+03  0.22441637808E+04  0.21987180187E+04 0.  0.
        2    1    3    3  502    0 -0.49228315241E+03 -0.25235014219E+03  0.11943437712E+04  0.13162371900E+04  0.25500000920E-02 0.  1.
       -2    1    3    3    0  502  0.49228315241E+03  0.25235014219E+03 -0.74499963865E+03  0.92792659085E+03  0.25500000920E-02 0. -1.
</event>
<event>
 5   0  0.4408787E-06  0.2202645E+04  0.7818609E-02  0.8517328E-01
       -1   -1    0    0    0  501  0.00000000000E+00  0.00000000000E+00  0.80142176124E+03  0.80142176126E+03  0.50400001928E-02 0.  1.
        1   -1    0    0  501    0  0.00000000000E+00  0.00000000000E+00 -0.15134496574E+04  0.15134496575E+04  0.50400001928E-02 0. -1.
    10030    2    1    2    0    0  0.00000000000E+00  0.00000000000E+00 -0.71202789620E+03  0.23148714187E+04  0.22026452189E+04 0.  0.
        1    1    3    3  502    0  0.92015964768E+03 -0.56058872186E+03 -0.11645713587E+03  0.10837507817E+04  0.50400001928E-02 0. -1.
       -1    1    3    3    0  502 -0.92015964768E+03  0.56058872186E+03 -0.59557076034E+03  0.12311206370E+04  0.50400001928E-02 0.  1.
</event>
<event>
 5   0  0.9963173E-06  0.2195561E+04  0.7818609E-02  0.8520278E-01
        2   -1    0    0  501    0  0.00000000000E+00  0.00000000000E+00  0.16704335549E+04  0.16704335549E+04  0.25500000920E-02 0. -1.
       -2   -1    0    0    0  501  0.00000000000E+00  0.00000000000E+00 -0.72144256577E+03  0.72144256578E+03  0.25500000920E-02 0.  1.
    10030    2    1    2    0    0  0.00000000000E+00  0.00000000000E+00  0.94899098915E+03  0.23918761207E+04  0.21955608576E+04 0.  0.
        4    1    3    3  502    0  0.77566509715E+03 -0.70798149440E+02 -0.36827184454E+03  0.86156513700E+03  0.12699999809E+01 0.  1.
       -4    1    3    3    0  502 -0.77566509715E+03  0.70798149440E+02  0.13172628337E+04  0.15303109837E+04  0.12699999809E+01 0. -1.
</event>
<event>
 5   0  0.4462201E-06  0.2202403E+04  0.7818609E-02  0.8517428E-01
        1   -1    0    0  501    0  0.00000000000E+00  0.00000000000E+00  0.13082853832E+04  0.13082853832E+04  0.50400001928E-02 0. -1.
       -1   -1    0    0    0  501  0.00000000000E+00  0.00000000000E+00 -0.92689646249E+03  0.92689646251E+03  0.50400001928E-02 0.  1.
    10030    2    1    2    0    0  0.00000000000E+00  0.00000000000E+00  0.38138892068E+03  0.22351818457E+04  0.22024033179E+04 0.  0.
        3    1    3    3  502    0 -0.37340690956E+03  0.10325743444E+04  0.10576756359E+03  0.11030998524E+04  0.10100000352E+00 0.  1.
       -3    1    3    3    0  502  0.37340690956E+03 -0.10325743444E+04  0.27562135709E+03  0.11320819932E+04  0.10100000352E+00 0. -1.
</event>
<event>
 5   0  0.1035928E-05  0.2196191E+04  0.7818609E-02  0.8520015E-01
        2   -1    0    0  501    0  0.00000000000E+00  0.00000000000E+00  0.11798192004E+04  0.11798192004E+04  0.25500000920E-02 0.  1.
       -2   -1    0    0    0  501  0.00000000000E+00  0.00000000000E+00 -0.10220329528E+04  0.10220329528E+04  0.25500000920E-02 0. -1.
    10030    2    1    2    0    0  0.00000000000E+00  0.00000000000E+00  0.15778624762E+03  0.22018521533E+04  0.21961913407E+04 0.  0.
        3    1    3    3  502    0 -0.53435323275E+03 -0.89976117977E+03  0.41248268362E+03  0.11248313351E+04  0.10100000352E+00 0.  1.
       -3    1    3    3    0  502  0.53435323275E+03  0.89976117977E+03 -0.25469643600E+03  0.10770208181E+04  0.10100000352E+00 0. -1.
</event>
<event>
 5   0  0.1035928E-05  0.2200430E+04  0.7818609E-02  0.8518249E-01
       -2   -1    0    0    0  501  0.00000000000E+00  0.00000000000E+00  0.11925750247E+04  0.11925750247E+04  0.25500000920E-02 0. -1.
        2   -1    0    0  501    0  0.00000000000E+00  0.00000000000E+00 -0.10150074836E+04  0.10150074836E+04  0.25500000920E-02 0.  1.
    10030    2    1    2    0    0  0.00000000000E+00  0.00000000000E+00  0.17756754108E+03  0.22075825082E+04  0.22004295715E+04 0.  0.
        3    1    3    3  502    0 -0.90219664789E+03 -0.39607787021E+03 -0.40233393046E+03  0.10642880590E+04  0.10100000352E+00 0.  1.
       -3    1    3    3    0  502  0.90219664789E+03  0.39607787021E+03  0.57990147155E+03  0.11432944492E+04  0.10100000352E+00 0. -1.
</event>
<event>
 5   0  0.4309945E-06  0.2202076E+04  0.7818609E-02  0.8517564E-01
       -1   -1    0    0    0  501  0.00000000000E+00  0.00000000000E+00  0.67564528389E+03  0.67564528391E+03  0.50400001928E-02 0.  1.
        1   -1    0    0  501    0  0.00000000000E+00  0.00000000000E+00 -0.17942625333E+04  0.17942625333E+04  0.50400001928E-02 0. -1.
    10030    2    1    2    0    0  0.00000000000E+00  0.00000000000E+00 -0.11186172494E+04  0.24699078172E+04  0.22020763099E+04 0.  0.
        4    1    3    3  502    0  0.10604528519E+04  0.42331225105E+02 -0.23051463223E+03  0.10860436420E+04  0.12699999809E+01 0.  1.
       -4    1    3    3    0  502 -0.10604528519E+04 -0.42331225105E+02 -0.88810261714E+03  0.13838641752E+04  0.12699999809E+01 0. -1.
</event>
<event>
 5   0  0.4408787E-06  0.2200963E+04  0.7818609E-02  0.8518027E-01
       -1   -1    0    0    0  501  0.00000000000E+00  0.00000000000E+00  0.80968072016E+03  0.80968072017E+03  0.50400001928E-02 0.  1.
        1   -1    0    0  501    0  0.00000000000E+00  0.00000000000E+00 -0.14957249192E+04  0.14957249192E+04  0.50400001928E-02 0. -1.
    10030    2    1    2    0    0  0.00000000000E+00  0.00000000000E+00 -0.68604419900E+03  0.23054056393E+04  0.22009630890E+04 0.  0.
        1    1    3    3  502    0  0.32645710367E+03 -0.20484784364E+03  0.73667941533E+03  0.83140449878E+03  0.50400001928E-02 0.  1.
       -1    1    3    3    0  502 -0.32645710367E+03  0.20484784364E+03 -0.14227236143E+04  0.14740011406E+04  0.50400001928E-02 0. -1.
</event>
<event>
 5   0  0.1014015E-05  0.2217360E+04  0.7818609E-02  0.8511237E-01
       -2   -1    0    0    0  501  0.00000000000E+00  0.00000000000E+00  0.57589339521E+03  0.57589339522E+03  0.25500000920E-02 0.  1.
        2   -1    0    0  501    0  0.00000000000E+00  0.00000000000E+00 -0.21343732970E+04  0.21343732970E+04  0.25500000920E-02 0. -1.
    10030    2    1    2    0    0  0.00000000000E+00  0.00000000000E+00 -0.15584799017E+04  0.27102666922E+04  0.22173601283E+04 0.  0.
        1    1    3    3  502    0  0.50355937709E+03  0.54930694592E+03  0.22412992318E+03  0.77816732749E+03  0.50400001928E-02 0.  1.
       -1    1    3    3    0  502 -0.50355937709E+03 -0.54930694592E+03 -0.17826098249E+04  0.19320993647E+04  0.50400001928E-02 0. -1.
</event>
<event>
 5   0  0.4309945E-06  0.2198378E+04  0.7818609E-02  0.8519104E-01
       -1   -1    0    0    0  501  0.00000000000E+00  0.00000000000E+00  0.99156090534E+03  0.99156090535E+03  0.50400001928E-02 0.  1.
        1   -1    0    0  501    0  0.00000000000E+00  0.00000000000E+00 -0.12184993361E+04  0.12184993361E+04  0.50400001928E-02 0. -1.
    10030    2    1    2    0    0  0.00000000000E+00  0.00000000000E+00 -0.22693843078E+03  0.22100602415E+04  0.21983778610E+04 0.  0.
        4    1    3    3  502    0  0.56142551793E+03 -0.15533813553E+03  0.82362488922E+03  0.10088052932E+04  0.12699999809E+01 0.  1.
       -4    1    3    3    0  502 -0.56142551793E+03  0.15533813553E+03 -0.10505633200E+04  0.12012549483E+04  0.12699999809E+01 0. -1.
</event>
<event>
 5   0  0.1015876E-05  0.2194755E+04  0.7818609E-02  0.8520614E-01
        2   -1    0    0  501    0  0.00000000000E+00  0.00000000000E+00  0.14073768520E+04  0.14073768520E+04  0.25500000920E-02 0.  1.
       -2   -1    0    0    0  501  0.00000000000E+00  0.00000000000E+00 -0.85566067159E+03  0.85566067159E+03  0.25500000920E-02 0. -1.
    10030    2    1    2    0    0  0.00000000000E+00  0.00000000000E+00  0.55171618043E+03  0.22630375236E+04  0.21947546764E+04 0.  0.
        5    1    3    3  502    0 -0.13627084970E+03 -0.54362836123E+03 -0.69695283607E+03  0.89435277453E+03  0.46999998093E+01 0. -1.
       -5    1    3    3    0  502  0.13627084970E+03  0.54362836123E+03  0.12486690165E+04  0.13686847491E+04  0.46999998093E+01 0.  1.
</event>
<event>
 5   0  0.4630615E-06  0.2201080E+04  0.7818609E-02  0.8517979E-01
        1   -1    0    0  501    0  0.00000000000E+00  0.00000000000E+00  0.17030501544E+04  0.17030501544E+04  0.50400001928E-02 0. -1.
       -1   -1    0    0    0  501  0.00000000000E+00  0.00000000000E+00 -0.71118744516E+03  0.71118744518E+03  0.50400001928E-02 0.  1.
    10030    2    1    2    0    0  0.00000000000E+00  0.00000000000E+00  0.99186270925E+03  0.24142375996E+04  0.22010796336E+04 0.  0.
        2    1    3    3  502    0 -0.88129100315E+03 -0.59939888807E+03  0.19507838638E+03  0.10835166986E+04  0.25500000920E-02 0.  1.
       -2    1    3    3    0  502  0.88129100315E+03  0.59939888807E+03  0.79678432287E+03  0.13307209010E+04  0.25500000920E-02 0. -1.
</event>
<event>
 5   0  0.4794967E-06  0.2201774E+04  0.7818609E-02  0.8517690E-01
       -1   -1    0    0    0  501  0.00000000000E+00  0.00000000000E+00  0.93028667035E+03  0.93028667036E+03  0.50400001928E-02 0.  1.
        1   -1    0    0  501    0  0.00000000000E+00  0.00000000000E+00 -0.13027733909E+04  0.13027733909E+04  0.50400001928E-02 0. -1.
    10030    2    1    2    0    0  0.00000000000E+00  0.00000000000E+00 -0.37248672052E+03  0.22330600612E+04  0.22017744844E+04 0.  0.
        5    1    3    3  502    0 -0.58092470611E+02 -0.83662804491E+03  0.53705880447E+03  0.99587924475E+03  0.46999998093E+01 0.  1.
       -5    1    3    3    0  502  0.58092470611E+02  0.83662804491E+03 -0.90954552499E+03  0.12371808165E+04  0.46999998093E+01 0. -1.
</event>
<event>
 5   0  0.4408787E-06  0.2190820E+04  0.7818609E-02  0.8522259E-01
        1   -1    0    0  501    0  0.00000000000E+00  0.00000000000E+00  0.11934880729E+04  0.11934880729E+04  0.50400001928E-02 0.  1.
       -1   -1    0    0    0  501  0.00000000000E+00  0.00000000000E+00 -0.10053915631E+04  0.10053915631E+04  0.50400001928E-02 0. -1.
    10030    2    1    2    0    0  0.00000000000E+00  0.00000000000E+00  0.18809650972E+03  0.21988796360E+04  0.21908197910E+04 0.  0.
        1    1    3    3  502    0 -0.80472340128E+03 -0.42265987708E+03 -0.51951218079E+03  0.10469546458E+04  0.50400001928E-02 0.  1.
       -1    1    3    3    0  502  0.80472340128E+03  0.42265987708E+03  0.70760869051E+03  0.11519249903E+04  0.50400001928E-02 0. -1.
</event>
<event>
 5   0  0.1015876E-05  0.2200191E+04  0.7818609E-02  0.8518349E-01
        2   -1    0    0  501    0  0.00000000000E+00  0.00000000000E+00  0.11980678598E+04  0.11980678598E+04  0.25500000920E-02 0. -1.
       -2   -1    0    0    0  501  0.00000000000E+00  0.00000000000E+00 -0.10101346939E+04  0.10101346939E+04  0.25500000920E-02 0.  1.
    10030    2    1    2    0    0  0.00000000000E+00  0.00000000000E+00  0.18793316591E+03  0.22082025538E+04  0.22001908198E+04 0.  0.
        5    1    3    3  502    0 -0.10716067374E+04 -0.24548254187E+03  0.13392541445E+03  0.11075020472E+04  0.46999998093E+01 0.  1.
       -5    1    3    3    0  502  0.10716067374E+04  0.24548254187E+03  0.54007751456E+02  0.11007005066E+04  0.46999998093E+01 0. -1.
</event>
<event>
 5   0  0.4630615E-06  0.2201936E+04  0.7818609E-02  0.8517623E-01
        1   -1    0    0  501    0  0.00000000000E+00  0.00000000000E+00  0.11603207194E+04  0.11603207194E+04  0.50400001928E-02 0.  1.
       -1   -1    0    0    0  501  0.00000000000E+00  0.00000000000E+00 -0.10446509558E+04  0.10446509558E+04  0.50400001928E-02 0. -1.
    10030    2    1    2    0    0  0.00000000000E+00  0.00000000000E+00  0.11566976368E+03  0.22049716752E+04  0.22019356472E+04 0.  0.
        2    1    3    3  502    0  0.36797175879E+03 -0.83131648438E+03 -0.56402041431E+03  0.10698641691E+04  0.25500000920E-02 0. -1.
       -2    1    3    3    0  502 -0.36797175879E+03  0.83131648438E+03  0.67969017798E+03  0.11351075062E+04  0.25500000920E-02 0.  1.
</event>
<event>
 5   0  0.4462201E-06  0.2198448E+04  0.7818609E-02  0.8519074E-01
       -1   -1    0    0    0  501  0.00000000000E+00  0.00000000000E+00  0.71548348129E+03  0.71548348131E+03  0.50400001928E-02 0. -1.
        1   -1    0    0  501    0  0.00000000000E+00  0.00000000000E+00 -0.16887784596E+04  0.16887784596E+04  0.50400001928E-02 0.  1.
    10030    2    1    2    0    0  0.00000000000E+00  0.00000000000E+00 -0.97329497829E+03  0.24042619409E+04  0.21984477173E+04 0.  0.
        3    1    3    3  502    0 -0.97279489327E+02  0.10753812599E+04 -0.26149779303E+03  0.11109857151E+04  0.10100000352E+00 0. -1.
       -3    1    3    3    0  502  0.97279489327E+02 -0.10753812599E+04 -0.71179718526E+03  0.12932762258E+04  0.10100000352E+00 0.  1.
</event>
<event>
 5   0  0.1035928E-05  0.2197984E+04  0.7818609E-02  0.8519268E-01
       -2   -1    0    0    0  501  0.00000000000E+00  0.00000000000E+00  0.64211666668E+03  0.64211666668E+03  0.25500000920E-02 0. -1.
        2   -1    0    0  501    0  0.00000000000E+00  0.00000000000E+00 -0.18809403500E+04  0.18809403500E+04  0.25500000920E-02 0.  1.
    10030    2    1    2    0    0  0.00000000000E+00  0.00000000000E+00 -0.12388236833E+04  0.25230570167E+04  0.21979837559E+04 0.  0.
        3    1    3    3  502    0 -0.12599837183E+03  0.10867748710E+04 -0.49996483811E+03  0.12028799023E+04  0.10100000352E+00 0.  1.
       -3    1    3    3    0  502  0.12599837183E+03 -0.10867748710E+04 -0.73885884523E+03  0.13201771144E+04  0.10100000352E+00 0. -1.
</event>
<event>
 5   0  0.1015876E-05  0.2194070E+04  0.7818609E-02  0.8520900E-01
        2   -1    0    0  501    0  0.00000000000E+00  0.00000000000E+00  0.10651025422E+04  0.10651025422E+04  0.25500000920E-02 0. -1.
       -2   -1    0    0    0  501  0.00000000000E+00  0.00000000000E+00 -0.11299247278E+04  0.11299247278E+04  0.25500000920E-02 0.  1.
    10030    2    1    2    0    0  0.00000000000E+00  0.00000000000E+00 -0.64822185650E+02  0.21950272700E+04  0.21940699169E+04 0.  0.
        5    1    3    3  502    0 -0.94224966182E+03 -0.50710133538E+02  0.52734860913E+03  0.10809831582E+04  0.46999998093E+01 0. -1.
       -5    1    3    3    0  502  0.94224966182E+03  0.50710133538E+02 -0.59217079478E+03  0.11140441118E+04  0.46999998093E+01 0.  1.
</event>
<event>
 5   0  0.1014015E-05  0.2200699E+04  0.7818609E-02  0.8518137E-01
       -2   -1    0    0    0  501  0.00000000000E+00  0.00000000000E+00  0.54393630376E+03  0.54393630376E+03  0.25500000920E-02 0. -1.
        2   -1    0    0  501    0  0.00000000000E+00  0.00000000000E+00 -0.22259392919E+04  0.22259392919E+04  0.25500000920E-02 0.  1.
    10030    2    1    2    0    0  0.00000000000E+00  0.00000000000E+00 -0.16820029881E+04  0.27698755956E+04  0.22006991533E+04 0.  0.
        1    1    3    3  502    0 -0.49477902219E+03  0.13327111571E+03  0.38460190528E+03  0.64069188902E+03  0.50400001928E-02 0. -1.
       -1    1    3    3    0  502  0.49477902219E+03 -0.13327111571E+03 -0.20666048934E+04  0.21291837066E+04  0.50400001928E-02 0.  1.
</event>
<event>
 5   0  0.4309945E-06  0.2200550E+04  0.7818609E-02  0.8518199E-01
        1   -1    0    0  501    0  0.00000000000E+00  0.00000000000E+00  0.14075237859E+04  0.14075237859E+04  0.50400001928E-02 0.  1.
       -1   -1    0    0    0  501  0.00000000000E+00  0.00000000000E+00 -0.86009564162E+03  0.86009564163E+03  0.50400001928E-02 0. -1.
    10030    2    1    2    0    0  0.00000000000E+00  0.00000000000E+00  0.54742814429E+03  0.22676194276E+04  0.22005499983E+04 0.  0.
        4    1    3    3  502    0  0.47455490574E+03 -0.98217860693E+03  0.42206821411E+03  0.11696240271E+04  0.12699999809E+01 0.  1.
       -4    1    3    3    0  502 -0.47455490574E+03  0.98217860693E+03  0.12535993018E+03  0.10979954005E+04  0.12699999809E+01 0. -1.
</event>
<event>
 5   0  0.4462201E-06  0.2190501E+04  0.7818609E-02  0.8522392E-01
        1   -1    0    0  501    0  0.00000000000E+00  0.00000000000E+00  0.81719053026E+03  0.81719053027E+03  0.50400001928E-02 0.  1.
       -1   -1    0    0    0  501  0.00000000000E+00  0.00000000000E+00 -0.14679237017E+04  0.14679237017E+04  0.50400001928E-02 0. -1.
    10030    2    1    2    0    0  0.00000000000E+00  0.00000000000E+00 -0.65073317142E+03  0.22851142320E+04  0.21905007174E+04 0.  0.
        3    1    3    3  502    0  0.24323098150E+03  0.10629977474E+04 -0.43199606489E+03  0.11729220484E+04  0.10100000352E+00 0.  1.
       -3    1    3    3    0  502 -0.24323098150E+03 -0.10629977474E+04 -0.21873710653E+03  0.11121921836E+04  0.10100000352E+00 0. -1.
</event>
<event>
 5   0  0.4408787E-06  0.2206237E+04  0.7818609E-02  0.8515836E-01
        1   -1    0    0  501    0  0.00000000000E+00  0.00000000000E+00  0.97921782288E+03  0.97921782289E+03  0.50400001928E-02 0. -1.
       -1   -1    0    0    0  501  0.00000000000E+00  0.00000000000E+00 -0.12426966988E+04  0.12426966989E+04  0.50400001928E-02 0.  1.
    10030    2    1    2    0    0  0.00000000000E+00  0.00000000000E+00 -0.26347887597E+03  0.22219145217E+04  0.22062373000E+04 0.  0.
        1    1    3    3  502    0 -0.58445930867E+03  0.46382713658E+03 -0.95000440571E+03  0.12079886866E+04  0.50400001928E-02 0.  1.
       -1    1    3    3    0  502  0.58445930867E+03 -0.46382713658E+03  0.68652552974E+03  0.10139258351E+04  0.50400001928E-02 0. -1.
</event>
<event>
 5   0  0.9963573E-06  0.2191574E+04  0.7818609E-02  0.8521944E-01
       -2   -1    0    0    0  501  0.00000000000E+00  0.00000000000E+00  0.57529626172E+03  0.57529626173E+03  0.25500000920E-02 0. -1.
        2   -1    0    0  501    0  0.00000000000E+00  0.00000000000E+00 -0.20871832387E+04  0.20871832387E+04  0.25500000920E-02 0.  1.
    10030    2    1    2    0    0  0.00000000000E+00  0.00000000000E+00 -0.15118869770E+04  0.26624795004E+04  0.21915736034E+04 0.  0.
        2    1    3    3  502    0 -0.70601535666E+03  0.21632754640E+03 -0.17395341147E+04  0.18897709458E+04  0.25500000920E-02 0.  1.
       -2    1    3    3    0  502  0.70601535666E+03 -0.21632754640E+03  0.22764713772E+03  0.77270855469E+03  0.25500000920E-02 0. -1.
</event>
<event>
 5   0  0.4408787E-06  0.2201070E+04  0.7818609E-02  0.8517983E-01
        1   -1    0    0  501    0  0.00000000000E+00  0.00000000000E+00  0.11362287373E+04  0.11362287373E+04  0.50400001928E-02 0.  1.
       -1   -1    0    0    0  501  0.00000000000E+00  0.00000000000E+00 -0.10659621685E+04  0.10659621685E+04  0.50400001928E-02 0. -1.
    10030    2    1    2    0    0  0.00000000000E+00  0.00000000000E+00  0.70266568805E+02  0.22021909058E+04  0.22010696024E+04 0.  0.
        1    1    3    3  502    0 -0.83567213439E+03 -0.45073620475E+03  0.59189301370E+03  0.11188603050E+04  0.50400001928E-02 0.  1.
       -1    1    3    3    0  502  0.83567213439E+03  0.45073620475E+03 -0.52162644489E+03  0.10833306007E+04  0.50400001928E-02 0. -1.
</event>
<event>
 5   0  0.4630615E-06  0.2207819E+04  0.7818609E-02  0.8515181E-01
       -1   -1    0    0    0  501  0.00000000000E+00  0.00000000000E+00  0.10403708490E+04  0.10403708490E+04  0.50400001928E-02 0.  1.
        1   -1    0    0  501    0  0.00000000000E+00  0.00000000000E+00 -0.11713290856E+04  0.11713290856E+04  0.50400001928E-02 0. -1.
    10030    2    1    2    0    0  0.00000000000E+00  0.00000000000E+00 -0.13095823655E+03  0.22116999346E+04  0.22078194086E+04 0.  0.
        2    1    3    3  502    0 -0.44208846242E+03  0.44788743511E+03 -0.97403036200E+03  0.11596467174E+04  0.25500000920E-02 0. -1.
       -2    1    3    3    0  502  0.44208846242E+03 -0.44788743511E+03  0.84307212544E+03  0.10520532172E+04  0.25500000920E-02 0.  1.
</event>
<event>
 5   0  0.4309945E-06  0.2206111E+04  0.7818609E-02  0.8515889E-01
       -1   -1    0    0    0  501  0.00000000000E+00  0.00000000000E+00  0.63672038988E+03  0.63672038990E+03  0.50400001928E-02 0. -1.
        1   -1    0    0  501    0  0.00000000000E+00  0.00000000000E+00 -0.19109349213E+04  0.19109349213E+04  0.50400001928E-02 0.  1.
    10030    2    1    2    0    0  0.00000000000E+00  0.00000000000E+00 -0.12742145314E+04  0.25476553112E+04  0.22061108115E+04 0.  0.
        4    1    3    3  502    0  0.86190986535E+03 -0.64480015145E+03 -0.35881359215E+03  0.11346385584E+04  0.12699999809E+01 0.  1.
       -4    1    3    3    0  502 -0.86190986535E+03  0.64480015145E+03 -0.91540093923E+03  0.14130167528E+04  0.12699999809E+01 0. -1.
</event>
<event>
 5   0  0.1014015E-05  0.2199724E+04  0.7818609E-02  0.8518543E-01
        2   -1    0    0  501    0  0.00000000000E+00  0.00000000000E+00  0.10153486480E+04  0.10153486480E+04  0.25500000920E-02 0. -1.
       -2   -1    0    0    0  501  0.00000000000E+00  0.00000000000E+00 -0.11914096596E+04  0.11914096596E+04  0.25500000920E-02 0.  1.
    10030    2    1    2    0    0  0.00000000000E+00  0.00000000000E+00 -0.17606101162E+03  0.22067583076E+04  0.21997237891E+04 0.  0.
        1    1    3    3  502    0  0.10013751258E+04  0.42984494982E+03  0.61366390792E+02  0.10914598744E+04  0.50400001928E-02 0.  1.
       -1    1    3    3    0  502 -0.10013751258E+04 -0.42984494982E+03 -0.23742740241E+03  0.11152984332E+04  0.50400001928E-02 0. -1.
</event>
<event>
 5   0  0.1035928E-05  0.2207847E+04  0.7818609E-02  0.8515169E-01
       -2   -1    0    0    0  501  0.00000000000E+00  0.00000000000E+00  0.87466686025E+03  0.87466686025E+03  0.25500000920E-02 0. -1.
        2   -1    0    0  501    0  0.00000000000E+00  0.00000000000E+00 -0.13932700186E+04  0.13932700186E+04  0.25500000920E-02 0.  1.
    10030    2    1    2    0    0  0.00000000000E+00  0.00000000000E+00 -0.51860315837E+03  0.22679368789E+04  0.22078470170E+04 0.  0.
        3    1    3    3  502    0  0.41123205359E+03  0.48093535021E+03  0.66988174509E+03  0.92149453367E+03  0.10100000352E+00 0. -1.
       -3    1    3    3    0  502 -0.41123205359E+03 -0.48093535021E+03 -0.11884849035E+04  0.13464423452E+04  0.10100000352E+00 0.  1.
</event>
<event>
 5   0  0.4630615E-06  0.2203227E+04  0.7818609E-02  0.8517086E-01
       -1   -1    0    0    0  501  0.00000000000E+00  0.00000000000E+00  0.82833966298E+03  0.82833966300E+03  0.50400001928E-02 0.  1.
        1   -1    0    0  501    0  0.00000000000E+00  0.00000000000E+00 -0.14650419466E+04  0.14650419466E+04  0.50400001928E-02 0. -1.
    10030    2    1    2    0    0  0.00000000000E+00  0.00000000000E+00 -0.63670228357E+03  0.22933816096E+04  0.22032270444E+04 0.  0.
        2    1    3    3  502    0 -0.50612062092E+02  0.92407459559E+03  0.30365970440E+03  0.97400444307E+03  0.25500000920E-02 0.  1.
       -2    1    3    3    0  502  0.50612062092E+02 -0.92407459559E+03 -0.94036198796E+03  0.13193771665E+04  0.25500000920E-02 0. -1.
</event>
<event>
 5   0  0.3546750E-06  0.2195811E+04  0.7818609E-02  0.8520174E-01
       -3   -1    0    0    0  501  0.00000000000E+00  0.00000000000E+00  0.13632899079E+04  0.13632899117E+04  0.10100000352E+00 0. -1.
        3   -1    0    0  501    0  0.00000000000E+00  0.00000000000E+00 -0.88418238055E+03  0.88418238632E+03  0.10100000352E+00 0.  1.
    10030    2    1    2    0    0  0.00000000000E+00  0.00000000000E+00  0.47910752736E+03  0.22474722980E+04  0.21958114007E+04 0.  0.
        5    1    3    3  502    0 -0.38392975818E+03 -0.66866537948E+03 -0.56040930575E+03  0.95320308901E+03  0.46999998093E+01 0.  1.
       -5    1    3    3    0  502  0.38392975818E+03  0.66866537948E+03  0.10395168331E+04  0.12942692090E+04  0.46999998093E+01 0. -1.
</event>
<event>
 5   0  0.4794967E-06  0.2195833E+04  0.7818609E-02  0.8520165E-01
       -1   -1    0    0    0  501  0.00000000000E+00  0.00000000000E+00  0.13061630523E+04  0.13061630523E+04  0.50400001928E-02 0.  1.
        1   -1    0    0  501    0  0.00000000000E+00  0.00000000000E+00 -0.92287132985E+03  0.92287132986E+03  0.50400001928E-02 0. -1.
    10030    2    1    2    0    0  0.00000000000E+00  0.00000000000E+00  0.38329172242E+03  0.22290343821E+04  0.21958328106E+04 0.  0.
        5    1    3    3  502    0  0.37792464361E+03  0.85401393162E+03  0.77763629831E+03  0.12152806812E+04  0.46999998093E+01 0.  1.
       -5    1    3    3    0  502 -0.37792464361E+03 -0.85401393162E+03 -0.39434457589E+03  0.10137537009E+04  0.46999998093E+01 0. -1.
</event>
<event>
 5   0  0.1015876E-05  0.2192742E+04  0.7818609E-02  0.8521455E-01
        2   -1    0    0  501    0  0.00000000000E+00  0.00000000000E+00  0.16459360141E+04  0.16459360141E+04  0.25500000920E-02 0. -1.
       -2   -1    0    0    0  501  0.00000000000E+00  0.00000000000E+00 -0.73030172622E+03  0.73030172623E+03  0.25500000920E-02 0.  1.
    10030    2    1    2    0    0  0.00000000000E+00  0.00000000000E+00  0.91563428787E+03  0.23762377403E+04  0.21927424950E+04 0.  0.
        5    1    3    3  502    0 -0.66456896588E+03  0.33539776473E+03  0.13300737440E+04  0.15242249917E+04  0.46999998093E+01 0. -1.
       -5    1    3    3    0  502  0.66456896588E+03 -0.33539776473E+03 -0.41443945611E+03  0.85201274859E+03  0.46999998093E+01 0.  1.
</event>
<event>
 5   0  0.1014015E-05  0.2199689E+04  0.7818609E-02  0.8518557E-01
        2   -1    0    0  501    0  0.00000000000E+00  0.00000000000E+00  0.11167073418E+04  0.11167073418E+04  0.25500000920E-02 0.  1.
       -2   -1    0    0    0  501  0.00000000000E+00  0.00000000000E+00 -0.10832367646E+04  0.10832367646E+04  0.25500000920E-02 0. -1.
    10030    2    1    2    0    0  0.00000000000E+00  0.00000000000E+00  0.33470577117E+02  0.21999441064E+04  0.21996894762E+04 0.  0.
        1    1    3    3  502    0 -0.41819116116E+03 -0.34772212808E+03 -0.93933767279E+03  0.10854260865E+04  0.50400001928E-02 0. -1.
       -1    1    3    3    0  502  0.41819116116E+03  0.34772212808E+03  0.97280824991E+03  0.11145180199E+04  0.50400001928E-02 0.  1.
</event>
<event>
 5   0  0.4794967E-06  0.2196031E+04  0.7818609E-02  0.8520082E-01
       -1   -1    0    0    0  501  0.00000000000E+00  0.00000000000E+00  0.12605823840E+04  0.12605823840E+04  0.50400001928E-02 0.  1.
        1   -1    0    0  501    0  0.00000000000E+00  0.00000000000E+00 -0.95641395148E+03  0.95641395149E+03  0.50400001928E-02 0. -1.
    10030    2    1    2    0    0  0.00000000000E+00  0.00000000000E+00  0.30416843256E+03  0.22169963355E+04  0.21960314926E+04 0.  0.
        5    1    3    3  502    0 -0.36418762980E+03  0.20806215971E+03 -0.87234157017E+03  0.96794855082E+03  0.46999998093E+01 0. -1.
       -5    1    3    3    0  502  0.36418762980E+03 -0.20806215971E+03  0.11765100027E+04  0.12490477847E+04  0.46999998093E+01 0.  1.
</event>
<event>
 5   0  0.4309945E-06  0.2200686E+04  0.7818609E-02  0.8518143E-01
       -1   -1    0    0    0  501  0.00000000000E+00  0.00000000000E+00  0.82229196947E+03  0.82229196948E+03  0.50400001928E-02 0. -1.
        1   -1    0    0  501    0  0.00000000000E+00  0.00000000000E+00 -0.14724150165E+04  0.14724150165E+04  0.50400001928E-02 0.  1.
    10030    2    1    2    0    0  0.00000000000E+00  0.00000000000E+00 -0.65012304700E+03  0.22947069860E+04  0.22006862964E+04 0.  0.
        4    1    3    3  502    0  0.95546430047E+03  0.48794004555E+03 -0.70167564281E+02  0.10751384178E+04  0.12699999809E+01 0. -1.
       -4    1    3    3    0  502 -0.95546430047E+03 -0.48794004555E+03 -0.57995548272E+03  0.12195685681E+04  0.12699999809E+01 0.  1.
</event>
<event>
 5   0  0.9963173E-06  0.2203959E+04  0.7818609E-02  0.8516782E-01
        2   -1    0    0  501    0  0.00000000000E+00  0.00000000000E+00  0.17035584437E+04  0.17035584437E+04  0.25500000920E-02 0. -1.
       -2   -1    0    0    0  501  0.00000000000E+00  0.00000000000E+00 -0.71283663662E+03  0.71283663663E+03  0.25500000920E-02 0.  1.
    10030    2    1    2    0    0  0.00000000000E+00  0.00000000000E+00  0.99072180711E+03  0.24163950804E+04  0.22039590480E+04 0.  0.
        4    1    3    3  502    0 -0.24004097735E+03  0.26568006778E+03 -0.64727972807E+03  0.73971496436E+03  0.12699999809E+01 0.  1.
       -4    1    3    3    0  502  0.24004097735E+03 -0.26568006778E+03  0.16380015352E+04  0.16766801160E+04  0.12699999809E+01 0. -1.
</event>
<event>
 5   0  0.1014015E-05  0.2197211E+04  0.7818609E-02  0.8519590E-01
        2   -1    0    0  501    0  0.00000000000E+00  0.00000000000E+00  0.86432513449E+03  0.86432513449E+03  0.25500000920E-02 0.  1.
       -2   -1    0    0    0  501  0.00000000000E+00  0.00000000000E+00 -0.13963885147E+04  0.13963885147E+04  0.25500000920E-02 0. -1.
    10030    2    1    2    0    0  0.00000000000E+00  0.00000000000E+00 -0.53206338023E+03  0.22607136492E+04  0.21972106779E+04 0.  0.
        1    1    3    3  502    0  0.47438984002E+03 -0.50372358318E+03  0.61194793619E+03  0.92372260186E+03  0.50400001928E-02 0.  1.
       -1    1    3    3    0  502 -0.47438984002E+03  0.50372358318E+03 -0.11440113164E+04  0.13369910473E+04  0.50400001928E-02 0. -1.
</event>
<event>
 5   0  0.1015876E-05  0.2207329E+04  0.7818609E-02  0.8515384E-01
        2   -1    0    0  501    0  0.00000000000E+00  0.00000000000E+00  0.17944956093E+04  0.17944956093E+04  0.25500000920E-02 0. -1.
       -2   -1    0    0    0  501  0.00000000000E+00  0.00000000000E+00 -0.67878412314E+03  0.67878412314E+03  0.25500000920E-02 0.  1.
    10030    2    1    2    0    0  0.00000000000E+00  0.00000000000E+00  0.11157114862E+04  0.24732797324E+04  0.22073288189E+04 0.  0.
        5    1    3    3  502    0 -0.10049493185E+04  0.45542082889E+03  0.58795854918E+03  0.12502194246E+04  0.46999998093E+01 0. -1.
       -5    1    3    3    0  502  0.10049493185E+04 -0.45542082889E+03  0.52775293698E+03  0.12230603078E+04  0.46999998093E+01 0.  1.
</event>
<event>
 5   0  0.1015876E-05  0.2196155E+04  0.7818609E-02  0.8520030E-01
        2   -1    0    0  501    0  0.00000000000E+00  0.00000000000E+00  0.28539308153E+04  0.28539308153E+04  0.25500000920E-02 0. -1.
       -2   -1    0    0    0  501  0.00000000000E+00  0.00000000000E+00 -0.42249577481E+03  0.42249577481E+03  0.25500000920E-02 0.  1.
    10030    2    1    2    0    0  0.00000000000E+00  0.00000000000E+00  0.24314350405E+04  0.32764265902E+04  0.21961545584E+04 0.  0.
        5    1    3    3  502    0  0.94786493175E+03  0.51598207036E+03  0.91338854303E+03  0.14138550655E+04  0.46999998093E+01 0.  1.
       -5    1    3    3    0  502 -0.94786493175E+03 -0.51598207036E+03  0.15180464975E+04  0.18625715246E+04  0.46999998093E+01 0. -1.
</event>
<event>
 5   0  0.1015876E-05  0.2200078E+04  0.7818609E-02  0.8518396E-01
        2   -1    0    0  501    0  0.00000000000E+00  0.00000000000E+00  0.16623555405E+04  0.16623555405E+04  0.25500000920E-02 0. -1.
       -2   -1    0    0    0  501  0.00000000000E+00  0.00000000000E+00 -0.72793419610E+03  0.72793419611E+03  0.25500000920E-02 0.  1.
    10030    2    1    2    0    0  0.00000000000E+00  0.00000000000E+00  0.93442134439E+03  0.23902897366E+04  0.22000776750E+04 0.  0.
        5    1    3    3  502    0  0.11945830674E+03  0.38935228967E+03  0.15774175982E+04  0.16291512703E+04  0.46999998093E+01 0. -1.
       -5    1    3    3    0  502 -0.11945830674E+03 -0.38935228967E+03 -0.64299625377E+03  0.76113846630E+03  0.46999998093E+01 0.  1.
</event>
<event>
 5   0  0.4794967E-06  0.2197232E+04  0.7818609E-02  0.8519581E-01
        1   -1    0    0  501    0  0.00000000000E+00  0.00000000000E+00  0.80192123451E+03  0.80192123452E+03  0.50400001928E-02 0.  1.
       -1   -1    0    0    0  501  0.00000000000E+00  0.00000000000E+00 -0.15050823412E+04  0.15050823412E+04  0.50400001928E-02 0. -1.
    10030    2    1    2    0    0  0.00000000000E+00  0.00000000000E+00 -0.70316110670E+03  0.23070035757E+04  0.21972323401E+04 0.  0.
        5    1    3    3  502    0  0.25344313938E+03 -0.11390830302E+03 -0.14675672429E+04  0.14936479601E+04  0.46999998093E+01 0. -1.
       -5    1    3    3    0  502 -0.25344313938E+03  0.11390830302E+03  0.76440613619E+03  0.81335561561E+03  0.46999998093E+01 0.  1.
</event>
<event>
 5   0  0.1014015E-05  0.2198335E+04  0.7818609E-02  0.8519121E-01
       -2   -1    0    0    0  501  0.00000000000E+00  0.00000000000E+00  0.13562262921E+04  0.13562262921E+04  0.25500000920E-02 0.  1.
        2   -1    0    0  501    0  0.00000000000E+00  0.00000000000E+00 -0.89083184799E+03  0.89083184799E+03  0.25500000920E-02 0. -1.
    10030    2    1    2    0    0  0.00000000000E+00  0.00000000000E+00  0.46539444406E+03  0.22470581400E+04  0.21983353466E+04 0.  0.
        1    1    3    3  502    0 -0.16350001277E+03  0.10135438392E+04 -0.16864509968E+03  0.10404059486E+04  0.50400001928E-02 0. -1.
       -1    1    3    3    0  502  0.16350001277E+03 -0.10135438392E+04  0.63403954374E+03  0.12066521915E+04  0.50400001928E-02 0.  1.
</event>
<event>
 5   0  0.4630615E-06  0.2208636E+04  0.7818609E-02  0.8514842E-01
       -1   -1    0    0    0  501  0.00000000000E+00  0.00000000000E+00  0.47741647594E+03  0.47741647597E+03  0.50400001928E-02 0.  1.
        1   -1    0    0  501    0  0.00000000000E+00  0.00000000000E+00 -0.25544110489E+04  0.25544110490E+04  0.50400001928E-02 0. -1.
    10030    2    1    2    0    0  0.00000000000E+00  0.00000000000E+00 -0.20769945730E+04  0.30318275249E+04  0.22086357066E+04 0.  0.
        2    1    3    3  502    0  0.21627390614E+03  0.10037047448E+04 -0.15966377388E+04  0.18982754505E+04  0.25500000920E-02 0. -1.
       -2    1    3    3    0  502 -0.21627390614E+03 -0.10037047448E+04 -0.48035683420E+03  0.11335520744E+04  0.25500000920E-02 0.  1.
</event>
<event>
 5   0  0.4630615E-06  0.2195933E+04  0.7818609E-02  0.8520123E-01
       -1   -1    0    0    0  501  0.00000000000E+00  0.00000000000E+00  0.92578979965E+03  0.92578979966E+03  0.50400001928E-02 0. -1.
        1   -1    0    0  501    0  0.00000000000E+00  0.00000000000E+00 -0.13021638518E+04  0.13021638518E+04  0.50400001928E-02 0.  1.
    10030    2    1    2    0    0  0.00000000000E+00  0.00000000000E+00 -0.37637405213E+03  0.22279536515E+04  0.21959326142E+04 0.  0.
        2    1    3    3  502    0  0.49466541403E+03 -0.44470505921E+02 -0.11816791015E+04  0.12818100470E+04  0.25500000920E-02 0.  1.
       -2    1    3    3    0  502 -0.49466541403E+03  0.44470505921E+02  0.80530504934E+03  0.94614360445E+03  0.25500000920E-02 0. -1.
</event>
<event>
 5   0  0.4462201E-06  0.2203046E+04  0.7818609E-02  0.8517161E-01
        1   -1    0    0  501    0  0.00000000000E+00  0.00000000000E+00  0.12266553926E+04  0.12266553926E+04  0.50400001928E-02 0. -1.
       -1   -1    0    0    0  501  0.00000000000E+00  0.00000000000E+00 -0.98915557400E+03  0.98915557401E+03  0.50400001928E-02 0.  1.
    10030    2    1    2    0    0  0.00000000000E+00  0.00000000000E+00  0.23749981855E+03  0.22158109666E+04  0.22030460903E+04 0.  0.
        3    1    3    3  502    0 -0.46782573666E+03  0.17139025902E+03  0.11068460712E+04  0.12138137321E+04  0.10100000352E+00 0. -1.
       -3    1    3    3    0  502  0.46782573666E+03 -0.17139025902E+03 -0.86934625262E+03  0.10019972345E+04  0.10100000352E+00 0.  1.
</event>
<event>
 5   0  0.1014015E-05  0.2205926E+04  0.7818609E-02  0.8515966E-01
        2   -1    0    0  501    0  0.00000000000E+00  0.00000000000E+00  0.15718019073E+04  0.15718019073E+04  0.25500000920E-02 0. -1.
       -2   -1    0    0    0  501  0.00000000000E+00  0.00000000000E+00 -0.77396956766E+03  0.77396956766E+03  0.25500000920E-02 0.  1.
    10030    2    1    2    0    0  0.00000000000E+00  0.00000000000E+00  0.79783233960E+03  0.23457714749E+04  0.22059255133E+04 0.  0.
        1    1    3    3  502    0 -0.63548305977E+02  0.83281606809E+03  0.11649344637E+04  0.14334201391E+04  0.50400001928E-02 0. -1.
       -1    1    3    3    0  502  0.63548305977E+02 -0.83281606809E+03 -0.36710212408E+03  0.91235133583E+03  0.50400001928E-02 0.  1.
</event>
<event>
 5   0  0.4309945E-06  0.2203768E+04  0.7818609E-02  0.8516862E-01
       -1   -1    0    0    0  501  0.00000000000E+00  0.00000000000E+00  0.12888479079E+04  0.12888479079E+04  0.50400001928E-02 0. -1.
        1   -1    0    0  501    0  0.00000000000E+00  0.00000000000E+00 -0.94204132392E+03  0.94204132393E+03  0.50400001928E-02 0.  1.
    10030    2    1    2    0    0  0.00000000000E+00  0.00000000000E+00  0.34680658401E+03  0.22308892319E+04  0.22037676734E+04 0.  0.
        4    1    3    3  502    0  0.87065659780E+03  0.67263336191E+03  0.23471120736E+03  0.11249753396E+04  0.12699999809E+01 0. -1.
       -4    1    3    3    0  502 -0.87065659780E+03 -0.67263336191E+03  0.11209537664E+03  0.11059138923E+04  0.12699999809E+01 0.  1.
</event>
<event>
 5   0  0.4309945E-06  0.2197453E+04  0.7818609E-02  0.8519489E-01
        1   -1    0    0  501    0  0.00000000000E+00  0.00000000000E+00  0.11666533861E+04  0.11666533861E+04  0.50400001928E-02 0. -1.
       -1   -1    0    0    0  501  0.00000000000E+00  0.00000000000E+00 -0.10347547446E+04  0.10347547446E+04  0.50400001928E-02 0.  1.
    10030    2    1    2    0    0  0.00000000000E+00  0.00000000000E+00  0.13189864151E+03  0.22014081307E+04  0.21974531864E+04 0.  0.
        4    1    3    3  502    0 -0.56579313030E+03 -0.73341483765E+03  0.65792681199E+03  0.11361727392E+04  0.12699999809E+01 0. -1.
       -4    1    3    3    0  502  0.56579313030E+03  0.73341483765E+03 -0.52602817048E+03  0.10652353916E+04  0.12699999809E+01 0.  1.
</event>
<event>
 5   0  0.4794967E-06  0.2202242E+04  0.7818609E-02  0.8517496E-01
        1   -1    0    0  501    0  0.00000000000E+00  0.00000000000E+00  0.14106245816E+04  0.14106245816E+04  0.50400001928E-02 0.  1.
       -1   -1    0    0    0  501  0.00000000000E+00  0.00000000000E+00 -0.85952518051E+03  0.85952518052E+03  0.50400001928E-02 0. -1.
    10030    2    1    2    0    0  0.00000000000E+00  0.00000000000E+00  0.55109940112E+03  0.22701497622E+04  0.22022419015E+04 0.  0.
        5    1    3    3  502    0 -0.20777268463E+03  0.93529420369E+03 -0.28386325705E+03  0.99927232256E+03  0.46999998093E+01 0. -1.
       -5    1    3    3    0  502  0.20777268463E+03 -0.93529420369E+03  0.83496265817E+03  0.12708774396E+04  0.46999998093E+01 0.  1.
</event>
<event>
 5   0  0.9963573E-06  0.2172395E+04  0.7818609E-02  0.8530006E-01
       -2   -1    0    0    0  501  0.00000000000E+00  0.00000000000E+00  0.93252146363E+03  0.93252146364E+03  0.25500000920E-02 0.  1.
        2   -1    0    0  501    0  0.00000000000E+00  0.00000000000E+00 -0.12651990788E+04  0.12651990788E+04  0.25500000920E-02 0. -1.
    10030    2    1    2    0    0  0.00000000000E+00  0.00000000000E+00 -0.33267761519E+03  0.21977205425E+04  0.21723952649E+04 0.  0.
        2    1    3    3  502    0 -0.70943514896E+03 -0.61830723492E+03 -0.71508573200E+03  0.11819262547E+04  0.25500000920E-02 0. -1.
       -2    1    3    3    0  502  0.70943514896E+03  0.61830723492E+03  0.38240811681E+03  0.10157942878E+04  0.25500000920E-02 0.  1.
</event>
<event>
 5   0  0.9963173E-06  0.2201296E+04  0.7818609E-02  0.8517889E-01
        2   -1    0    0  501    0  0.00000000000E+00  0.00000000000E+00  0.59063211645E+03  0.59063211646E+03  0.25500000920E-02 0.  1.
       -2   -1    0    0    0  501  0.00000000000E+00  0.00000000000E+00 -0.20510667794E+04  0.20510667794E+04  0.25500000920E-02 0. -1.
    10030    2    1    2    0    0  0.00000000000E+00  0.00000000000E+00 -0.14604346630E+04  0.26416988959E+04  0.22012959028E+04 0.  0.
        4    1    3    3  502    0 -0.10603444014E+03  0.43387269105E+03  0.47698843758E+03  0.65345879520E+03  0.12699999809E+01 0.  1.
       -4    1    3    3    0  502  0.10603444014E+03 -0.43387269105E+03 -0.19374231006E+04  0.19882401007E+04  0.12699999809E+01 0. -1.
</event>
<event>
 5   0  0.1015876E-05  0.2189312E+04  0.7818609E-02  0.8522890E-01
       -2   -1    0    0    0  501  0.00000000000E+00  0.00000000000E+00  0.91957277272E+03  0.91957277273E+03  0.25500000920E-02 0. -1.
        2   -1    0    0  501    0  0.00000000000E+00  0.00000000000E+00 -0.13030744297E+04  0.13030744297E+04  0.25500000920E-02 0.  1.
    10030    2    1    2    0    0  0.00000000000E+00  0.00000000000E+00 -0.38350165700E+03  0.22226472025E+04  0.21893120074E+04 0.  0.
        5    1    3    3  502    0  0.62135007329E+03 -0.87916543343E+03  0.93611354145E+01  0.10766231902E+04  0.46999998093E+01 0. -1.
       -5    1    3    3    0  502 -0.62135007329E+03  0.87916543343E+03 -0.39286279242E+03  0.11460240122E+04  0.46999998093E+01 0.  1.
</event>
<event>
 5   0  0.1035928E-05  0.2195831E+04  0.7818609E-02  0.8520165E-01
       -2   -1    0    0    0  501  0.00000000000E+00  0.00000000000E+00  0.13361826763E+04  0.13361826763E+04  0.25500000920E-02 0. -1.
        2   -1    0    0  501    0  0.00000000000E+00  0.00000000000E+00 -0.90213623170E+03  0.90213623170E+03  0.25500000920E-02 0.  1.
    10030    2    1    2    0    0  0.00000000000E+00  0.00000000000E+00  0.43404644462E+03  0.22383189080E+04  0.21958313273E+04 0.  0.
        3    1    3    3  502    0  0.64652139649E+03 -0.88321219614E+03  0.30450390349E+03  0.11361233810E+04  0.10100000352E+00 0. -1.
       -3    1    3    3    0  502 -0.64652139649E+03  0.88321219614E+03  0.12954254114E+03  0.11021955270E+04  0.10100000352E+00 0.  1.
</event>
<event>
 5   0  0.1015876E-05  0.2201010E+04  0.7818609E-02  0.8518008E-01
       -2   -1    0    0    0  501  0.00000000000E+00  0.00000000000E+00  0.66100056641E+03  0.66100056641E+03  0.25500000920E-02 0. -1.
        2   -1    0    0  501    0  0.00000000000E+00  0.00000000000E+00 -0.18322401257E+04  0.18322401257E+04  0.25500000920E-02 0.  1.
    10030    2    1    2    0    0  0.00000000000E+00  0.00000000000E+00 -0.11712395593E+04  0.24932406921E+04  0.22010104597E+04 0.  0.
        5    1    3    3  502    0 -0.32541171427E+03 -0.59130605173E+01  0.60522472435E+03  0.68720215732E+03  0.46999998093E+01 0. -1.
       -5    1    3    3    0  502  0.32541171427E+03  0.59130605173E+01 -0.17764642836E+04  0.18060385348E+04  0.46999998093E+01 0.  1.
</event>
<event>
 5   0  0.9963573E-06  0.2201206E+04  0.7818609E-02  0.8517926E-01
       -2   -1    0    0    0  501  0.00000000000E+00  0.00000000000E+00  0.82778496685E+03  0.82778496686E+03  0.25500000920E-02 0.  1.
        2   -1    0    0  501    0  0.00000000000E+00  0.00000000000E+00 -0.14633353096E+04  0.14633353096E+04  0.25500000920E-02 0. -1.
    10030    2    1    2    0    0  0.00000000000E+00  0.00000000000E+00 -0.63555034275E+03  0.22911202765E+04  0.22012060065E+04 0.  0.
        2    1    3    3  502    0 -0.43227288266E+03 -0.10109628015E+04 -0.36899227895E+03  0.11597676203E+04  0.25500000920E-02 0.  1.
       -2    1    3    3    0  502  0.43227288266E+03  0.10109628015E+04 -0.26655806380E+03  0.11313526561E+04  0.25500000920E-02 0. -1.
</event>
<event>
 5   0  0.4408787E-06  0.2173439E+04  0.7818609E-02  0.8529565E-01
       -1   -1    0    0    0  501  0.00000000000E+00  0.00000000000E+00  0.74149378534E+03  0.74149378535E+03  0.50400001928E-02 0.  1.
        1   -1    0    0  501    0  0.00000000000E+00  0.00000000000E+00 -0.15926765729E+04  0.15926765729E+04  0.50400001928E-02 0. -1.
    10030    2    1    2    0    0  0.00000000000E+00  0.00000000000E+00 -0.85118278752E+03  0.23341703582E+04  0.21734394685E+04 0.  0.
        1    1    3    3  502    0 -0.57523620205E+03 -0.62304288349E+03  0.30428595897E+03  0.90092678263E+03  0.50400001928E-02 0.  1.
       -1    1    3    3    0  502  0.57523620205E+03  0.62304288349E+03 -0.11554687465E+04  0.14332435756E+04  0.50400001928E-02 0. -1.
</event>
<event>
 5   0  0.4309945E-06  0.2199683E+04  0.7818609E-02  0.8518560E-01
        1   -1    0    0  501    0  0.00000000000E+00  0.00000000000E+00  0.13301743274E+04  0.13301743274E+04  0.50400001928E-02 0.  1.
       -1   -1    0    0    0  501  0.00000000000E+00  0.00000000000E+00 -0.90939277723E+03  0.90939277724E+03  0.50400001928E-02 0. -1.
    10030    2    1    2    0    0  0.00000000000E+00  0.00000000000E+00  0.42078155021E+03  0.22395671047E+04  0.21996826370E+04 0.  0.
        4    1    3    3  502    0 -0.85963620254E+03  0.25592769200E+03  0.85846667446E+03  0.12415474330E+04  0.12699999809E+01 0.  1.
       -4    1    3    3    0  502  0.85963620254E+03 -0.25592769200E+03 -0.43768512425E+03  0.99801967172E+03  0.12699999809E+01 0. -1.
</event>
<event>
 5   0  0.9963173E-06  0.2205338E+04  0.7818609E-02  0.8516209E-01
       -2   -1    0    0    0  501  0.00000000000E+00  0.00000000000E+00  0.10884272531E+04  0.10884272531E+04  0.25500000920E-02 0. -1.
        2   -1    0    0  501    0  0.00000000000E+00  0.00000000000E+00 -0.11170974500E+04  0.11170974500E+04  0.25500000920E-02 0.  1.
    10030    2    1    2    0    0  0.00000000000E+00  0.00000000000E+00 -0.28670196858E+02  0.22055247031E+04  0.22053383495E+04 0.  0.
        4    1    3    3  502    0  0.80038406930E+03 -0.74858543987E+03  0.10767060743E+03  0.11011763672E+04  0.12699999809E+01 0.  1.
       -4    1    3    3    0  502 -0.80038406930E+03  0.74858543987E+03 -0.13634080429E+03  0.11043483359E+04  0.12699999809E+01 0. -1.
</event>
<event>
 5   0  0.9963173E-06  0.2200398E+04  0.7818609E-02  0.8518262E-01
        2   -1    0    0  501    0  0.00000000000E+00  0.00000000000E+00  0.15401201365E+04  0.15401201365E+04  0.25500000920E-02 0. -1.
       -2   -1    0    0    0  501  0.00000000000E+00  0.00000000000E+00 -0.78593761660E+03  0.78593761660E+03  0.25500000920E-02 0.  1.
    10030    2    1    2    0    0  0.00000000000E+00  0.00000000000E+00  0.75418251995E+03  0.23260577531E+04  0.22003984634E+04 0.  0.
        4    1    3    3  502    0 -0.28409714373E+03 -0.91525422105E+03 -0.19417267381E+03  0.97780678888E+03  0.12699999809E+01 0.  1.
       -4    1    3    3    0  502  0.28409714373E+03  0.91525422105E+03  0.94835519375E+03  0.13482509643E+04  0.12699999809E+01 0. -1.
</event>
<event>
 5   0  0.4630615E-06  0.2167703E+04  0.7818609E-02  0.8531992E-01
        1   -1    0    0  501    0  0.00000000000E+00  0.00000000000E+00  0.20106234489E+04  0.20106234489E+04  0.50400001928E-02 0.  1.
       -1   -1    0    0    0  501  0.00000000000E+00  0.00000000000E+00 -0.58426379876E+03  0.58426379878E+03  0.50400001928E-02 0. -1.
    10030    2    1    2    0    0  0.00000000000E+00  0.00000000000E+00  0.14263596501E+04  0.25948872477E+04  0.21677033876E+04 0.  0.
        2    1    3    3  502    0 -0.62101487453E+03  0.76171100599E+03  0.12602689550E+04  0.15981680043E+04  0.25500000920E-02 0.  1.
       -2    1    3    3    0  502  0.62101487453E+03 -0.76171100599E+03  0.16609069507E+03  0.99671924333E+03  0.25500000920E-02 0. -1.
</event>
<event>
 5   0  0.4630615E-06  0.2202372E+04  0.7818609E-02  0.8517442E-01
       -1   -1    0    0    0  501  0.00000000000E+00  0.00000000000E+00  0.83941474659E+03  0.83941474661E+03  0.50400001928E-02 0.  1.
        1   -1    0    0  501    0  0.00000000000E+00  0.00000000000E+00 -0.14445903778E+04  0.14445903778E+04  0.50400001928E-02 0. -1.
    10030    2    1    2    0    0  0.00000000000E+00  0.00000000000E+00 -0.60517563121E+03  0.22840051244E+04  0.22023718723E+04 0.  0.
        2    1    3    3  502    0 -0.44278296457E+03  0.40083416745E+03 -0.12620200441E+04  0.13962160919E+04  0.25500000920E-02 0. -1.
       -2    1    3    3    0  502  0.44278296457E+03 -0.40083416745E+03  0.65684441290E+03  0.88778903253E+03  0.25500000920E-02 0.  1.
</event>
<event>
 5   0  0.9963573E-06  0.2200734E+04  0.7818609E-02  0.8518123E-01
        2   -1    0    0  501    0  0.00000000000E+00  0.00000000000E+00  0.24335589884E+04  0.24335589884E+04  0.25500000920E-02 0. -1.
       -2   -1    0    0    0  501  0.00000000000E+00  0.00000000000E+00 -0.49754593243E+03  0.49754593244E+03  0.25500000920E-02 0.  1.
    10030    2    1    2    0    0  0.00000000000E+00  0.00000000000E+00  0.19360130560E+04  0.29311049209E+04  0.22007338558E+04 0.  0.
        2    1    3    3  502    0 -0.77470259859E+03 -0.35220172955E+03  0.38936086016E+02  0.85189564699E+03  0.25500000920E-02 0.  1.
       -2    1    3    3    0  502  0.77470259859E+03  0.35220172955E+03  0.18970769700E+04  0.20792092739E+04  0.25500000920E-02 0. -1.
</event>
<event>
 5   0  0.1035928E-05  0.2201559E+04  0.7818609E-02  0.8517779E-01
        2   -1    0    0  501    0  0.00000000000E+00  0.00000000000E+00  0.20230183079E+04  0.20230183079E+04  0.25500000920E-02 0. -1.
       -2   -1    0    0    0  501  0.00000000000E+00  0.00000000000E+00 -0.59896435988E+03  0.59896435988E+03  0.25500000920E-02 0.  1.
    10030    2    1    2    0    0  0.00000000000E+00  0.00000000000E+00  0.14240539480E+04  0.26219826678E+04  0.22015593254E+04 0.  0.
        3    1    3    3  502    0 -0.26265555332E+03 -0.10629187721E+04  0.57659364581E+03  0.12374346441E+04  0.10100000352E+00 0.  1.
       -3    1    3    3    0  502  0.26265555332E+03  0.10629187721E+04  0.84746030221E+03  0.13845480237E+04  0.10100000352E+00 0. -1.
</event>
<event>
 5   0  0.9963573E-06  0.2205497E+04  0.7818609E-02  0.8516144E-01
        2   -1    0    0  501    0  0.00000000000E+00  0.00000000000E+00  0.18167375014E+04  0.18167375014E+04  0.25500000920E-02 0. -1.
       -2   -1    0    0    0  501  0.00000000000E+00  0.00000000000E+00 -0.66936164759E+03  0.66936164760E+03  0.25500000920E-02 0.  1.
    10030    2    1    2    0    0  0.00000000000E+00  0.00000000000E+00  0.11473758539E+04  0.24860991490E+04  0.22054971387E+04 0.  0.
        2    1    3    3  502    0  0.47003841765E+03  0.83983806633E+02  0.16941694697E+04  0.17601703287E+04  0.25500000920E-02 0. -1.
       -2    1    3    3    0  502 -0.47003841765E+03 -0.83983806633E+02 -0.54679361588E+03  0.72592882035E+03  0.25500000920E-02 0.  1.
</event>
<event>
 5   0  0.1014015E-05  0.2180409E+04  0.7818609E-02  0.8526627E-01
        2   -1    0    0  501    0  0.00000000000E+00  0.00000000000E+00  0.11847103420E+04  0.11847103420E+04  0.25500000920E-02 0.  1.
       -2   -1    0    0    0  501  0.00000000000E+00  0.00000000000E+00 -0.10032378963E+04  0.10032378963E+04  0.25500000920E-02 0. -1.
    10030    2    1    2    0    0  0.00000000000E+00  0.00000000000E+00  0.18147244568E+03  0.21879482383E+04  0.21804094215E+04 0.  0.
        1    1    3    3  502    0  0.10755882850E+04  0.12254009387E+03 -0.38706210717E+02  0.10832379260E+04  0.50400001928E-02 0.  1.
       -1    1    3    3    0  502 -0.10755882850E+04 -0.12254009387E+03  0.22017865640E+03  0.11047103124E+04  0.50400001928E-02 0. -1.
</event>
<event>
 5   0  0.4462201E-06  0.2203546E+04  0.7818609E-02  0.8516954E-01
       -1   -1    0    0    0  501  0.00000000000E+00  0.00000000000E+00  0.10329905180E+04  0.10329905180E+04  0.50400001928E-02 0. -1.
        1   -1    0    0  501    0  0.00000000000E+00  0.00000000000E+00 -0.11751354961E+04  0.11751354961E+04  0.50400001928E-02 0.  1.
    10030    2    1    2    0    0  0.00000000000E+00  0.00000000000E+00 -0.14214497809E+03  0.22081260141E+04  0.22035460738E+04 0.  0.
        3    1    3    3  502    0  0.10606973922E+04 -0.57092008580E+02 -0.36419603648E+03  0.11229324194E+04  0.10100000352E+00 0.  1.
       -3    1    3    3    0  502 -0.10606973922E+04  0.57092008580E+02  0.22205105839E+03  0.10851935947E+04  0.10100000352E+00 0. -1.
</event>
<event>
 5   0  0.1015876E-05  0.2210139E+04  0.7818609E-02  0.8514220E-01
        2   -1    0    0  501    0  0.00000000000E+00  0.00000000000E+00  0.16652172866E+04  0.16652172866E+04  0.25500000920E-02 0. -1.
       -2   -1    0    0    0  501  0.00000000000E+00  0.00000000000E+00 -0.73334521878E+03  0.73334521879E+03  0.25500000920E-02 0.  1.
    10030    2    1    2    0    0  0.00000000000E+00  0.00000000000E+00  0.93187206782E+03  0.23985625054E+04  0.22101394846E+04 0.  0.
        5    1    3    3  502    0  0.49734920326E+03 -0.20390723571E+03 -0.58189482275E+03  0.79218562566E+03  0.46999998093E+01 0.  1.
       -5    1    3    3    0  502 -0.49734920326E+03  0.20390723571E+03  0.15137668906E+04  0.16063768797E+04  0.46999998093E+01 0. -1.
</event>
<event>
 5   0  0.9963173E-06  0.2199918E+04  0.7818609E-02  0.8518462E-01
       -2   -1    0    0    0  501  0.00000000000E+00  0.00000000000E+00  0.43491226240E+03  0.43491226241E+03  0.25500000920E-02 0. -1.
        2   -1    0    0  501    0  0.00000000000E+00  0.00000000000E+00 -0.27819635787E+04  0.27819635787E+04  0.25500000920E-02 0.  1.
    10030    2    1    2    0    0  0.00000000000E+00  0.00000000000E+00 -0.23470513163E+04  0.32168758411E+04  0.21999182475E+04 0.  0.
        4    1    3    3  502    0  0.10256648803E+04  0.31992713668E+03 -0.82883077890E+03  0.13569465326E+04  0.12699999809E+01 0. -1.
       -4    1    3    3    0  502 -0.10256648803E+04 -0.31992713668E+03 -0.15182205374E+04  0.18599293085E+04  0.12699999809E+01 0.  1.
</event>
<event>
 5   0  0.9963573E-06  0.2198975E+04  0.7818609E-02  0.8518855E-01
       -2   -1    0    0    0  501  0.00000000000E+00  0.00000000000E+00  0.67127028101E+03  0.67127028102E+03  0.25500000920E-02 0. -1.
        2   -1    0    0  501    0  0.00000000000E+00  0.00000000000E+00 -0.18008733062E+04  0.18008733062E+04  0.25500000920E-02 0.  1.
    10030    2    1    2    0    0  0.00000000000E+00  0.00000000000E+00 -0.11296030252E+04  0.24721435873E+04  0.21989749706E+04 0.  0.
        2    1    3    3  502    0 -0.51348958637E+03 -0.15730875885E+00 -0.16577898465E+04  0.17354938073E+04  0.25500000920E-02 0.  1.
       -2    1    3    3    0  502  0.51348958637E+03  0.15730875885E+00  0.52818682130E+03  0.73664977992E+03  0.25500000920E-02 0. -1.
</event>
<event>
 5   0  0.4462201E-06  0.2200041E+04  0.7818609E-02  0.8518411E-01
        1   -1    0    0  501    0  0.00000000000E+00  0.00000000000E+00  0.89021201974E+03  0.89021201975E+03  0.50400001928E-02 0.  1.
       -1   -1    0    0    0  501  0.00000000000E+00  0.00000000000E+00 -0.13592778371E+04  0.13592778371E+04  0.50400001928E-02 0. -1.
    10030    2    1    2    0    0  0.00000000000E+00  0.00000000000E+00 -0.46906581737E+03  0.22494898569E+04  0.22000413349E+04 0.  0.
        3    1    3    3  502    0  0.48946509957E+03 -0.98249194495E+03 -0.30811534843E+03  0.11400884105E+04  0.10100000352E+00 0. -1.
       -3    1    3    3    0  502 -0.48946509957E+03  0.98249194495E+03 -0.16095046894E+03  0.11094014464E+04  0.10100000352E+00 0.  1.
</event>
<event>
 5   0  0.4794967E-06  0.2194714E+04  0.7818609E-02  0.8520632E-01
       -1   -1    0    0    0  501  0.00000000000E+00  0.00000000000E+00  0.10762411002E+04  0.10762411002E+04  0.50400001928E-02 0.  1.
        1   -1    0    0  501    0  0.00000000000E+00  0.00000000000E+00 -0.11188867741E+04  0.11188867741E+04  0.50400001928E-02 0. -1.
    10030    2    1    2    0    0  0.00000000000E+00  0.00000000000E+00 -0.42645673910E+02  0.21951278743E+04  0.21947135875E+04 0.  0.
        5    1    3    3  502    0  0.78466489753E+03 -0.70253413172E+03 -0.32946642780E+03  0.11035503725E+04  0.46999998093E+01 0. -1.
       -5    1    3    3    0  502 -0.78466489753E+03  0.70253413172E+03  0.28682075389E+03  0.10915775018E+04  0.46999998093E+01 0.  1.
</event>
<event>
 5   0  0.1014015E-05  0.2195823E+04  0.7818609E-02  0.8520169E-01
        2   -1    0    0  501    0  0.00000000000E+00  0.00000000000E+00  0.91868305646E+03  0.91868305647E+03  0.25500000920E-02 0.  1.
       -2   -1    0    0    0  501  0.00000000000E+00  0.00000000000E+00 -0.13121056074E+04  0.13121056074E+04  0.25500000920E-02 0. -1.
    10030    2    1    2    0    0  0.00000000000E+00  0.00000000000E+00 -0.39342255095E+03  0.22307886639E+04  0.21958225701E+04 0.  0.
        1    1    3    3  502    0  0.32780610489E+02 -0.89428399210E+03  0.44949201598E+03  0.10014297276E+04  0.50400001928E-02 0.  1.
       -1    1    3    3    0  502 -0.32780610489E+02  0.89428399210E+03 -0.84291456694E+03  0.12293589362E+04  0.50400001928E-02 0. -1.
</event>
<event>
 5   0  0.1015876E-05  0.2200304E+04  0.7818609E-02  0.8518302E-01
        2   -1    0    0  501    0  0.00000000000E+00  0.00000000000E+00  0.12723117167E+04  0.12723117168E+04  0.25500000920E-02 0.  1.
       -2   -1    0    0    0  501  0.00000000000E+00  0.00000000000E+00 -0.95128770607E+03  0.95128770607E+03  0.25500000920E-02 0. -1.
    10030    2    1    2    0    0  0.00000000000E+00  0.00000000000E+00  0.32102401068E+03  0.22235994228E+04  0.22003040648E+04 0.  0.
        5    1    3    3  502    0  0.61468842982E+03 -0.91099920211E+03  0.10946991666E+03  0.11044306971E+04  0.46999998093E+01 0. -1.
       -5    1    3    3    0  502 -0.61468842982E+03  0.91099920211E+03  0.21155409402E+03  0.11191687257E+04  0.46999998093E+01 0.  1.
</event>
<event>
 5   0  0.1015876E-05  0.2203460E+04  0.7818609E-02  0.8516989E-01
        2   -1    0    0  501    0  0.00000000000E+00  0.00000000000E+00  0.16707094458E+04  0.16707094458E+04  0.25500000920E-02 0. -1.
       -2   -1    0    0    0  501  0.00000000000E+00  0.00000000000E+00 -0.72652308123E+03  0.72652308123E+03  0.25500000920E-02 0.  1.
    10030    2    1    2    0    0  0.00000000000E+00  0.00000000000E+00  0.94418636461E+03  0.23972325271E+04  0.22034599832E+04 0.  0.
        5    1    3    3  502    0  0.10146600171E+04 -0.42864433004E+03  0.49680577128E+03  0.12083496913E+04  0.46999998093E+01 0.  1.
       -5    1    3    3    0  502 -0.10146600171E+04  0.42864433004E+03  0.44738059333E+03  0.11888828358E+04  0.46999998093E+01 0. -1.
</event>
<event>
 5   0  0.4309945E-06  0.2200872E+04  0.7818609E-02  0.8518065E-01
        1   -1    0    0  501    0  0.00000000000E+00  0.00000000000E+00  0.93787623196E+03  0.93787623197E+03  0.50400001928E-02 0. -1.
       -1   -1    0    0    0  501  0.00000000000E+00  0.00000000000E+00 -0.12911721980E+04  0.12911721980E+04  0.50400001928E-02 0.  1.
    10030    2    1    2    0    0  0.00000000000E+00  0.00000000000E+00 -0.35329596604E+03  0.22290484300E+04  0.22008722961E+04 0.  0.
        4    1    3    3  502    0 -0.88609792074E+03 -0.34222335160E+03 -0.73934304849E+03  0.12037093103E+04  0.12699999809E+01 0.  1.
       -4    1    3    3    0  502  0.88609792074E+03  0.34222335160E+03  0.38604708245E+03  0.10253391197E+04  0.12699999809E+01 0. -1.
</event>
<event>
 5   0  0.4309945E-06  0.2203817E+04  0.7818609E-02  0.8516841E-01
        1   -1    0    0  501    0  0.00000000000E+00  0.00000000000E+00  0.14656589206E+04  0.14656589206E+04  0.50400001928E-02 0. -1.
       -1   -1    0    0    0  501  0.00000000000E+00  0.00000000000E+00 -0.82843475383E+03  0.82843475385E+03  0.50400001928E-02 0.  1.
    10030    2    1    2    0    0  0.00000000000E+00  0.00000000000E+00  0.63722416678E+03  0.22940936745E+04  0.22038174036E+04 0.  0.
        4    1    3    3  502    0 -0.18644350607E+03  0.80796961858E+03  0.10740283140E+04  0.13568767511E+04  0.12699999809E+01 0. -1.
       -4    1    3    3    0  502  0.18644350607E+03 -0.80796961858E+03 -0.43680414723E+03  0.93721692336E+03  0.12699999809E+01 0.  1.
</event>
<event>
 5   0  0.4630615E-06  0.2200918E+04  0.7818609E-02  0.8518046E-01
        1   -1    0    0  501    0  0.00000000000E+00  0.00000000000E+00  0.14016096320E+04  0.14016096320E+04  0.50400001928E-02 0. -1.
       -1   -1    0    0    0  501  0.00000000000E+00  0.00000000000E+00 -0.86401385099E+03  0.86401385100E+03  0.50400001928E-02 0.  1.
    10030    2    1    2    0    0  0.00000000000E+00  0.00000000000E+00  0.53759578100E+03  0.22656234830E+04  0.22009181136E+04 0.  0.
        2    1    3    3  502    0  0.16740925033E+02 -0.87264416423E+03  0.95874274570E+03  0.12965244881E+04  0.25500000920E-02 0. -1.
       -2    1    3    3    0  502 -0.16740925033E+02  0.87264416423E+03 -0.42114696470E+03  0.96909899485E+03  0.25500000920E-02 0.  1.
</event>
<event>
 5   0  0.1014015E-05  0.2204684E+04  0.7818609E-02  0.8516481E-01
        2   -1    0    0  501    0  0.00000000000E+00  0.00000000000E+00  0.13812641391E+04  0.13812641391E+04  0.25500000920E-02 0.  1.
       -2   -1    0    0    0  501  0.00000000000E+00  0.00000000000E+00 -0.87974326392E+03  0.87974326392E+03  0.25500000920E-02 0. -1.
    10030    2    1    2    0    0  0.00000000000E+00  0.00000000000E+00  0.50152087520E+03  0.22610074030E+04  0.22046839430E+04 0.  0.
        1    1    3    3  502    0  0.44011462680E+03  0.95322340272E+03  0.59523146460E+03  0.12069118595E+04  0.50400001928E-02 0.  1.
       -1    1    3    3    0  502 -0.44011462680E+03 -0.95322340272E+03 -0.93710589407E+02  0.10540955435E+04  0.50400001928E-02 0. -1.
</event>
<event>
 5   0  0.1015876E-05  0.2204134E+04  0.7818609E-02  0.8516710E-01
       -2   -1    0    0    0  501  0.00000000000E+00  0.00000000000E+00  0.93837452210E+03  0.93837452211E+03  0.25500000920E-02 0.  1.
        2   -1    0    0  501    0  0.00000000000E+00  0.00000000000E+00 -0.12943138330E+04  0.12943138330E+04  0.25500000920E-02 0. -1.
    10030    2    1    2    0    0  0.00000000000E+00  0.00000000000E+00 -0.35593931091E+03  0.22326883551E+04  0.22041335028E+04 0.  0.
        5    1    3    3  502    0 -0.23846103387E+03 -0.48266507246E+03  0.79610129732E+03  0.96105598299E+03  0.46999998093E+01 0.  1.
       -5    1    3    3    0  502  0.23846103387E+03  0.48266507246E+03 -0.11520406082E+04  0.12716323721E+04  0.46999998093E+01 0. -1.
</event>
<event>
 5   0  0.1035928E-05  0.2196256E+04  0.7818609E-02  0.8519988E-01
        2   -1    0    0  501    0  0.00000000000E+00  0.00000000000E+00  0.15917877948E+04  0.15917877948E+04  0.25500000920E-02 0. -1.
       -2   -1    0    0    0  501  0.00000000000E+00  0.00000000000E+00 -0.75756616055E+03  0.75756616055E+03  0.25500000920E-02 0.  1.
    10030    2    1    2    0    0  0.00000000000E+00  0.00000000000E+00  0.83422163427E+03  0.23493539554E+04  0.21962555117E+04 0.  0.
        3    1    3    3  502    0 -0.20585771899E+03 -0.28540091645E+03 -0.69561957553E+03  0.77956249758E+03  0.10100000352E+00 0.  1.
       -3    1    3    3    0  502  0.20585771899E+03  0.28540091645E+03  0.15298412098E+04  0.15697914578E+04  0.10100000352E+00 0. -1.
</event>
<event>
 5   0  0.4309945E-06  0.2200523E+04  0.7818609E-02  0.8518211E-01
       -1   -1    0    0    0  501  0.00000000000E+00  0.00000000000E+00  0.18919240958E+04  0.18919240958E+04  0.50400001928E-02 0. -1.
        1   -1    0    0  501    0  0.00000000000E+00  0.00000000000E+00 -0.63986447297E+03  0.63986447299E+03  0.50400001928E-02 0.  1.
    10030    2    1    2    0    0  0.00000000000E+00  0.00000000000E+00  0.12520596228E+04  0.25317885688E+04  0.22005226783E+04 0.  0.
        4    1    3    3  502    0 -0.56249465641E+03 -0.53269055747E+03  0.15249348298E+04  0.17104348326E+04  0.12699999809E+01 0. -1.
       -4    1    3    3    0  502  0.56249465641E+03  0.53269055747E+03 -0.27287520697E+03  0.82135373621E+03  0.12699999809E+01 0.  1.
</event>
<event>
 5   0  0.1014015E-05  0.2198731E+04  0.7818609E-02  0.8518956E-01
       -2   -1    0    0    0  501  0.00000000000E+00  0.00000000000E+00  0.46665395807E+03  0.46665395807E+03  0.25500000920E-02 0. -1.
        2   -1    0    0  501    0  0.00000000000E+00  0.00000000000E+00 -0.25899376140E+04  0.25899376140E+04  0.25500000920E-02 0.  1.
    10030    2    1    2    0    0  0.00000000000E+00  0.00000000000E+00 -0.21232836560E+04  0.30565915721E+04  0.21987311239E+04 0.  0.
        1    1    3    3  502    0  0.18283295226E+03  0.70955780519E+03 -0.22009846141E+04  0.23197485724E+04  0.50400001928E-02 0.  1.
       -1    1    3    3    0  502 -0.18283295226E+03 -0.70955780519E+03  0.77700958163E+02  0.73684299974E+03  0.50400001928E-02 0. -1.
</event>
<event>
 5   0  0.4309945E-06  0.2181851E+04  0.7818609E-02  0.8526020E-01
       -1   -1    0    0    0  501  0.00000000000E+00  0.00000000000E+00  0.17654377680E+04  0.17654377680E+04  0.50400001928E-02 0.  1.
        1   -1    0    0  501    0  0.00000000000E+00  0.00000000000E+00 -0.67412070025E+03  0.67412070027E+03  0.50400001928E-02 0. -1.
    10030    2    1    2    0    0  0.00000000000E+00  0.00000000000E+00  0.10913170677E+04  0.24395584683E+04  0.21818507231E+04 0.  0.
        4    1    3    3  502    0 -0.80456229270E+03 -0.44055921595E+03  0.12059176847E+04  0.15151409112E+04  0.12699999809E+01 0.  1.
       -4    1    3    3    0  502  0.80456229270E+03  0.44055921595E+03 -0.11460061692E+03  0.92441755711E+03  0.12699999809E+01 0. -1.
</event>
<event>
 5   0  0.1035928E-05  0.2197310E+04  0.7818609E-02  0.8519549E-01
        2   -1    0    0  501    0  0.00000000000E+00  0.00000000000E+00  0.15239505585E+04  0.15239505585E+04  0.25500000920E-02 0. -1.
       -2   -1    0    0    0  501  0.00000000000E+00  0.00000000000E+00 -0.79204850571E+03  0.79204850571E+03  0.25500000920E-02 0.  1.
    10030    2    1    2    0    0  0.00000000000E+00  0.00000000000E+00  0.73190205279E+03  0.23159990642E+04  0.21973099578E+04 0.  0.
        3    1    3    3  502    0 -0.47282792819E+03 -0.95891437999E+03  0.99387752117E+02  0.10737602029E+04  0.10100000352E+00 0.  1.
       -3    1    3    3    0  502  0.47282792819E+03  0.95891437999E+03  0.63251430067E+03  0.12422388613E+04  0.10100000352E+00 0. -1.
</event>
<event>
 5   0  0.9963173E-06  0.2198785E+04  0.7818609E-02  0.8518934E-01
       -2   -1    0    0    0  501  0.00000000000E+00  0.00000000000E+00  0.14254772110E+04  0.14254772110E+04  0.25500000920E-02 0. -1.
        2   -1    0    0  501    0  0.00000000000E+00  0.00000000000E+00 -0.84790130438E+03  0.84790130438E+03  0.25500000920E-02 0.  1.
    10030    2    1    2    0    0  0.00000000000E+00  0.00000000000E+00  0.57757590665E+03  0.22733785154E+04  0.21987851069E+04 0.  0.
        4    1    3    3  502    0 -0.21067212750E+03 -0.69530711020E+02  0.14020927009E+04  0.14195361284E+04  0.12699999809E+01 0. -1.
       -4    1    3    3    0  502  0.21067212750E+03  0.69530711020E+02 -0.82451679420E+03  0.85384238704E+03  0.12699999809E+01 0.  1.
</event>
<event>
 5   0  0.4408787E-06  0.2199264E+04  0.7818609E-02  0.8518735E-01
       -1   -1    0    0    0  501  0.00000000000E+00  0.00000000000E+00  0.46137187321E+03  0.46137187324E+03  0.50400001928E-02 0.  1.
        1   -1    0    0  501    0  0.00000000000E+00  0.00000000000E+00 -0.26208580284E+04  0.26208580284E+04  0.50400001928E-02 0. -1.
    10030    2    1    2    0    0  0.00000000000E+00  0.00000000000E+00 -0.21594861552E+04  0.30822299016E+04  0.21992636750E+04 0.  0.
        1    1    3    3  502    0 -0.48663217240E+03  0.98604503866E+03 -0.10933662182E+04  0.15506596585E+04  0.50400001928E-02 0. -1.
       -1    1    3    3    0  502  0.48663217240E+03 -0.98604503866E+03 -0.10661199370E+04  0.15315702431E+04  0.50400001928E-02 0.  1.
</event>
<event>
 5   0  0.1014015E-05  0.2192702E+04  0.7818609E-02  0.8521472E-01
        2   -1    0    0  501    0  0.00000000000E+00  0.00000000000E+00  0.67432798071E+03  0.67432798072E+03  0.25500000920E-02 0.  1.
       -2   -1    0    0    0  501  0.00000000000E+00  0.00000000000E+00 -0.17824941088E+04  0.17824941088E+04  0.25500000920E-02 0. -1.
    10030    2    1    2    0    0  0.00000000000E+00  0.00000000000E+00 -0.11081661281E+04  0.24568220895E+04  0.21927021257E+04 0.  0.
        1    1    3    3  502    0 -0.20033391964E+03 -0.25905544929E+03 -0.17264134180E+04  0.17571985360E+04  0.50400001928E-02 0. -1.
       -1    1    3    3    0  502  0.20033391964E+03  0.25905544929E+03  0.61824728988E+03  0.69962355352E+03  0.50400001928E-02 0.  1.
</event>
<event>
 5   0  0.4794967E-06  0.2202557E+04  0.7818609E-02  0.8517365E-01
       -1   -1    0    0    0  501  0.00000000000E+00  0.00000000000E+00  0.10400711234E+04  0.10400711234E+04  0.50400001928E-02 0.  1.
        1   -1    0    0  501    0  0.00000000000E+00  0.00000000000E+00 -0.11660880606E+04  0.11660880606E+04  0.50400001928E-02 0. -1.
    10030    2    1    2    0    0  0.00000000000E+00  0.00000000000E+00 -0.12601693719E+03  0.22061591841E+04  0.22025571677E+04 0.  0.
        5    1    3    3  502    0 -0.42591701797E+03 -0.84786586319E+03  0.49693222793E+03  0.10710954940E+04  0.46999998093E+01 0.  1.
       -5    1    3    3    0  502  0.42591701797E+03  0.84786586319E+03 -0.62294916513E+03  0.11350636901E+04  0.46999998093E+01 0. -1.
</event>
<event>
 5   0  0.4794967E-06  0.2200063E+04  0.7818609E-02  0.8518402E-01
        1   -1    0    0  501    0  0.00000000000E+00  0.00000000000E+00  0.50823169725E+03  0.50823169728E+03  0.50400001928E-02 0.  1.
       -1   -1    0    0    0  501  0.00000000000E+00  0.00000000000E+00 -0.23809394862E+04  0.23809394862E+04  0.50400001928E-02 0. -1.
    10030    2    1    2    0    0  0.00000000000E+00  0.00000000000E+00 -0.18727077890E+04  0.28891711835E+04  0.22000626502E+04 0.  0.
        5    1    3    3  502    0 -0.80630913405E+03  0.74273551279E+03 -0.81702856093E+03  0.13672410983E+04  0.46999998093E+01 0.  1.
       -5    1    3    3    0  502  0.80630913405E+03 -0.74273551279E+03 -0.10556792280E+04  0.15219300852E+04  0.46999998093E+01 0. -1.
</event>
<event>
 5   0  0.4309945E-06  0.2205801E+04  0.7818609E-02  0.8516017E-01
        1   -1    0    0  501    0  0.00000000000E+00  0.00000000000E+00  0.12486253417E+04  0.12486253417E+04  0.50400001928E-02 0. -1.
       -1   -1    0    0    0  501  0.00000000000E+00  0.00000000000E+00 -0.97418325423E+03  0.97418325425E+03  0.50400001928E-02 0.  1.
    10030    2    1    2    0    0  0.00000000000E+00  0.00000000000E+00  0.27444208743E+03  0.22228085959E+04  0.22058013498E+04 0.  0.
        4    1    3    3  502    0 -0.24327559617E+03  0.87905487951E+03 -0.48761438935E+03  0.10342581411E+04  0.12699999809E+01 0.  1.
       -4    1    3    3    0  502  0.24327559617E+03 -0.87905487951E+03  0.76205647678E+03  0.11885504548E+04  0.12699999809E+01 0. -1.
</event>
<event>
 5   0  0.4462201E-06  0.2197264E+04  0.7818609E-02  0.8519568E-01
        1   -1    0    0  501    0  0.00000000000E+00  0.00000000000E+00  0.19383127162E+04  0.19383127162E+04  0.50400001928E-02 0.  1.
       -1   -1    0    0    0  501  0.00000000000E+00  0.00000000000E+00 -0.62270232010E+03  0.62270232012E+03  0.50400001928E-02 0. -1.
    10030    2    1    2    0    0  0.00000000000E+00  0.00000000000E+00  0.13156103961E+04  0.25610150364E+04  0.21972635941E+04 0.  0.
        3    1    3    3  502    0 -0.39197410615E+03  0.70058783628E+03  0.15319850746E+04  0.17295795140E+04  0.10100000352E+00 0.  1.
       -3    1    3    3    0  502  0.39197410615E+03 -0.70058783628E+03 -0.21637467843E+03  0.83143552240E+03  0.10100000352E+00 0. -1.
</event>
<event>
 5   0  0.4462201E-06  0.2200895E+04  0.7818609E-02  0.8518056E-01
       -1   -1    0    0    0  501  0.00000000000E+00  0.00000000000E+00  0.88298616566E+03  0.88298616568E+03  0.50400001928E-02 0. -1.
        1   -1    0    0  501    0  0.00000000000E+00  0.00000000000E+00 -0.13714646490E+04  0.13714646490E+04  0.50400001928E-02 0.  1.
    10030    2    1    2    0    0  0.00000000000E+00  0.00000000000E+00 -0.48847848333E+03  0.22544508147E+04  0.22008946470E+04 0.  0.
        3    1    3    3  502    0  0.56086522907E+02 -0.10343239164E+03  0.87652442673E+03  0.88438624964E+03  0.10100000352E+00 0. -1.
       -3    1    3    3    0  502 -0.56086522907E+02  0.10343239164E+03 -0.13650029101E+04  0.13700645650E+04  0.10100000352E+00 0.  1.
</event>
<event>
 5   0  0.4309945E-06  0.2201371E+04  0.7818609E-02  0.8517858E-01
        1   -1    0    0  501    0  0.00000000000E+00  0.00000000000E+00  0.21266752157E+04  0.21266752157E+04  0.50400001928E-02 0.  1.
       -1   -1    0    0    0  501  0.00000000000E+00  0.00000000000E+00 -0.56967260703E+03  0.56967260705E+03  0.50400001928E-02 0. -1.
    10030    2    1    2    0    0  0.00000000000E+00  0.00000000000E+00  0.15570026087E+04  0.26963478227E+04  0.22013710405E+04 0.  0.
        4    1    3    3  502    0  0.10135805900E+04  0.13627380759E+03  0.28007515608E+03  0.10603583682E+04  0.12699999809E+01 0. -1.
       -4    1    3    3    0  502 -0.10135805900E+04 -0.13627380759E+03  0.12769274526E+04  0.16359894545E+04  0.12699999809E+01 0.  1.
</event>
<event>
 5   0  0.4462201E-06  0.2206764E+04  0.7818609E-02  0.8515618E-01
        1   -1    0    0  501    0  0.00000000000E+00  0.00000000000E+00  0.80194834381E+03  0.80194834382E+03  0.50400001928E-02 0. -1.
       -1   -1    0    0    0  501  0.00000000000E+00  0.00000000000E+00 -0.15181179890E+04  0.15181179890E+04  0.50400001928E-02 0.  1.
    10030    2    1    2    0    0  0.00000000000E+00  0.00000000000E+00 -0.71616964520E+03  0.23200663328E+04  0.22067643345E+04 0.  0.
        3    1    3    3  502    0  0.10560681649E+04 -0.29672178880E+02 -0.69268916129E+03  0.12633205023E+04  0.10100000352E+00 0.  1.
       -3    1    3    3    0  502 -0.10560681649E+04  0.29672178880E+02 -0.23480483913E+02  0.10567458306E+04  0.10100000352E+00 0. -1.
</event>
<event>
 5   0  0.4408787E-06  0.2201258E+04  0.7818609E-02  0.8517905E-01
        1   -1    0    0  501    0  0.00000000000E+00  0.00000000000E+00  0.96897336802E+03  0.96897336803E+03  0.50400001928E-02 0.  1.
       -1   -1    0    0    0  501  0.00000000000E+00  0.00000000000E+00 -0.12501732778E+04  0.12501732779E+04  0.50400001928E-02 0. -1.
    10030    2    1    2    0    0  0.00000000000E+00  0.00000000000E+00 -0.28119990982E+03  0.22191466459E+04  0.22012583780E+04 0.  0.
        1    1    3    3  502    0  0.83066220709E+03  0.69826994702E+03 -0.32595267571E+03  0.11330603550E+04  0.50400001928E-02 0. -1.
       -1    1    3    3    0  502 -0.83066220709E+03 -0.69826994702E+03  0.44752765889E+02  0.10860862909E+04  0.50400001928E-02 0.  1.
</event>
<event>
 5   0  0.4794967E-06  0.2199406E+04  0.7818609E-02  0.8518675E-01
        1   -1    0    0  501    0  0.00000000000E+00  0.00000000000E+00  0.11131018895E+04  0.11131018895E+04  0.50400001928E-02 0.  1.
       -1   -1    0    0    0  501  0.00000000000E+00  0.00000000000E+00 -0.10864657445E+04  0.10864657445E+04  0.50400001928E-02 0. -1.
    10030    2    1    2    0    0  0.00000000000E+00  0.00000000000E+00  0.26636144945E+02  0.21995676340E+04  0.21994063500E+04 0.  0.
        5    1    3    3  502    0 -0.72466467029E+01 -0.62820820148E+03 -0.88931496676E+03  0.10888531850E+04  0.46999998093E+01 0. -1.
       -5    1    3    3    0  502  0.72466467029E+01  0.62820820148E+03  0.91595111170E+03  0.11107144490E+04  0.46999998093E+01 0.  1.
</event>
<event>
 5   0  0.1035928E-05  0.2201544E+04  0.7818609E-02  0.8517786E-01
        2   -1    0    0  501    0  0.00000000000E+00  0.00000000000E+00  0.19434919968E+04  0.19434919968E+04  0.25500000920E-02 0. -1.
       -2   -1    0    0    0  501  0.00000000000E+00  0.00000000000E+00 -0.62346502741E+03  0.62346502742E+03  0.25500000920E-02 0.  1.
    10030    2    1    2    0    0  0.00000000000E+00  0.00000000000E+00  0.13200269694E+04  0.25669570242E+04  0.22015442681E+04 0.  0.
        3    1    3    3  502    0 -0.76954793125E+03  0.75943692071E+03  0.41893223747E+03  0.11595053621E+04  0.10100000352E+00 0.  1.
       -3    1    3    3    0  502  0.76954793125E+03 -0.75943692071E+03  0.90109473195E+03  0.14074516621E+04  0.10100000352E+00 0. -1.
</event>
<event>
 5   0  0.9963573E-06  0.2197400E+04  0.7818609E-02  0.8519511E-01
        2   -1    0    0  501    0  0.00000000000E+00  0.00000000000E+00  0.13407709275E+04  0.13407709275E+04  0.25500000920E-02 0.  1.
       -2   -1    0    0    0  501  0.00000000000E+00  0.00000000000E+00 -0.90033397610E+03  0.90033397611E+03  0.25500000920E-02 0. -1.
    10030    2    1    2    0    0  0.00000000000E+00  0.00000000000E+00  0.44043695139E+03  0.22411049036E+04  0.21973999365E+04 0.  0.
        2    1    3    3  502    0  0.10510193815E+04 -0.32846384077E+02  0.54501921671E+03  0.11843844696E+04  0.25500000920E-02 0.  1.
       -2    1    3    3    0  502 -0.10510193815E+04  0.32846384077E+02 -0.10458226532E+03  0.10567204340E+04  0.25500000920E-02 0. -1.
</event>
<event>
 5   0  0.4794967E-06  0.2200787E+04  0.7818609E-02  0.8518101E-01
        1   -1    0    0  501    0  0.00000000000E+00  0.00000000000E+00  0.24220900353E+04  0.24220900353E+04  0.50400001928E-02 0.  1.
       -1   -1    0    0    0  501  0.00000000000E+00  0.00000000000E+00 -0.49992597020E+03  0.49992597022E+03  0.50400001928E-02 0. -1.
    10030    2    1    2    0    0  0.00000000000E+00  0.00000000000E+00  0.19221640651E+04  0.29220160055E+04  0.22007868691E+04 0.  0.
        5    1    3    3  502    0  0.88951329578E+03  0.37394944951E+03  0.25880840343E+03  0.99903752374E+03  0.46999998093E+01 0.  1.
       -5    1    3    3    0  502 -0.88951329578E+03 -0.37394944951E+03  0.16633556616E+04  0.19229784817E+04  0.46999998093E+01 0. -1.
</event>
<event>
 5   0  0.1035928E-05  0.2201911E+04  0.7818609E-02  0.8517633E-01
       -2   -1    0    0    0  501  0.00000000000E+00  0.00000000000E+00  0.73644179148E+03  0.73644179149E+03  0.25500000920E-02 0. -1.
        2   -1    0    0  501    0  0.00000000000E+00  0.00000000000E+00 -0.16458913701E+04  0.16458913701E+04  0.25500000920E-02 0.  1.
    10030    2    1    2    0    0  0.00000000000E+00  0.00000000000E+00 -0.90944957862E+03  0.23823331616E+04  0.22019111601E+04 0.  0.
        3    1    3    3  502    0 -0.86963813542E+03 -0.65631051197E+02 -0.11817403861E+04  0.14687029216E+04  0.10100000352E+00 0.  1.
       -3    1    3    3    0  502  0.86963813542E+03  0.65631051197E+02  0.27229080748E+03  0.91363024003E+03  0.10100000352E+00 0. -1.
</event>
<event>
 5   0  0.1014015E-05  0.2195028E+04  0.7818609E-02  0.8520500E-01
       -2   -1    0    0    0  501  0.00000000000E+00  0.00000000000E+00  0.20768721043E+04  0.20768721043E+04  0.25500000920E-02 0. -1.
        2   -1    0    0  501    0  0.00000000000E+00  0.00000000000E+00 -0.57997644944E+03  0.57997644945E+03  0.25500000920E-02 0.  1.
    10030    2    1    2    0    0  0.00000000000E+00  0.00000000000E+00  0.14968956549E+04  0.26568485537E+04  0.21950279351E+04 0.  0.
        1    1    3    3  502    0 -0.24301323424E+02  0.10968084568E+04  0.71099275855E+03  0.13073217079E+04  0.50400001928E-02 0. -1.
       -1    1    3    3    0  502  0.24301323424E+02 -0.10968084568E+04  0.78590289631E+03  0.13495268458E+04  0.50400001928E-02 0.  1.
</event>
<event>
 5   0  0.9963173E-06  0.2198123E+04  0.7818609E-02  0.8519210E-01
       -2   -1    0    0    0  501  0.00000000000E+00  0.00000000000E+00  0.95721961966E+03  0.95721961966E+03  0.25500000920E-02 0.  1.
        2   -1    0    0  501    0  0.00000000000E+00  0.00000000000E+00 -0.12619213483E+04  0.12619213483E+04  0.25500000920E-02 0. -1.
    10030    2    1    2    0    0  0.00000000000E+00  0.00000000000E+00 -0.30470172869E+03  0.22191409680E+04  0.21981227201E+04 0.  0.
        4    1    3    3  502    0  0.82465950218E+03  0.70477074662E+03 -0.33058689742E+03  0.11340433896E+04  0.12699999809E+01 0.  1.
       -4    1    3    3    0  502 -0.82465950218E+03 -0.70477074662E+03  0.25885168736E+02  0.10850975784E+04  0.12699999809E+01 0. -1.
</event>
<event>
 5   0  0.9963573E-06  0.2201212E+04  0.7818609E-02  0.8517924E-01
       -2   -1    0    0    0  501  0.00000000000E+00  0.00000000000E+00  0.11791128655E+04  0.11791128655E+04  0.25500000920E-02 0. -1.
        2   -1    0    0  501    0  0.00000000000E+00  0.00000000000E+00 -0.10273258624E+04  0.10273258624E+04  0.25500000920E-02 0.  1.
    10030    2    1    2    0    0  0.00000000000E+00  0.00000000000E+00  0.15178700308E+03  0.22064387280E+04  0.22012116132E+04 0.  0.
        2    1    3    3  502    0  0.86588682865E+03 -0.65456281202E+03 -0.10652950568E+03  0.10906699824E+04  0.25500000920E-02 0.  1.
       -2    1    3    3    0  502 -0.86588682865E+03  0.65456281202E+03  0.25831650876E+03  0.11157687456E+04  0.25500000920E-02 0. -1.
</event>
<event>
 5   0  0.4794967E-06  0.2198664E+04  0.7818609E-02  0.8518984E-01
        1   -1    0    0  501    0  0.00000000000E+00  0.00000000000E+00  0.75163502743E+03  0.75163502745E+03  0.50400001928E-02 0.  1.
       -1   -1    0    0    0  501  0.00000000000E+00  0.00000000000E+00 -0.16078694321E+04  0.16078694321E+04  0.50400001928E-02 0. -1.
    10030    2    1    2    0    0  0.00000000000E+00  0.00000000000E+00 -0.85623440467E+03  0.23595044596E+04  0.21986641260E+04 0.  0.
        5    1    3    3  502    0  0.65054593076E+03 -0.56802057798E+03  0.30182572340E+03  0.91486514982E+03  0.46999998093E+01 0.  1.
       -5    1    3    3    0  502 -0.65054593076E+03  0.56802057798E+03 -0.11580601281E+04  0.14446393097E+04  0.46999998093E+01 0. -1.
</event>
<event>
 5   0  0.9963573E-06  0.2198896E+04  0.7818609E-02  0.8518888E-01
        2   -1    0    0  501    0  0.00000000000E+00  0.00000000000E+00  0.18156348277E+04  0.18156348277E+04  0.25500000920E-02 0.  1.
       -2   -1    0    0    0  501  0.00000000000E+00  0.00000000000E+00 -0.66576495320E+03  0.66576495320E+03  0.25500000920E-02 0. -1.
    10030    2    1    2    0    0  0.00000000000E+00  0.00000000000E+00  0.11498698745E+04  0.24813997809E+04  0.21988961195E+04 0.  0.
        2    1    3    3  502    0 -0.38463458344E+03 -0.25997625866E+03 -0.54972784411E+03  0.71953604527E+03  0.25500000920E-02 0. -1.
       -2    1    3    3    0  502  0.38463458344E+03  0.25997625866E+03  0.16995977186E+04  0.17618637357E+04  0.25500000920E-02 0.  1.
</event>
<event>
 5   0  0.4794967E-06  0.2197702E+04  0.7818609E-02  0.8519385E-01
        1   -1    0    0  501    0  0.00000000000E+00  0.00000000000E+00  0.91615052989E+03  0.91615052990E+03  0.50400001928E-02 0. -1.
       -1   -1    0    0    0  501  0.00000000000E+00  0.00000000000E+00 -0.13179860942E+04  0.13179860942E+04  0.50400001928E-02 0.  1.
    10030    2    1    2    0    0  0.00000000000E+00  0.00000000000E+00 -0.40183556431E+03  0.22341366241E+04  0.21977021260E+04 0.  0.
        5    1    3    3  502    0  0.38966321379E+03  0.81482823108E+03 -0.83712787720E+03  0.12314981279E+04  0.46999998093E+01 0.  1.
       -5    1    3    3    0  502 -0.38966321379E+03 -0.81482823108E+03  0.43529231289E+03  0.10026384962E+04  0.46999998093E+01 0. -1.
</event>
<event>
 5   0  0.4309945E-06  0.2197187E+04  0.7818609E-02  0.8519600E-01
       -1   -1    0    0    0  501  0.00000000000E+00  0.00000000000E+00  0.12105886459E+04  0.12105886459E+04  0.50400001928E-02 0.  1.
        1   -1    0    0  501    0  0.00000000000E+00  0.00000000000E+00 -0.99695922855E+03  0.99695922856E+03  0.50400001928E-02 0. -1.
    10030    2    1    2    0    0  0.00000000000E+00  0.00000000000E+00  0.21362941733E+03  0.22075478745E+04  0.21971868583E+04 0.  0.
        4    1    3    3  502    0 -0.11017576637E+03 -0.68055786420E+02  0.12028924662E+04  0.12098438691E+04  0.12699999809E+01 0.  1.
       -4    1    3    3    0  502  0.11017576637E+03  0.68055786420E+02 -0.98926304884E+03  0.99770400534E+03  0.12699999809E+01 0. -1.
</event>
<event>
 5   0  0.4630615E-06  0.2204496E+04  0.7818609E-02  0.8516559E-01
        1   -1    0    0  501    0  0.00000000000E+00  0.00000000000E+00  0.11801976173E+04  0.11801976173E+04  0.50400001928E-02 0. -1.
       -1   -1    0    0    0  501  0.00000000000E+00  0.00000000000E+00 -0.10294465024E+04  0.10294465024E+04  0.50400001928E-02 0.  1.
    10030    2    1    2    0    0  0.00000000000E+00  0.00000000000E+00  0.15075111483E+03  0.22096441197E+04  0.22044956877E+04 0.  0.
        2    1    3    3  502    0 -0.33635512698E+03  0.25237279654E+03  0.10966385444E+04  0.11744968697E+04  0.25500000920E-02 0. -1.
       -2    1    3    3    0  502  0.33635512698E+03 -0.25237279654E+03 -0.94588742955E+03  0.10351472500E+04  0.25500000920E-02 0.  1.
</event>
<event>
 5   0  0.4309945E-06  0.2204500E+04  0.7818609E-02  0.8516557E-01
        1   -1    0    0  501    0  0.00000000000E+00  0.00000000000E+00  0.15159088340E+04  0.15159088340E+04  0.50400001928E-02 0. -1.
       -1   -1    0    0    0  501  0.00000000000E+00  0.00000000000E+00 -0.80146994207E+03  0.80146994208E+03  0.50400001928E-02 0.  1.
    10030    2    1    2    0    0  0.00000000000E+00  0.00000000000E+00  0.71443889196E+03  0.23173787761E+04  0.22045002748E+04 0.  0.
        4    1    3    3  502    0 -0.94664652037E+03  0.12989090216E+03  0.93484842161E+03  0.13367701617E+04  0.12699999809E+01 0. -1.
       -4    1    3    3    0  502  0.94664652037E+03 -0.12989090216E+03 -0.22040952964E+03  0.98060861440E+03  0.12699999809E+01 0.  1.
</event>
<event>
 5   0  0.1014015E-05  0.2204539E+04  0.7818609E-02  0.8516541E-01
        2   -1    0    0  501    0  0.00000000000E+00  0.00000000000E+00  0.11369166134E+04  0.11369166134E+04  0.25500000920E-02 0. -1.
       -2   -1    0    0    0  501  0.00000000000E+00  0.00000000000E+00 -0.10686784293E+04  0.10686784293E+04  0.25500000920E-02 0.  1.
    10030    2    1    2    0    0  0.00000000000E+00  0.00000000000E+00  0.68238184121E+02  0.22055950428E+04  0.22045391906E+04 0.  0.
        1    1    3    3  502    0 -0.48641397588E+03  0.36212196831E+03 -0.88679304679E+03  0.10743057217E+04  0.50400001928E-02 0.  1.
       -1    1    3    3    0  502  0.48641397588E+03 -0.36212196831E+03  0.95503123091E+03  0.11312893210E+04  0.50400001928E-02 0. -1.
</event>
<event>
 5   0  0.9963173E-06  0.2201885E+04  0.7818609E-02  0.8517644E-01
        2   -1    0    0  501    0  0.00000000000E+00  0.00000000000E+00  0.15128245797E+04  0.15128245797E+04  0.25500000920E-02 0. -1.
       -2   -1    0    0    0  501  0.00000000000E+00  0.00000000000E+00 -0.80119961128E+03  0.80119961128E+03  0.25500000920E-02 0.  1.
    10030    2    1    2    0    0  0.00000000000E+00  0.00000000000E+00  0.71162496844E+03  0.23140241910E+04  0.22018850699E+04 0.  0.
        4    1    3    3  502    0 -0.60959503262E+03 -0.63063641249E+03 -0.34348123354E+03  0.94196038093E+03  0.12699999809E+01 0.  1.
       -4    1    3    3    0  502  0.60959503262E+03  0.63063641249E+03  0.10551062020E+04  0.13720638101E+04  0.12699999809E+01 0. -1.
</event>
<event>
 5   0  0.4462201E-06  0.2198333E+04  0.7818609E-02  0.8519122E-01
        1   -1    0    0  501    0  0.00000000000E+00  0.00000000000E+00  0.12400266649E+04  0.12400266649E+04  0.50400001928E-02 0. -1.
       -1   -1    0    0    0  501  0.00000000000E+00  0.00000000000E+00 -0.97430690875E+03  0.97430690876E+03  0.50400001928E-02 0.  1.
    10030    2    1    2    0    0  0.00000000000E+00  0.00000000000E+00  0.26571975617E+03  0.22143335737E+04  0.21983325924E+04 0.  0.
        3    1    3    3  502    0 -0.52211105693E+02  0.10823403391E+04  0.31853805714E+03  0.11294481455E+04  0.10100000352E+00 0.  1.
       -3    1    3    3    0  502  0.52211105693E+02 -0.10823403391E+04 -0.52818300979E+02  0.10848854282E+04  0.10100000352E+00 0. -1.
</event>
<event>
 5   0  0.1035928E-05  0.2200257E+04  0.7818609E-02  0.8518321E-01
       -2   -1    0    0    0  501  0.00000000000E+00  0.00000000000E+00  0.71753134761E+03  0.71753134761E+03  0.25500000920E-02 0. -1.
        2   -1    0    0  501    0  0.00000000000E+00  0.00000000000E+00 -0.16867307833E+04  0.16867307833E+04  0.25500000920E-02 0.  1.
    10030    2    1    2    0    0  0.00000000000E+00  0.00000000000E+00 -0.96919943568E+03  0.24042621309E+04  0.22002565414E+04 0.  0.
        3    1    3    3  502    0 -0.57126304772E+03 -0.50912962349E+03  0.37908233847E+03  0.85396596697E+03  0.10100000352E+00 0. -1.
       -3    1    3    3    0  502  0.57126304772E+03  0.50912962349E+03 -0.13482817741E+04  0.15502961639E+04  0.10100000352E+00 0.  1.
</event>
<event>
 5   0  0.4462201E-06  0.2200767E+04  0.7818609E-02  0.8518109E-01
        1   -1    0    0  501    0  0.00000000000E+00  0.00000000000E+00  0.79093602045E+03  0.79093602046E+03  0.50400001928E-02 0. -1.
       -1   -1    0    0    0  501  0.00000000000E+00  0.00000000000E+00 -0.15308998561E+04  0.15308998561E+04  0.50400001928E-02 0.  1.
    10030    2    1    2    0    0  0.00000000000E+00  0.00000000000E+00 -0.73996383566E+03  0.23218358766E+04  0.22007669935E+04 0.  0.
        3    1    3    3  502    0 -0.99734972490E+03  0.35803102253E+03 -0.57101633830E+02  0.10612037003E+04  0.10100000352E+00 0. -1.
       -3    1    3    3    0  502  0.99734972490E+03 -0.35803102253E+03 -0.68286220183E+03  0.12606321762E+04  0.10100000352E+00 0.  1.
</event>
<event>
 5   0  0.4630615E-06  0.2241700E+04  0.7818609E-02  0.8501269E-01
        1   -1    0    0  501    0  0.00000000000E+00  0.00000000000E+00  0.14201266450E+04  0.14201266450E+04  0.50400001928E-02 0. -1.
       -1   -1    0    0    0  501  0.00000000000E+00  0.00000000000E+00 -0.88464282343E+03  0.88464282345E+03  0.50400001928E-02 0.  1.
    10030    2    1    2    0    0  0.00000000000E+00  0.00000000000E+00  0.53548382158E+03  0.23047694685E+04  0.22417001092E+04 0.  0.
        2    1    3    3  502    0  0.51795220118E+03 -0.39898975994E+03 -0.66827713146E+03  0.93491263532E+03  0.25500000920E-02 0.  1.
       -2    1    3    3    0  502 -0.51795220118E+03  0.39898975994E+03  0.12037609530E+04  0.13698568331E+04  0.25500000920E-02 0. -1.
</event>
<event>
 5   0  0.9963573E-06  0.2200334E+04  0.7818609E-02  0.8518289E-01
        2   -1    0    0  501    0  0.00000000000E+00  0.00000000000E+00  0.83061284212E+03  0.83061284212E+03  0.25500000920E-02 0. -1.
       -2   -1    0    0    0  501  0.00000000000E+00  0.00000000000E+00 -0.14571985266E+04  0.14571985266E+04  0.25500000920E-02 0.  1.
    10030    2    1    2    0    0  0.00000000000E+00  0.00000000000E+00 -0.62658568444E+03  0.22878113687E+04  0.22003343470E+04 0.  0.
        2    1    3    3  502    0  0.75445910995E+03  0.11826912132E+03 -0.11367191800E+04  0.13694256562E+04  0.25500000920E-02 0.  1.
       -2    1    3    3    0  502 -0.75445910995E+03 -0.11826912132E+03  0.51013349555E+03  0.91838571250E+03  0.25500000920E-02 0. -1.
</event>
<event>
 5   0  0.4794967E-06  0.2197999E+04  0.7818609E-02  0.8519262E-01
       -1   -1    0    0    0  501  0.00000000000E+00  0.00000000000E+00  0.70090995742E+03  0.70090995744E+03  0.50400001928E-02 0.  1.
        1   -1    0    0  501    0  0.00000000000E+00  0.00000000000E+00 -0.17231876144E+04  0.17231876144E+04  0.50400001928E-02 0. -1.
    10030    2    1    2    0    0  0.00000000000E+00  0.00000000000E+00 -0.10222776570E+04  0.24240975719E+04  0.21979985054E+04 0.  0.
        5    1    3    3  502    0  0.30857698426E+03 -0.69676753012E+03  0.36219762623E+03  0.84374993729E+03  0.46999998093E+01 0.  1.
       -5    1    3    3    0  502 -0.30857698426E+03  0.69676753012E+03 -0.13844752832E+04  0.15803476346E+04  0.46999998093E+01 0. -1.
</event>
<event>
 5   0  0.4408787E-06  0.2198327E+04  0.7818609E-02  0.8519125E-01
       -1   -1    0    0    0  501  0.00000000000E+00  0.00000000000E+00  0.57273213030E+03  0.57273213032E+03  0.50400001928E-02 0.  1.
        1   -1    0    0  501    0  0.00000000000E+00  0.00000000000E+00 -0.21094681563E+04  0.21094681563E+04  0.50400001928E-02 0. -1.
    10030    2    1    2    0    0  0.00000000000E+00  0.00000000000E+00 -0.15367360260E+04  0.26822002866E+04  0.21983268101E+04 0.  0.
        1    1    3    3  502    0 -0.43501434595E+03 -0.85506896429E+03 -0.11383872685E+03  0.96609506293E+03  0.50400001928E-02 0.  1.
       -1    1    3    3    0  502  0.43501434595E+03  0.85506896429E+03 -0.14228972992E+04  0.17161052237E+04  0.50400001928E-02 0. -1.
</event>
<event>
 5   0  0.9963173E-06  0.2196110E+04  0.7818609E-02  0.8520049E-01
       -2   -1    0    0    0  501  0.00000000000E+00  0.00000000000E+00  0.71574739779E+03  0.71574739779E+03  0.25500000920E-02 0. -1.
        2   -1    0    0  501    0  0.00000000000E+00  0.00000000000E+00 -0.16845671182E+04  0.16845671182E+04  0.25500000920E-02 0.  1.
    10030    2    1    2    0    0  0.00000000000E+00  0.00000000000E+00 -0.96881972041E+03  0.24003145160E+04  0.21961097707E+04 0.  0.
        4    1    3    3  502    0 -0.23918399807E+03 -0.54651902146E+03 -0.14919917769E+04  0.16068394758E+04  0.12699999809E+01 0.  1.
       -4    1    3    3    0  502  0.23918399807E+03  0.54651902146E+03  0.52317205651E+03  0.79347504017E+03  0.12699999809E+01 0. -1.
</event>
<event>
 5   0  0.4408787E-06  0.2196549E+04  0.7818609E-02  0.8519866E-01
       -1   -1    0    0    0  501  0.00000000000E+00  0.00000000000E+00  0.12695849035E+04  0.12695849035E+04  0.50400001928E-02 0.  1.
        1   -1    0    0  501    0  0.00000000000E+00  0.00000000000E+00 -0.95007975063E+03  0.95007975064E+03  0.50400001928E-02 0. -1.
    10030    2    1    2    0    0  0.00000000000E+00  0.00000000000E+00  0.31950515283E+03  0.22196646541E+04  0.21965490284E+04 0.  0.
        1    1    3    3  502    0 -0.15196427324E+03  0.10542865038E+04 -0.11063328467E+03  0.10709121795E+04  0.50400001928E-02 0.  1.
       -1    1    3    3    0  502  0.15196427324E+03 -0.10542865038E+04  0.43013843751E+03  0.11487524746E+04  0.50400001928E-02 0. -1.
</event>
<event>
 5   0  0.9963173E-06  0.2196346E+04  0.7818609E-02  0.8519951E-01
       -2   -1    0    0    0  501  0.00000000000E+00  0.00000000000E+00  0.13973818462E+04  0.13973818462E+04  0.25500000920E-02 0.  1.
        2   -1    0    0  501    0  0.00000000000E+00  0.00000000000E+00 -0.86303080513E+03  0.86303080514E+03  0.25500000920E-02 0. -1.
    10030    2    1    2    0    0  0.00000000000E+00  0.00000000000E+00  0.53435104102E+03  0.22604126513E+04  0.21963456739E+04 0.  0.
        4    1    3    3  502    0  0.70952765220E+03 -0.62744023639E+03 -0.30479778886E+03  0.99499449469E+03  0.12699999809E+01 0. -1.
       -4    1    3    3    0  502 -0.70952765220E+03  0.62744023639E+03  0.83914882988E+03  0.12654181566E+04  0.12699999809E+01 0.  1.
</event>
<event>
 5   0  0.1015876E-05  0.2200949E+04  0.7818609E-02  0.8518033E-01
        2   -1    0    0  501    0  0.00000000000E+00  0.00000000000E+00  0.28707289626E+04  0.28707289626E+04  0.25500000920E-02 0. -1.
       -2   -1    0    0    0  501  0.00000000000E+00  0.00000000000E+00 -0.42185957761E+03  0.42185957762E+03  0.25500000920E-02 0.  1.
    10030    2    1    2    0    0  0.00000000000E+00  0.00000000000E+00  0.24488693850E+04  0.32925885402E+04  0.22009493475E+04 0.  0.
        5    1    3    3  502    0 -0.26871870284E+03 -0.31337851288E+03 -0.30162211009E+03  0.51128643722E+03  0.46999998093E+01 0.  1.
       -5    1    3    3    0  502  0.26871870284E+03  0.31337851288E+03  0.27504914951E+04  0.27813021030E+04  0.46999998093E+01 0. -1.
</event>
<event>
 5   0  0.4309945E-06  0.2201494E+04  0.7818609E-02  0.8517807E-01
       -1   -1    0    0    0  501  0.00000000000E+00  0.00000000000E+00  0.16245594523E+04  0.16245594523E+04  0.50400001928E-02 0.  1.
        1   -1    0    0  501    0  0.00000000000E+00  0.00000000000E+00 -0.74582912747E+03  0.74582912749E+03  0.50400001928E-02 0. -1.
    10030    2    1    2    0    0  0.00000000000E+00  0.00000000000E+00  0.87873032478E+03  0.23703885798E+04  0.22014938191E+04 0.  0.
        4    1    3    3  502    0 -0.85782886330E+03 -0.68189056935E+03  0.32748466110E+03  0.11437189005E+04  0.12699999809E+01 0.  1.
       -4    1    3    3    0  502  0.85782886330E+03  0.68189056935E+03  0.55124566368E+03  0.12266696792E+04  0.12699999809E+01 0. -1.
</event>
<event>
 5   0  0.1015876E-05  0.2198626E+04  0.7818609E-02  0.8519000E-01
       -2   -1    0    0    0  501  0.00000000000E+00  0.00000000000E+00  0.11737988482E+04  0.11737988482E+04  0.25500000920E-02 0. -1.
        2   -1    0    0  501    0  0.00000000000E+00  0.00000000000E+00 -0.10295534655E+04  0.10295534655E+04  0.25500000920E-02 0.  1.
    10030    2    1    2    0    0  0.00000000000E+00  0.00000000000E+00  0.14424538266E+03  0.22033523137E+04  0.21986256362E+04 0.  0.
        5    1    3    3  502    0 -0.43875324984E+03 -0.96119968307E+03  0.37618449143E+03  0.11215819660E+04  0.46999998093E+01 0.  1.
       -5    1    3    3    0  502  0.43875324984E+03  0.96119968307E+03 -0.23193910877E+03  0.10817703477E+04  0.46999998093E+01 0. -1.
</event>
<event>
 5   0  0.4630615E-06  0.2201057E+04  0.7818609E-02  0.8517988E-01
        1   -1    0    0  501    0  0.00000000000E+00  0.00000000000E+00  0.85831923474E+03  0.85831923476E+03  0.50400001928E-02 0. -1.
       -1   -1    0    0    0  501  0.00000000000E+00  0.00000000000E+00 -0.14110867689E+04  0.14110867689E+04  0.50400001928E-02 0.  1.
    10030    2    1    2    0    0  0.00000000000E+00  0.00000000000E+00 -0.55276753413E+03  0.22694060036E+04  0.22010569421E+04 0.  0.
        2    1    3    3  502    0  0.47730512184E+03 -0.78116488215E+03  0.35342341468E+03  0.98129855930E+03  0.25500000920E-02 0. -1.
       -2    1    3    3    0  502 -0.47730512184E+03  0.78116488215E+03 -0.90619094881E+03  0.12881074443E+04  0.25500000920E-02 0.  1.
</event>
<event>
 5   0  0.9963573E-06  0.2202725E+04  0.7818609E-02  0.8517295E-01
       -2   -1    0    0    0  501  0.00000000000E+00  0.00000000000E+00  0.50933890567E+03  0.50933890567E+03  0.25500000920E-02 0.  1.
        2   -1    0    0  501    0  0.00000000000E+00  0.00000000000E+00 -0.23815161899E+04  0.23815161899E+04  0.25500000920E-02 0. -1.
    10030    2    1    2    0    0  0.00000000000E+00  0.00000000000E+00 -0.18721772843E+04  0.28908550956E+04  0.22027245402E+04 0.  0.
        2    1    3    3  502    0  0.10332337822E+04  0.30606616700E+03 -0.12346424263E+04  0.16387771259E+04  0.25500000920E-02 0. -1.
       -2    1    3    3    0  502 -0.10332337822E+04 -0.30606616700E+03 -0.63753485791E+03  0.12520779698E+04  0.25500000920E-02 0.  1.
</event>
<event>
 5   0  0.4794967E-06  0.2200504E+04  0.7818609E-02  0.8518218E-01
       -1   -1    0    0    0  501  0.00000000000E+00  0.00000000000E+00  0.11465399872E+04  0.11465399872E+04  0.50400001928E-02 0.  1.
        1   -1    0    0  501    0  0.00000000000E+00  0.00000000000E+00 -0.10558327200E+04  0.10558327200E+04  0.50400001928E-02 0. -1.
    10030    2    1    2    0    0  0.00000000000E+00  0.00000000000E+00  0.90707267166E+02  0.22023727072E+04  0.22005039725E+04 0.  0.
        5    1    3    3  502    0 -0.56469057711E+03 -0.72059917194E+03  0.65611258234E+03  0.11263411673E+04  0.46999998093E+01 0.  1.
       -5    1    3    3    0  502  0.56469057711E+03  0.72059917194E+03 -0.56540531517E+03  0.10760315399E+04  0.46999998093E+01 0. -1.
</event>
</LesHouchesEvents>
