<LesHouchesEvents version="3.0">
<header>
<!--
#*********************************************************************
#                                                                    *
#                        MadGraph5_aMC@NLO                           *
#                                                                    *
#                           Going Beyond                             *
#                                                                    *
#                   http://madgraph.hep.uiuc.edu                     *
#                   http://madgraph.phys.ucl.ac.be                   *
#                   http://amcatnlo.cern.ch                          *
#                                                                    *
#                     The MadGraph5_aMC@NLO team                     *
#                                                                    *
#....................................................................*
#                                                                    *
# This file contains all the information necessary to reproduce      *
# the events generated:                                              *
#                                                                    *
# 1. software version                                                *
# 2. proc_card          : code generation info including model       *
# 3. param_card         : model primary parameters in the LH format  *
# 4. run_card           : running parameters (collider and cuts)     *
# 5. pythia_card        : present only if pythia has been run        *
# 6. pgs_card           : present only if pgs has been run           *
# 7. delphes_cards      : present only if delphes has been run       *
#                                                                    *
#                                                                    *
#*********************************************************************
-->
<MGVersion>
#5.2.2.3
</MGVersion>
<MG5ProcCard>
#************************************************************
#*                     MadGraph5_aMC@NLO                    *
#*                                                          *
#*                *                       *                 *
#*                  *        * *        *                   *
#*                    * * * * 5 * * * *                     *
#*                  *        * *        *                   *
#*                *                       *                 *
#*                                                          *
#*                                                          *
#*         VERSION 2.2.3                 2015-02-10         *
#*                                                          *
#*    The MadGraph5_aMC@NLO Development Team - Find us at   *
#*    https://server06.fynu.ucl.ac.be/projects/madgraph     *
#*                                                          *
#************************************************************
#*                                                          *
#*               Command File for MadGraph5_aMC@NLO         *
#*                                                          *
#*     run as ./bin/mg5_aMC  filename                       *
#*                                                          *
#************************************************************
set group_subprocesses Auto
set ignore_six_quark_processes False
set loop_optimized_output True
set gauge unitary
set complex_mass_scheme False
import model sm
define p = g u c d s u~ c~ d~ s~
define j = g u c d s u~ c~ d~ s~
define l+ = e+ mu+
define l- = e- mu-
define vl = ve vm vt
define vl~ = ve~ vm~ vt~
import model Zprime_UFO
generate p p > zph, zph > j j
add process p p > zph, zph > b b~
output Dijet_signal
</MG5ProcCard>
<MGProcCard>
#*********************************************************************
#                        MadGraph/MadEvent                           *
#                   http://madgraph.hep.uiuc.edu                     *
#                                                                    *
#                          proc_card.dat                             *
#*********************************************************************
#                                                                    *
#            This Files is generated by MADGRAPH 5                   *
#                                                                    *
# WARNING: This Files is generated for MADEVENT (compatibility issue)*
#          This files is NOT a valid MG4 proc_card.dat               *
#          Running this in MG4 will NEVER reproduce the result of MG5*
#                                                                    *
#*********************************************************************
#*********************************************************************
# Process(es) requested : mg2 input                                  *
#*********************************************************************
# Begin PROCESS # This is TAG. Do not modify this line
p p > zph , zph > j j           #Process
# Be carefull the coupling are here in MG5 convention
          
end_coup           # End the couplings input

done               # this tells MG there are no more procs
# End PROCESS  # This is TAG. Do not modify this line
#*********************************************************************
# Model information                                                  *
#*********************************************************************
# Begin MODEL  # This is TAG. Do not modify this line
Zprime_UFO
# End   MODEL  # This is TAG. Do not modify this line
#*********************************************************************
# Start multiparticle definitions                                    *
#*********************************************************************
# Begin MULTIPARTICLES # This is TAG. Do not modify this line

# End  MULTIPARTICLES # This is TAG. Do not modify this line
</MGProcCard>
<MGRunCard>
#*********************************************************************
#                       MadGraph5_aMC@NLO                            *
#                                                                    *
#                     run_card.dat MadEvent                          *
#                                                                    *
#  This file is used to set the parameters of the run.               *
#                                                                    *
#  Some notation/conventions:                                        *
#                                                                    *
#   Lines starting with a '# ' are info or comments                  *
#                                                                    *
#   mind the format:   value    = variable     ! comment             *
#*********************************************************************
#
#*******************                                                 
# Running parameters
#*******************                                                 
#                                                                    
#*********************************************************************
# Tag name for the run (one word)                                    *
#*********************************************************************
  tag_1     = run_tag ! name of the run 
#*********************************************************************
# Run to generate the grid pack                                      *
#*********************************************************************
  .false.     = gridpack  !True = setting up the grid pack
#*********************************************************************
# Number of events and rnd seed                                      *
# Warning: Do not generate more than 1M events in a single run       *
# If you want to run Pythia, avoid more than 50k events in a run.    *
#*********************************************************************
  2000 = nevents ! Number of unweighted events requested 
 867 = iseed   ! rnd seed (0=assigned automatically=default))
#*********************************************************************
# Collider type and energy                                           *
# lpp: 0=No PDF, 1=proton, -1=antiproton, 2=photon from proton,      *
#                                         3=photon from electron     *
#*********************************************************************
        1     = lpp1    ! beam 1 type 
        1     = lpp2    ! beam 2 type
     4000     = ebeam1  ! beam 1 total energy in GeV
     4000     = ebeam2  ! beam 2 total energy in GeV
#*********************************************************************
# Beam polarization from -100 (left-handed) to 100 (right-handed)    *
#*********************************************************************
        0     = polbeam1 ! beam polarization for beam 1
        0     = polbeam2 ! beam polarization for beam 2
#*********************************************************************
# PDF CHOICE: this automatically fixes also alpha_s and its evol.    *
#*********************************************************************
 'nn23lo1'    = pdlabel     ! PDF set                                     
 230000    = lhaid     ! if pdlabel=lhapdf, this is the lhapdf number
#*********************************************************************
# Renormalization and factorization scales                           *
#*********************************************************************
 F        = fixed_ren_scale  ! if .true. use fixed ren scale
 F        = fixed_fac_scale  ! if .true. use fixed fac scale
 91.1880  = scale            ! fixed ren scale
 91.1880  = dsqrt_q2fact1    ! fixed fact scale for pdf1
 91.1880  = dsqrt_q2fact2    ! fixed fact scale for pdf2
 1        = scalefact        ! scale factor for event-by-event scales
#*********************************************************************
# Matching - Warning! ickkw > 1 is still beta
#*********************************************************************
 0        = ickkw            ! 0 no matching, 1 MLM, 2 CKKW matching
 1        = highestmult      ! for ickkw=2, highest mult group
 1        = ktscheme         ! for ickkw=1, 1 Durham kT, 2 Pythia pTE
 1        = alpsfact         ! scale factor for QCD emission vx
 F        = chcluster        ! cluster only according to channel diag
 T        = pdfwgt           ! for ickkw=1, perform pdf reweighting
 5        = asrwgtflavor     ! highest quark flavor for a_s reweight
 T        = clusinfo         ! include clustering tag in output
 3.0      = lhe_version       ! Change the way clustering information pass to shower.        
#*********************************************************************
#**********************************************************
#
#**********************************************************
# Automatic ptj and mjj cuts if xqcut > 0
# (turn off for VBF and single top processes)
#**********************************************************
   T  = auto_ptj_mjj  ! Automatic setting of ptj and mjj
#**********************************************************
#                                                                    
#**********************************
# BW cutoff (M+/-bwcutoff*Gamma)
#**********************************
  15  = bwcutoff      ! (M+/-bwcutoff*Gamma)
#**********************************************************
# Apply pt/E/eta/dr/mij cuts on decay products or not
# (note that etmiss/ptll/ptheavy/ht/sorted cuts always apply)
#**********************************************************
   T  = cut_decays    ! Cut decay products 
#*************************************************************
# Number of helicities to sum per event (0 = all helicities)
# 0 gives more stable result, but longer run time (needed for
# long decay chains e.g.).
# Use >=2 if most helicities contribute, e.g. pure QCD.
#*************************************************************
   0  = nhel          ! Number of helicities used per event
#*******************                                                 
# Standard Cuts
#*******************                                                 
#                                                                    
#*********************************************************************
# Minimum and maximum pt's (for max, -1 means no cut)                *
#*********************************************************************
 20  = ptj       ! minimum pt for the jets 
  0  = ptb       ! minimum pt for the b 
 10  = pta       ! minimum pt for the photons 
 10  = ptl       ! minimum pt for the charged leptons 
  0  = misset    ! minimum missing Et (sum of neutrino's momenta)
  0  = ptheavy   ! minimum pt for one heavy final state
 1.0 = ptonium   ! minimum pt for the quarkonium states
 -1  = ptjmax    ! maximum pt for the jets
 -1  = ptbmax    ! maximum pt for the b
 -1  = ptamax    ! maximum pt for the photons
 -1  = ptlmax    ! maximum pt for the charged leptons
 -1  = missetmax ! maximum missing Et (sum of neutrino's momenta)
#*********************************************************************
# Minimum and maximum E's (in the center of mass frame)              *
#*********************************************************************
  0  = ej     ! minimum E for the jets 
  0  = eb     ! minimum E for the b 
  0  = ea     ! minimum E for the photons 
  0  = el     ! minimum E for the charged leptons 
 -1   = ejmax ! maximum E for the jets
 -1   = ebmax ! maximum E for the b
 -1   = eamax ! maximum E for the photons
 -1   = elmax ! maximum E for the charged leptons
#*********************************************************************
# Maximum and minimum absolute rapidity (for max, -1 means no cut)   *
#*********************************************************************
   5  = etaj    ! max rap for the jets 
  -1  = etab    ! max rap for the b
 2.5  = etaa    ! max rap for the photons 
 2.5  = etal    ! max rap for the charged leptons 
 0.6  = etaonium ! max rap for the quarkonium states
   0  = etajmin ! min rap for the jets
   0  = etabmin ! min rap for the b
   0  = etaamin ! min rap for the photons
   0  = etalmin ! main rap for the charged leptons
#*********************************************************************
# Minimum and maximum DeltaR distance                                *
#*********************************************************************
 0.4 = drjj    ! min distance between jets 
 0   = drbb    ! min distance between b's 
 0.4 = drll    ! min distance between leptons 
 0.4 = draa    ! min distance between gammas 
 0   = drbj    ! min distance between b and jet 
 0.4 = draj    ! min distance between gamma and jet 
 0.4 = drjl    ! min distance between jet and lepton 
 0   = drab    ! min distance between gamma and b 
 0   = drbl    ! min distance between b and lepton 
 0.4 = dral    ! min distance between gamma and lepton 
 -1  = drjjmax ! max distance between jets
 -1  = drbbmax ! max distance between b's
 -1  = drllmax ! max distance between leptons
 -1  = draamax ! max distance between gammas
 -1  = drbjmax ! max distance between b and jet
 -1  = drajmax ! max distance between gamma and jet
 -1  = drjlmax ! max distance between jet and lepton
 -1  = drabmax ! max distance between gamma and b
 -1  = drblmax ! max distance between b and lepton
 -1  = dralmax ! maxdistance between gamma and lepton
#*********************************************************************
# Minimum and maximum invariant mass for pairs                       *
# WARNING: for four lepton final state mmll cut require to have      *
#          different lepton masses for each flavor!                  *           
#*********************************************************************
 0   = mmjj    ! min invariant mass of a jet pair 
 0   = mmbb    ! min invariant mass of a b pair 
 0   = mmaa    ! min invariant mass of gamma gamma pair
 0   = mmll    ! min invariant mass of l+l- (same flavour) lepton pair
 -1  = mmjjmax ! max invariant mass of a jet pair
 -1  = mmbbmax ! max invariant mass of a b pair
 -1  = mmaamax ! max invariant mass of gamma gamma pair
 -1  = mmllmax ! max invariant mass of l+l- (same flavour) lepton pair
#*********************************************************************
# Minimum and maximum invariant mass for all letpons                 *
#*********************************************************************
 0   = mmnl    ! min invariant mass for all letpons (l+- and vl) 
 -1  = mmnlmax ! max invariant mass for all letpons (l+- and vl) 
#*********************************************************************
# Minimum and maximum pt for 4-momenta sum of leptons                *
#*********************************************************************
 0   = ptllmin  ! Minimum pt for 4-momenta sum of leptons(l and vl)
 -1  = ptllmax  ! Maximum pt for 4-momenta sum of leptons(l and vl)
#*********************************************************************
# Inclusive cuts                                                     *
#*********************************************************************
 0  = xptj ! minimum pt for at least one jet  
 0  = xptb ! minimum pt for at least one b 
 0  = xpta ! minimum pt for at least one photon 
 0  = xptl ! minimum pt for at least one charged lepton 
#*********************************************************************
# Control the pt's of the jets sorted by pt                          *
#*********************************************************************
 0   = ptj1min ! minimum pt for the leading jet in pt
 0   = ptj2min ! minimum pt for the second jet in pt
 0   = ptj3min ! minimum pt for the third jet in pt
 0   = ptj4min ! minimum pt for the fourth jet in pt
 -1  = ptj1max ! maximum pt for the leading jet in pt 
 -1  = ptj2max ! maximum pt for the second jet in pt
 -1  = ptj3max ! maximum pt for the third jet in pt
 -1  = ptj4max ! maximum pt for the fourth jet in pt
 0   = cutuse  ! reject event if fails any (0) / all (1) jet pt cuts
#*********************************************************************
# Control the pt's of leptons sorted by pt                           *
#*********************************************************************
 0   = ptl1min ! minimum pt for the leading lepton in pt
 0   = ptl2min ! minimum pt for the second lepton in pt
 0   = ptl3min ! minimum pt for the third lepton in pt
 0   = ptl4min ! minimum pt for the fourth lepton in pt
 -1  = ptl1max ! maximum pt for the leading lepton in pt 
 -1  = ptl2max ! maximum pt for the second lepton in pt
 -1  = ptl3max ! maximum pt for the third lepton in pt
 -1  = ptl4max ! maximum pt for the fourth lepton in pt
#*********************************************************************
# Control the Ht(k)=Sum of k leading jets                            *
#*********************************************************************
 0   = htjmin ! minimum jet HT=Sum(jet pt)
 -1  = htjmax ! maximum jet HT=Sum(jet pt)
 0   = ihtmin  !inclusive Ht for all partons (including b)
 -1  = ihtmax  !inclusive Ht for all partons (including b)
 0   = ht2min ! minimum Ht for the two leading jets
 0   = ht3min ! minimum Ht for the three leading jets
 0   = ht4min ! minimum Ht for the four leading jets
 -1  = ht2max ! maximum Ht for the two leading jets
 -1  = ht3max ! maximum Ht for the three leading jets
 -1  = ht4max ! maximum Ht for the four leading jets
#***********************************************************************
# Photon-isolation cuts, according to hep-ph/9801442                   *
# When ptgmin=0, all the other parameters are ignored                  *
# When ptgmin>0, pta and draj are not going to be used                 *
#***********************************************************************
   0 = ptgmin ! Min photon transverse momentum
 0.4 = R0gamma ! Radius of isolation code
 1.0 = xn ! n parameter of eq.(3.4) in hep-ph/9801442
 1.0 = epsgamma ! epsilon_gamma parameter of eq.(3.4) in hep-ph/9801442
 .true. = isoEM ! isolate photons from EM energy (photons and leptons)
#*********************************************************************
# WBF cuts                                                           *
#*********************************************************************
 0   = xetamin ! minimum rapidity for two jets in the WBF case  
 0   = deltaeta ! minimum rapidity for two jets in the WBF case 
#*********************************************************************
# KT DURHAM CUT                                                      *
#*********************************************************************
 -1    =  ktdurham        
 0.4  =  dparameter 
#*********************************************************************
# maximal pdg code for quark to be considered as a light jet         *
# (otherwise b cuts are applied)                                     *
#*********************************************************************
 4 = maxjetflavor    ! Maximum jet pdg code
#*********************************************************************
# Jet measure cuts                                                   *
#*********************************************************************
 0   = xqcut   ! minimum kt jet measure between partons
#*********************************************************************
#
#*********************************************************************
# Store info for systematics studies                                 *
# WARNING: If use_syst is T, matched Pythia output is                *
#          meaningful ONLY if plotted taking matchscale              *
#          reweighting into account!                                 *
#*********************************************************************
   F  = use_syst      ! Enable systematics studies
#
#**************************************
# Parameter of the systematics study
#  will be used by SysCalc (if installed)
#**************************************                                  
#
0.5 1 2 = sys_scalefact  # factorization/renormalization scale factor
0.5 1 2 = sys_alpsfact  # \alpha_s emission scale factors
30 50 = sys_matchscale # variation of merging scale
# PDF sets and number of members (0 or none for all members).
CT10nlo.LHgrid = sys_pdf # matching scales
# MSTW2008nlo68cl.LHgrid 1  = sys_pdf
</MGRunCard>
<slha>
######################################################################
## PARAM_CARD AUTOMATICALY GENERATED BY MG5 FOLLOWING UFO MODEL   ####
######################################################################
##                                                                  ##
##  Width set on Auto will be computed following the information    ##
##        present in the decay.py files of the model.               ##
##        See  arXiv:1402.1178 for more details.                    ##
##                                                                  ##
######################################################################

###################################
## INFORMATION FOR CKMBLOCK
###################################
Block ckmblock 
    1 2.277360e-01 # cabi 

###################################
## INFORMATION FOR FRBLOCK
###################################
Block frblock 
    1 4.000000e-01 # gz 

###################################
## INFORMATION FOR MASS
###################################
Block mass 
    1 5.040000e-03 # MD 
    2 2.550000e-03 # MU 
    3 1.010000e-01 # MS 
    4 1.270000e+00 # MC 
    5 4.700000e+00 # MB 
    6 1.720000e+02 # MT 
   11 5.110000e-04 # Me 
   13 1.056600e-01 # MM 
   15 1.777000e+00 # MTA 
   23 9.118760e+01 # MZ 
   25 1.200000e+02 # MH 
  10030 1.000000e+03 # MZph 
  10031 3.000000e+02 # MZpl 
## Dependent parameters, given by model restrictions.
## Those values should be edited following the 
## analytical expression. MG5 ignores those values 
## but they are important for interfacing the output of MG5
## to external program such as Pythia.
  12 0.000000 # ve : 0.0 
  14 0.000000 # vm : 0.0 
  16 0.000000 # vt : 0.0 
  21 0.000000 # g : 0.0 
  22 0.000000 # a : 0.0 
  24 79.824360 # w+ : cmath.sqrt(MZ__exp__2/2. + cmath.sqrt(MZ__exp__4/4. - (aEW*cmath.pi*MZ__exp__2)/(Gf*sqrt__2))) 

###################################
## INFORMATION FOR SMINPUTS
###################################
Block sminputs 
    1 1.279000e+02 # aEWM1 
    2 1.166370e-05 # Gf 
    3 1.184000e-01 # aS 

###################################
## INFORMATION FOR YUKAWA
###################################
Block yukawa 
    1 5.040000e-03 # ymdo 
    2 2.550000e-03 # ymup 
    3 1.010000e-01 # yms 
    4 1.270000e+00 # ymc 
    5 4.700000e+00 # ymb 
    6 1.720000e+02 # ymt 
   11 5.110000e-04 # yme 
   13 1.056600e-01 # ymm 
   15 1.777000e+00 # ymtau 

###################################
## INFORMATION FOR DECAY
###################################
DECAY   6 1.508336e+00 # WT 
DECAY  23 2.495200e+00 # WZ 
DECAY  24 2.085000e+00 # WW 
DECAY  25 5.753088e-03 # WH 
## Dependent parameters, given by model restrictions.
## Those values should be edited following the 
## analytical expression. MG5 ignores those values 
## but they are important for interfacing the output of MG5
## to external program such as Pythia.
DECAY  1 0.000000 # d : 0.0 
DECAY  2 0.000000 # u : 0.0 
DECAY  3 0.000000 # s : 0.0 
DECAY  4 0.000000 # c : 0.0 
DECAY  5 0.000000 # b : 0.0 
DECAY  11 0.000000 # e- : 0.0 
DECAY  12 0.000000 # ve : 0.0 
DECAY  13 0.000000 # mu- : 0.0 
DECAY  14 0.000000 # vm : 0.0 
DECAY  15 0.000000 # ta- : 0.0 
DECAY  16 0.000000 # vt : 0.0 
DECAY  21 0.000000 # g : 0.0 
DECAY  22 0.000000 # a : 0.0 
DECAY  10030 0.308725 # zph : (gz__exp__2*MZph*(5 + cmath.sqrt(1 - (4*MT__exp__2)/MZph__exp__2)))/(144.*cmath.pi) 
DECAY  10031 0.132629 # zpl : (5*gz__exp__2*MZpl)/(144.*cmath.pi) 
#===========================================================
# QUANTUM NUMBERS OF NEW STATE(S) (NON SM PDG CODE)
#===========================================================

Block QNUMBERS 10030  # zph 
        1 0  # 3 times electric charge
        2 3  # number of spin states (2S+1)
        3 1  # colour rep (1: singlet, 3: triplet, 8: octet)
        4 0  # Particle/Antiparticle distinction (0=own anti)
Block QNUMBERS 10031  # zpl 
        1 0  # 3 times electric charge
        2 3  # number of spin states (2S+1)
        3 1  # colour rep (1: singlet, 3: triplet, 8: octet)
        4 0  # Particle/Antiparticle distinction (0=own anti)
</slha>
## END BANNER##
<MGGenerationInfo>
#  Number of Events        :         4032
#  Integrated weight (pb)  :  0.30837E+00
#  Max wgt                 :  0.10202E-03
#  Average wgt             :  0.76481E-04
</MGGenerationInfo>
</header>
<init>
     2212     2212  0.40000000000E+04  0.40000000000E+04 0 0  247000  247000 2   1
  0.30848464409E+00  0.55715705979E-03  0.10201500000E-03   0
</init>
<event>
 5   0  0.1006749E-03  0.1000135E+04  0.7818609E-02  0.9308396E-01
        2   -1    0    0  501    0  0.00000000000E+00  0.00000000000E+00  0.12104148413E+04  0.12104148413E+04  0.25500000920E-02 0.  1.
       -2   -1    0    0    0  501  0.00000000000E+00  0.00000000000E+00 -0.20659663737E+03  0.20659663739E+03  0.25500000920E-02 0. -1.
    10030    2    1    2    0    0  0.00000000000E+00  0.00000000000E+00  0.10038182039E+04  0.14170114787E+04  0.10001352630E+04 0.  0.
        1    1    3    3  502    0  0.40977311075E+03 -0.16441562146E+03  0.83454852032E+03  0.94414921049E+03  0.50400001928E-02 0.  1.
       -1    1    3    3    0  502 -0.40977311075E+03  0.16441562146E+03  0.16926968359E+03  0.47286226819E+03  0.50400001928E-02 0. -1.
</event>
<event>
 5   0  0.1006749E-03  0.9978794E+03  0.7818609E-02  0.9310874E-01
        2   -1    0    0  501    0  0.00000000000E+00  0.00000000000E+00  0.97840107640E+03  0.97840107640E+03  0.25500000920E-02 0. -1.
       -2   -1    0    0    0  501  0.00000000000E+00  0.00000000000E+00 -0.25443636770E+03  0.25443636771E+03  0.25500000920E-02 0.  1.
    10030    2    1    2    0    0  0.00000000000E+00  0.00000000000E+00  0.72396470870E+03  0.12328374441E+04  0.99787938357E+03 0.  0.
        1    1    3    3  502    0  0.12677481734E+03 -0.36920938020E+03  0.74587654618E+03  0.84185464476E+03  0.50400001928E-02 0. -1.
       -1    1    3    3    0  502 -0.12677481734E+03  0.36920938020E+03 -0.21911837480E+02  0.39098279935E+03  0.50400001928E-02 0.  1.
</event>
<event>
 5   0  0.9741826E-04  0.9998484E+03  0.7818609E-02  0.9308711E-01
       -2   -1    0    0    0  501  0.00000000000E+00  0.00000000000E+00  0.24933818529E+03  0.24933818531E+03  0.25500000920E-02 0. -1.
        2   -1    0    0  501    0  0.00000000000E+00  0.00000000000E+00 -0.10023502488E+04  0.10023502488E+04  0.25500000920E-02 0.  1.
    10030    2    1    2    0    0  0.00000000000E+00  0.00000000000E+00 -0.75301206350E+03  0.12516884341E+04  0.99984837265E+03 0.  0.
        3    1    3    3  502    0  0.28299975257E+03 -0.38678388434E+03 -0.55457905213E+03  0.73297241995E+03  0.10100000352E+00 0.  1.
       -3    1    3    3    0  502 -0.28299975257E+03  0.38678388434E+03 -0.19843301137E+03  0.51871601416E+03  0.10100000352E+00 0. -1.
</event>
<event>
 5   0  0.1006749E-03  0.1000153E+04  0.7818609E-02  0.9308377E-01
       -2   -1    0    0    0  501  0.00000000000E+00  0.00000000000E+00  0.29121340159E+03  0.29121340160E+03  0.25500000920E-02 0. -1.
        2   -1    0    0  501    0  0.00000000000E+00  0.00000000000E+00 -0.85873916505E+03  0.85873916505E+03  0.25500000920E-02 0.  1.
    10030    2    1    2    0    0  0.00000000000E+00  0.00000000000E+00 -0.56752576345E+03  0.11499525667E+04  0.10001526950E+04 0.  0.
        1    1    3    3  502    0  0.33650981118E+03 -0.73729542773E+02  0.13302367655E+03  0.36928335603E+03  0.50400001928E-02 0. -1.
       -1    1    3    3    0  502 -0.33650981118E+03  0.73729542773E+02 -0.70054944000E+03  0.78066921062E+03  0.50400001928E-02 0.  1.
</event>
<event>
 5   0  0.9741826E-04  0.1000222E+04  0.7818609E-02  0.9308302E-01
       -2   -1    0    0    0  501  0.00000000000E+00  0.00000000000E+00  0.87514219288E+03  0.87514219288E+03  0.25500000920E-02 0. -1.
        2   -1    0    0  501    0  0.00000000000E+00  0.00000000000E+00 -0.28579458534E+03  0.28579458535E+03  0.25500000920E-02 0.  1.
    10030    2    1    2    0    0  0.00000000000E+00  0.00000000000E+00  0.58934760754E+03  0.11609367782E+04  0.10002217757E+04 0.  0.
        3    1    3    3  502    0 -0.32325383094E+03 -0.16925452256E+03  0.69163761386E+03  0.78198640125E+03  0.10100000352E+00 0. -1.
       -3    1    3    3    0  502  0.32325383094E+03  0.16925452256E+03 -0.10229000632E+03  0.37895037699E+03  0.10100000352E+00 0.  1.
</event>
<event>
 5   0  0.5826939E-04  0.9998537E+03  0.7818609E-02  0.9308705E-01
       -1   -1    0    0    0  501  0.00000000000E+00  0.00000000000E+00  0.30762150861E+03  0.30762150865E+03  0.50400001928E-02 0. -1.
        1   -1    0    0  501    0  0.00000000000E+00  0.00000000000E+00 -0.81244917717E+03  0.81244917719E+03  0.50400001928E-02 0.  1.
    10030    2    1    2    0    0  0.00000000000E+00  0.00000000000E+00 -0.50482766856E+03  0.11200706858E+04  0.99985367246E+03 0.  0.
        1    1    3    3  502    0 -0.28836088788E+03 -0.22815153200E+03  0.12701628884E+03  0.38902218557E+03  0.50400001928E-02 0. -1.
       -1    1    3    3    0  502  0.28836088788E+03  0.22815153200E+03 -0.63184395740E+03  0.73104850027E+03  0.50400001928E-02 0.  1.
</event>
<event>
 5   0  0.5758786E-04  0.9846035E+03  0.7818609E-02  0.9325594E-01
       -1   -1    0    0    0  501  0.00000000000E+00  0.00000000000E+00  0.71423341013E+03  0.71423341015E+03  0.50400001928E-02 0. -1.
        1   -1    0    0  501    0  0.00000000000E+00  0.00000000000E+00 -0.33933026142E+03  0.33933026146E+03  0.50400001928E-02 0.  1.
    10030    2    1    2    0    0  0.00000000000E+00  0.00000000000E+00  0.37490314871E+03  0.10535636716E+04  0.98460349340E+03 0.  0.
        3    1    3    3  502    0  0.46336609367E+02 -0.30276262048E+03  0.59986601421E+03  0.67353658470E+03  0.10100000352E+00 0. -1.
       -3    1    3    3    0  502 -0.46336609367E+02  0.30276262048E+03 -0.22496286550E+03  0.38002708691E+03  0.10100000352E+00 0.  1.
</event>
<event>
 5   0  0.1006749E-03  0.1000718E+04  0.7818609E-02  0.9307758E-01
       -2   -1    0    0    0  501  0.00000000000E+00  0.00000000000E+00  0.36032093445E+03  0.36032093446E+03  0.25500000920E-02 0.  1.
        2   -1    0    0  501    0  0.00000000000E+00  0.00000000000E+00 -0.69482232846E+03  0.69482232847E+03  0.25500000920E-02 0. -1.
    10030    2    1    2    0    0  0.00000000000E+00  0.00000000000E+00 -0.33450139401E+03  0.10551432629E+04  0.10007178037E+04 0.  0.
        1    1    3    3  502    0  0.29646146123E+03  0.37571281106E+03 -0.32116770041E+03  0.57636638191E+03  0.50400001928E-02 0. -1.
       -1    1    3    3    0  502 -0.29646146123E+03 -0.37571281106E+03 -0.13333693604E+02  0.47877688102E+03  0.50400001928E-02 0.  1.
</event>
<event>
 5   0  0.5888774E-04  0.1001282E+04  0.7818609E-02  0.9307140E-01
       -1   -1    0    0    0  501  0.00000000000E+00  0.00000000000E+00  0.48705090363E+03  0.48705090365E+03  0.50400001928E-02 0. -1.
        1   -1    0    0  501    0  0.00000000000E+00  0.00000000000E+00 -0.51461047542E+03  0.51461047544E+03  0.50400001928E-02 0.  1.
    10030    2    1    2    0    0  0.00000000000E+00  0.00000000000E+00 -0.27559571789E+02  0.10016613791E+04  0.10012821722E+04 0.  0.
        2    1    3    3  502    0  0.12379200662E+01  0.26137016116E+03 -0.44093752120E+03  0.51258344803E+03  0.25500000920E-02 0.  1.
       -2    1    3    3    0  502 -0.12379200662E+01 -0.26137016116E+03  0.41337794941E+03  0.48907793106E+03  0.25500000920E-02 0. -1.
</event>
<event>
 5   0  0.1006749E-03  0.1000484E+04  0.7818609E-02  0.9308014E-01
        2   -1    0    0  501    0  0.00000000000E+00  0.00000000000E+00  0.41082178271E+03  0.41082178272E+03  0.25500000920E-02 0.  1.
       -2   -1    0    0    0  501  0.00000000000E+00  0.00000000000E+00 -0.60912532393E+03  0.60912532394E+03  0.25500000920E-02 0. -1.
    10030    2    1    2    0    0  0.00000000000E+00  0.00000000000E+00 -0.19830354122E+03  0.10199471067E+04  0.10004837859E+04 0.  0.
        1    1    3    3  502    0 -0.36013531449E+03  0.32728310837E+03 -0.21729532349E+03  0.53294365124E+03  0.50400001928E-02 0. -1.
       -1    1    3    3    0  502  0.36013531449E+03 -0.32728310837E+03  0.18991782268E+02  0.48700345541E+03  0.50400001928E-02 0.  1.
</event>
<event>
 5   0  0.3854625E-04  0.9989420E+03  0.7818609E-02  0.9309706E-01
       -4   -1    0    0    0  501  0.00000000000E+00  0.00000000000E+00  0.13212506478E+03  0.13213116833E+03  0.12699999809E+01 0.  1.
        4   -1    0    0  501    0  0.00000000000E+00  0.00000000000E+00 -0.18880951517E+04  0.18880955788E+04  0.12699999809E+01 0. -1.
    10030    2    1    2    0    0  0.00000000000E+00  0.00000000000E+00 -0.17559700869E+04  0.20202267471E+04  0.99894202221E+03 0.  0.
        4    1    3    3  502    0  0.14317237236E+03 -0.38407321627E+03 -0.14551895004E+04  0.15118163442E+04  0.12699999809E+01 0. -1.
       -4    1    3    3    0  502 -0.14317237236E+03  0.38407321627E+03 -0.30078058646E+03  0.50841040287E+03  0.12699999809E+01 0.  1.
</event>
<event>
 5   0  0.1020150E-03  0.1003085E+04  0.7818609E-02  0.9305167E-01
        2   -1    0    0  501    0  0.00000000000E+00  0.00000000000E+00  0.34589921129E+03  0.34589921130E+03  0.25500000920E-02 0. -1.
       -2   -1    0    0    0  501  0.00000000000E+00  0.00000000000E+00 -0.72722052151E+03  0.72722052152E+03  0.25500000920E-02 0.  1.
    10030    2    1    2    0    0  0.00000000000E+00  0.00000000000E+00 -0.38132131022E+03  0.10731197328E+04  0.10030852503E+04 0.  0.
        5    1    3    3  502    0  0.11728936798E+03 -0.28373038291E+03 -0.61491263251E+03  0.68731314672E+03  0.46999998093E+01 0.  1.
       -5    1    3    3    0  502 -0.11728936798E+03  0.28373038291E+03  0.23359132229E+03  0.38580658610E+03  0.46999998093E+01 0. -1.
</event>
<event>
 5   0  0.5960102E-04  0.9998611E+03  0.7818609E-02  0.9308697E-01
        1   -1    0    0  501    0  0.00000000000E+00  0.00000000000E+00  0.21402328988E+03  0.21402328994E+03  0.50400001928E-02 0.  1.
       -1   -1    0    0    0  501  0.00000000000E+00  0.00000000000E+00 -0.11677727162E+04  0.11677727163E+04  0.50400001928E-02 0. -1.
    10030    2    1    2    0    0  0.00000000000E+00  0.00000000000E+00 -0.95374942636E+03  0.13817960062E+04  0.99986110759E+03 0.  0.
        5    1    3    3  502    0 -0.20398445867E+03 -0.19705995225E+02  0.15327312570E+03  0.25595454028E+03  0.46999998093E+01 0.  1.
       -5    1    3    3    0  502  0.20398445867E+03  0.19705995225E+02 -0.11070225521E+04  0.11258414659E+04  0.46999998093E+01 0. -1.
</event>
<event>
 5   0  0.3854625E-04  0.9996938E+03  0.7818609E-02  0.9308881E-01
        3   -1    0    0  501    0  0.00000000000E+00  0.00000000000E+00  0.59060677448E+03  0.59060678312E+03  0.10100000352E+00 0.  1.
       -3   -1    0    0    0  501  0.00000000000E+00  0.00000000000E+00 -0.42303427245E+03  0.42303428451E+03  0.10100000352E+00 0. -1.
    10030    2    1    2    0    0  0.00000000000E+00  0.00000000000E+00  0.16757250203E+03  0.10136410676E+04  0.99969378839E+03 0.  0.
        1    1    3    3  502    0  0.35788240045E+03 -0.40180654944E+02  0.43525266211E+03  0.56492404576E+03  0.50400001928E-02 0.  1.
       -1    1    3    3    0  502 -0.35788240045E+03  0.40180654944E+02 -0.26768016008E+03  0.44871702186E+03  0.50400001928E-02 0. -1.
</event>
<event>
 5   0  0.5826939E-04  0.9915106E+03  0.7818609E-02  0.9317905E-01
       -1   -1    0    0    0  501  0.00000000000E+00  0.00000000000E+00  0.39854320559E+03  0.39854320562E+03  0.50400001928E-02 0. -1.
        1   -1    0    0  501    0  0.00000000000E+00  0.00000000000E+00 -0.61667929145E+03  0.61667929147E+03  0.50400001928E-02 0.  1.
    10030    2    1    2    0    0  0.00000000000E+00  0.00000000000E+00 -0.21813608587E+03  0.10152224971E+04  0.99151064878E+03 0.  0.
        1    1    3    3  502    0 -0.12632013273E+03  0.46801067970E+03 -0.27455915896E+01  0.48476624320E+03  0.50400001928E-02 0. -1.
       -1    1    3    3    0  502  0.12632013273E+03 -0.46801067970E+03 -0.21539049428E+03  0.53045625390E+03  0.50400001928E-02 0.  1.
</event>
<event>
 5   0  0.5758786E-04  0.9990540E+03  0.7818609E-02  0.9309583E-01
        1   -1    0    0  501    0  0.00000000000E+00  0.00000000000E+00  0.17853317603E+03  0.17853317610E+03  0.50400001928E-02 0. -1.
       -1   -1    0    0    0  501  0.00000000000E+00  0.00000000000E+00 -0.13976519027E+04  0.13976519027E+04  0.50400001928E-02 0.  1.
    10030    2    1    2    0    0  0.00000000000E+00  0.00000000000E+00 -0.12191187267E+04  0.15761850788E+04  0.99905401902E+03 0.  0.
        3    1    3    3  502    0 -0.21343069320E+03 -0.16241337122E+03 -0.12744273036E+04  0.13023423998E+04  0.10100000352E+00 0.  1.
       -3    1    3    3    0  502  0.21343069320E+03  0.16241337122E+03  0.55308576951E+02  0.27384267898E+03  0.10100000352E+00 0. -1.
</event>
<event>
 5   0  0.5758786E-04  0.9992287E+03  0.7818609E-02  0.9309391E-01
       -1   -1    0    0    0  501  0.00000000000E+00  0.00000000000E+00  0.37807103884E+03  0.37807103887E+03  0.50400001928E-02 0. -1.
        1   -1    0    0  501    0  0.00000000000E+00  0.00000000000E+00 -0.66023170711E+03  0.66023170713E+03  0.50400001928E-02 0.  1.
    10030    2    1    2    0    0  0.00000000000E+00  0.00000000000E+00 -0.28216066827E+03  0.10383027460E+04  0.99922867735E+03 0.  0.
        3    1    3    3  502    0 -0.26699932834E+03 -0.83537151091E+02  0.28904779735E+03  0.40226326740E+03  0.10100000352E+00 0. -1.
       -3    1    3    3    0  502  0.26699932834E+03  0.83537151091E+02 -0.57120846561E+03  0.63603947860E+03  0.10100000352E+00 0.  1.
</event>
<event>
 5   0  0.1006749E-03  0.9979436E+03  0.7818609E-02  0.9310803E-01
        2   -1    0    0  501    0  0.00000000000E+00  0.00000000000E+00  0.85175822618E+03  0.85175822619E+03  0.25500000920E-02 0.  1.
       -2   -1    0    0    0  501  0.00000000000E+00  0.00000000000E+00 -0.29230461447E+03  0.29230461448E+03  0.25500000920E-02 0. -1.
    10030    2    1    2    0    0  0.00000000000E+00  0.00000000000E+00  0.55945361171E+03  0.11440628407E+04  0.99794360549E+03 0.  0.
        1    1    3    3  502    0  0.32376673793E+03 -0.28413801641E+03 -0.89652963457E+01  0.43085924560E+03  0.50400001928E-02 0. -1.
       -1    1    3    3    0  502 -0.32376673793E+03  0.28413801641E+03  0.56841890806E+03  0.71320359507E+03  0.50400001928E-02 0.  1.
</event>
<event>
 5   0  0.5768102E-04  0.9997334E+03  0.7818609E-02  0.9308837E-01
        1   -1    0    0  501    0  0.00000000000E+00  0.00000000000E+00  0.56801416633E+03  0.56801416635E+03  0.50400001928E-02 0. -1.
       -1   -1    0    0    0  501  0.00000000000E+00  0.00000000000E+00 -0.43989521283E+03  0.43989521286E+03  0.50400001928E-02 0.  1.
    10030    2    1    2    0    0  0.00000000000E+00  0.00000000000E+00  0.12811895350E+03  0.10079093792E+04  0.99973338969E+03 0.  0.
        4    1    3    3  502    0  0.41980087225E+03 -0.61315816275E+02  0.33055569230E+03  0.53782997339E+03  0.12699999809E+01 0. -1.
       -4    1    3    3    0  502 -0.41980087225E+03  0.61315816275E+02 -0.20243673880E+03  0.47007940583E+03  0.12699999809E+01 0.  1.
</event>
<event>
 5   0  0.5826939E-04  0.9966515E+03  0.7818609E-02  0.9312225E-01
        1   -1    0    0  501    0  0.00000000000E+00  0.00000000000E+00  0.11557465147E+04  0.11557465147E+04  0.50400001928E-02 0. -1.
       -1   -1    0    0    0  501  0.00000000000E+00  0.00000000000E+00 -0.21486420079E+03  0.21486420085E+03  0.50400001928E-02 0.  1.
    10030    2    1    2    0    0  0.00000000000E+00  0.00000000000E+00  0.94088231389E+03  0.13706107155E+04  0.99665149625E+03 0.  0.
        1    1    3    3  502    0  0.17690191003E+03 -0.42133378641E+03  0.74380173754E+03  0.87295903119E+03  0.50400001928E-02 0. -1.
       -1    1    3    3    0  502 -0.17690191003E+03  0.42133378641E+03  0.19708057635E+03  0.49765168436E+03  0.50400001928E-02 0.  1.
</event>
<event>
 5   0  0.1006006E-03  0.9988720E+03  0.7818609E-02  0.9309783E-01
       -2   -1    0    0    0  501  0.00000000000E+00  0.00000000000E+00  0.68750677803E+03  0.68750677804E+03  0.25500000920E-02 0. -1.
        2   -1    0    0  501    0  0.00000000000E+00  0.00000000000E+00 -0.36281288227E+03  0.36281288228E+03  0.25500000920E-02 0.  1.
    10030    2    1    2    0    0  0.00000000000E+00  0.00000000000E+00  0.32469389577E+03  0.10503196603E+04  0.99887199525E+03 0.  0.
        2    1    3    3  502    0 -0.99092267959E+02  0.28671687697E+03  0.57953173790E+03  0.65412757192E+03  0.25500000920E-02 0. -1.
       -2    1    3    3    0  502  0.99092267959E+02 -0.28671687697E+03 -0.25483784214E+03  0.39619208839E+03  0.25500000920E-02 0.  1.
</event>
<event>
 5   0  0.5758786E-04  0.1000255E+04  0.7818609E-02  0.9308266E-01
        1   -1    0    0  501    0  0.00000000000E+00  0.00000000000E+00  0.11623336164E+04  0.11623336164E+04  0.50400001928E-02 0.  1.
       -1   -1    0    0    0  501  0.00000000000E+00  0.00000000000E+00 -0.21519406618E+03  0.21519406624E+03  0.50400001928E-02 0. -1.
    10030    2    1    2    0    0  0.00000000000E+00  0.00000000000E+00  0.94713955019E+03  0.13775276826E+04  0.10002545620E+04 0.  0.
        3    1    3    3  502    0  0.10448997711E+03 -0.31185991515E+03 -0.45303562964E+02  0.33200479667E+03  0.10100000352E+00 0. -1.
       -3    1    3    3    0  502 -0.10448997711E+03  0.31185991515E+03  0.99244311315E+03  0.10455228859E+04  0.10100000352E+00 0.  1.
</event>
<event>
 5   0  0.3854625E-04  0.9993184E+03  0.7818609E-02  0.9309293E-01
       -3   -1    0    0    0  501  0.00000000000E+00  0.00000000000E+00  0.20123110970E+03  0.20123113505E+03  0.10100000352E+00 0. -1.
        3   -1    0    0  501    0  0.00000000000E+00  0.00000000000E+00 -0.12406596046E+04  0.12406596087E+04  0.10100000352E+00 0.  1.
    10030    2    1    2    0    0  0.00000000000E+00  0.00000000000E+00 -0.10394284949E+04  0.14418907438E+04  0.99931842821E+03 0.  0.
        3    1    3    3  502    0  0.33512228938E+03  0.26704001376E+03 -0.14891523100E+03  0.45364421523E+03  0.10100000352E+00 0. -1.
       -3    1    3    3    0  502 -0.33512228938E+03 -0.26704001376E+03 -0.89051326392E+03  0.98824652855E+03  0.10100000352E+00 0.  1.
</event>
<event>
 5   0  0.9741826E-04  0.9983755E+03  0.7818609E-02  0.9310328E-01
        2   -1    0    0  501    0  0.00000000000E+00  0.00000000000E+00  0.53476351884E+03  0.53476351884E+03  0.25500000920E-02 0. -1.
       -2   -1    0    0    0  501  0.00000000000E+00  0.00000000000E+00 -0.46597868590E+03  0.46597868591E+03  0.25500000920E-02 0.  1.
    10030    2    1    2    0    0  0.00000000000E+00  0.00000000000E+00  0.68784832936E+02  0.10007422048E+04  0.99837548404E+03 0.  0.
        3    1    3    3  502    0  0.10434094403E+03  0.16744822751E+00  0.52371081067E+03  0.53400382401E+03  0.10100000352E+00 0. -1.
       -3    1    3    3    0  502 -0.10434094403E+03 -0.16744822751E+00 -0.45492597774E+03  0.46673838074E+03  0.10100000352E+00 0.  1.
</event>
<event>
 5   0  0.5826939E-04  0.9993397E+03  0.7818609E-02  0.9309269E-01
       -1   -1    0    0    0  501  0.00000000000E+00  0.00000000000E+00  0.33025602152E+03  0.33025602156E+03  0.50400001928E-02 0.  1.
        1   -1    0    0  501    0  0.00000000000E+00  0.00000000000E+00 -0.75598905749E+03  0.75598905751E+03  0.50400001928E-02 0. -1.
    10030    2    1    2    0    0  0.00000000000E+00  0.00000000000E+00 -0.42573303597E+03  0.10862450791E+04  0.99933965892E+03 0.  0.
        1    1    3    3  502    0 -0.27497751423E+03  0.28450697414E+03 -0.54454711105E+03  0.67311842037E+03  0.50400001928E-02 0. -1.
       -1    1    3    3    0  502  0.27497751423E+03 -0.28450697414E+03  0.11881407508E+03  0.41312665870E+03  0.50400001928E-02 0.  1.
</event>
<event>
 5   0  0.1006006E-03  0.9916106E+03  0.7818609E-02  0.9317794E-01
        2   -1    0    0  501    0  0.00000000000E+00  0.00000000000E+00  0.24271664342E+03  0.24271664343E+03  0.25500000920E-02 0. -1.
       -2   -1    0    0    0  501  0.00000000000E+00  0.00000000000E+00 -0.10127978707E+04  0.10127978707E+04  0.25500000920E-02 0.  1.
    10030    2    1    2    0    0  0.00000000000E+00  0.00000000000E+00 -0.77008122728E+03  0.12555145141E+04  0.99161060835E+03 0.  0.
        2    1    3    3  502    0  0.16680701814E+03 -0.44574143516E+03 -0.20908455647E+03  0.51983301172E+03  0.25500000920E-02 0. -1.
       -2    1    3    3    0  502 -0.16680701814E+03  0.44574143516E+03 -0.56099667081E+03  0.73568150241E+03  0.25500000920E-02 0.  1.
</event>
<event>
 5   0  0.5888774E-04  0.1000132E+04  0.7818609E-02  0.9308400E-01
       -1   -1    0    0    0  501  0.00000000000E+00  0.00000000000E+00  0.36495022424E+03  0.36495022427E+03  0.50400001928E-02 0.  1.
        1   -1    0    0  501    0  0.00000000000E+00  0.00000000000E+00 -0.68520549683E+03  0.68520549684E+03  0.50400001928E-02 0. -1.
    10030    2    1    2    0    0  0.00000000000E+00  0.00000000000E+00 -0.32025527259E+03  0.10501557211E+04  0.10001317908E+04 0.  0.
        2    1    3    3  502    0  0.37317966587E+03  0.13934387656E+03 -0.47754932055E+03  0.62187871206E+03  0.25500000920E-02 0. -1.
       -2    1    3    3    0  502 -0.37317966587E+03 -0.13934387656E+03  0.15729404796E+03  0.42827700906E+03  0.25500000920E-02 0.  1.
</event>
<event>
 5   0  0.9741826E-04  0.9987543E+03  0.7818609E-02  0.9309912E-01
       -2   -1    0    0    0  501  0.00000000000E+00  0.00000000000E+00  0.18141463095E+03  0.18141463097E+03  0.25500000920E-02 0. -1.
        2   -1    0    0  501    0  0.00000000000E+00  0.00000000000E+00 -0.13746273518E+04  0.13746273518E+04  0.25500000920E-02 0.  1.
    10030    2    1    2    0    0  0.00000000000E+00  0.00000000000E+00 -0.11932127208E+04  0.15560419827E+04  0.99875425153E+03 0.  0.
        3    1    3    3  502    0 -0.37438944900E+03 -0.32457229445E+03 -0.49977462888E+03  0.70376794735E+03  0.10100000352E+00 0. -1.
       -3    1    3    3    0  502  0.37438944900E+03  0.32457229445E+03 -0.69343809193E+03  0.85227403539E+03  0.10100000352E+00 0.  1.
</event>
<event>
 5   0  0.1020150E-03  0.9985327E+03  0.7818609E-02  0.9310156E-01
       -2   -1    0    0    0  501  0.00000000000E+00  0.00000000000E+00  0.14479708497E+03  0.14479708499E+03  0.25500000920E-02 0. -1.
        2   -1    0    0  501    0  0.00000000000E+00  0.00000000000E+00 -0.17214909807E+04  0.17214909807E+04  0.25500000920E-02 0.  1.
    10030    2    1    2    0    0  0.00000000000E+00  0.00000000000E+00 -0.15766938957E+04  0.18662880657E+04  0.99853267514E+03 0.  0.
        5    1    3    3  502    0 -0.37192631825E+03  0.19996167450E+02 -0.14096857722E+04  0.14580689625E+04  0.46999998093E+01 0.  1.
       -5    1    3    3    0  502  0.37192631825E+03 -0.19996167450E+02 -0.16700812349E+03  0.40821910321E+03  0.46999998093E+01 0. -1.
</event>
<event>
 5   0  0.5888774E-04  0.9981466E+03  0.7818609E-02  0.9310580E-01
        1   -1    0    0  501    0  0.00000000000E+00  0.00000000000E+00  0.24782160800E+03  0.24782160805E+03  0.50400001928E-02 0. -1.
       -1   -1    0    0    0  501  0.00000000000E+00  0.00000000000E+00 -0.10050542058E+04  0.10050542058E+04  0.50400001928E-02 0.  1.
    10030    2    1    2    0    0  0.00000000000E+00  0.00000000000E+00 -0.75723259776E+03  0.12528758138E+04  0.99814658129E+03 0.  0.
        2    1    3    3  502    0  0.20033132913E+03  0.14192963012E+03 -0.92401212219E+03  0.95607272908E+03  0.25500000920E-02 0.  1.
       -2    1    3    3    0  502 -0.20033132913E+03 -0.14192963012E+03  0.16677952443E+03  0.29680308474E+03  0.25500000920E-02 0. -1.
</event>
<event>
 5   0  0.9741826E-04  0.1000539E+04  0.7818609E-02  0.9307954E-01
        2   -1    0    0  501    0  0.00000000000E+00  0.00000000000E+00  0.76589582645E+03  0.76589582645E+03  0.25500000920E-02 0.  1.
       -2   -1    0    0    0  501  0.00000000000E+00  0.00000000000E+00 -0.32676708109E+03  0.32676708110E+03  0.25500000920E-02 0. -1.
    10030    2    1    2    0    0  0.00000000000E+00  0.00000000000E+00  0.43912874536E+03  0.10926629076E+04  0.10005389420E+04 0.  0.
        3    1    3    3  502    0  0.44500525159E+03  0.16932340862E+03  0.51905376487E+02  0.47895121772E+03  0.10100000352E+00 0.  1.
       -3    1    3    3    0  502 -0.44500525159E+03 -0.16932340862E+03  0.38722336887E+03  0.61371168984E+03  0.10100000352E+00 0. -1.
</event>
<event>
 5   0  0.1006749E-03  0.9994459E+03  0.7818609E-02  0.9309153E-01
       -2   -1    0    0    0  501  0.00000000000E+00  0.00000000000E+00  0.18813667096E+03  0.18813667098E+03  0.25500000920E-02 0. -1.
        2   -1    0    0  501    0  0.00000000000E+00  0.00000000000E+00 -0.13273489140E+04  0.13273489140E+04  0.25500000920E-02 0.  1.
    10030    2    1    2    0    0  0.00000000000E+00  0.00000000000E+00 -0.11392122430E+04  0.15154855850E+04  0.99944585825E+03 0.  0.
        1    1    3    3  502    0 -0.68428183336E+02 -0.41268207195E+03 -0.98413227183E+03  0.10693480431E+04  0.50400001928E-02 0.  1.
       -1    1    3    3    0  502  0.68428183336E+02  0.41268207195E+03 -0.15507997121E+03  0.44613754188E+03  0.50400001928E-02 0. -1.
</event>
<event>
 5   0  0.5758786E-04  0.9995536E+03  0.7818609E-02  0.9309034E-01
        1   -1    0    0  501    0  0.00000000000E+00  0.00000000000E+00  0.12224702882E+04  0.12224702883E+04  0.50400001928E-02 0.  1.
       -1   -1    0    0    0  501  0.00000000000E+00  0.00000000000E+00 -0.20432142380E+03  0.20432142386E+03  0.50400001928E-02 0. -1.
    10030    2    1    2    0    0  0.00000000000E+00  0.00000000000E+00  0.10181488644E+04  0.14267917121E+04  0.99955364018E+03 0.  0.
        3    1    3    3  502    0  0.13389196299E+03  0.31690701416E+03 -0.83951009538E+01  0.34413311566E+03  0.10100000352E+00 0. -1.
       -3    1    3    3    0  502 -0.13389196299E+03 -0.31690701416E+03  0.10265439654E+04  0.10826585965E+04  0.10100000352E+00 0.  1.
</event>
<event>
 5   0  0.9741826E-04  0.9986603E+03  0.7818609E-02  0.9310015E-01
       -2   -1    0    0    0  501  0.00000000000E+00  0.00000000000E+00  0.17690157457E+03  0.17690157459E+03  0.25500000920E-02 0.  1.
        2   -1    0    0  501    0  0.00000000000E+00  0.00000000000E+00 -0.14094311030E+04  0.14094311030E+04  0.25500000920E-02 0. -1.
    10030    2    1    2    0    0  0.00000000000E+00  0.00000000000E+00 -0.12325295285E+04  0.15863326776E+04  0.99866026533E+03 0.  0.
        3    1    3    3  502    0 -0.34527612667E+03 -0.26432667244E+03 -0.10061546511E+04  0.10960982554E+04  0.10100000352E+00 0. -1.
       -3    1    3    3    0  502  0.34527612667E+03  0.26432667244E+03 -0.22637487739E+03  0.49023442222E+03  0.10100000352E+00 0.  1.
</event>
<event>
 5   0  0.5768102E-04  0.9999657E+03  0.7818609E-02  0.9308582E-01
        1   -1    0    0  501    0  0.00000000000E+00  0.00000000000E+00  0.10024765359E+04  0.10024765359E+04  0.50400001928E-02 0.  1.
       -1   -1    0    0    0  501  0.00000000000E+00  0.00000000000E+00 -0.24936530800E+03  0.24936530805E+03  0.50400001928E-02 0. -1.
    10030    2    1    2    0    0  0.00000000000E+00  0.00000000000E+00  0.75311122789E+03  0.12518418439E+04  0.99996573976E+03 0.  0.
        4    1    3    3  502    0 -0.40949076950E+03  0.14966424738E+03  0.68294575182E+03  0.81024600590E+03  0.12699999809E+01 0.  1.
       -4    1    3    3    0  502  0.40949076950E+03 -0.14966424738E+03  0.70165476064E+02  0.44159583804E+03  0.12699999809E+01 0. -1.
</event>
<event>
 5   0  0.5826939E-04  0.1000750E+04  0.7818609E-02  0.9307723E-01
        1   -1    0    0  501    0  0.00000000000E+00  0.00000000000E+00  0.40469969394E+03  0.40469969397E+03  0.50400001928E-02 0. -1.
       -1   -1    0    0    0  501  0.00000000000E+00  0.00000000000E+00 -0.61866861046E+03  0.61866861048E+03  0.50400001928E-02 0.  1.
    10030    2    1    2    0    0  0.00000000000E+00  0.00000000000E+00 -0.21396891652E+03  0.10233683044E+04  0.10007497136E+04 0.  0.
        1    1    3    3  502    0 -0.11414636185E+03  0.47158757485E+03  0.18052439382E+02  0.48554106239E+03  0.50400001928E-02 0. -1.
       -1    1    3    3    0  502  0.11414636185E+03 -0.47158757485E+03 -0.23202135590E+03  0.53782724205E+03  0.50400001928E-02 0.  1.
</event>
<event>
 5   0  0.5758786E-04  0.9988422E+03  0.7818609E-02  0.9309816E-01
        1   -1    0    0  501    0  0.00000000000E+00  0.00000000000E+00  0.12332602331E+04  0.12332602331E+04  0.50400001928E-02 0. -1.
       -1   -1    0    0    0  501  0.00000000000E+00  0.00000000000E+00 -0.20224557289E+03  0.20224557295E+03  0.50400001928E-02 0.  1.
    10030    2    1    2    0    0  0.00000000000E+00  0.00000000000E+00  0.10310146602E+04  0.14355058060E+04  0.99884217454E+03 0.  0.
        3    1    3    3  502    0 -0.24552181109E+03 -0.23367581729E+03  0.10426491144E+04  0.10963587612E+04  0.10100000352E+00 0. -1.
       -3    1    3    3    0  502  0.24552181109E+03  0.23367581729E+03 -0.11634454194E+02  0.33914704485E+03  0.10100000352E+00 0.  1.
</event>
<event>
 5   0  0.9674819E-04  0.1000270E+04  0.7818609E-02  0.9308249E-01
       -2   -1    0    0    0  501  0.00000000000E+00  0.00000000000E+00  0.15095205843E+03  0.15095205845E+03  0.25500000920E-02 0.  1.
        2   -1    0    0  501    0  0.00000000000E+00  0.00000000000E+00 -0.16570487602E+04  0.16570487602E+04  0.25500000920E-02 0. -1.
    10030    2    1    2    0    0  0.00000000000E+00  0.00000000000E+00 -0.15060967018E+04  0.18080008187E+04  0.10002698062E+04 0.  0.
        4    1    3    3  502    0 -0.31603903805E+03  0.28473897876E+03 -0.27764714268E+03  0.50798278350E+03  0.12699999809E+01 0.  1.
       -4    1    3    3    0  502  0.31603903805E+03 -0.28473897876E+03 -0.12284495591E+04  0.13000180352E+04  0.12699999809E+01 0. -1.
</event>
<event>
 5   0  0.9674819E-04  0.1000192E+04  0.7818609E-02  0.9308334E-01
        2   -1    0    0  501    0  0.00000000000E+00  0.00000000000E+00  0.68576309044E+03  0.68576309045E+03  0.25500000920E-02 0.  1.
       -2   -1    0    0    0  501  0.00000000000E+00  0.00000000000E+00 -0.36469738656E+03  0.36469738657E+03  0.25500000920E-02 0. -1.
    10030    2    1    2    0    0  0.00000000000E+00  0.00000000000E+00  0.32106570388E+03  0.10504604770E+04  0.10001919953E+04 0.  0.
        4    1    3    3  502    0 -0.34658428782E+03  0.23833371839E+03 -0.12356316022E+03  0.43839833183E+03  0.12699999809E+01 0. -1.
       -4    1    3    3    0  502  0.34658428782E+03 -0.23833371839E+03  0.44462886410E+03  0.61206214519E+03  0.12699999809E+01 0.  1.
</event>
<event>
 5   0  0.3854625E-04  0.1000517E+04  0.7818609E-02  0.9307978E-01
        4   -1    0    0  501    0  0.00000000000E+00  0.00000000000E+00  0.28113068797E+03  0.28113355655E+03  0.12699999809E+01 0.  1.
       -4   -1    0    0    0  501  0.00000000000E+00  0.00000000000E+00 -0.89017740879E+03  0.89017831473E+03  0.12699999809E+01 0. -1.
    10030    2    1    2    0    0  0.00000000000E+00  0.00000000000E+00 -0.60904672082E+03  0.11713118713E+04  0.10005166624E+04 0.  0.
        1    1    3    3  502    0  0.37300425500E+03  0.31572109236E+03 -0.42977487093E+03  0.65078293011E+03  0.50400001928E-02 0. -1.
       -1    1    3    3    0  502 -0.37300425500E+03 -0.31572109236E+03 -0.17927184989E+03  0.52052894117E+03  0.50400001928E-02 0.  1.
</event>
<event>
 5   0  0.5758786E-04  0.1002493E+04  0.7818609E-02  0.9305815E-01
       -1   -1    0    0    0  501  0.00000000000E+00  0.00000000000E+00  0.14484439825E+04  0.14484439826E+04  0.50400001928E-02 0.  1.
        1   -1    0    0  501    0  0.00000000000E+00  0.00000000000E+00 -0.17346068870E+03  0.17346068877E+03  0.50400001928E-02 0. -1.
    10030    2    1    2    0    0  0.00000000000E+00  0.00000000000E+00  0.12749832938E+04  0.16219046713E+04  0.10024930739E+04 0.  0.
        3    1    3    3  502    0 -0.38211796568E+03  0.15152625999E+03  0.11015520859E+04  0.11757514003E+04  0.10100000352E+00 0.  1.
       -3    1    3    3    0  502  0.38211796568E+03 -0.15152625999E+03  0.17343120798E+03  0.44615327105E+03  0.10100000352E+00 0. -1.
</event>
<event>
 5   0  0.5960102E-04  0.9996609E+03  0.7818609E-02  0.9308917E-01
       -1   -1    0    0    0  501  0.00000000000E+00  0.00000000000E+00  0.18693385595E+03  0.18693385602E+03  0.50400001928E-02 0. -1.
        1   -1    0    0  501    0  0.00000000000E+00  0.00000000000E+00 -0.13364647138E+04  0.13364647139E+04  0.50400001928E-02 0.  1.
    10030    2    1    2    0    0  0.00000000000E+00  0.00000000000E+00 -0.11495308579E+04  0.15233985699E+04  0.99966094724E+03 0.  0.
        5    1    3    3  502    0 -0.46344729891E+03 -0.15618933091E+03 -0.73188328257E+03  0.88025776637E+03  0.46999998093E+01 0.  1.
       -5    1    3    3    0  502  0.46344729891E+03  0.15618933091E+03 -0.41764757533E+03  0.64314080350E+03  0.46999998093E+01 0. -1.
</event>
<event>
 5   0  0.1006006E-03  0.1001030E+04  0.7818609E-02  0.9307415E-01
        2   -1    0    0  501    0  0.00000000000E+00  0.00000000000E+00  0.13796985016E+04  0.13796985016E+04  0.25500000920E-02 0. -1.
       -2   -1    0    0    0  501  0.00000000000E+00  0.00000000000E+00 -0.18157261765E+03  0.18157261767E+03  0.25500000920E-02 0.  1.
    10030    2    1    2    0    0  0.00000000000E+00  0.00000000000E+00  0.11981258839E+04  0.15612711192E+04  0.10010304062E+04 0.  0.
        2    1    3    3  502    0  0.12264393602E+03  0.23156603383E+03  0.12641661299E+04  0.12910384840E+04  0.25500000920E-02 0. -1.
       -2    1    3    3    0  502 -0.12264393602E+03 -0.23156603383E+03 -0.66040245996E+02  0.27023263527E+03  0.25500000920E-02 0.  1.
</event>
<event>
 5   0  0.9741826E-04  0.1000674E+04  0.7818609E-02  0.9307806E-01
       -2   -1    0    0    0  501  0.00000000000E+00  0.00000000000E+00  0.13534005319E+03  0.13534005321E+03  0.25500000920E-02 0. -1.
        2   -1    0    0  501    0  0.00000000000E+00  0.00000000000E+00 -0.18496884080E+04  0.18496884080E+04  0.25500000920E-02 0.  1.
    10030    2    1    2    0    0  0.00000000000E+00  0.00000000000E+00 -0.17143483548E+04  0.19850284612E+04  0.10006736282E+04 0.  0.
        3    1    3    3  502    0 -0.24165044402E+03 -0.25858326724E+03 -0.15587303431E+04  0.15984056231E+04  0.10100000352E+00 0.  1.
       -3    1    3    3    0  502  0.24165044402E+03  0.25858326724E+03 -0.15561801169E+03  0.38662283812E+03  0.10100000352E+00 0. -1.
</event>
<event>
 5   0  0.1006749E-03  0.1000196E+04  0.7818609E-02  0.9308330E-01
        2   -1    0    0  501    0  0.00000000000E+00  0.00000000000E+00  0.55739999147E+03  0.55739999147E+03  0.25500000920E-02 0. -1.
       -2   -1    0    0    0  501  0.00000000000E+00  0.00000000000E+00 -0.44868681326E+03  0.44868681327E+03  0.25500000920E-02 0.  1.
    10030    2    1    2    0    0  0.00000000000E+00  0.00000000000E+00  0.10871317821E+03  0.10060868047E+04  0.10001960326E+04 0.  0.
        1    1    3    3  502    0 -0.26679867011E+03  0.42250609696E+03  0.34111113904E+02  0.50085576812E+03  0.50400001928E-02 0. -1.
       -1    1    3    3    0  502  0.26679867011E+03 -0.42250609696E+03  0.74602064301E+02  0.50523103662E+03  0.50400001928E-02 0.  1.
</event>
<event>
 5   0  0.1006006E-03  0.1000508E+04  0.7818609E-02  0.9307987E-01
       -2   -1    0    0    0  501  0.00000000000E+00  0.00000000000E+00  0.38633927823E+03  0.38633927824E+03  0.25500000920E-02 0.  1.
        2   -1    0    0  501    0  0.00000000000E+00  0.00000000000E+00 -0.64775787928E+03  0.64775787929E+03  0.25500000920E-02 0. -1.
    10030    2    1    2    0    0  0.00000000000E+00  0.00000000000E+00 -0.26141860105E+03  0.10340971575E+04  0.10005084938E+04 0.  0.
        2    1    3    3  502    0  0.20937840466E+03  0.23556922866E+03 -0.53223840733E+03  0.61855468640E+03  0.25500000920E-02 0. -1.
       -2    1    3    3    0  502 -0.20937840466E+03 -0.23556922866E+03  0.27081980628E+03  0.41554247113E+03  0.25500000920E-02 0.  1.
</event>
<event>
 5   0  0.9741826E-04  0.9995549E+03  0.7818609E-02  0.9309033E-01
        2   -1    0    0  501    0  0.00000000000E+00  0.00000000000E+00  0.17134220175E+04  0.17134220175E+04  0.25500000920E-02 0. -1.
       -2   -1    0    0    0  501  0.00000000000E+00  0.00000000000E+00 -0.14577698413E+03  0.14577698415E+03  0.25500000920E-02 0.  1.
    10030    2    1    2    0    0  0.00000000000E+00  0.00000000000E+00  0.15676450334E+04  0.18591990017E+04  0.99955488948E+03 0.  0.
        3    1    3    3  502    0 -0.41561112920E+03 -0.15541429008E+03  0.35605161956E+03  0.56891034291E+03  0.10100000352E+00 0.  1.
       -3    1    3    3    0  502  0.41561112920E+03  0.15541429008E+03  0.12115934138E+04  0.12902886588E+04  0.10100000352E+00 0. -1.
</event>
<event>
 5   0  0.5758786E-04  0.9999526E+03  0.7818609E-02  0.9308597E-01
        1   -1    0    0  501    0  0.00000000000E+00  0.00000000000E+00  0.16278263109E+03  0.16278263116E+03  0.50400001928E-02 0. -1.
       -1   -1    0    0    0  501  0.00000000000E+00  0.00000000000E+00 -0.15356448451E+04  0.15356448451E+04  0.50400001928E-02 0.  1.
    10030    2    1    2    0    0  0.00000000000E+00  0.00000000000E+00 -0.13728622140E+04  0.16984274762E+04  0.99995261561E+03 0.  0.
        3    1    3    3  502    0 -0.30725456895E+03  0.24574941286E+03 -0.16242514878E+03  0.42565253813E+03  0.10100000352E+00 0.  1.
       -3    1    3    3    0  502  0.30725456895E+03 -0.24574941286E+03 -0.12104370652E+04  0.12727749381E+04  0.10100000352E+00 0. -1.
</event>
<event>
 5   0  0.1020150E-03  0.9980152E+03  0.7818609E-02  0.9310724E-01
       -2   -1    0    0    0  501  0.00000000000E+00  0.00000000000E+00  0.13742274701E+03  0.13742274703E+03  0.25500000920E-02 0. -1.
        2   -1    0    0  501    0  0.00000000000E+00  0.00000000000E+00 -0.18119893945E+04  0.18119893945E+04  0.25500000920E-02 0.  1.
    10030    2    1    2    0    0  0.00000000000E+00  0.00000000000E+00 -0.16745666475E+04  0.19494121415E+04  0.99801515051E+03 0.  0.
        5    1    3    3  502    0 -0.38594273241E+03  0.23338699482E+03 -0.12542324962E+04  0.13328700337E+04  0.46999998093E+01 0.  1.
       -5    1    3    3    0  502  0.38594273241E+03 -0.23338699482E+03 -0.42033415127E+03  0.61654210787E+03  0.46999998093E+01 0. -1.
</event>
<event>
 5   0  0.5960102E-04  0.9996717E+03  0.7818609E-02  0.9308905E-01
        1   -1    0    0  501    0  0.00000000000E+00  0.00000000000E+00  0.17939525227E+04  0.17939525227E+04  0.50400001928E-02 0.  1.
       -1   -1    0    0    0  501  0.00000000000E+00  0.00000000000E+00 -0.13926558847E+03  0.13926558856E+03  0.50400001928E-02 0. -1.
    10030    2    1    2    0    0  0.00000000000E+00  0.00000000000E+00  0.16546869343E+04  0.19332181113E+04  0.99967165383E+03 0.  0.
        5    1    3    3  502    0  0.38825563444E+03  0.11513471288E+03  0.13938512764E+04  0.14514964384E+04  0.46999998093E+01 0. -1.
       -5    1    3    3    0  502 -0.38825563444E+03 -0.11513471288E+03  0.26083565782E+03  0.48172167293E+03  0.46999998093E+01 0.  1.
</event>
<event>
 5   0  0.5758786E-04  0.1000588E+04  0.7818609E-02  0.9307900E-01
       -1   -1    0    0    0  501  0.00000000000E+00  0.00000000000E+00  0.35487511571E+03  0.35487511574E+03  0.50400001928E-02 0.  1.
        1   -1    0    0  501    0  0.00000000000E+00  0.00000000000E+00 -0.70530188762E+03  0.70530188764E+03  0.50400001928E-02 0. -1.
    10030    2    1    2    0    0  0.00000000000E+00  0.00000000000E+00 -0.35042677192E+03  0.10601770034E+04  0.10005880051E+04 0.  0.
        3    1    3    3  502    0  0.47468874731E+03  0.12320868306E+03 -0.70406987117E+02  0.49544620337E+03  0.10100000352E+00 0.  1.
       -3    1    3    3    0  502 -0.47468874731E+03 -0.12320868306E+03 -0.28001978480E+03  0.56473080001E+03  0.10100000352E+00 0. -1.
</event>
<event>
 5   0  0.9741826E-04  0.1002043E+04  0.7818609E-02  0.9306307E-01
        2   -1    0    0  501    0  0.00000000000E+00  0.00000000000E+00  0.10775581408E+04  0.10775581408E+04  0.25500000920E-02 0. -1.
       -2   -1    0    0    0  501  0.00000000000E+00  0.00000000000E+00 -0.23295508435E+03  0.23295508437E+03  0.25500000920E-02 0.  1.
    10030    2    1    2    0    0  0.00000000000E+00  0.00000000000E+00  0.84460305648E+03  0.13105132252E+04  0.10020432079E+04 0.  0.
        3    1    3    3  502    0 -0.22417298194E+03 -0.51557513503E+02  0.10044170539E+04  0.10304199782E+04  0.10100000352E+00 0. -1.
       -3    1    3    3    0  502  0.22417298194E+03  0.51557513503E+02 -0.15981399746E+03  0.28009324700E+03  0.10100000352E+00 0.  1.
</event>
<event>
 5   0  0.5826939E-04  0.9940480E+03  0.7818609E-02  0.9315097E-01
       -1   -1    0    0    0  501  0.00000000000E+00  0.00000000000E+00  0.46532098825E+03  0.46532098828E+03  0.50400001928E-02 0.  1.
        1   -1    0    0  501    0  0.00000000000E+00  0.00000000000E+00 -0.53088694592E+03  0.53088694595E+03  0.50400001928E-02 0. -1.
    10030    2    1    2    0    0  0.00000000000E+00  0.00000000000E+00 -0.65565957672E+02  0.99620793422E+03  0.99404796333E+03 0.  0.
        1    1    3    3  502    0 -0.29854684117E+03  0.13731239882E+03  0.34091858554E+03  0.47350859890E+03  0.50400001928E-02 0.  1.
       -1    1    3    3    0  502  0.29854684117E+03 -0.13731239882E+03 -0.40648454321E+03  0.52269933532E+03  0.50400001928E-02 0. -1.
</event>
<event>
 5   0  0.5758786E-04  0.1005046E+04  0.7818609E-02  0.9303028E-01
        1   -1    0    0  501    0  0.00000000000E+00  0.00000000000E+00  0.15791034115E+04  0.15791034115E+04  0.50400001928E-02 0. -1.
       -1   -1    0    0    0  501  0.00000000000E+00  0.00000000000E+00 -0.15991931086E+03  0.15991931094E+03  0.50400001928E-02 0.  1.
    10030    2    1    2    0    0  0.00000000000E+00  0.00000000000E+00  0.14191841006E+04  0.17390227224E+04  0.10050455301E+04 0.  0.
        3    1    3    3  502    0  0.19499626397E+03  0.19575876892E+02  0.15102564749E+04  0.15229187070E+04  0.10100000352E+00 0. -1.
       -3    1    3    3    0  502 -0.19499626397E+03 -0.19575876892E+02 -0.91072374301E+02  0.21610401542E+03  0.10100000352E+00 0.  1.
</event>
<event>
 5   0  0.5888774E-04  0.1000396E+04  0.7818609E-02  0.9308110E-01
        1   -1    0    0  501    0  0.00000000000E+00  0.00000000000E+00  0.66924852737E+03  0.66924852739E+03  0.50400001928E-02 0.  1.
       -1   -1    0    0    0  501  0.00000000000E+00  0.00000000000E+00 -0.37384933822E+03  0.37384933825E+03  0.50400001928E-02 0. -1.
    10030    2    1    2    0    0  0.00000000000E+00  0.00000000000E+00  0.29539918915E+03  0.10430978656E+04  0.10003961597E+04 0.  0.
        2    1    3    3  502    0 -0.30361110480E+03  0.99458568264E+02 -0.25360052446E+03  0.40790309605E+03  0.25500000920E-02 0. -1.
       -2    1    3    3    0  502  0.30361110480E+03 -0.99458568264E+02  0.54899971361E+03  0.63519476959E+03  0.25500000920E-02 0.  1.
</event>
<event>
 5   0  0.5960102E-04  0.9968867E+03  0.7818609E-02  0.9311966E-01
       -1   -1    0    0    0  501  0.00000000000E+00  0.00000000000E+00  0.22507553644E+03  0.22507553650E+03  0.50400001928E-02 0.  1.
        1   -1    0    0  501    0  0.00000000000E+00  0.00000000000E+00 -0.11038328025E+04  0.11038328025E+04  0.50400001928E-02 0. -1.
    10030    2    1    2    0    0  0.00000000000E+00  0.00000000000E+00 -0.87875726604E+03  0.13289083390E+04  0.99688667402E+03 0.  0.
        5    1    3    3  502    0  0.48225900986E+03 -0.32553589149E+02 -0.60149840610E+03  0.77165789784E+03  0.46999998093E+01 0. -1.
       -5    1    3    3    0  502 -0.48225900986E+03  0.32553589149E+02 -0.27725885994E+03  0.55725044116E+03  0.46999998093E+01 0.  1.
</event>
<event>
 5   0  0.9674819E-04  0.9957930E+03  0.7818609E-02  0.9313171E-01
       -2   -1    0    0    0  501  0.00000000000E+00  0.00000000000E+00  0.18576613171E+03  0.18576613172E+03  0.25500000920E-02 0.  1.
        2   -1    0    0  501    0  0.00000000000E+00  0.00000000000E+00 -0.13344785959E+04  0.13344785959E+04  0.25500000920E-02 0. -1.
    10030    2    1    2    0    0  0.00000000000E+00  0.00000000000E+00 -0.11487124642E+04  0.15202447276E+04  0.99579300382E+03 0.  0.
        4    1    3    3  502    0  0.68313273972E+02  0.27005046930E+03  0.55669933249E+02  0.28406814981E+03  0.12699999809E+01 0.  1.
       -4    1    3    3    0  502 -0.68313273972E+02 -0.27005046930E+03 -0.12043823974E+04  0.12361765778E+04  0.12699999809E+01 0. -1.
</event>
<event>
 5   0  0.1006749E-03  0.1000567E+04  0.7818609E-02  0.9307923E-01
        2   -1    0    0  501    0  0.00000000000E+00  0.00000000000E+00  0.70571746828E+03  0.70571746829E+03  0.25500000920E-02 0.  1.
       -2   -1    0    0    0  501  0.00000000000E+00  0.00000000000E+00 -0.35465149249E+03  0.35465149250E+03  0.25500000920E-02 0. -1.
    10030    2    1    2    0    0  0.00000000000E+00  0.00000000000E+00  0.35106597579E+03  0.10603689608E+04  0.10005673459E+04 0.  0.
        1    1    3    3  502    0 -0.38346001021E+03  0.28338370964E+03  0.15035561337E+02  0.47704714070E+03  0.50400001928E-02 0. -1.
       -1    1    3    3    0  502  0.38346001021E+03 -0.28338370964E+03  0.33603041446E+03  0.58332182009E+03  0.50400001928E-02 0.  1.
</event>
<event>
 5   0  0.5768102E-04  0.1005207E+04  0.7818609E-02  0.9302852E-01
        1   -1    0    0  501    0  0.00000000000E+00  0.00000000000E+00  0.58036864302E+03  0.58036864304E+03  0.50400001928E-02 0. -1.
       -1   -1    0    0    0  501  0.00000000000E+00  0.00000000000E+00 -0.43525842500E+03  0.43525842502E+03  0.50400001928E-02 0.  1.
    10030    2    1    2    0    0  0.00000000000E+00  0.00000000000E+00  0.14511021802E+03  0.10156270681E+04  0.10052071259E+04 0.  0.
        4    1    3    3  502    0  0.43190377247E+03  0.41736000180E+01  0.33222199461E+03  0.54491407966E+03  0.12699999809E+01 0. -1.
       -4    1    3    3    0  502 -0.43190377247E+03 -0.41736000180E+01 -0.18711177658E+03  0.47071298840E+03  0.12699999809E+01 0.  1.
</event>
<event>
 5   0  0.1006006E-03  0.1001901E+04  0.7818609E-02  0.9306463E-01
       -2   -1    0    0    0  501  0.00000000000E+00  0.00000000000E+00  0.25083078509E+03  0.25083078511E+03  0.25500000920E-02 0. -1.
        2   -1    0    0  501    0  0.00000000000E+00  0.00000000000E+00 -0.10004800844E+04  0.10004800844E+04  0.25500000920E-02 0.  1.
    10030    2    1    2    0    0  0.00000000000E+00  0.00000000000E+00 -0.74964929929E+03  0.12513108695E+04  0.10019006039E+04 0.  0.
        2    1    3    3  502    0  0.29368250360E+03  0.26598690308E+03  0.79959937793E+01  0.39631096560E+03  0.25500000920E-02 0. -1.
       -2    1    3    3    0  502 -0.29368250360E+03 -0.26598690308E+03 -0.75764529306E+03  0.85499990389E+03  0.25500000920E-02 0.  1.
</event>
<event>
 5   0  0.5960102E-04  0.1000490E+04  0.7818609E-02  0.9308008E-01
       -1   -1    0    0    0  501  0.00000000000E+00  0.00000000000E+00  0.35425330555E+03  0.35425330558E+03  0.50400001928E-02 0.  1.
        1   -1    0    0  501    0  0.00000000000E+00  0.00000000000E+00 -0.70640123269E+03  0.70640123270E+03  0.50400001928E-02 0. -1.
    10030    2    1    2    0    0  0.00000000000E+00  0.00000000000E+00 -0.35214792714E+03  0.10606545383E+04  0.10004898235E+04 0.  0.
        5    1    3    3  502    0  0.27044508963E+03 -0.24928686261E+03  0.18333908801E+03  0.41099853718E+03  0.46999998093E+01 0.  1.
       -5    1    3    3    0  502 -0.27044508963E+03  0.24928686261E+03 -0.53548701515E+03  0.64965600110E+03  0.46999998093E+01 0. -1.
</event>
<event>
 5   0  0.1006006E-03  0.1000910E+04  0.7818609E-02  0.9307548E-01
       -2   -1    0    0    0  501  0.00000000000E+00  0.00000000000E+00  0.55691706468E+03  0.55691706469E+03  0.25500000920E-02 0. -1.
        2   -1    0    0  501    0  0.00000000000E+00  0.00000000000E+00 -0.44971690449E+03  0.44971690450E+03  0.25500000920E-02 0.  1.
    10030    2    1    2    0    0  0.00000000000E+00  0.00000000000E+00  0.10720016019E+03  0.10066339692E+04  0.10009096231E+04 0.  0.
        2    1    3    3  502    0 -0.18602255757E+03  0.18656728615E+03 -0.37432517147E+03  0.45774564792E+03  0.25500000920E-02 0.  1.
       -2    1    3    3    0  502  0.18602255757E+03 -0.18656728615E+03  0.48152533166E+03  0.54888832127E+03  0.25500000920E-02 0. -1.
</event>
<event>
 5   0  0.5768102E-04  0.9986276E+03  0.7818609E-02  0.9310051E-01
       -1   -1    0    0    0  501  0.00000000000E+00  0.00000000000E+00  0.10154858520E+03  0.10154858533E+03  0.50400001928E-02 0. -1.
        1   -1    0    0  501    0  0.00000000000E+00  0.00000000000E+00 -0.24551230830E+04  0.24551230830E+04  0.50400001928E-02 0.  1.
    10030    2    1    2    0    0  0.00000000000E+00  0.00000000000E+00 -0.23535744978E+04  0.25566716683E+04  0.99862760974E+03 0.  0.
        4    1    3    3  502    0  0.60115679231E+02 -0.17068700964E+03 -0.23682082099E+04  0.23751125634E+04  0.12699999809E+01 0.  1.
       -4    1    3    3    0  502 -0.60115679231E+02  0.17068700964E+03  0.14633712172E+02  0.18155910493E+03  0.12699999809E+01 0. -1.
</event>
<event>
 5   0  0.5888774E-04  0.1001585E+04  0.7818609E-02  0.9306808E-01
       -1   -1    0    0    0  501  0.00000000000E+00  0.00000000000E+00  0.40254174783E+03  0.40254174786E+03  0.50400001928E-02 0.  1.
        1   -1    0    0  501    0  0.00000000000E+00  0.00000000000E+00 -0.62302406057E+03  0.62302406059E+03  0.50400001928E-02 0. -1.
    10030    2    1    2    0    0  0.00000000000E+00  0.00000000000E+00 -0.22048231274E+03  0.10255658084E+04  0.10015851323E+04 0.  0.
        2    1    3    3  502    0 -0.29057584050E+03  0.38243907559E+03 -0.25540730672E+03  0.54399159732E+03  0.25500000920E-02 0.  1.
       -2    1    3    3    0  502  0.29057584050E+03 -0.38243907559E+03  0.34924993976E+02  0.48157421113E+03  0.25500000920E-02 0. -1.
</event>
<event>
 5   0  0.5888774E-04  0.9997195E+03  0.7818609E-02  0.9308853E-01
       -1   -1    0    0    0  501  0.00000000000E+00  0.00000000000E+00  0.38639091405E+03  0.38639091408E+03  0.50400001928E-02 0.  1.
        1   -1    0    0  501    0  0.00000000000E+00  0.00000000000E+00 -0.64665017219E+03  0.64665017221E+03  0.50400001928E-02 0. -1.
    10030    2    1    2    0    0  0.00000000000E+00  0.00000000000E+00 -0.26025925814E+03  0.10330410863E+04  0.99971946291E+03 0.  0.
        2    1    3    3  502    0 -0.28707416320E+03  0.40474777240E+03 -0.67894130880E+02  0.50084123977E+03  0.25500000920E-02 0. -1.
       -2    1    3    3    0  502  0.28707416320E+03 -0.40474777240E+03 -0.19236512726E+03  0.53219984652E+03  0.25500000920E-02 0.  1.
</event>
<event>
 5   0  0.9674819E-04  0.1002456E+04  0.7818609E-02  0.9305855E-01
        2   -1    0    0  501    0  0.00000000000E+00  0.00000000000E+00  0.31169100504E+03  0.31169100505E+03  0.25500000920E-02 0. -1.
       -2   -1    0    0    0  501  0.00000000000E+00  0.00000000000E+00 -0.80602071241E+03  0.80602071241E+03  0.25500000920E-02 0.  1.
    10030    2    1    2    0    0  0.00000000000E+00  0.00000000000E+00 -0.49432970736E+03  0.11177117175E+04  0.10024557964E+04 0.  0.
        4    1    3    3  502    0  0.39960941381E+03 -0.22534995702E+03 -0.47226116318E+03  0.65840907184E+03  0.12699999809E+01 0. -1.
       -4    1    3    3    0  502 -0.39960941381E+03  0.22534995702E+03 -0.22068544181E+02  0.45930264562E+03  0.12699999809E+01 0.  1.
</event>
<event>
 5   0  0.5960102E-04  0.9980749E+03  0.7818609E-02  0.9310659E-01
        1   -1    0    0  501    0  0.00000000000E+00  0.00000000000E+00  0.25681541774E+03  0.25681541779E+03  0.50400001928E-02 0.  1.
       -1   -1    0    0    0  501  0.00000000000E+00  0.00000000000E+00 -0.96971729304E+03  0.96971729306E+03  0.50400001928E-02 0. -1.
    10030    2    1    2    0    0  0.00000000000E+00  0.00000000000E+00 -0.71290187530E+03  0.12265327108E+04  0.99807485039E+03 0.  0.
        5    1    3    3  502    0  0.22010959681E+03  0.42921427365E+02  0.19137567508E+03  0.29485118712E+03  0.46999998093E+01 0.  1.
       -5    1    3    3    0  502 -0.22010959681E+03 -0.42921427365E+02 -0.90427755038E+03  0.93168152373E+03  0.46999998093E+01 0. -1.
</event>
<event>
 5   0  0.1020150E-03  0.9985243E+03  0.7818609E-02  0.9310165E-01
        2   -1    0    0  501    0  0.00000000000E+00  0.00000000000E+00  0.92209257108E+03  0.92209257109E+03  0.25500000920E-02 0. -1.
       -2   -1    0    0    0  501  0.00000000000E+00  0.00000000000E+00 -0.27032283518E+03  0.27032283520E+03  0.25500000920E-02 0.  1.
    10030    2    1    2    0    0  0.00000000000E+00  0.00000000000E+00  0.65176973590E+03  0.11924154063E+04  0.99852426736E+03 0.  0.
        5    1    3    3  502    0  0.34818651713E+03 -0.32099980029E+03  0.51457199366E+03  0.69934336999E+03  0.46999998093E+01 0. -1.
       -5    1    3    3    0  502 -0.34818651713E+03  0.32099980029E+03  0.13719774224E+03  0.49307203629E+03  0.46999998093E+01 0.  1.
</event>
<event>
 5   0  0.1020150E-03  0.9997661E+03  0.7818609E-02  0.9308801E-01
       -2   -1    0    0    0  501  0.00000000000E+00  0.00000000000E+00  0.37949376343E+03  0.37949376344E+03  0.25500000920E-02 0. -1.
        2   -1    0    0  501    0  0.00000000000E+00  0.00000000000E+00 -0.65846427902E+03  0.65846427902E+03  0.25500000920E-02 0.  1.
    10030    2    1    2    0    0  0.00000000000E+00  0.00000000000E+00 -0.27897051559E+03  0.10379580425E+04  0.99976614733E+03 0.  0.
        5    1    3    3  502    0 -0.14656119074E+03  0.19626227132E+03 -0.59186205670E+03  0.64056369389E+03  0.46999998093E+01 0.  1.
       -5    1    3    3    0  502  0.14656119074E+03 -0.19626227132E+03  0.31289154111E+03  0.39739434857E+03  0.46999998093E+01 0. -1.
</event>
<event>
 5   0  0.9674819E-04  0.1000307E+04  0.7818609E-02  0.9308208E-01
        2   -1    0    0  501    0  0.00000000000E+00  0.00000000000E+00  0.17780923926E+04  0.17780923926E+04  0.25500000920E-02 0.  1.
       -2   -1    0    0    0  501  0.00000000000E+00  0.00000000000E+00 -0.14068656270E+03  0.14068656272E+03  0.25500000920E-02 0. -1.
    10030    2    1    2    0    0  0.00000000000E+00  0.00000000000E+00  0.16374058299E+04  0.19187789553E+04  0.10003073666E+04 0.  0.
        4    1    3    3  502    0 -0.26504247249E+03 -0.21287038899E+03  0.15224216823E+04  0.15599136856E+04  0.12699999809E+01 0.  1.
       -4    1    3    3    0  502  0.26504247249E+03  0.21287038899E+03  0.11498414756E+03  0.35886526973E+03  0.12699999809E+01 0. -1.
</event>
<event>
 5   0  0.5768102E-04  0.9982593E+03  0.7818609E-02  0.9310456E-01
       -1   -1    0    0    0  501  0.00000000000E+00  0.00000000000E+00  0.26936359322E+03  0.26936359327E+03  0.50400001928E-02 0. -1.
        1   -1    0    0  501    0  0.00000000000E+00  0.00000000000E+00 -0.92488513976E+03  0.92488513977E+03  0.50400001928E-02 0.  1.
    10030    2    1    2    0    0  0.00000000000E+00  0.00000000000E+00 -0.65552154653E+03  0.11942487330E+04  0.99825925410E+03 0.  0.
        4    1    3    3  502    0  0.25580766913E+03 -0.39789520984E+03 -0.13720728653E+03  0.49252981024E+03  0.12699999809E+01 0. -1.
       -4    1    3    3    0  502 -0.25580766913E+03  0.39789520984E+03 -0.51831426000E+03  0.70171892280E+03  0.12699999809E+01 0.  1.
</event>
<event>
 5   0  0.5888774E-04  0.1000849E+04  0.7818609E-02  0.9307614E-01
        1   -1    0    0  501    0  0.00000000000E+00  0.00000000000E+00  0.46082748273E+03  0.46082748275E+03  0.50400001928E-02 0. -1.
       -1   -1    0    0    0  501  0.00000000000E+00  0.00000000000E+00 -0.54342420924E+03  0.54342420927E+03  0.50400001928E-02 0.  1.
    10030    2    1    2    0    0  0.00000000000E+00  0.00000000000E+00 -0.82596726518E+02  0.10042516920E+04  0.10008492602E+04 0.  0.
        2    1    3    3  502    0 -0.16417338003E+03  0.16832125221E+02  0.43273607623E+03  0.46313791772E+03  0.25500000920E-02 0. -1.
       -2    1    3    3    0  502  0.16417338003E+03 -0.16832125221E+02 -0.51533280274E+03  0.54111377430E+03  0.25500000920E-02 0.  1.
</event>
<event>
 5   0  0.3854625E-04  0.9954040E+03  0.7818609E-02  0.9313600E-01
        3   -1    0    0  501    0  0.00000000000E+00  0.00000000000E+00  0.73734271873E+03  0.73734272564E+03  0.10100000352E+00 0. -1.
       -3   -1    0    0    0  501  0.00000000000E+00  0.00000000000E+00 -0.33594589747E+03  0.33594591266E+03  0.10100000352E+00 0.  1.
    10030    2    1    2    0    0  0.00000000000E+00  0.00000000000E+00  0.40139682125E+03  0.10732886383E+04  0.99540398482E+03 0.  0.
        5    1    3    3  502    0  0.29086438452E+03 -0.33070313200E+03  0.45060587217E+03  0.63010665267E+03  0.46999998093E+01 0. -1.
       -5    1    3    3    0  502 -0.29086438452E+03  0.33070313200E+03 -0.49209050916E+02  0.44318198564E+03  0.46999998093E+01 0.  1.
</event>
<event>
 5   0  0.1006006E-03  0.9976003E+03  0.7818609E-02  0.9311181E-01
       -2   -1    0    0    0  501  0.00000000000E+00  0.00000000000E+00  0.18754991216E+03  0.18754991218E+03  0.25500000920E-02 0. -1.
        2   -1    0    0  501    0  0.00000000000E+00  0.00000000000E+00 -0.13265887367E+04  0.13265887367E+04  0.25500000920E-02 0.  1.
    10030    2    1    2    0    0  0.00000000000E+00  0.00000000000E+00 -0.11390388246E+04  0.15141386489E+04  0.99760032289E+03 0.  0.
        2    1    3    3  502    0 -0.72552300361E+02 -0.26026097267E+03 -0.12059059128E+04  0.12358028487E+04  0.25500000920E-02 0.  1.
       -2    1    3    3    0  502  0.72552300361E+02  0.26026097267E+03  0.66867088273E+02  0.27833580022E+03  0.25500000920E-02 0. -1.
</event>
<event>
 5   0  0.5888774E-04  0.1001885E+04  0.7818609E-02  0.9306479E-01
       -1   -1    0    0    0  501  0.00000000000E+00  0.00000000000E+00  0.25448932444E+03  0.25448932449E+03  0.50400001928E-02 0.  1.
        1   -1    0    0  501    0  0.00000000000E+00  0.00000000000E+00 -0.98606734938E+03  0.98606734939E+03  0.50400001928E-02 0. -1.
    10030    2    1    2    0    0  0.00000000000E+00  0.00000000000E+00 -0.73157802494E+03  0.12405566739E+04  0.10018854498E+04 0.  0.
        2    1    3    3  502    0  0.25788171371E+03 -0.22157406422E+01 -0.89755562299E+03  0.93387043220E+03  0.25500000920E-02 0. -1.
       -2    1    3    3    0  502 -0.25788171371E+03  0.22157406422E+01  0.16597759805E+03  0.30668624168E+03  0.25500000920E-02 0.  1.
</event>
<event>
 5   0  0.9741826E-04  0.1000137E+04  0.7818609E-02  0.9308395E-01
       -2   -1    0    0    0  501  0.00000000000E+00  0.00000000000E+00  0.15977531731E+03  0.15977531733E+03  0.25500000920E-02 0. -1.
        2   -1    0    0  501    0  0.00000000000E+00  0.00000000000E+00 -0.15651253682E+04  0.15651253682E+04  0.25500000920E-02 0.  1.
    10030    2    1    2    0    0  0.00000000000E+00  0.00000000000E+00 -0.14053500509E+04  0.17249006856E+04  0.10001367954E+04 0.  0.
        3    1    3    3  502    0 -0.29248702354E+03 -0.34522458818E+03 -0.33544000359E+03  0.56324833016E+03  0.10100000352E+00 0. -1.
       -3    1    3    3    0  502  0.29248702354E+03  0.34522458818E+03 -0.10699100473E+04  0.11616523554E+04  0.10100000352E+00 0.  1.
</event>
<event>
 5   0  0.1020150E-03  0.1011155E+04  0.7818609E-02  0.9296394E-01
        2   -1    0    0  501    0  0.00000000000E+00  0.00000000000E+00  0.11313319685E+04  0.11313319685E+04  0.25500000920E-02 0. -1.
       -2   -1    0    0    0  501  0.00000000000E+00  0.00000000000E+00 -0.22593611135E+03  0.22593611137E+03  0.25500000920E-02 0.  1.
    10030    2    1    2    0    0  0.00000000000E+00  0.00000000000E+00  0.90539585712E+03  0.13572680798E+04  0.10111552712E+04 0.  0.
        5    1    3    3  502    0  0.23273509182E+03  0.10596218377E+03  0.10380876665E+04  0.10691312831E+04  0.46999998093E+01 0. -1.
       -5    1    3    3    0  502 -0.23273509182E+03 -0.10596218377E+03 -0.13269180933E+03  0.28813679670E+03  0.46999998093E+01 0.  1.
</event>
<event>
 5   0  0.5960102E-04  0.1000334E+04  0.7818609E-02  0.9308179E-01
        1   -1    0    0  501    0  0.00000000000E+00  0.00000000000E+00  0.88313309954E+03  0.88313309955E+03  0.50400001928E-02 0.  1.
       -1   -1    0    0    0  501  0.00000000000E+00  0.00000000000E+00 -0.28327218968E+03  0.28327218973E+03  0.50400001928E-02 0. -1.
    10030    2    1    2    0    0  0.00000000000E+00  0.00000000000E+00  0.59986090986E+03  0.11664052893E+04  0.10003340381E+04 0.  0.
        5    1    3    3  502    0 -0.10557783651E+03 -0.18801629230E+03 -0.22626206436E+03  0.31259145462E+03  0.46999998093E+01 0. -1.
       -5    1    3    3    0  502  0.10557783651E+03  0.18801629230E+03  0.82612297422E+03  0.85381383466E+03  0.46999998093E+01 0.  1.
</event>
<event>
 5   0  0.5758786E-04  0.1000394E+04  0.7818609E-02  0.9308113E-01
       -1   -1    0    0    0  501  0.00000000000E+00  0.00000000000E+00  0.75910953540E+03  0.75910953542E+03  0.50400001928E-02 0.  1.
        1   -1    0    0  501    0  0.00000000000E+00  0.00000000000E+00 -0.32959288241E+03  0.32959288245E+03  0.50400001928E-02 0. -1.
    10030    2    1    2    0    0  0.00000000000E+00  0.00000000000E+00  0.42951665299E+03  0.10887024179E+04  0.10003941221E+04 0.  0.
        3    1    3    3  502    0  0.11876461310E+03  0.18829112877E+03  0.70222530336E+03  0.73666747545E+03  0.10100000352E+00 0.  1.
       -3    1    3    3    0  502 -0.11876461310E+03 -0.18829112877E+03 -0.27270865037E+03  0.35203494242E+03  0.10100000352E+00 0. -1.
</event>
<event>
 5   0  0.9741826E-04  0.9995235E+03  0.7818609E-02  0.9309068E-01
        2   -1    0    0  501    0  0.00000000000E+00  0.00000000000E+00  0.20948341366E+04  0.20948341366E+04  0.25500000920E-02 0. -1.
       -2   -1    0    0    0  501  0.00000000000E+00  0.00000000000E+00 -0.11922749705E+03  0.11922749708E+03  0.25500000920E-02 0.  1.
    10030    2    1    2    0    0  0.00000000000E+00  0.00000000000E+00  0.19756066396E+04  0.22140616337E+04  0.99952354825E+03 0.  0.
        3    1    3    3  502    0  0.31273181322E+03 -0.33287203439E+03  0.53841922223E+03  0.70604549949E+03  0.10100000352E+00 0.  1.
       -3    1    3    3    0  502 -0.31273181322E+03  0.33287203439E+03  0.14371874174E+04  0.15080161342E+04  0.10100000352E+00 0. -1.
</event>
<event>
 5   0  0.1006749E-03  0.1003968E+04  0.7818609E-02  0.9304203E-01
       -2   -1    0    0    0  501  0.00000000000E+00  0.00000000000E+00  0.30284886440E+03  0.30284886441E+03  0.25500000920E-02 0. -1.
        2   -1    0    0  501    0  0.00000000000E+00  0.00000000000E+00 -0.83205849831E+03  0.83205849831E+03  0.25500000920E-02 0.  1.
    10030    2    1    2    0    0  0.00000000000E+00  0.00000000000E+00 -0.52920963391E+03  0.11349073627E+04  0.10039680699E+04 0.  0.
        1    1    3    3  502    0  0.66806451804E+02 -0.56632605534E+02 -0.82335529138E+03  0.82800017505E+03  0.50400001928E-02 0.  1.
       -1    1    3    3    0  502 -0.66806451804E+02  0.56632605534E+02  0.29414565747E+03  0.30690718767E+03  0.50400001928E-02 0. -1.
</event>
<event>
 5   0  0.1006749E-03  0.9984967E+03  0.7818609E-02  0.9310195E-01
        2   -1    0    0  501    0  0.00000000000E+00  0.00000000000E+00  0.14558008178E+04  0.14558008178E+04  0.25500000920E-02 0. -1.
       -2   -1    0    0    0  501  0.00000000000E+00  0.00000000000E+00 -0.17121086275E+03  0.17121086277E+03  0.25500000920E-02 0.  1.
    10030    2    1    2    0    0  0.00000000000E+00  0.00000000000E+00  0.12845899551E+04  0.16270116806E+04  0.99849669811E+03 0.  0.
        1    1    3    3  502    0  0.17768309033E+03 -0.42741193342E+03  0.94712477324E+03  0.10541809985E+04  0.50400001928E-02 0. -1.
       -1    1    3    3    0  502 -0.17768309033E+03  0.42741193342E+03  0.33746518183E+03  0.57283068213E+03  0.50400001928E-02 0.  1.
</event>
<event>
 5   0  0.1006006E-03  0.9980118E+03  0.7818609E-02  0.9310728E-01
        2   -1    0    0  501    0  0.00000000000E+00  0.00000000000E+00  0.39288582199E+03  0.39288582199E+03  0.25500000920E-02 0. -1.
       -2   -1    0    0    0  501  0.00000000000E+00  0.00000000000E+00 -0.63378945207E+03  0.63378945207E+03  0.25500000920E-02 0.  1.
    10030    2    1    2    0    0  0.00000000000E+00  0.00000000000E+00 -0.24090363008E+03  0.10266752741E+04  0.99801180323E+03 0.  0.
        2    1    3    3  502    0  0.14034160219E+03  0.82118002553E+02  0.36486858947E+03  0.39945990943E+03  0.25500000920E-02 0. -1.
       -2    1    3    3    0  502 -0.14034160219E+03 -0.82118002553E+02 -0.60577221956E+03  0.62721536464E+03  0.25500000920E-02 0.  1.
</event>
<event>
 5   0  0.5826939E-04  0.1000267E+04  0.7818609E-02  0.9308252E-01
       -1   -1    0    0    0  501  0.00000000000E+00  0.00000000000E+00  0.56117833953E+03  0.56117833955E+03  0.50400001928E-02 0.  1.
        1   -1    0    0  501    0  0.00000000000E+00  0.00000000000E+00 -0.44572885186E+03  0.44572885189E+03  0.50400001928E-02 0. -1.
    10030    2    1    2    0    0  0.00000000000E+00  0.00000000000E+00  0.11544948767E+03  0.10069071914E+04  0.10002667184E+04 0.  0.
        1    1    3    3  502    0 -0.23379897670E+03 -0.13250338996E+03 -0.36687429991E+03  0.45477011975E+03  0.50400001928E-02 0. -1.
       -1    1    3    3    0  502  0.23379897670E+03  0.13250338996E+03  0.48232378757E+03  0.55213707170E+03  0.50400001928E-02 0.  1.
</event>
<event>
 5   0  0.1006749E-03  0.9980096E+03  0.7818609E-02  0.9310730E-01
        2   -1    0    0  501    0  0.00000000000E+00  0.00000000000E+00  0.60737345552E+03  0.60737345552E+03  0.25500000920E-02 0.  1.
       -2   -1    0    0    0  501  0.00000000000E+00  0.00000000000E+00 -0.40997150108E+03  0.40997150109E+03  0.25500000920E-02 0. -1.
    10030    2    1    2    0    0  0.00000000000E+00  0.00000000000E+00  0.19740195444E+03  0.10173449566E+04  0.99800963378E+03 0.  0.
        1    1    3    3  502    0 -0.25639163320E+03 -0.24119590575E+03  0.45923908465E+03  0.57862999526E+03  0.50400001928E-02 0.  1.
       -1    1    3    3    0  502  0.25639163320E+03  0.24119590575E+03 -0.26183713021E+03  0.43871496134E+03  0.50400001928E-02 0. -1.
</event>
<event>
 5   0  0.9674819E-04  0.9996177E+03  0.7818609E-02  0.9308964E-01
        2   -1    0    0  501    0  0.00000000000E+00  0.00000000000E+00  0.12445922589E+04  0.12445922589E+04  0.25500000920E-02 0. -1.
       -2   -1    0    0    0  501  0.00000000000E+00  0.00000000000E+00 -0.20071543054E+03  0.20071543055E+03  0.25500000920E-02 0.  1.
    10030    2    1    2    0    0  0.00000000000E+00  0.00000000000E+00  0.10438768284E+04  0.14453076895E+04  0.99961766912E+03 0.  0.
        4    1    3    3  502    0 -0.46306876898E+02 -0.13099167316E+03 -0.17223140661E+03  0.22128808285E+03  0.12699999809E+01 0.  1.
       -4    1    3    3    0  502  0.46306876898E+02  0.13099167316E+03  0.12161082350E+04  0.12240196066E+04  0.12699999809E+01 0. -1.
</event>
<event>
 5   0  0.9741826E-04  0.9962015E+03  0.7818609E-02  0.9312721E-01
        2   -1    0    0  501    0  0.00000000000E+00  0.00000000000E+00  0.39385846313E+03  0.39385846314E+03  0.25500000920E-02 0.  1.
       -2   -1    0    0    0  501  0.00000000000E+00  0.00000000000E+00 -0.62993282791E+03  0.62993282791E+03  0.25500000920E-02 0. -1.
    10030    2    1    2    0    0  0.00000000000E+00  0.00000000000E+00 -0.23607436477E+03  0.10237912911E+04  0.99620153681E+03 0.  0.
        3    1    3    3  502    0  0.21816084140E+03  0.16882666165E+03  0.30818716783E+03  0.41361326746E+03  0.10100000352E+00 0.  1.
       -3    1    3    3    0  502 -0.21816084140E+03 -0.16882666165E+03 -0.54426153260E+03  0.61017802359E+03  0.10100000352E+00 0. -1.
</event>
<event>
 5   0  0.5758786E-04  0.9989009E+03  0.7818609E-02  0.9309751E-01
       -1   -1    0    0    0  501  0.00000000000E+00  0.00000000000E+00  0.11491345632E+03  0.11491345643E+03  0.50400001928E-02 0. -1.
        1   -1    0    0  501    0  0.00000000000E+00  0.00000000000E+00 -0.21707705983E+04  0.21707705983E+04  0.50400001928E-02 0.  1.
    10030    2    1    2    0    0  0.00000000000E+00  0.00000000000E+00 -0.20558571419E+04  0.22856840547E+04  0.99890090090E+03 0.  0.
        3    1    3    3  502    0 -0.26230354492E+03 -0.27032061695E+02 -0.57352174362E+02  0.26985767386E+03  0.10100000352E+00 0. -1.
       -3    1    3    3    0  502  0.26230354492E+03  0.27032061695E+02 -0.19985049676E+04  0.20158263808E+04  0.10100000352E+00 0.  1.
</event>
<event>
 5   0  0.3854625E-04  0.1002420E+04  0.7818609E-02  0.9305894E-01
       -4   -1    0    0    0  501  0.00000000000E+00  0.00000000000E+00  0.11336969879E+04  0.11336976993E+04  0.12699999809E+01 0. -1.
        4   -1    0    0  501    0  0.00000000000E+00  0.00000000000E+00 -0.22158362465E+03  0.22158726410E+03  0.12699999809E+01 0.  1.
    10030    2    1    2    0    0  0.00000000000E+00  0.00000000000E+00  0.91211336326E+03  0.13552849634E+04  0.10024203432E+04 0.  0.
        3    1    3    3  502    0  0.24971425973E+03  0.40487177067E+03  0.66954313064E+03  0.82131989881E+03  0.10100000352E+00 0. -1.
       -3    1    3    3    0  502 -0.24971425973E+03 -0.40487177067E+03  0.24257023262E+03  0.53396506454E+03  0.10100000352E+00 0.  1.
</event>
<event>
 5   0  0.1006749E-03  0.9978306E+03  0.7818609E-02  0.9310927E-01
       -2   -1    0    0    0  501  0.00000000000E+00  0.00000000000E+00  0.41950001807E+03  0.41950001807E+03  0.25500000920E-02 0.  1.
        2   -1    0    0  501    0  0.00000000000E+00  0.00000000000E+00 -0.59336465785E+03  0.59336465786E+03  0.25500000920E-02 0. -1.
    10030    2    1    2    0    0  0.00000000000E+00  0.00000000000E+00 -0.17386463979E+03  0.10128646759E+04  0.99783061628E+03 0.  0.
        1    1    3    3  502    0 -0.32920395781E+03  0.36671815083E+03 -0.16594492680E+03  0.51999535262E+03  0.50400001928E-02 0. -1.
       -1    1    3    3    0  502  0.32920395781E+03 -0.36671815083E+03 -0.79197129918E+01  0.49286932332E+03  0.50400001928E-02 0.  1.
</event>
<event>
 5   0  0.9674819E-04  0.9704352E+03  0.7818609E-02  0.9341579E-01
       -2   -1    0    0    0  501  0.00000000000E+00  0.00000000000E+00  0.46120120899E+03  0.46120120900E+03  0.25500000920E-02 0.  1.
        2   -1    0    0  501    0  0.00000000000E+00  0.00000000000E+00 -0.51048456904E+03  0.51048456904E+03  0.25500000920E-02 0. -1.
    10030    2    1    2    0    0  0.00000000000E+00  0.00000000000E+00 -0.49283360043E+02  0.97168577804E+03  0.97043516098E+03 0.  0.
        4    1    3    3  502    0 -0.29705217238E+03 -0.22496766003E+03 -0.33582192668E+03  0.50162577736E+03  0.12699999809E+01 0. -1.
       -4    1    3    3    0  502  0.29705217238E+03  0.22496766003E+03  0.28653856663E+03  0.47006000068E+03  0.12699999809E+01 0.  1.
</event>
<event>
 5   0  0.9741826E-04  0.9987874E+03  0.7818609E-02  0.9309876E-01
        2   -1    0    0  501    0  0.00000000000E+00  0.00000000000E+00  0.42934106653E+03  0.42934106654E+03  0.25500000920E-02 0. -1.
       -2   -1    0    0    0  501  0.00000000000E+00  0.00000000000E+00 -0.58087635138E+03  0.58087635139E+03  0.25500000920E-02 0.  1.
    10030    2    1    2    0    0  0.00000000000E+00  0.00000000000E+00 -0.15153528485E+03  0.10102174179E+04  0.99878740928E+03 0.  0.
        3    1    3    3  502    0  0.14689933008E+03  0.47608361517E+03 -0.41333359226E+02  0.49994347540E+03  0.10100000352E+00 0.  1.
       -3    1    3    3    0  502 -0.14689933008E+03 -0.47608361517E+03 -0.11020192562E+03  0.51027394253E+03  0.10100000352E+00 0. -1.
</event>
<event>
 5   0  0.5826939E-04  0.9992536E+03  0.7818609E-02  0.9309364E-01
       -1   -1    0    0    0  501  0.00000000000E+00  0.00000000000E+00  0.25718260574E+03  0.25718260579E+03  0.50400001928E-02 0.  1.
        1   -1    0    0  501    0  0.00000000000E+00  0.00000000000E+00 -0.97062136134E+03  0.97062136135E+03  0.50400001928E-02 0. -1.
    10030    2    1    2    0    0  0.00000000000E+00  0.00000000000E+00 -0.71343875559E+03  0.12278039671E+04  0.99925358331E+03 0.  0.
        1    1    3    3  502    0  0.11769788738E+03 -0.48107428827E+03 -0.43768144573E+03  0.66094652696E+03  0.50400001928E-02 0.  1.
       -1    1    3    3    0  502 -0.11769788738E+03  0.48107428827E+03 -0.27575730986E+03  0.56685744019E+03  0.50400001928E-02 0. -1.
</event>
<event>
 5   0  0.1006006E-03  0.1000753E+04  0.7818609E-02  0.9307719E-01
        2   -1    0    0  501    0  0.00000000000E+00  0.00000000000E+00  0.70534534129E+03  0.70534534129E+03  0.25500000920E-02 0. -1.
       -2   -1    0    0    0  501  0.00000000000E+00  0.00000000000E+00 -0.35497055247E+03  0.35497055248E+03  0.25500000920E-02 0.  1.
    10030    2    1    2    0    0  0.00000000000E+00  0.00000000000E+00  0.35037478881E+03  0.10603158938E+04  0.10007533672E+04 0.  0.
        2    1    3    3  502    0 -0.18363106587E+03  0.45907374230E+03  0.25662396865E+03  0.55706815607E+03  0.25500000920E-02 0. -1.
       -2    1    3    3    0  502  0.18363106587E+03 -0.45907374230E+03  0.93750820166E+02  0.50324773770E+03  0.25500000920E-02 0.  1.
</event>
<event>
 5   0  0.5826939E-04  0.9998959E+03  0.7818609E-02  0.9308659E-01
        1   -1    0    0  501    0  0.00000000000E+00  0.00000000000E+00  0.84257841366E+03  0.84257841367E+03  0.50400001928E-02 0.  1.
       -1   -1    0    0    0  501  0.00000000000E+00  0.00000000000E+00 -0.29664650864E+03  0.29664650868E+03  0.50400001928E-02 0. -1.
    10030    2    1    2    0    0  0.00000000000E+00  0.00000000000E+00  0.54593190502E+03  0.11392249224E+04  0.99989588398E+03 0.  0.
        1    1    3    3  502    0  0.15564624653E+03  0.56316647238E+02  0.81045436589E+03  0.82718413792E+03  0.50400001928E-02 0.  1.
       -1    1    3    3    0  502 -0.15564624653E+03 -0.56316647238E+02 -0.26452246088E+03  0.31204078443E+03  0.50400001928E-02 0. -1.
</event>
<event>
 5   0  0.5888774E-04  0.9993108E+03  0.7818609E-02  0.9309301E-01
       -1   -1    0    0    0  501  0.00000000000E+00  0.00000000000E+00  0.27889387548E+03  0.27889387553E+03  0.50400001928E-02 0. -1.
        1   -1    0    0  501    0  0.00000000000E+00  0.00000000000E+00 -0.89516316888E+03  0.89516316890E+03  0.50400001928E-02 0.  1.
    10030    2    1    2    0    0  0.00000000000E+00  0.00000000000E+00 -0.61626929340E+03  0.11740570444E+04  0.99931081330E+03 0.  0.
        2    1    3    3  502    0 -0.23594036413E+03  0.89213446330E+02 -0.81486685216E+03  0.85301517055E+03  0.25500000920E-02 0.  1.
       -2    1    3    3    0  502  0.23594036413E+03 -0.89213446330E+02  0.19859755876E+03  0.32104187388E+03  0.25500000920E-02 0. -1.
</event>
<event>
 5   0  0.1020150E-03  0.1003019E+04  0.7818609E-02  0.9305240E-01
       -2   -1    0    0    0  501  0.00000000000E+00  0.00000000000E+00  0.43983560333E+03  0.43983560334E+03  0.25500000920E-02 0.  1.
        2   -1    0    0  501    0  0.00000000000E+00  0.00000000000E+00 -0.57183092561E+03  0.57183092561E+03  0.25500000920E-02 0. -1.
    10030    2    1    2    0    0  0.00000000000E+00  0.00000000000E+00 -0.13199532228E+03  0.10116665290E+04  0.10030186442E+04 0.  0.
        5    1    3    3  502    0 -0.44248695598E+03 -0.78113996205E+01 -0.30389943680E+03  0.53687305936E+03  0.46999998093E+01 0. -1.
       -5    1    3    3    0  502  0.44248695598E+03  0.78113996205E+01  0.17190411452E+03  0.47479346959E+03  0.46999998093E+01 0.  1.
</event>
<event>
 5   0  0.5826939E-04  0.9996840E+03  0.7818609E-02  0.9308891E-01
       -1   -1    0    0    0  501  0.00000000000E+00  0.00000000000E+00  0.15787548639E+03  0.15787548647E+03  0.50400001928E-02 0. -1.
        1   -1    0    0  501    0  0.00000000000E+00  0.00000000000E+00 -0.15825258680E+04  0.15825258680E+04  0.50400001928E-02 0.  1.
    10030    2    1    2    0    0  0.00000000000E+00  0.00000000000E+00 -0.14246503817E+04  0.17404013545E+04  0.99968403251E+03 0.  0.
        1    1    3    3  502    0 -0.32701776859E+03  0.37680075077E+03 -0.76520584017E+03  0.91348749560E+03  0.50400001928E-02 0. -1.
       -1    1    3    3    0  502  0.32701776859E+03 -0.37680075077E+03 -0.65944454148E+03  0.82691385892E+03  0.50400001928E-02 0.  1.
</event>
<event>
 5   0  0.9674819E-04  0.9994393E+03  0.7818609E-02  0.9309160E-01
       -2   -1    0    0    0  501  0.00000000000E+00  0.00000000000E+00  0.18603647546E+03  0.18603647547E+03  0.25500000920E-02 0.  1.
        2   -1    0    0  501    0  0.00000000000E+00  0.00000000000E+00 -0.13423160088E+04  0.13423160088E+04  0.25500000920E-02 0. -1.
    10030    2    1    2    0    0  0.00000000000E+00  0.00000000000E+00 -0.11562795333E+04  0.15283524843E+04  0.99943932130E+03 0.  0.
        4    1    3    3  502    0 -0.69316032287E+02 -0.41936242120E+02  0.17592472046E+03  0.19368655323E+03  0.12699999809E+01 0.  1.
       -4    1    3    3    0  502  0.69316032287E+02  0.41936242120E+02 -0.13322042538E+04  0.13346659310E+04  0.12699999809E+01 0. -1.
</event>
<event>
 5   0  0.5960102E-04  0.9977240E+03  0.7818609E-02  0.9311045E-01
        1   -1    0    0  501    0  0.00000000000E+00  0.00000000000E+00  0.56725073550E+03  0.56725073552E+03  0.50400001928E-02 0. -1.
       -1   -1    0    0    0  501  0.00000000000E+00  0.00000000000E+00 -0.43871830375E+03  0.43871830378E+03  0.50400001928E-02 0.  1.
    10030    2    1    2    0    0  0.00000000000E+00  0.00000000000E+00  0.12853243174E+03  0.10059690393E+04  0.99772397086E+03 0.  0.
        5    1    3    3  502    0 -0.18457670203E+03  0.41257934380E+03  0.27708136033E+03  0.53017586149E+03  0.46999998093E+01 0. -1.
       -5    1    3    3    0  502  0.18457670203E+03 -0.41257934380E+03 -0.14854892859E+03  0.47579317781E+03  0.46999998093E+01 0.  1.
</event>
<event>
 5   0  0.9741826E-04  0.1001694E+04  0.7818609E-02  0.9306689E-01
        2   -1    0    0  501    0  0.00000000000E+00  0.00000000000E+00  0.13101153619E+04  0.13101153619E+04  0.25500000920E-02 0.  1.
       -2   -1    0    0    0  501  0.00000000000E+00  0.00000000000E+00 -0.19146988510E+03  0.19146988512E+03  0.25500000920E-02 0. -1.
    10030    2    1    2    0    0  0.00000000000E+00  0.00000000000E+00  0.11186454768E+04  0.15015852470E+04  0.10016938411E+04 0.  0.
        3    1    3    3  502    0  0.14434966162E+02 -0.25715919822E+03  0.12032296219E+04  0.12304880148E+04  0.10100000352E+00 0.  1.
       -3    1    3    3    0  502 -0.14434966162E+02  0.25715919822E+03 -0.84584145106E+02  0.27109723216E+03  0.10100000352E+00 0. -1.
</event>
<event>
 5   0  0.9741826E-04  0.1000916E+04  0.7818609E-02  0.9307540E-01
        2   -1    0    0  501    0  0.00000000000E+00  0.00000000000E+00  0.26520441965E+03  0.26520441966E+03  0.25500000920E-02 0.  1.
       -2   -1    0    0    0  501  0.00000000000E+00  0.00000000000E+00 -0.94439740853E+03  0.94439740853E+03  0.25500000920E-02 0. -1.
    10030    2    1    2    0    0  0.00000000000E+00  0.00000000000E+00 -0.67919298888E+03  0.12096018282E+04  0.10009163135E+04 0.  0.
        3    1    3    3  502    0  0.41167639584E+03 -0.26280202134E+03 -0.20767672048E+03  0.53072779063E+03  0.10100000352E+00 0.  1.
       -3    1    3    3    0  502 -0.41167639584E+03  0.26280202134E+03 -0.47151626840E+03  0.67887403756E+03  0.10100000352E+00 0. -1.
</event>
<event>
 5   0  0.5758786E-04  0.9990813E+03  0.7818609E-02  0.9309553E-01
       -1   -1    0    0    0  501  0.00000000000E+00  0.00000000000E+00  0.10199454124E+04  0.10199454124E+04  0.50400001928E-02 0.  1.
        1   -1    0    0  501    0  0.00000000000E+00  0.00000000000E+00 -0.24466097781E+03  0.24466097786E+03  0.50400001928E-02 0. -1.
    10030    2    1    2    0    0  0.00000000000E+00  0.00000000000E+00  0.77528443462E+03  0.12646063903E+04  0.99908126187E+03 0.  0.
        3    1    3    3  502    0 -0.46495151046E+03  0.78361619119E+02  0.17880799912E+03  0.50427448992E+03  0.10100000352E+00 0. -1.
       -3    1    3    3    0  502  0.46495151046E+03 -0.78361619119E+02  0.59647643550E+03  0.76033190038E+03  0.10100000352E+00 0.  1.
</event>
<event>
 5   0  0.1006006E-03  0.1002578E+04  0.7818609E-02  0.9305722E-01
       -2   -1    0    0    0  501  0.00000000000E+00  0.00000000000E+00  0.37761195622E+03  0.37761195623E+03  0.25500000920E-02 0. -1.
        2   -1    0    0  501    0  0.00000000000E+00  0.00000000000E+00 -0.66547293757E+03  0.66547293757E+03  0.25500000920E-02 0.  1.
    10030    2    1    2    0    0  0.00000000000E+00  0.00000000000E+00 -0.28786098135E+03  0.10430848938E+04  0.10025777531E+04 0.  0.
        2    1    3    3  502    0  0.48239223039E+03  0.11555346780E+03 -0.21921189658E+03  0.54231791735E+03  0.25500000920E-02 0. -1.
       -2    1    3    3    0  502 -0.48239223039E+03 -0.11555346780E+03 -0.68649084764E+02  0.50076697646E+03  0.25500000920E-02 0.  1.
</event>
<event>
 5   0  0.9674819E-04  0.9950985E+03  0.7818609E-02  0.9313937E-01
        2   -1    0    0  501    0  0.00000000000E+00  0.00000000000E+00  0.18383569860E+04  0.18383569860E+04  0.25500000920E-02 0.  1.
       -2   -1    0    0    0  501  0.00000000000E+00  0.00000000000E+00 -0.13466115301E+03  0.13466115304E+03  0.25500000920E-02 0. -1.
    10030    2    1    2    0    0  0.00000000000E+00  0.00000000000E+00  0.17036958330E+04  0.19730181391E+04  0.99509853062E+03 0.  0.
        4    1    3    3  502    0  0.46609240983E+02 -0.55504310500E+02  0.18278306984E+04  0.18292675651E+04  0.12699999809E+01 0.  1.
       -4    1    3    3    0  502 -0.46609240983E+02  0.55504310500E+02 -0.12413486535E+03  0.14375057400E+03  0.12699999809E+01 0. -1.
</event>
<event>
 5   0  0.9674819E-04  0.9995750E+03  0.7818609E-02  0.9309011E-01
       -2   -1    0    0    0  501  0.00000000000E+00  0.00000000000E+00  0.16822473655E+03  0.16822473656E+03  0.25500000920E-02 0. -1.
        2   -1    0    0  501    0  0.00000000000E+00  0.00000000000E+00 -0.14848444195E+04  0.14848444195E+04  0.25500000920E-02 0.  1.
    10030    2    1    2    0    0  0.00000000000E+00  0.00000000000E+00 -0.13166196829E+04  0.16530691560E+04  0.99957503229E+03 0.  0.
        4    1    3    3  502    0  0.25034115159E+03 -0.41754143141E+03 -0.84522565103E+03  0.97540737806E+03  0.12699999809E+01 0. -1.
       -4    1    3    3    0  502 -0.25034115159E+03  0.41754143141E+03 -0.47139403190E+03  0.67766177798E+03  0.12699999809E+01 0.  1.
</event>
<event>
 5   0  0.5768102E-04  0.1001132E+04  0.7818609E-02  0.9307304E-01
       -1   -1    0    0    0  501  0.00000000000E+00  0.00000000000E+00  0.27808705693E+03  0.27808705698E+03  0.50400001928E-02 0. -1.
        1   -1    0    0  501    0  0.00000000000E+00  0.00000000000E+00 -0.90103539078E+03  0.90103539080E+03  0.50400001928E-02 0.  1.
    10030    2    1    2    0    0  0.00000000000E+00  0.00000000000E+00 -0.62294833385E+03  0.11791224478E+04  0.10011319195E+04 0.  0.
        4    1    3    3  502    0 -0.35409199797E+03  0.11121561351E+03  0.84120360473E+02  0.38056261464E+03  0.12699999809E+01 0. -1.
       -4    1    3    3    0  502  0.35409199797E+03 -0.11121561351E+03 -0.70706869432E+03  0.79855983314E+03  0.12699999809E+01 0.  1.
</event>
<event>
 5   0  0.5758786E-04  0.9988195E+03  0.7818609E-02  0.9309840E-01
       -1   -1    0    0    0  501  0.00000000000E+00  0.00000000000E+00  0.19988993300E+03  0.19988993306E+03  0.50400001928E-02 0. -1.
        1   -1    0    0  501    0  0.00000000000E+00  0.00000000000E+00 -0.12477372126E+04  0.12477372127E+04  0.50400001928E-02 0.  1.
    10030    2    1    2    0    0  0.00000000000E+00  0.00000000000E+00 -0.10478472796E+04  0.14476271457E+04  0.99881951902E+03 0.  0.
        3    1    3    3  502    0 -0.79698035696E+01 -0.42163051326E+03 -0.13617683967E+03  0.44314777371E+03  0.10100000352E+00 0. -1.
       -3    1    3    3    0  502  0.79698035696E+01  0.42163051326E+03 -0.91167043997E+03  0.10044793720E+04  0.10100000352E+00 0.  1.
</event>
<event>
 5   0  0.5826939E-04  0.9988281E+03  0.7818609E-02  0.9309831E-01
        1   -1    0    0  501    0  0.00000000000E+00  0.00000000000E+00  0.12935653338E+04  0.12935653338E+04  0.50400001928E-02 0. -1.
       -1   -1    0    0    0  501  0.00000000000E+00  0.00000000000E+00 -0.19281158807E+03  0.19281158813E+03  0.50400001928E-02 0.  1.
    10030    2    1    2    0    0  0.00000000000E+00  0.00000000000E+00  0.11007537457E+04  0.14863769219E+04  0.99882808596E+03 0.  0.
        1    1    3    3  502    0  0.42854281071E+03  0.25626155378E+03  0.53583725857E+03  0.73242098021E+03  0.50400001928E-02 0. -1.
       -1    1    3    3    0  502 -0.42854281071E+03 -0.25626155378E+03  0.56491648712E+03  0.75395594169E+03  0.50400001928E-02 0.  1.
</event>
<event>
 5   0  0.5768102E-04  0.9977482E+03  0.7818609E-02  0.9311018E-01
        1   -1    0    0  501    0  0.00000000000E+00  0.00000000000E+00  0.10394377662E+04  0.10394377663E+04  0.50400001928E-02 0. -1.
       -1   -1    0    0    0  501  0.00000000000E+00  0.00000000000E+00 -0.23943269388E+03  0.23943269394E+03  0.50400001928E-02 0.  1.
    10030    2    1    2    0    0  0.00000000000E+00  0.00000000000E+00  0.80000507235E+03  0.12788704602E+04  0.99774823385E+03 0.  0.
        4    1    3    3  502    0  0.49056390313E+03 -0.66170859071E+02  0.47945331732E+03  0.68913614187E+03  0.12699999809E+01 0. -1.
       -4    1    3    3    0  502 -0.49056390313E+03  0.66170859071E+02  0.32055175503E+03  0.58973431831E+03  0.12699999809E+01 0.  1.
</event>
<event>
 5   0  0.5826939E-04  0.9991353E+03  0.7818609E-02  0.9309494E-01
       -1   -1    0    0    0  501  0.00000000000E+00  0.00000000000E+00  0.59106739804E+03  0.59106739807E+03  0.50400001928E-02 0. -1.
        1   -1    0    0  501    0  0.00000000000E+00  0.00000000000E+00 -0.42223244456E+03  0.42223244459E+03  0.50400001928E-02 0.  1.
    10030    2    1    2    0    0  0.00000000000E+00  0.00000000000E+00  0.16883495348E+03  0.10132998427E+04  0.99913529095E+03 0.  0.
        1    1    3    3  502    0 -0.28312003102E+03  0.84011275142E+01 -0.33292620244E+03  0.43711255668E+03  0.50400001928E-02 0.  1.
       -1    1    3    3    0  502  0.28312003102E+03 -0.84011275142E+01  0.50176115592E+03  0.57618728598E+03  0.50400001928E-02 0. -1.
</event>
<event>
 5   0  0.1006006E-03  0.1001490E+04  0.7818609E-02  0.9306912E-01
       -2   -1    0    0    0  501  0.00000000000E+00  0.00000000000E+00  0.14284304319E+03  0.14284304321E+03  0.25500000920E-02 0. -1.
        2   -1    0    0  501    0  0.00000000000E+00  0.00000000000E+00 -0.17553916419E+04  0.17553916419E+04  0.25500000920E-02 0.  1.
    10030    2    1    2    0    0  0.00000000000E+00  0.00000000000E+00 -0.16125485987E+04  0.18982346851E+04  0.10014898584E+04 0.  0.
        2    1    3    3  502    0 -0.22609638381E+03 -0.44663452525E+03 -0.78356808372E+03  0.92982843350E+03  0.25500000920E-02 0.  1.
       -2    1    3    3    0  502  0.22609638381E+03  0.44663452525E+03 -0.82898051502E+03  0.96840625163E+03  0.25500000920E-02 0. -1.
</event>
<event>
 5   0  0.5768102E-04  0.9999772E+03  0.7818609E-02  0.9308570E-01
       -1   -1    0    0    0  501  0.00000000000E+00  0.00000000000E+00  0.23032499168E+03  0.23032499173E+03  0.50400001928E-02 0.  1.
        1   -1    0    0  501    0  0.00000000000E+00  0.00000000000E+00 -0.10853732485E+04  0.10853732485E+04  0.50400001928E-02 0. -1.
    10030    2    1    2    0    0  0.00000000000E+00  0.00000000000E+00 -0.85504825683E+03  0.13156982403E+04  0.99997716869E+03 0.  0.
        4    1    3    3  502    0  0.24946569976E+03 -0.25970680540E+03 -0.88388692707E+03  0.95443096810E+03  0.12699999809E+01 0. -1.
       -4    1    3    3    0  502 -0.24946569976E+03  0.25970680540E+03  0.28838670246E+02  0.36126727215E+03  0.12699999809E+01 0.  1.
</event>
<event>
 5   0  0.9674819E-04  0.9729710E+03  0.7818609E-02  0.9338697E-01
       -2   -1    0    0    0  501  0.00000000000E+00  0.00000000000E+00  0.17742797960E+03  0.17742797962E+03  0.25500000920E-02 0.  1.
        2   -1    0    0  501    0  0.00000000000E+00  0.00000000000E+00 -0.13338829383E+04  0.13338829383E+04  0.25500000920E-02 0. -1.
    10030    2    1    2    0    0  0.00000000000E+00  0.00000000000E+00 -0.11564549587E+04  0.15113109179E+04  0.97297102687E+03 0.  0.
        4    1    3    3  502    0  0.84741635053E+02 -0.80919798201E+02  0.15518004543E+03  0.19445209655E+03  0.12699999809E+01 0.  1.
       -4    1    3    3    0  502 -0.84741635053E+02  0.80919798201E+02 -0.13116350042E+04  0.13168588214E+04  0.12699999809E+01 0. -1.
</event>
<event>
 5   0  0.5826939E-04  0.1000199E+04  0.7818609E-02  0.9308326E-01
        1   -1    0    0  501    0  0.00000000000E+00  0.00000000000E+00  0.32538588996E+03  0.32538589000E+03  0.50400001928E-02 0. -1.
       -1   -1    0    0    0  501  0.00000000000E+00  0.00000000000E+00 -0.76862474697E+03  0.76862474699E+03  0.50400001928E-02 0.  1.
    10030    2    1    2    0    0  0.00000000000E+00  0.00000000000E+00 -0.44323885701E+03  0.10940106370E+04  0.10001992749E+04 0.  0.
        1    1    3    3  502    0 -0.10162063004E+03  0.42407364696E+03  0.46157541933E+02  0.43851536940E+03  0.50400001928E-02 0.  1.
       -1    1    3    3    0  502  0.10162063004E+03 -0.42407364696E+03 -0.48939639895E+03  0.65549526758E+03  0.50400001928E-02 0. -1.
</event>
<event>
 5   0  0.5758786E-04  0.1000676E+04  0.7818609E-02  0.9307803E-01
        1   -1    0    0  501    0  0.00000000000E+00  0.00000000000E+00  0.16002634018E+04  0.16002634018E+04  0.50400001928E-02 0. -1.
       -1   -1    0    0    0  501  0.00000000000E+00  0.00000000000E+00 -0.15643562841E+03  0.15643562849E+03  0.50400001928E-02 0.  1.
    10030    2    1    2    0    0  0.00000000000E+00  0.00000000000E+00  0.14438277734E+04  0.17566990303E+04  0.10006761933E+04 0.  0.
        3    1    3    3  502    0 -0.15181454115E+03 -0.45843851078E+03  0.49218532316E+03  0.68953602198E+03  0.10100000352E+00 0.  1.
       -3    1    3    3    0  502  0.15181454115E+03  0.45843851078E+03  0.95164245022E+03  0.10671630083E+04  0.10100000352E+00 0. -1.
</event>
<event>
 5   0  0.1006006E-03  0.9993293E+03  0.7818609E-02  0.9309281E-01
       -2   -1    0    0    0  501  0.00000000000E+00  0.00000000000E+00  0.56507921105E+03  0.56507921105E+03  0.25500000920E-02 0. -1.
        2   -1    0    0  501    0  0.00000000000E+00  0.00000000000E+00 -0.44182256784E+03  0.44182256785E+03  0.25500000920E-02 0.  1.
    10030    2    1    2    0    0  0.00000000000E+00  0.00000000000E+00  0.12325664320E+03  0.10069017789E+04  0.99932927119E+03 0.  0.
        2    1    3    3  502    0  0.13789978445E+03 -0.27699698184E+03 -0.33367233520E+03  0.45506143078E+03  0.25500000920E-02 0.  1.
       -2    1    3    3    0  502 -0.13789978445E+03  0.27699698184E+03  0.45692897841E+03  0.55184034812E+03  0.25500000920E-02 0. -1.
</event>
<event>
 5   0  0.9741826E-04  0.1000601E+04  0.7818609E-02  0.9307886E-01
        2   -1    0    0  501    0  0.00000000000E+00  0.00000000000E+00  0.26288669708E+03  0.26288669709E+03  0.25500000920E-02 0. -1.
       -2   -1    0    0    0  501  0.00000000000E+00  0.00000000000E+00 -0.95212392893E+03  0.95212392893E+03  0.25500000920E-02 0.  1.
    10030    2    1    2    0    0  0.00000000000E+00  0.00000000000E+00 -0.68923723185E+03  0.12150106260E+04  0.10006012490E+04 0.  0.
        3    1    3    3  502    0  0.24117239410E+03  0.26249256726E+03 -0.77088856680E+03  0.84931482041E+03  0.10100000352E+00 0.  1.
       -3    1    3    3    0  502 -0.24117239410E+03 -0.26249256726E+03  0.81651334952E+02  0.36569580561E+03  0.10100000352E+00 0. -1.
</event>
<event>
 5   0  0.1020150E-03  0.9998267E+03  0.7818609E-02  0.9308735E-01
        2   -1    0    0  501    0  0.00000000000E+00  0.00000000000E+00  0.46937970523E+03  0.46937970524E+03  0.25500000920E-02 0. -1.
       -2   -1    0    0    0  501  0.00000000000E+00  0.00000000000E+00 -0.53243320590E+03  0.53243320590E+03  0.25500000920E-02 0.  1.
    10030    2    1    2    0    0  0.00000000000E+00  0.00000000000E+00 -0.63053500664E+02  0.10018129111E+04  0.99982666747E+03 0.  0.
        5    1    3    3  502    0  0.22002917442E+02 -0.24820258542E+03 -0.46574963482E+03  0.52823618214E+03  0.46999998093E+01 0.  1.
       -5    1    3    3    0  502 -0.22002917442E+02  0.24820258542E+03  0.40269613416E+03  0.47357672900E+03  0.46999998093E+01 0. -1.
</event>
<event>
 5   0  0.5768102E-04  0.1000865E+04  0.7818609E-02  0.9307597E-01
        1   -1    0    0  501    0  0.00000000000E+00  0.00000000000E+00  0.13678866552E+04  0.13678866552E+04  0.50400001928E-02 0. -1.
       -1   -1    0    0    0  501  0.00000000000E+00  0.00000000000E+00 -0.18307996685E+03  0.18307996692E+03  0.50400001928E-02 0.  1.
    10030    2    1    2    0    0  0.00000000000E+00  0.00000000000E+00  0.11848066883E+04  0.15509666221E+04  0.10008649131E+04 0.  0.
        4    1    3    3  502    0 -0.40680760439E+03  0.54104287626E+02  0.10361794488E+04  0.11144905401E+04  0.12699999809E+01 0.  1.
       -4    1    3    3    0  502  0.40680760439E+03 -0.54104287626E+02  0.14862723949E+03  0.43647608199E+03  0.12699999809E+01 0. -1.
</event>
<event>
 5   0  0.5826939E-04  0.9991750E+03  0.7818609E-02  0.9309450E-01
        1   -1    0    0  501    0  0.00000000000E+00  0.00000000000E+00  0.26071473808E+03  0.26071473813E+03  0.50400001928E-02 0.  1.
       -1   -1    0    0    0  501  0.00000000000E+00  0.00000000000E+00 -0.95732099138E+03  0.95732099140E+03  0.50400001928E-02 0. -1.
    10030    2    1    2    0    0  0.00000000000E+00  0.00000000000E+00 -0.69660625330E+03  0.12180357295E+04  0.99917504285E+03 0.  0.
        1    1    3    3  502    0  0.28741457351E+03  0.40074098172E+03 -0.44572901834E+03  0.66473666163E+03  0.50400001928E-02 0. -1.
       -1    1    3    3    0  502 -0.28741457351E+03 -0.40074098172E+03 -0.25087723496E+03  0.55329906790E+03  0.50400001928E-02 0.  1.
</event>
<event>
 5   0  0.5758786E-04  0.9985529E+03  0.7818609E-02  0.9310133E-01
        1   -1    0    0  501    0  0.00000000000E+00  0.00000000000E+00  0.85182496392E+03  0.85182496394E+03  0.50400001928E-02 0.  1.
       -1   -1    0    0    0  501  0.00000000000E+00  0.00000000000E+00 -0.29263873808E+03  0.29263873812E+03  0.50400001928E-02 0. -1.
    10030    2    1    2    0    0  0.00000000000E+00  0.00000000000E+00  0.55918622585E+03  0.11444637021E+04  0.99855291805E+03 0.  0.
        3    1    3    3  502    0 -0.17237531124E+03  0.30793393286E+03  0.68438754896E+03  0.77001485849E+03  0.10100000352E+00 0.  1.
       -3    1    3    3    0  502  0.17237531124E+03 -0.30793393286E+03 -0.12520132311E+03  0.37444884356E+03  0.10100000352E+00 0. -1.
</event>
<event>
 5   0  0.9741826E-04  0.9997732E+03  0.7818609E-02  0.9308794E-01
       -2   -1    0    0    0  501  0.00000000000E+00  0.00000000000E+00  0.21147316291E+03  0.21147316292E+03  0.25500000920E-02 0.  1.
        2   -1    0    0  501    0  0.00000000000E+00  0.00000000000E+00 -0.11816470231E+04  0.11816470231E+04  0.25500000920E-02 0. -1.
    10030    2    1    2    0    0  0.00000000000E+00  0.00000000000E+00 -0.97017386021E+03  0.13931201860E+04  0.99977324115E+03 0.  0.
        3    1    3    3  502    0 -0.23240803002E+03 -0.42868393788E+03 -0.63838525189E+03  0.80331759040E+03  0.10100000352E+00 0.  1.
       -3    1    3    3    0  502  0.23240803002E+03  0.42868393788E+03 -0.33178860832E+03  0.58980259565E+03  0.10100000352E+00 0. -1.
</event>
<event>
 5   0  0.1006006E-03  0.1003279E+04  0.7818609E-02  0.9304956E-01
       -2   -1    0    0    0  501  0.00000000000E+00  0.00000000000E+00  0.48567170912E+03  0.48567170913E+03  0.25500000920E-02 0.  1.
        2   -1    0    0  501    0  0.00000000000E+00  0.00000000000E+00 -0.51813230480E+03  0.51813230480E+03  0.25500000920E-02 0. -1.
    10030    2    1    2    0    0  0.00000000000E+00  0.00000000000E+00 -0.32460595679E+02  0.10038040139E+04  0.10032790280E+04 0.  0.
        2    1    3    3  502    0 -0.89673240497E+01 -0.14473334380E+03  0.46424390367E+03  0.48636463256E+03  0.25500000920E-02 0.  1.
       -2    1    3    3    0  502  0.89673240497E+01  0.14473334380E+03 -0.49670449935E+03  0.51743938137E+03  0.25500000920E-02 0. -1.
</event>
<event>
 5   0  0.3854625E-04  0.1002512E+04  0.7818609E-02  0.9305794E-01
       -4   -1    0    0    0  501  0.00000000000E+00  0.00000000000E+00  0.83242323890E+03  0.83242420770E+03  0.12699999809E+01 0. -1.
        4   -1    0    0  501    0  0.00000000000E+00  0.00000000000E+00 -0.30183629541E+03  0.30183896721E+03  0.12699999809E+01 0.  1.
    10030    2    1    2    0    0  0.00000000000E+00  0.00000000000E+00  0.53058694350E+03  0.11342631749E+04  0.10025120674E+04 0.  0.
        3    1    3    3  502    0  0.10783236434E+02 -0.15070405978E+03 -0.27546137658E+03  0.31417665733E+03  0.10100000352E+00 0.  1.
       -3    1    3    3    0  502 -0.10783236434E+02  0.15070405978E+03  0.80604832008E+03  0.82008651758E+03  0.10100000352E+00 0. -1.
</event>
<event>
 5   0  0.5888774E-04  0.1001475E+04  0.7818609E-02  0.9306928E-01
        1   -1    0    0  501    0  0.00000000000E+00  0.00000000000E+00  0.64781079370E+03  0.64781079372E+03  0.50400001928E-02 0.  1.
       -1   -1    0    0    0  501  0.00000000000E+00  0.00000000000E+00 -0.38705464907E+03  0.38705464911E+03  0.50400001928E-02 0. -1.
    10030    2    1    2    0    0  0.00000000000E+00  0.00000000000E+00  0.26075614462E+03  0.10348654428E+04  0.10014752707E+04 0.  0.
        2    1    3    3  502    0 -0.42613493341E+03  0.24023220824E+03  0.24088124053E+03  0.54527632206E+03  0.25500000920E-02 0.  1.
       -2    1    3    3    0  502  0.42613493341E+03 -0.24023220824E+03  0.19874904088E+02  0.48958912076E+03  0.25500000920E-02 0. -1.
</event>
<event>
 5   0  0.9674819E-04  0.9790960E+03  0.7818609E-02  0.9331774E-01
       -2   -1    0    0    0  501  0.00000000000E+00  0.00000000000E+00  0.13263345120E+03  0.13263345122E+03  0.25500000920E-02 0.  1.
        2   -1    0    0  501    0  0.00000000000E+00  0.00000000000E+00 -0.18069140938E+04  0.18069140938E+04  0.25500000920E-02 0. -1.
    10030    2    1    2    0    0  0.00000000000E+00  0.00000000000E+00 -0.16742806426E+04  0.19395475450E+04  0.97909601633E+03 0.  0.
        4    1    3    3  502    0  0.39187910543E+02 -0.17011366200E+03  0.68877132354E+02  0.18766998320E+03  0.12699999809E+01 0.  1.
       -4    1    3    3    0  502 -0.39187910543E+02  0.17011366200E+03 -0.17431577749E+04  0.17518775618E+04  0.12699999809E+01 0. -1.
</event>
<event>
 5   0  0.5758786E-04  0.1003800E+04  0.7818609E-02  0.9304387E-01
       -1   -1    0    0    0  501  0.00000000000E+00  0.00000000000E+00  0.52168155134E+03  0.52168155136E+03  0.50400001928E-02 0. -1.
        1   -1    0    0  501    0  0.00000000000E+00  0.00000000000E+00 -0.48286827187E+03  0.48286827189E+03  0.50400001928E-02 0.  1.
    10030    2    1    2    0    0  0.00000000000E+00  0.00000000000E+00  0.38813279473E+02  0.10045498233E+04  0.10037997194E+04 0.  0.
        3    1    3    3  502    0 -0.14128008571E+03  0.48034277520E+03 -0.15464982535E+02  0.50092755982E+03  0.10100000352E+00 0.  1.
       -3    1    3    3    0  502  0.14128008571E+03 -0.48034277520E+03  0.54278262008E+02  0.50362226344E+03  0.10100000352E+00 0. -1.
</event>
<event>
 5   0  0.1006749E-03  0.1001494E+04  0.7818609E-02  0.9306908E-01
       -2   -1    0    0    0  501  0.00000000000E+00  0.00000000000E+00  0.27751274599E+03  0.27751274600E+03  0.25500000920E-02 0. -1.
        2   -1    0    0  501    0  0.00000000000E+00  0.00000000000E+00 -0.90355250013E+03  0.90355250014E+03  0.25500000920E-02 0.  1.
    10030    2    1    2    0    0  0.00000000000E+00  0.00000000000E+00 -0.62603975414E+03  0.11810652461E+04  0.10014935556E+04 0.  0.
        1    1    3    3  502    0  0.17072819456E+03  0.72243727716E+02  0.23555302697E+03  0.29975406778E+03  0.50400001928E-02 0. -1.
       -1    1    3    3    0  502 -0.17072819456E+03 -0.72243727716E+02 -0.86159278111E+03  0.88131117836E+03  0.50400001928E-02 0.  1.
</event>
<event>
 5   0  0.3854625E-04  0.1000783E+04  0.7818609E-02  0.9307687E-01
        4   -1    0    0  501    0  0.00000000000E+00  0.00000000000E+00  0.97577250704E+03  0.97577333352E+03  0.12699999809E+01 0. -1.
       -4   -1    0    0    0  501  0.00000000000E+00  0.00000000000E+00 -0.25660588199E+03  0.25660902473E+03  0.12699999809E+01 0.  1.
    10030    2    1    2    0    0  0.00000000000E+00  0.00000000000E+00  0.71916662506E+03  0.12323823582E+04  0.10007825150E+04 0.  0.
        5    1    3    3  502    0  0.37590782874E+03 -0.16735776340E+03  0.89985792989E+01  0.41160464175E+03  0.46999998093E+01 0.  1.
       -5    1    3    3    0  502 -0.37590782874E+03  0.16735776340E+03  0.71016804576E+03  0.82077771650E+03  0.46999998093E+01 0. -1.
</event>
<event>
 5   0  0.5768102E-04  0.1000734E+04  0.7818609E-02  0.9307740E-01
        1   -1    0    0  501    0  0.00000000000E+00  0.00000000000E+00  0.14248210212E+04  0.14248210212E+04  0.50400001928E-02 0. -1.
       -1   -1    0    0    0  501  0.00000000000E+00  0.00000000000E+00 -0.17571827778E+03  0.17571827785E+03  0.50400001928E-02 0.  1.
    10030    2    1    2    0    0  0.00000000000E+00  0.00000000000E+00  0.12491027434E+04  0.16005392990E+04  0.10007339228E+04 0.  0.
        4    1    3    3  502    0  0.31103652035E+03  0.38750154817E+03  0.71868753418E+03  0.87373597357E+03  0.12699999809E+01 0. -1.
       -4    1    3    3    0  502 -0.31103652035E+03 -0.38750154817E+03  0.53041520923E+03  0.72680332547E+03  0.12699999809E+01 0.  1.
</event>
<event>
 5   0  0.9674819E-04  0.9987371E+03  0.7818609E-02  0.9309931E-01
       -2   -1    0    0    0  501  0.00000000000E+00  0.00000000000E+00  0.25893757351E+03  0.25893757353E+03  0.25500000920E-02 0. -1.
        2   -1    0    0  501    0  0.00000000000E+00  0.00000000000E+00 -0.96304666923E+03  0.96304666923E+03  0.25500000920E-02 0.  1.
    10030    2    1    2    0    0  0.00000000000E+00  0.00000000000E+00 -0.70410909572E+03  0.12219842428E+04  0.99873713803E+03 0.  0.
        4    1    3    3  502    0  0.27663137668E+03  0.39181130123E+03 -0.52214863610E+03  0.70900058210E+03  0.12699999809E+01 0.  1.
       -4    1    3    3    0  502 -0.27663137668E+03 -0.39181130123E+03 -0.18196045962E+03  0.51298366066E+03  0.12699999809E+01 0. -1.
</event>
<event>
 5   0  0.1006006E-03  0.1000418E+04  0.7818609E-02  0.9308087E-01
        2   -1    0    0  501    0  0.00000000000E+00  0.00000000000E+00  0.37754510432E+03  0.37754510433E+03  0.25500000920E-02 0. -1.
       -2   -1    0    0    0  501  0.00000000000E+00  0.00000000000E+00 -0.66272592024E+03  0.66272592024E+03  0.25500000920E-02 0.  1.
    10030    2    1    2    0    0  0.00000000000E+00  0.00000000000E+00 -0.28518081592E+03  0.10402710246E+04  0.10004177661E+04 0.  0.
        2    1    3    3  502    0  0.25406882962E+03 -0.43065933926E+03 -0.15694203732E+03  0.52406988061E+03  0.25500000920E-02 0. -1.
       -2    1    3    3    0  502 -0.25406882962E+03  0.43065933926E+03 -0.12823877860E+03  0.51620114396E+03  0.25500000920E-02 0.  1.
</event>
<event>
 5   0  0.5960102E-04  0.1002200E+04  0.7818609E-02  0.9306136E-01
       -1   -1    0    0    0  501  0.00000000000E+00  0.00000000000E+00  0.28559718693E+03  0.28559718697E+03  0.50400001928E-02 0.  1.
        1   -1    0    0  501    0  0.00000000000E+00  0.00000000000E+00 -0.87921380062E+03  0.87921380063E+03  0.50400001928E-02 0. -1.
    10030    2    1    2    0    0  0.00000000000E+00  0.00000000000E+00 -0.59361661369E+03  0.11648109876E+04  0.10021995574E+04 0.  0.
        5    1    3    3  502    0  0.90522334021E+02 -0.21302638679E+03 -0.81333122967E+03  0.84563840593E+03  0.46999998093E+01 0. -1.
       -5    1    3    3    0  502 -0.90522334021E+02  0.21302638679E+03  0.21971461597E+03  0.31917258168E+03  0.46999998093E+01 0.  1.
</event>
<event>
 5   0  0.1020150E-03  0.1000585E+04  0.7818609E-02  0.9307903E-01
       -2   -1    0    0    0  501  0.00000000000E+00  0.00000000000E+00  0.26418941359E+03  0.26418941361E+03  0.25500000920E-02 0.  1.
        2   -1    0    0  501    0  0.00000000000E+00  0.00000000000E+00 -0.94739893465E+03  0.94739893465E+03  0.25500000920E-02 0. -1.
    10030    2    1    2    0    0  0.00000000000E+00  0.00000000000E+00 -0.68320952105E+03  0.12115883483E+04  0.10005853667E+04 0.  0.
        5    1    3    3  502    0 -0.27829841631E+03 -0.41571429736E+03 -0.33977098849E+03  0.60476011787E+03  0.46999998093E+01 0. -1.
       -5    1    3    3    0  502  0.27829841631E+03  0.41571429736E+03 -0.34343853256E+03  0.60682823039E+03  0.46999998093E+01 0.  1.
</event>
<event>
 5   0  0.1006006E-03  0.9984911E+03  0.7818609E-02  0.9310201E-01
        2   -1    0    0  501    0  0.00000000000E+00  0.00000000000E+00  0.28188072661E+03  0.28188072662E+03  0.25500000920E-02 0. -1.
       -2   -1    0    0    0  501  0.00000000000E+00  0.00000000000E+00 -0.88422539889E+03  0.88422539889E+03  0.25500000920E-02 0.  1.
    10030    2    1    2    0    0  0.00000000000E+00  0.00000000000E+00 -0.60234467228E+03  0.11661061255E+04  0.99849105742E+03 0.  0.
        2    1    3    3  502    0 -0.32780814321E+03 -0.33180226716E+03 -0.93255110303E+02  0.47565474753E+03  0.25500000920E-02 0.  1.
       -2    1    3    3    0  502  0.32780814321E+03  0.33180226716E+03 -0.50908956198E+03  0.69045137799E+03  0.25500000920E-02 0. -1.
</event>
<event>
 5   0  0.3854625E-04  0.1002905E+04  0.7818609E-02  0.9305365E-01
        4   -1    0    0  501    0  0.00000000000E+00  0.00000000000E+00  0.70483159698E+03  0.70483274115E+03  0.12699999809E+01 0.  1.
       -4   -1    0    0    0  501  0.00000000000E+00  0.00000000000E+00 -0.35675573864E+03  0.35675799914E+03  0.12699999809E+01 0. -1.
    10030    2    1    2    0    0  0.00000000000E+00  0.00000000000E+00  0.34807585834E+03  0.10615907403E+04  0.10029048293E+04 0.  0.
        2    1    3    3  502    0  0.52686073746E+02 -0.30781965756E+03 -0.24125358086E+03  0.39462900836E+03  0.25500000920E-02 0. -1.
       -2    1    3    3    0  502 -0.52686073746E+02  0.30781965756E+03  0.58932943921E+03  0.66696173194E+03  0.25500000920E-02 0.  1.
</event>
<event>
 5   0  0.5758786E-04  0.9982024E+03  0.7818609E-02  0.9310519E-01
        1   -1    0    0  501    0  0.00000000000E+00  0.00000000000E+00  0.13894174294E+04  0.13894174294E+04  0.50400001928E-02 0. -1.
       -1   -1    0    0    0  501  0.00000000000E+00  0.00000000000E+00 -0.17928520249E+03  0.17928520256E+03  0.50400001928E-02 0.  1.
    10030    2    1    2    0    0  0.00000000000E+00  0.00000000000E+00  0.12101322269E+04  0.15687026319E+04  0.99820235470E+03 0.  0.
        3    1    3    3  502    0 -0.34115137700E+03  0.29303889259E+03  0.26492594425E+03  0.52195959685E+03  0.10100000352E+00 0.  1.
       -3    1    3    3    0  502  0.34115137700E+03 -0.29303889259E+03  0.94520628262E+03  0.10467430351E+04  0.10100000352E+00 0. -1.
</event>
<event>
 5   0  0.1006749E-03  0.1000313E+04  0.7818609E-02  0.9308202E-01
        2   -1    0    0  501    0  0.00000000000E+00  0.00000000000E+00  0.13881922107E+04  0.13881922107E+04  0.25500000920E-02 0.  1.
       -2   -1    0    0    0  501  0.00000000000E+00  0.00000000000E+00 -0.18020302745E+03  0.18020302747E+03  0.25500000920E-02 0. -1.
    10030    2    1    2    0    0  0.00000000000E+00  0.00000000000E+00  0.12079891833E+04  0.15683952382E+04  0.10003128292E+04 0.  0.
        1    1    3    3  502    0 -0.26941584320E+03  0.34668279793E+03  0.97958086541E+03  0.10734768423E+04  0.50400001928E-02 0.  1.
       -1    1    3    3    0  502  0.26941584320E+03 -0.34668279793E+03  0.22840831785E+03  0.49491839594E+03  0.50400001928E-02 0. -1.
</event>
<event>
 5   0  0.5758786E-04  0.1000095E+04  0.7818609E-02  0.9308441E-01
       -1   -1    0    0    0  501  0.00000000000E+00  0.00000000000E+00  0.36866508033E+03  0.36866508037E+03  0.50400001928E-02 0.  1.
        1   -1    0    0  501    0  0.00000000000E+00  0.00000000000E+00 -0.67825074341E+03  0.67825074342E+03  0.50400001928E-02 0. -1.
    10030    2    1    2    0    0  0.00000000000E+00  0.00000000000E+00 -0.30958566307E+03  0.10469158238E+04  0.10000947252E+04 0.  0.
        3    1    3    3  502    0 -0.20595991059E+03 -0.39425580074E+03  0.84354339120E+02  0.45273920298E+03  0.10100000352E+00 0.  1.
       -3    1    3    3    0  502  0.20595991059E+03  0.39425580074E+03 -0.39394000219E+03  0.59417662081E+03  0.10100000352E+00 0. -1.
</event>
<event>
 5   0  0.1006006E-03  0.1001018E+04  0.7818609E-02  0.9307429E-01
        2   -1    0    0  501    0  0.00000000000E+00  0.00000000000E+00  0.79072717121E+03  0.79072717121E+03  0.25500000920E-02 0. -1.
       -2   -1    0    0    0  501  0.00000000000E+00  0.00000000000E+00 -0.31680872046E+03  0.31680872047E+03  0.25500000920E-02 0.  1.
    10030    2    1    2    0    0  0.00000000000E+00  0.00000000000E+00  0.47391845075E+03  0.11075358917E+04  0.10010180085E+04 0.  0.
        2    1    3    3  502    0 -0.18729201784E+03  0.45473226188E+03  0.33985848710E+03  0.59779889695E+03  0.25500000920E-02 0. -1.
       -2    1    3    3    0  502  0.18729201784E+03 -0.45473226188E+03  0.13405996365E+03  0.50973699473E+03  0.25500000920E-02 0.  1.
</event>
<event>
 5   0  0.9741826E-04  0.1012620E+04  0.7818609E-02  0.9294810E-01
        2   -1    0    0  501    0  0.00000000000E+00  0.00000000000E+00  0.18246259938E+04  0.18246259938E+04  0.25500000920E-02 0.  1.
       -2   -1    0    0    0  501  0.00000000000E+00  0.00000000000E+00 -0.14049455698E+03  0.14049455701E+03  0.25500000920E-02 0. -1.
    10030    2    1    2    0    0  0.00000000000E+00  0.00000000000E+00  0.16841314368E+04  0.19651205508E+04  0.10126204041E+04 0.  0.
        3    1    3    3  502    0 -0.21181590379E+03 -0.11753183688E+03  0.17048718739E+04  0.17219953038E+04  0.10100000352E+00 0.  1.
       -3    1    3    3    0  502  0.21181590379E+03  0.11753183688E+03 -0.20740437105E+02  0.24312524696E+03  0.10100000352E+00 0. -1.
</event>
<event>
 5   0  0.1006749E-03  0.9998642E+03  0.7818609E-02  0.9308694E-01
       -2   -1    0    0    0  501  0.00000000000E+00  0.00000000000E+00  0.12257902968E+03  0.12257902970E+03  0.25500000920E-02 0. -1.
        2   -1    0    0  501    0  0.00000000000E+00  0.00000000000E+00 -0.20389467948E+04  0.20389467948E+04  0.25500000920E-02 0.  1.
    10030    2    1    2    0    0  0.00000000000E+00  0.00000000000E+00 -0.19163677651E+04  0.21615258245E+04  0.99986423018E+03 0.  0.
        1    1    3    3  502    0 -0.42731363502E+03 -0.17187677243E+03 -0.53791401554E+03  0.70815962587E+03  0.50400001928E-02 0. -1.
       -1    1    3    3    0  502  0.42731363502E+03  0.17187677243E+03 -0.13784537495E+04  0.14533661986E+04  0.50400001928E-02 0.  1.
</event>
<event>
 5   0  0.1020150E-03  0.1000648E+04  0.7818609E-02  0.9307834E-01
       -2   -1    0    0    0  501  0.00000000000E+00  0.00000000000E+00  0.53781083586E+03  0.53781083587E+03  0.25500000920E-02 0. -1.
        2   -1    0    0  501    0  0.00000000000E+00  0.00000000000E+00 -0.46545000433E+03  0.46545000433E+03  0.25500000920E-02 0.  1.
    10030    2    1    2    0    0  0.00000000000E+00  0.00000000000E+00  0.72360831533E+02  0.10032608402E+04  0.10006479019E+04 0.  0.
        5    1    3    3  502    0 -0.37606531545E+03 -0.30727491092E+03 -0.84379046719E+02  0.49293499155E+03  0.46999998093E+01 0.  1.
       -5    1    3    3    0  502  0.37606531545E+03  0.30727491092E+03  0.15673987825E+03  0.51032584865E+03  0.46999998093E+01 0. -1.
</event>
<event>
 5   0  0.5768102E-04  0.1001375E+04  0.7818609E-02  0.9307038E-01
        1   -1    0    0  501    0  0.00000000000E+00  0.00000000000E+00  0.32098864118E+03  0.32098864122E+03  0.50400001928E-02 0. -1.
       -1   -1    0    0    0  501  0.00000000000E+00  0.00000000000E+00 -0.78098708015E+03  0.78098708017E+03  0.50400001928E-02 0.  1.
    10030    2    1    2    0    0  0.00000000000E+00  0.00000000000E+00 -0.45999843898E+03  0.11019757214E+04  0.10013750180E+04 0.  0.
        4    1    3    3  502    0 -0.21750204398E+03 -0.15330684988E+03  0.23672697239E+03  0.35616204418E+03  0.12699999809E+01 0. -1.
       -4    1    3    3    0  502  0.21750204398E+03  0.15330684988E+03 -0.69672541137E+03  0.74581367720E+03  0.12699999809E+01 0.  1.
</event>
<event>
 5   0  0.5960102E-04  0.9993696E+03  0.7818609E-02  0.9309236E-01
        1   -1    0    0  501    0  0.00000000000E+00  0.00000000000E+00  0.43441507338E+03  0.43441507341E+03  0.50400001928E-02 0. -1.
       -1   -1    0    0    0  501  0.00000000000E+00  0.00000000000E+00 -0.57476114848E+03  0.57476114850E+03  0.50400001928E-02 0.  1.
    10030    2    1    2    0    0  0.00000000000E+00  0.00000000000E+00 -0.14034607510E+03  0.10091762219E+04  0.99936961434E+03 0.  0.
        5    1    3    3  502    0 -0.45393645735E+03 -0.10365678141E+02  0.14043300620E+03  0.47529914141E+03  0.46999998093E+01 0. -1.
       -5    1    3    3    0  502  0.45393645735E+03  0.10365678141E+02 -0.28077908130E+03  0.53387708050E+03  0.46999998093E+01 0.  1.
</event>
<event>
 5   0  0.3854625E-04  0.9988976E+03  0.7818609E-02  0.9309755E-01
        3   -1    0    0  501    0  0.00000000000E+00  0.00000000000E+00  0.78429949592E+03  0.78429950242E+03  0.10100000352E+00 0. -1.
       -3   -1    0    0    0  501  0.00000000000E+00  0.00000000000E+00 -0.31805334019E+03  0.31805335623E+03  0.10100000352E+00 0.  1.
    10030    2    1    2    0    0  0.00000000000E+00  0.00000000000E+00  0.46624615573E+03  0.11023528586E+04  0.99889756594E+03 0.  0.
        3    1    3    3  502    0  0.25802891617E+03  0.31270214951E+03 -0.88785546726E+02  0.41502342030E+03  0.10100000352E+00 0.  1.
       -3    1    3    3    0  502 -0.25802891617E+03 -0.31270214951E+03  0.55503170246E+03  0.68732943835E+03  0.10100000352E+00 0. -1.
</event>
<event>
 5   0  0.9674819E-04  0.9992045E+03  0.7818609E-02  0.9309418E-01
        2   -1    0    0  501    0  0.00000000000E+00  0.00000000000E+00  0.16014196086E+04  0.16014196086E+04  0.25500000920E-02 0.  1.
       -2   -1    0    0    0  501  0.00000000000E+00  0.00000000000E+00 -0.15586322547E+03  0.15586322549E+03  0.25500000920E-02 0. -1.
    10030    2    1    2    0    0  0.00000000000E+00  0.00000000000E+00  0.14455563832E+04  0.17572828341E+04  0.99920453472E+03 0.  0.
        4    1    3    3  502    0  0.25709592635E+03 -0.17570034771E+03  0.14098623009E+04  0.14438428750E+04  0.12699999809E+01 0.  1.
       -4    1    3    3    0  502 -0.25709592635E+03  0.17570034771E+03  0.35694082288E+02  0.31343995907E+03  0.12699999809E+01 0. -1.
</event>
<event>
 5   0  0.5768102E-04  0.1001069E+04  0.7818609E-02  0.9307373E-01
        1   -1    0    0  501    0  0.00000000000E+00  0.00000000000E+00  0.22265650509E+03  0.22265650515E+03  0.50400001928E-02 0. -1.
       -1   -1    0    0    0  501  0.00000000000E+00  0.00000000000E+00 -0.11252080245E+04  0.11252080245E+04  0.50400001928E-02 0.  1.
    10030    2    1    2    0    0  0.00000000000E+00  0.00000000000E+00 -0.90255151936E+03  0.13478645296E+04  0.10010692010E+04 0.  0.
        4    1    3    3  502    0 -0.34651755108E+03  0.33659178871E+03 -0.27487442292E+03  0.55581112503E+03  0.12699999809E+01 0.  1.
       -4    1    3    3    0  502  0.34651755108E+03 -0.33659178871E+03 -0.62767709643E+03  0.79205340459E+03  0.12699999809E+01 0. -1.
</event>
<event>
 5   0  0.3854625E-04  0.1001345E+04  0.7818609E-02  0.9307071E-01
       -3   -1    0    0    0  501  0.00000000000E+00  0.00000000000E+00  0.49626522820E+03  0.49626523848E+03  0.10100000352E+00 0. -1.
        3   -1    0    0  501    0  0.00000000000E+00  0.00000000000E+00 -0.50511916052E+03  0.50511917062E+03  0.10100000352E+00 0.  1.
    10030    2    1    2    0    0  0.00000000000E+00  0.00000000000E+00 -0.88539323203E+01  0.10013844091E+04  0.10013452665E+04 0.  0.
        5    1    3    3  502    0  0.42370368075E+03 -0.15661337130E+03  0.21144818679E+03  0.49878350298E+03  0.46999998093E+01 0. -1.
       -5    1    3    3    0  502 -0.42370368075E+03  0.15661337130E+03 -0.22030211911E+03  0.50260090612E+03  0.46999998093E+01 0.  1.
</event>
<event>
 5   0  0.5826939E-04  0.9979154E+03  0.7818609E-02  0.9310834E-01
       -1   -1    0    0    0  501  0.00000000000E+00  0.00000000000E+00  0.19440987237E+03  0.19440987243E+03  0.50400001928E-02 0.  1.
        1   -1    0    0  501    0  0.00000000000E+00  0.00000000000E+00 -0.12805872315E+04  0.12805872315E+04  0.50400001928E-02 0. -1.
    10030    2    1    2    0    0  0.00000000000E+00  0.00000000000E+00 -0.10861773591E+04  0.14749971040E+04  0.99791542786E+03 0.  0.
        1    1    3    3  502    0  0.40717153809E+03  0.26047091570E+02 -0.96761295126E+03  0.10501152012E+04  0.50400001928E-02 0. -1.
       -1    1    3    3    0  502 -0.40717153809E+03 -0.26047091570E+02 -0.11856440789E+03  0.42488190271E+03  0.50400001928E-02 0.  1.
</event>
<event>
 5   0  0.1006749E-03  0.9999409E+03  0.7818609E-02  0.9308610E-01
        2   -1    0    0  501    0  0.00000000000E+00  0.00000000000E+00  0.64272096711E+03  0.64272096711E+03  0.25500000920E-02 0. -1.
       -2   -1    0    0    0  501  0.00000000000E+00  0.00000000000E+00 -0.38892533320E+03  0.38892533321E+03  0.25500000920E-02 0.  1.
    10030    2    1    2    0    0  0.00000000000E+00  0.00000000000E+00  0.25379563390E+03  0.10316463003E+04  0.99994093085E+03 0.  0.
        1    1    3    3  502    0  0.16150321907E+03 -0.17070595987E+03  0.58219134727E+03  0.62783005612E+03  0.50400001928E-02 0. -1.
       -1    1    3    3    0  502 -0.16150321907E+03  0.17070595987E+03 -0.32839571336E+03  0.40381624421E+03  0.50400001928E-02 0.  1.
</event>
<event>
 5   0  0.5960102E-04  0.1000082E+04  0.7818609E-02  0.9308455E-01
        1   -1    0    0  501    0  0.00000000000E+00  0.00000000000E+00  0.85147428766E+03  0.85147428768E+03  0.50400001928E-02 0.  1.
       -1   -1    0    0    0  501  0.00000000000E+00  0.00000000000E+00 -0.29365648821E+03  0.29365648825E+03  0.50400001928E-02 0. -1.
    10030    2    1    2    0    0  0.00000000000E+00  0.00000000000E+00  0.55781779945E+03  0.11451307759E+04  0.10000818949E+04 0.  0.
        5    1    3    3  502    0  0.29012073861E+03 -0.17935479793E+03 -0.13974373883E+03  0.36863069467E+03  0.46999998093E+01 0. -1.
       -5    1    3    3    0  502 -0.29012073861E+03  0.17935479793E+03  0.69756153828E+03  0.77650008126E+03  0.46999998093E+01 0.  1.
</event>
<event>
 5   0  0.9674819E-04  0.9999655E+03  0.7818609E-02  0.9308583E-01
       -2   -1    0    0    0  501  0.00000000000E+00  0.00000000000E+00  0.16690465401E+03  0.16690465403E+03  0.25500000920E-02 0.  1.
        2   -1    0    0  501    0  0.00000000000E+00  0.00000000000E+00 -0.14977578935E+04  0.14977578935E+04  0.25500000920E-02 0. -1.
    10030    2    1    2    0    0  0.00000000000E+00  0.00000000000E+00 -0.13308532395E+04  0.16646625475E+04  0.99996552543E+03 0.  0.
        4    1    3    3  502    0 -0.29604753301E+03  0.12565541740E+03 -0.13027072529E+04  0.13418201166E+04  0.12699999809E+01 0. -1.
       -4    1    3    3    0  502  0.29604753301E+03 -0.12565541740E+03 -0.28145986586E+02  0.32284243089E+03  0.12699999809E+01 0.  1.
</event>
<event>
 5   0  0.1006749E-03  0.9978506E+03  0.7818609E-02  0.9310905E-01
       -2   -1    0    0    0  501  0.00000000000E+00  0.00000000000E+00  0.32860345864E+03  0.32860345865E+03  0.25500000920E-02 0. -1.
        2   -1    0    0  501    0  0.00000000000E+00  0.00000000000E+00 -0.75752844896E+03  0.75752844897E+03  0.25500000920E-02 0.  1.
    10030    2    1    2    0    0  0.00000000000E+00  0.00000000000E+00 -0.42892499032E+03  0.10861319076E+04  0.99785062681E+03 0.  0.
        1    1    3    3  502    0 -0.28434699622E+03 -0.22095511913E+03  0.16141821292E+03  0.39462668235E+03  0.50400001928E-02 0. -1.
       -1    1    3    3    0  502  0.28434699622E+03  0.22095511913E+03 -0.59034320324E+03  0.69150522527E+03  0.50400001928E-02 0.  1.
</event>
<event>
 5   0  0.9741826E-04  0.9995936E+03  0.7818609E-02  0.9308991E-01
        2   -1    0    0  501    0  0.00000000000E+00  0.00000000000E+00  0.74002823901E+03  0.74002823901E+03  0.25500000920E-02 0.  1.
       -2   -1    0    0    0  501  0.00000000000E+00  0.00000000000E+00 -0.33755043398E+03  0.33755043399E+03  0.25500000920E-02 0. -1.
    10030    2    1    2    0    0  0.00000000000E+00  0.00000000000E+00  0.40247780503E+03  0.10775786730E+04  0.99959362391E+03 0.  0.
        3    1    3    3  502    0 -0.34795185164E+03  0.39193169206E+01 -0.18551377331E+03  0.39433643300E+03  0.10100000352E+00 0. -1.
       -3    1    3    3    0  502  0.34795185164E+03 -0.39193169206E+01  0.58799157835E+03  0.68324223999E+03  0.10100000352E+00 0.  1.
</event>
<event>
 5   0  0.1006006E-03  0.1000373E+04  0.7818609E-02  0.9308135E-01
       -2   -1    0    0    0  501  0.00000000000E+00  0.00000000000E+00  0.20757375982E+03  0.20757375983E+03  0.25500000920E-02 0. -1.
        2   -1    0    0  501    0  0.00000000000E+00  0.00000000000E+00 -0.12052905491E+04  0.12052905491E+04  0.25500000920E-02 0.  1.
    10030    2    1    2    0    0  0.00000000000E+00  0.00000000000E+00 -0.99771678925E+03  0.14128643089E+04  0.10003733122E+04 0.  0.
        2    1    3    3  502    0  0.41828330797E+03 -0.11144160417E+03 -0.85280746100E+03  0.95637896380E+03  0.25500000920E-02 0.  1.
       -2    1    3    3    0  502 -0.41828330797E+03  0.11144160417E+03 -0.14490932825E+03  0.45648534510E+03  0.25500000920E-02 0. -1.
</event>
<event>
 5   0  0.1006749E-03  0.9982699E+03  0.7818609E-02  0.9310444E-01
       -2   -1    0    0    0  501  0.00000000000E+00  0.00000000000E+00  0.27919978798E+03  0.27919978799E+03  0.25500000920E-02 0. -1.
        2   -1    0    0  501    0  0.00000000000E+00  0.00000000000E+00 -0.89232043234E+03  0.89232043234E+03  0.25500000920E-02 0.  1.
    10030    2    1    2    0    0  0.00000000000E+00  0.00000000000E+00 -0.61312064435E+03  0.11715202203E+04  0.99826985436E+03 0.  0.
        1    1    3    3  502    0 -0.22339888881E+03 -0.38041713517E+03 -0.58055716657E+03  0.72915765369E+03  0.50400001928E-02 0.  1.
       -1    1    3    3    0  502  0.22339888881E+03  0.38041713517E+03 -0.32563477782E+02  0.44236256664E+03  0.50400001928E-02 0. -1.
</event>
<event>
 5   0  0.1020150E-03  0.1030626E+04  0.7818609E-02  0.9275579E-01
       -2   -1    0    0    0  501  0.00000000000E+00  0.00000000000E+00  0.27148575670E+03  0.27148575671E+03  0.25500000920E-02 0. -1.
        2   -1    0    0  501    0  0.00000000000E+00  0.00000000000E+00 -0.97812599777E+03  0.97812599778E+03  0.25500000920E-02 0.  1.
    10030    2    1    2    0    0  0.00000000000E+00  0.00000000000E+00 -0.70664024108E+03  0.12496117545E+04  0.10306255899E+04 0.  0.
        5    1    3    3  502    0  0.21239729443E+03 -0.44112654654E+03 -0.15849190878E+03  0.51463289429E+03  0.46999998093E+01 0.  1.
       -5    1    3    3    0  502 -0.21239729443E+03  0.44112654654E+03 -0.54814833229E+03  0.73497886019E+03  0.46999998093E+01 0. -1.
</event>
<event>
 5   0  0.1006006E-03  0.9983599E+03  0.7818609E-02  0.9310345E-01
       -2   -1    0    0    0  501  0.00000000000E+00  0.00000000000E+00  0.15142996363E+03  0.15142996365E+03  0.25500000920E-02 0. -1.
        2   -1    0    0  501    0  0.00000000000E+00  0.00000000000E+00 -0.16455172741E+04  0.16455172741E+04  0.25500000920E-02 0.  1.
    10030    2    1    2    0    0  0.00000000000E+00  0.00000000000E+00 -0.14940873104E+04  0.17969472377E+04  0.99835989699E+03 0.  0.
        2    1    3    3  502    0 -0.21345621595E+03  0.71990703592E+02 -0.15488263581E+04  0.15651227764E+04  0.25500000920E-02 0.  1.
       -2    1    3    3    0  502  0.21345621595E+03 -0.71990703592E+02  0.54739047677E+02  0.23182446134E+03  0.25500000920E-02 0. -1.
</event>
<event>
 5   0  0.5758786E-04  0.9988803E+03  0.7818609E-02  0.9309774E-01
        1   -1    0    0  501    0  0.00000000000E+00  0.00000000000E+00  0.44096279490E+03  0.44096279493E+03  0.50400001928E-02 0. -1.
       -1   -1    0    0    0  501  0.00000000000E+00  0.00000000000E+00 -0.56567231236E+03  0.56567231238E+03  0.50400001928E-02 0.  1.
    10030    2    1    2    0    0  0.00000000000E+00  0.00000000000E+00 -0.12470951746E+03  0.10066351073E+04  0.99888026086E+03 0.  0.
        3    1    3    3  502    0  0.17212614919E+03 -0.24870076888E+03 -0.46288333810E+03  0.55293804225E+03  0.10100000352E+00 0.  1.
       -3    1    3    3    0  502 -0.17212614919E+03  0.24870076888E+03  0.33817382065E+03  0.45369706506E+03  0.10100000352E+00 0. -1.
</event>
<event>
 5   0  0.5826939E-04  0.9942687E+03  0.7818609E-02  0.9314853E-01
        1   -1    0    0  501    0  0.00000000000E+00  0.00000000000E+00  0.68310153737E+03  0.68310153739E+03  0.50400001928E-02 0. -1.
       -1   -1    0    0    0  501  0.00000000000E+00  0.00000000000E+00 -0.36179473665E+03  0.36179473668E+03  0.50400001928E-02 0.  1.
    10030    2    1    2    0    0  0.00000000000E+00  0.00000000000E+00  0.32130680072E+03  0.10448962741E+04  0.99426865754E+03 0.  0.
        1    1    3    3  502    0 -0.18442422870E+02  0.32929295476E+03  0.55157363801E+03  0.64265655773E+03  0.50400001928E-02 0. -1.
       -1    1    3    3    0  502  0.18442422870E+02 -0.32929295476E+03 -0.23026683729E+03  0.40223971634E+03  0.50400001928E-02 0.  1.
</event>
<event>
 5   0  0.9674819E-04  0.1000097E+04  0.7818609E-02  0.9308438E-01
       -2   -1    0    0    0  501  0.00000000000E+00  0.00000000000E+00  0.23436392880E+03  0.23436392881E+03  0.25500000920E-02 0. -1.
        2   -1    0    0  501    0  0.00000000000E+00  0.00000000000E+00 -0.10669239545E+04  0.10669239545E+04  0.25500000920E-02 0.  1.
    10030    2    1    2    0    0  0.00000000000E+00  0.00000000000E+00 -0.83256002570E+03  0.13012878833E+04  0.10000969747E+04 0.  0.
        4    1    3    3  502    0 -0.14964361345E+03 -0.41226354294E+03 -0.72880929498E+03  0.85059922480E+03  0.12699999809E+01 0.  1.
       -4    1    3    3    0  502  0.14964361345E+03  0.41226354294E+03 -0.10375073072E+03  0.45068865851E+03  0.12699999809E+01 0. -1.
</event>
<event>
 5   0  0.1020150E-03  0.9989056E+03  0.7818609E-02  0.9309746E-01
        2   -1    0    0  501    0  0.00000000000E+00  0.00000000000E+00  0.71095305458E+03  0.71095305459E+03  0.25500000920E-02 0.  1.
       -2   -1    0    0    0  501  0.00000000000E+00  0.00000000000E+00 -0.35087139350E+03  0.35087139351E+03  0.25500000920E-02 0. -1.
    10030    2    1    2    0    0  0.00000000000E+00  0.00000000000E+00  0.36008166108E+03  0.10618244481E+04  0.99890557909E+03 0.  0.
        5    1    3    3  502    0  0.16985926312E+03 -0.41887285070E+03  0.40584597492E+03  0.60748636172E+03  0.46999998093E+01 0.  1.
       -5    1    3    3    0  502 -0.16985926312E+03  0.41887285070E+03 -0.45764313835E+02  0.45433808638E+03  0.46999998093E+01 0. -1.
</event>
<event>
 5   0  0.1020150E-03  0.9989461E+03  0.7818609E-02  0.9309701E-01
        2   -1    0    0  501    0  0.00000000000E+00  0.00000000000E+00  0.14078741323E+04  0.14078741323E+04  0.25500000920E-02 0.  1.
       -2   -1    0    0    0  501  0.00000000000E+00  0.00000000000E+00 -0.17719859881E+03  0.17719859883E+03  0.25500000920E-02 0. -1.
    10030    2    1    2    0    0  0.00000000000E+00  0.00000000000E+00  0.12306755335E+04  0.15850727312E+04  0.99894609177E+03 0.  0.
        5    1    3    3  502    0 -0.46864072122E+03 -0.11819342199E+03  0.81515063216E+03  0.94767423396E+03  0.46999998093E+01 0.  1.
       -5    1    3    3    0  502  0.46864072122E+03  0.11819342199E+03  0.41552490136E+03  0.63739849720E+03  0.46999998093E+01 0. -1.
</event>
<event>
 5   0  0.5768102E-04  0.1002780E+04  0.7818609E-02  0.9305501E-01
        1   -1    0    0  501    0  0.00000000000E+00  0.00000000000E+00  0.39009613346E+03  0.39009613349E+03  0.50400001928E-02 0. -1.
       -1   -1    0    0    0  501  0.00000000000E+00  0.00000000000E+00 -0.64443592916E+03  0.64443592918E+03  0.50400001928E-02 0.  1.
    10030    2    1    2    0    0  0.00000000000E+00  0.00000000000E+00 -0.25433979570E+03  0.10345320627E+04  0.10027800641E+04 0.  0.
        4    1    3    3  502    0  0.49724554477E+03 -0.36238672981E+02 -0.18199367191E+03  0.53074446086E+03  0.12699999809E+01 0.  1.
       -4    1    3    3    0  502 -0.49724554477E+03  0.36238672981E+02 -0.72346123790E+02  0.50378760181E+03  0.12699999809E+01 0. -1.
</event>
<event>
 5   0  0.5960102E-04  0.1000412E+04  0.7818609E-02  0.9308094E-01
        1   -1    0    0  501    0  0.00000000000E+00  0.00000000000E+00  0.72500516161E+03  0.72500516163E+03  0.50400001928E-02 0. -1.
       -1   -1    0    0    0  501  0.00000000000E+00  0.00000000000E+00 -0.34510903076E+03  0.34510903080E+03  0.50400001928E-02 0.  1.
    10030    2    1    2    0    0  0.00000000000E+00  0.00000000000E+00  0.37989613085E+03  0.10701141924E+04  0.10004115726E+04 0.  0.
        5    1    3    3  502    0 -0.35905363120E+03  0.33635166920E+03  0.28640741132E+03  0.56930066811E+03  0.46999998093E+01 0. -1.
       -5    1    3    3    0  502  0.35905363120E+03 -0.33635166920E+03  0.93488719534E+02  0.50081352431E+03  0.46999998093E+01 0.  1.
</event>
<event>
 5   0  0.1006749E-03  0.1000936E+04  0.7818609E-02  0.9307518E-01
       -2   -1    0    0    0  501  0.00000000000E+00  0.00000000000E+00  0.58136864356E+03  0.58136864356E+03  0.25500000920E-02 0. -1.
        2   -1    0    0  501    0  0.00000000000E+00  0.00000000000E+00 -0.43082542488E+03  0.43082542488E+03  0.25500000920E-02 0.  1.
    10030    2    1    2    0    0  0.00000000000E+00  0.00000000000E+00  0.15054321868E+03  0.10121940684E+04  0.10009363474E+04 0.  0.
        1    1    3    3  502    0 -0.21963115216E+03 -0.28466888904E+03  0.42731662377E+03  0.55845654832E+03  0.50400001928E-02 0. -1.
       -1    1    3    3    0  502  0.21963115216E+03  0.28466888904E+03 -0.27677340509E+03  0.45373752013E+03  0.50400001928E-02 0.  1.
</event>
<event>
 5   0  0.9674819E-04  0.9991980E+03  0.7818609E-02  0.9309425E-01
        2   -1    0    0  501    0  0.00000000000E+00  0.00000000000E+00  0.13098313906E+04  0.13098313906E+04  0.25500000920E-02 0.  1.
       -2   -1    0    0    0  501  0.00000000000E+00  0.00000000000E+00 -0.19055823776E+03  0.19055823778E+03  0.25500000920E-02 0. -1.
    10030    2    1    2    0    0  0.00000000000E+00  0.00000000000E+00  0.11192731529E+04  0.15003896284E+04  0.99919800156E+03 0.  0.
        4    1    3    3  502    0  0.38315355250E+03 -0.22414023975E+03  0.21540765524E+03  0.49340405623E+03  0.12699999809E+01 0. -1.
       -4    1    3    3    0  502 -0.38315355250E+03  0.22414023975E+03  0.90386549763E+03  0.10069855722E+04  0.12699999809E+01 0.  1.
</event>
<event>
 5   0  0.1006006E-03  0.9998714E+03  0.7818609E-02  0.9308686E-01
        2   -1    0    0  501    0  0.00000000000E+00  0.00000000000E+00  0.65621612890E+03  0.65621612891E+03  0.25500000920E-02 0.  1.
       -2   -1    0    0    0  501  0.00000000000E+00  0.00000000000E+00 -0.38087407342E+03  0.38087407343E+03  0.25500000920E-02 0. -1.
    10030    2    1    2    0    0  0.00000000000E+00  0.00000000000E+00  0.27534205548E+03  0.10370902023E+04  0.99987141187E+03 0.  0.
        2    1    3    3  502    0  0.77302375437E+02  0.46843462253E+03 -0.24776388540E+02  0.47541615693E+03  0.25500000920E-02 0. -1.
       -2    1    3    3    0  502 -0.77302375437E+02 -0.46843462253E+03  0.30011844402E+03  0.56167404541E+03  0.25500000920E-02 0.  1.
</event>
<event>
 5   0  0.1006006E-03  0.9998782E+03  0.7818609E-02  0.9308678E-01
       -2   -1    0    0    0  501  0.00000000000E+00  0.00000000000E+00  0.29730032855E+03  0.29730032856E+03  0.25500000920E-02 0.  1.
        2   -1    0    0  501    0  0.00000000000E+00  0.00000000000E+00 -0.84069570853E+03  0.84069570854E+03  0.25500000920E-02 0. -1.
    10030    2    1    2    0    0  0.00000000000E+00  0.00000000000E+00 -0.54339537998E+03  0.11379960371E+04  0.99987821332E+03 0.  0.
        2    1    3    3  502    0  0.24604173376E+03 -0.38009431057E+02 -0.76512580173E+03  0.80461092715E+03  0.25500000920E-02 0. -1.
       -2    1    3    3    0  502 -0.24604173376E+03  0.38009431057E+02  0.22173042175E+03  0.33338510995E+03  0.25500000920E-02 0.  1.
</event>
<event>
 5   0  0.3854625E-04  0.1001979E+04  0.7818609E-02  0.9306376E-01
        4   -1    0    0  501    0  0.00000000000E+00  0.00000000000E+00  0.87114800797E+03  0.87114893370E+03  0.12699999809E+01 0. -1.
       -4   -1    0    0    0  501  0.00000000000E+00  0.00000000000E+00 -0.28811241126E+03  0.28811521033E+03  0.12699999809E+01 0.  1.
    10030    2    1    2    0    0  0.00000000000E+00  0.00000000000E+00  0.58303559671E+03  0.11592641440E+04  0.10019794652E+04 0.  0.
        3    1    3    3  502    0 -0.41522866580E+02  0.30679191918E+03 -0.16419670938E+03  0.35043686978E+03  0.10100000352E+00 0.  1.
       -3    1    3    3    0  502  0.41522866580E+02 -0.30679191918E+03  0.74723230608E+03  0.80882727426E+03  0.10100000352E+00 0. -1.
</event>
<event>
 5   0  0.5758786E-04  0.1001559E+04  0.7818609E-02  0.9306837E-01
       -1   -1    0    0    0  501  0.00000000000E+00  0.00000000000E+00  0.35780125523E+03  0.35780125527E+03  0.50400001928E-02 0. -1.
        1   -1    0    0  501    0  0.00000000000E+00  0.00000000000E+00 -0.70089162688E+03  0.70089162690E+03  0.50400001928E-02 0.  1.
    10030    2    1    2    0    0  0.00000000000E+00  0.00000000000E+00 -0.34309037165E+03  0.10586928822E+04  0.10015585932E+04 0.  0.
        3    1    3    3  502    0 -0.31455368127E+03 -0.31798114721E+03  0.66522144683E+02  0.45219601316E+03  0.10100000352E+00 0. -1.
       -3    1    3    3    0  502  0.31455368127E+03  0.31798114721E+03 -0.40961251633E+03  0.60649686901E+03  0.10100000352E+00 0.  1.
</event>
<event>
 5   0  0.1020150E-03  0.9999403E+03  0.7818609E-02  0.9308610E-01
       -2   -1    0    0    0  501  0.00000000000E+00  0.00000000000E+00  0.12517736005E+03  0.12517736008E+03  0.25500000920E-02 0. -1.
        2   -1    0    0  501    0  0.00000000000E+00  0.00000000000E+00 -0.19969278787E+04  0.19969278787E+04  0.25500000920E-02 0.  1.
    10030    2    1    2    0    0  0.00000000000E+00  0.00000000000E+00 -0.18717505186E+04  0.21221052387E+04  0.99994031840E+03 0.  0.
        5    1    3    3  502    0 -0.16771995770E+03  0.15319340025E+03  0.92922749422E+01  0.22739093751E+03  0.46999998093E+01 0. -1.
       -5    1    3    3    0  502  0.16771995770E+03 -0.15319340025E+03 -0.18810427936E+04  0.18947143012E+04  0.46999998093E+01 0.  1.
</event>
<event>
 5   0  0.1006749E-03  0.1010208E+04  0.7818609E-02  0.9297420E-01
        2   -1    0    0  501    0  0.00000000000E+00  0.00000000000E+00  0.81433302075E+03  0.81433302076E+03  0.25500000920E-02 0. -1.
       -2   -1    0    0    0  501  0.00000000000E+00  0.00000000000E+00 -0.31329920105E+03  0.31329920106E+03  0.25500000920E-02 0.  1.
    10030    2    1    2    0    0  0.00000000000E+00  0.00000000000E+00  0.50103381970E+03  0.11276322218E+04  0.10102076713E+04 0.  0.
        1    1    3    3  502    0 -0.20846969914E+02  0.68922455449E+01 -0.31276624930E+03  0.31353600420E+03  0.50400001928E-02 0.  1.
       -1    1    3    3    0  502  0.20846969914E+02 -0.68922455449E+01  0.81380006900E+03  0.81409621762E+03  0.50400001928E-02 0. -1.
</event>
<event>
 5   0  0.5768102E-04  0.9933879E+03  0.7818609E-02  0.9315827E-01
       -1   -1    0    0    0  501  0.00000000000E+00  0.00000000000E+00  0.40585413364E+03  0.40585413367E+03  0.50400001928E-02 0.  1.
        1   -1    0    0  501    0  0.00000000000E+00  0.00000000000E+00 -0.60786582862E+03  0.60786582864E+03  0.50400001928E-02 0. -1.
    10030    2    1    2    0    0  0.00000000000E+00  0.00000000000E+00 -0.20201169498E+03  0.10137199623E+04  0.99338785834E+03 0.  0.
        4    1    3    3  502    0  0.38189547431E+03  0.83918597907E+02  0.21155845114E+03  0.44457291362E+03  0.12699999809E+01 0.  1.
       -4    1    3    3    0  502 -0.38189547431E+03 -0.83918597907E+02 -0.41357014612E+03  0.56914704869E+03  0.12699999809E+01 0. -1.
</event>
<event>
 5   0  0.5758786E-04  0.9981718E+03  0.7818609E-02  0.9310552E-01
        1   -1    0    0  501    0  0.00000000000E+00  0.00000000000E+00  0.77955671923E+03  0.77955671925E+03  0.50400001928E-02 0. -1.
       -1   -1    0    0    0  501  0.00000000000E+00  0.00000000000E+00 -0.31952357510E+03  0.31952357514E+03  0.50400001928E-02 0.  1.
    10030    2    1    2    0    0  0.00000000000E+00  0.00000000000E+00  0.46003314413E+03  0.10990802944E+04  0.99817182880E+03 0.  0.
        3    1    3    3  502    0  0.39887056769E+03  0.27951015509E+03  0.34994520977E+03  0.59973770651E+03  0.10100000352E+00 0.  1.
       -3    1    3    3    0  502 -0.39887056769E+03 -0.27951015509E+03  0.11008793436E+03  0.49934258787E+03  0.10100000352E+00 0. -1.
</event>
<event>
 5   0  0.1020150E-03  0.9982171E+03  0.7818609E-02  0.9310502E-01
        2   -1    0    0  501    0  0.00000000000E+00  0.00000000000E+00  0.57239936520E+03  0.57239936520E+03  0.25500000920E-02 0. -1.
       -2   -1    0    0    0  501  0.00000000000E+00  0.00000000000E+00 -0.43520197714E+03  0.43520197715E+03  0.25500000920E-02 0.  1.
    10030    2    1    2    0    0  0.00000000000E+00  0.00000000000E+00  0.13719738805E+03  0.10076013424E+04  0.99821708151E+03 0.  0.
        5    1    3    3  502    0 -0.66311733869E+02  0.49429886184E+03  0.87714377543E+02  0.50640350797E+03  0.46999998093E+01 0.  1.
       -5    1    3    3    0  502  0.66311733869E+02 -0.49429886184E+03  0.49483010510E+02  0.50119783438E+03  0.46999998093E+01 0. -1.
</event>
<event>
 5   0  0.1020150E-03  0.9972336E+03  0.7818609E-02  0.9311584E-01
       -2   -1    0    0    0  501  0.00000000000E+00  0.00000000000E+00  0.52866146706E+03  0.52866146707E+03  0.25500000920E-02 0.  1.
        2   -1    0    0  501    0  0.00000000000E+00  0.00000000000E+00 -0.47027957196E+03  0.47027957196E+03  0.25500000920E-02 0. -1.
    10030    2    1    2    0    0  0.00000000000E+00  0.00000000000E+00  0.58381895107E+02  0.99894103903E+03  0.99723355027E+03 0.  0.
        5    1    3    3  502    0 -0.27660338266E+03  0.27120695499E+03  0.34362960341E+03  0.51784750465E+03  0.46999998093E+01 0.  1.
       -5    1    3    3    0  502  0.27660338266E+03 -0.27120695499E+03 -0.28524770830E+03  0.48109353438E+03  0.46999998093E+01 0. -1.
</event>
<event>
 5   0  0.1006006E-03  0.1000898E+04  0.7818609E-02  0.9307561E-01
       -2   -1    0    0    0  501  0.00000000000E+00  0.00000000000E+00  0.19982982842E+03  0.19982982843E+03  0.25500000920E-02 0.  1.
        2   -1    0    0  501    0  0.00000000000E+00  0.00000000000E+00 -0.12533120249E+04  0.12533120249E+04  0.25500000920E-02 0. -1.
    10030    2    1    2    0    0  0.00000000000E+00  0.00000000000E+00 -0.10534821965E+04  0.14531418534E+04  0.10008978507E+04 0.  0.
        2    1    3    3  502    0  0.27373008232E+03 -0.63995816734E+02 -0.11278538940E+04  0.11623588210E+04  0.25500000920E-02 0. -1.
       -2    1    3    3    0  502 -0.27373008232E+03  0.63995816734E+02  0.74371697476E+02  0.29078303238E+03  0.25500000920E-02 0.  1.
</event>
<event>
 5   0  0.9674819E-04  0.1002777E+04  0.7818609E-02  0.9305505E-01
        2   -1    0    0  501    0  0.00000000000E+00  0.00000000000E+00  0.13970382731E+04  0.13970382731E+04  0.25500000920E-02 0.  1.
       -2   -1    0    0    0  501  0.00000000000E+00  0.00000000000E+00 -0.17994511343E+03  0.17994511345E+03  0.25500000920E-02 0. -1.
    10030    2    1    2    0    0  0.00000000000E+00  0.00000000000E+00  0.12170931597E+04  0.15769833866E+04  0.10027765664E+04 0.  0.
        4    1    3    3  502    0  0.37862167985E+03  0.18308423407E+03  0.17926426167E+03  0.45717775715E+03  0.12699999809E+01 0. -1.
       -4    1    3    3    0  502 -0.37862167985E+03 -0.18308423407E+03  0.10378288980E+04  0.11198056294E+04  0.12699999809E+01 0.  1.
</event>
<event>
 5   0  0.5826939E-04  0.9980697E+03  0.7818609E-02  0.9310664E-01
       -1   -1    0    0    0  501  0.00000000000E+00  0.00000000000E+00  0.23298853781E+03  0.23298853787E+03  0.50400001928E-02 0. -1.
        1   -1    0    0  501    0  0.00000000000E+00  0.00000000000E+00 -0.10688757090E+04  0.10688757090E+04  0.50400001928E-02 0.  1.
    10030    2    1    2    0    0  0.00000000000E+00  0.00000000000E+00 -0.83588717121E+03  0.13018642469E+04  0.99806971418E+03 0.  0.
        1    1    3    3  502    0  0.30685006896E+02  0.44779792484E+03 -0.70244016363E+03  0.83359866521E+03  0.50400001928E-02 0.  1.
       -1    1    3    3    0  502 -0.30685006896E+02 -0.44779792484E+03 -0.13344700757E+03  0.46826558168E+03  0.50400001928E-02 0. -1.
</event>
<event>
 5   0  0.5826939E-04  0.1000761E+04  0.7818609E-02  0.9307711E-01
       -1   -1    0    0    0  501  0.00000000000E+00  0.00000000000E+00  0.19287071556E+03  0.19287071563E+03  0.50400001928E-02 0.  1.
        1   -1    0    0  501    0  0.00000000000E+00  0.00000000000E+00 -0.12981786910E+04  0.12981786910E+04  0.50400001928E-02 0. -1.
    10030    2    1    2    0    0  0.00000000000E+00  0.00000000000E+00 -0.11053079754E+04  0.14910494066E+04  0.10007610167E+04 0.  0.
        1    1    3    3  502    0 -0.89670495938E+02  0.16998614829E+03 -0.12409958851E+04  0.12557893435E+04  0.50400001928E-02 0. -1.
       -1    1    3    3    0  502  0.89670495938E+02 -0.16998614829E+03  0.13568790965E+03  0.23526006313E+03  0.50400001928E-02 0.  1.
</event>
<event>
 5   0  0.5758786E-04  0.9993431E+03  0.7818609E-02  0.9309266E-01
        1   -1    0    0  501    0  0.00000000000E+00  0.00000000000E+00  0.39718079874E+03  0.39718079878E+03  0.50400001928E-02 0.  1.
       -1   -1    0    0    0  501  0.00000000000E+00  0.00000000000E+00 -0.62860960882E+03  0.62860960884E+03  0.50400001928E-02 0. -1.
    10030    2    1    2    0    0  0.00000000000E+00  0.00000000000E+00 -0.23142881008E+03  0.10257904076E+04  0.99934311737E+03 0.  0.
        3    1    3    3  502    0 -0.35042058708E+03  0.12759549841E+03  0.22564715577E+03  0.43588054347E+03  0.10100000352E+00 0.  1.
       -3    1    3    3    0  502  0.35042058708E+03 -0.12759549841E+03 -0.45707596585E+03  0.58990986415E+03  0.10100000352E+00 0. -1.
</event>
<event>
 5   0  0.1006749E-03  0.1001877E+04  0.7818609E-02  0.9306489E-01
       -2   -1    0    0    0  501  0.00000000000E+00  0.00000000000E+00  0.18016988760E+03  0.18016988761E+03  0.25500000920E-02 0. -1.
        2   -1    0    0  501    0  0.00000000000E+00  0.00000000000E+00 -0.13927927114E+04  0.13927927114E+04  0.25500000920E-02 0.  1.
    10030    2    1    2    0    0  0.00000000000E+00  0.00000000000E+00 -0.12126228238E+04  0.15729625990E+04  0.10018768513E+04 0.  0.
        1    1    3    3  502    0 -0.33995647609E+03 -0.12491148354E+03 -0.11496503960E+04  0.12053502882E+04  0.50400001928E-02 0.  1.
       -1    1    3    3    0  502  0.33995647609E+03  0.12491148354E+03 -0.62972427845E+02  0.36761231080E+03  0.50400001928E-02 0. -1.
</event>
<event>
 5   0  0.3854625E-04  0.9996914E+03  0.7818609E-02  0.9308883E-01
        3   -1    0    0  501    0  0.00000000000E+00  0.00000000000E+00  0.43788078080E+03  0.43788079244E+03  0.10100000352E+00 0. -1.
       -3   -1    0    0    0  501  0.00000000000E+00  0.00000000000E+00 -0.57057929650E+03  0.57057930544E+03  0.10100000352E+00 0.  1.
    10030    2    1    2    0    0  0.00000000000E+00  0.00000000000E+00 -0.13269851571E+03  0.10084600979E+04  0.99969138886E+03 0.  0.
        1    1    3    3  502    0  0.47220790211E+03 -0.14882121497E+03  0.29384429382E+01  0.49511280665E+03  0.50400001928E-02 0. -1.
       -1    1    3    3    0  502 -0.47220790211E+03  0.14882121497E+03 -0.13563695865E+03  0.51334729123E+03  0.50400001928E-02 0.  1.
</event>
<event>
 5   0  0.9674819E-04  0.1002234E+04  0.7818609E-02  0.9306098E-01
        2   -1    0    0  501    0  0.00000000000E+00  0.00000000000E+00  0.46688465676E+03  0.46688465677E+03  0.25500000920E-02 0.  1.
       -2   -1    0    0    0  501  0.00000000000E+00  0.00000000000E+00 -0.53785949542E+03  0.53785949543E+03  0.25500000920E-02 0. -1.
    10030    2    1    2    0    0  0.00000000000E+00  0.00000000000E+00 -0.70974838660E+02  0.10047441522E+04  0.10022341960E+04 0.  0.
        4    1    3    3  502    0 -0.35131127495E+03  0.31570612291E+03 -0.20331864143E+03  0.51422762548E+03  0.12699999809E+01 0. -1.
       -4    1    3    3    0  502  0.35131127495E+03 -0.31570612291E+03  0.13234380277E+03  0.49051652672E+03  0.12699999809E+01 0.  1.
</event>
<event>
 5   0  0.5768102E-04  0.1000466E+04  0.7818609E-02  0.9308033E-01
        1   -1    0    0  501    0  0.00000000000E+00  0.00000000000E+00  0.43578075100E+03  0.43578075103E+03  0.50400001928E-02 0. -1.
       -1   -1    0    0    0  501  0.00000000000E+00  0.00000000000E+00 -0.57421830483E+03  0.57421830485E+03  0.50400001928E-02 0.  1.
    10030    2    1    2    0    0  0.00000000000E+00  0.00000000000E+00 -0.13843755383E+03  0.10099990559E+04  0.10004664595E+04 0.  0.
        4    1    3    3  502    0  0.20928122616E+03  0.50561791007E+02 -0.52504789770E+03  0.56747866401E+03  0.12699999809E+01 0.  1.
       -4    1    3    3    0  502 -0.20928122616E+03 -0.50561791007E+02  0.38661034387E+03  0.44252039187E+03  0.12699999809E+01 0. -1.
</event>
<event>
 5   0  0.5960102E-04  0.9929506E+03  0.7818609E-02  0.9316310E-01
       -1   -1    0    0    0  501  0.00000000000E+00  0.00000000000E+00  0.38609217650E+03  0.38609217653E+03  0.50400001928E-02 0. -1.
        1   -1    0    0  501    0  0.00000000000E+00  0.00000000000E+00 -0.63841681037E+03  0.63841681039E+03  0.50400001928E-02 0.  1.
    10030    2    1    2    0    0  0.00000000000E+00  0.00000000000E+00 -0.25232463388E+03  0.10245089869E+04  0.99295062487E+03 0.  0.
        5    1    3    3  502    0 -0.40908861508E+02  0.17650910055E+03  0.35073622742E+03  0.39479993509E+03  0.46999998093E+01 0. -1.
       -5    1    3    3    0  502  0.40908861508E+02 -0.17650910055E+03 -0.60306086130E+03  0.62970905183E+03  0.46999998093E+01 0.  1.
</event>
<event>
 5   0  0.1006749E-03  0.1003447E+04  0.7818609E-02  0.9304772E-01
        2   -1    0    0  501    0  0.00000000000E+00  0.00000000000E+00  0.44603113997E+03  0.44603113997E+03  0.25500000920E-02 0.  1.
       -2   -1    0    0    0  501  0.00000000000E+00  0.00000000000E+00 -0.56436949612E+03  0.56436949613E+03  0.25500000920E-02 0. -1.
    10030    2    1    2    0    0  0.00000000000E+00  0.00000000000E+00 -0.11833835616E+03  0.10104006361E+04  0.10034467992E+04 0.  0.
        1    1    3    3  502    0  0.19481894333E+03 -0.16116954190E+03 -0.49552704170E+03  0.55630665195E+03  0.50400001928E-02 0. -1.
       -1    1    3    3    0  502 -0.19481894333E+03  0.16116954190E+03  0.37718868555E+03  0.45409398415E+03  0.50400001928E-02 0.  1.
</event>
<event>
 5   0  0.5758786E-04  0.9998284E+03  0.7818609E-02  0.9308733E-01
        1   -1    0    0  501    0  0.00000000000E+00  0.00000000000E+00  0.16101831596E+04  0.16101831596E+04  0.50400001928E-02 0.  1.
       -1   -1    0    0    0  501  0.00000000000E+00  0.00000000000E+00 -0.15520855661E+03  0.15520855670E+03  0.50400001928E-02 0. -1.
    10030    2    1    2    0    0  0.00000000000E+00  0.00000000000E+00  0.14549746030E+04  0.17653917163E+04  0.99982839359E+03 0.  0.
        3    1    3    3  502    0 -0.41052776663E+03 -0.28073267751E+03  0.81700489921E+03  0.95647315641E+03  0.10100000352E+00 0. -1.
       -3    1    3    3    0  502  0.41052776663E+03  0.28073267751E+03  0.63796970374E+03  0.80891855986E+03  0.10100000352E+00 0.  1.
</event>
<event>
 5   0  0.1006006E-03  0.1002143E+04  0.7818609E-02  0.9306197E-01
       -2   -1    0    0    0  501  0.00000000000E+00  0.00000000000E+00  0.12912605392E+03  0.12912605394E+03  0.25500000920E-02 0.  1.
        2   -1    0    0  501    0  0.00000000000E+00  0.00000000000E+00 -0.19444010502E+04  0.19444010502E+04  0.25500000920E-02 0. -1.
    10030    2    1    2    0    0  0.00000000000E+00  0.00000000000E+00 -0.18152749963E+04  0.20735271042E+04  0.10021433727E+04 0.  0.
        2    1    3    3  502    0  0.35421238715E+03 -0.23785664194E+03 -0.36401077154E+03  0.56084404172E+03  0.25500000920E-02 0.  1.
       -2    1    3    3    0  502 -0.35421238715E+03  0.23785664194E+03 -0.14512642248E+04  0.15126830625E+04  0.25500000920E-02 0. -1.
</event>
<event>
 5   0  0.1006006E-03  0.9995578E+03  0.7818609E-02  0.9309030E-01
       -2   -1    0    0    0  501  0.00000000000E+00  0.00000000000E+00  0.61330974895E+03  0.61330974895E+03  0.25500000920E-02 0.  1.
        2   -1    0    0  501    0  0.00000000000E+00  0.00000000000E+00 -0.40726395435E+03  0.40726395436E+03  0.25500000920E-02 0. -1.
    10030    2    1    2    0    0  0.00000000000E+00  0.00000000000E+00  0.20604579460E+03  0.10205737033E+04  0.99955780945E+03 0.  0.
        2    1    3    3  502    0  0.48567822816E+03 -0.64413059733E+02  0.22224728075E+01  0.48993603966E+03  0.25500000920E-02 0. -1.
       -2    1    3    3    0  502 -0.48567822816E+03  0.64413059733E+02  0.20382332179E+03  0.53063766365E+03  0.25500000920E-02 0.  1.
</event>
<event>
 5   0  0.9674819E-04  0.9945411E+03  0.7818609E-02  0.9314552E-01
        2   -1    0    0  501    0  0.00000000000E+00  0.00000000000E+00  0.32697375214E+03  0.32697375215E+03  0.25500000920E-02 0. -1.
       -2   -1    0    0    0  501  0.00000000000E+00  0.00000000000E+00 -0.75626254116E+03  0.75626254116E+03  0.25500000920E-02 0.  1.
    10030    2    1    2    0    0  0.00000000000E+00  0.00000000000E+00 -0.42928878902E+03  0.10832362933E+04  0.99454110160E+03 0.  0.
        4    1    3    3  502    0  0.24555959215E+03  0.35752105027E+03 -0.47955436210E+03  0.64660251607E+03  0.12699999809E+01 0. -1.
       -4    1    3    3    0  502 -0.24555959215E+03 -0.35752105027E+03  0.50265573080E+02  0.43663377723E+03  0.12699999809E+01 0.  1.
</event>
<event>
 5   0  0.9741826E-04  0.9989728E+03  0.7818609E-02  0.9309672E-01
        2   -1    0    0  501    0  0.00000000000E+00  0.00000000000E+00  0.17267215219E+04  0.17267215219E+04  0.25500000920E-02 0. -1.
       -2   -1    0    0    0  501  0.00000000000E+00  0.00000000000E+00 -0.14448575479E+03  0.14448575481E+03  0.25500000920E-02 0.  1.
    10030    2    1    2    0    0  0.00000000000E+00  0.00000000000E+00  0.15822357671E+04  0.18712072767E+04  0.99897279728E+03 0.  0.
        3    1    3    3  502    0  0.11742420734E+03 -0.27188699016E+03  0.15445165413E+04  0.15726545509E+04  0.10100000352E+00 0. -1.
       -3    1    3    3    0  502 -0.11742420734E+03  0.27188699016E+03  0.37719225785E+02  0.29855272580E+03  0.10100000352E+00 0.  1.
</event>
<event>
 5   0  0.1006749E-03  0.9980758E+03  0.7818609E-02  0.9310658E-01
       -2   -1    0    0    0  501  0.00000000000E+00  0.00000000000E+00  0.23099540097E+03  0.23099540099E+03  0.25500000920E-02 0. -1.
        2   -1    0    0  501    0  0.00000000000E+00  0.00000000000E+00 -0.10781115303E+04  0.10781115303E+04  0.25500000920E-02 0.  1.
    10030    2    1    2    0    0  0.00000000000E+00  0.00000000000E+00 -0.84711612936E+03  0.13091069313E+04  0.99807575916E+03 0.  0.
        1    1    3    3  502    0  0.28474447294E+03  0.32126816938E+03 -0.75730601063E+03  0.87051998558E+03  0.50400001928E-02 0.  1.
       -1    1    3    3    0  502 -0.28474447294E+03 -0.32126816938E+03 -0.89810118725E+02  0.43858694574E+03  0.50400001928E-02 0. -1.
</event>
<event>
 5   0  0.1020150E-03  0.1000787E+04  0.7818609E-02  0.9307682E-01
        2   -1    0    0  501    0  0.00000000000E+00  0.00000000000E+00  0.68663316998E+03  0.68663316999E+03  0.25500000920E-02 0. -1.
       -2   -1    0    0    0  501  0.00000000000E+00  0.00000000000E+00 -0.36466855074E+03  0.36466855074E+03  0.25500000920E-02 0.  1.
    10030    2    1    2    0    0  0.00000000000E+00  0.00000000000E+00  0.32196461925E+03  0.10513017207E+04  0.10007867365E+04 0.  0.
        5    1    3    3  502    0  0.46562313948E+03  0.15330566792E+03  0.26636491451E+03  0.55792463067E+03  0.46999998093E+01 0.  1.
       -5    1    3    3    0  502 -0.46562313948E+03 -0.15330566792E+03  0.55599704743E+02  0.49337709006E+03  0.46999998093E+01 0. -1.
</event>
<event>
 5   0  0.5768102E-04  0.1000380E+04  0.7818609E-02  0.9308128E-01
       -1   -1    0    0    0  501  0.00000000000E+00  0.00000000000E+00  0.58961787058E+03  0.58961787060E+03  0.50400001928E-02 0. -1.
        1   -1    0    0  501    0  0.00000000000E+00  0.00000000000E+00 -0.42432603069E+03  0.42432603072E+03  0.50400001928E-02 0.  1.
    10030    2    1    2    0    0  0.00000000000E+00  0.00000000000E+00  0.16529183988E+03  0.10139439013E+04  0.10003803490E+04 0.  0.
        4    1    3    3  502    0 -0.16277443024E+03 -0.13388929408E+03  0.54241140288E+03  0.58192233252E+03  0.12699999809E+01 0. -1.
       -4    1    3    3    0  502  0.16277443024E+03  0.13388929408E+03 -0.37711956300E+03  0.43202156880E+03  0.12699999809E+01 0.  1.
</event>
<event>
 5   0  0.5960102E-04  0.1006175E+04  0.7818609E-02  0.9301798E-01
       -1   -1    0    0    0  501  0.00000000000E+00  0.00000000000E+00  0.39716496351E+03  0.39716496355E+03  0.50400001928E-02 0. -1.
        1   -1    0    0  501    0  0.00000000000E+00  0.00000000000E+00 -0.63725970708E+03  0.63725970710E+03  0.50400001928E-02 0.  1.
    10030    2    1    2    0    0  0.00000000000E+00  0.00000000000E+00 -0.24009474357E+03  0.10344246707E+04  0.10061753890E+04 0.  0.
        5    1    3    3  502    0  0.52269465620E+02 -0.32062665827E+03 -0.51494307220E+03  0.60886945123E+03  0.46999998093E+01 0.  1.
       -5    1    3    3    0  502 -0.52269465620E+02  0.32062665827E+03  0.27484832864E+03  0.42555521942E+03  0.46999998093E+01 0. -1.
</event>
<event>
 5   0  0.9674819E-04  0.1000435E+04  0.7818609E-02  0.9308067E-01
       -2   -1    0    0    0  501  0.00000000000E+00  0.00000000000E+00  0.23215840630E+03  0.23215840632E+03  0.25500000920E-02 0. -1.
        2   -1    0    0  501    0  0.00000000000E+00  0.00000000000E+00 -0.10777889401E+04  0.10777889401E+04  0.25500000920E-02 0.  1.
    10030    2    1    2    0    0  0.00000000000E+00  0.00000000000E+00 -0.84563053375E+03  0.13099473464E+04  0.10004354305E+04 0.  0.
        4    1    3    3  502    0  0.30744812044E+03  0.22936042380E+01 -0.93945798470E+03  0.98849002287E+03  0.12699999809E+01 0.  1.
       -4    1    3    3    0  502 -0.30744812044E+03 -0.22936042380E+01  0.93827450958E+02  0.32145732351E+03  0.12699999809E+01 0. -1.
</event>
<event>
 5   0  0.1006006E-03  0.1000242E+04  0.7818609E-02  0.9308279E-01
       -2   -1    0    0    0  501  0.00000000000E+00  0.00000000000E+00  0.25661156966E+03  0.25661156968E+03  0.25500000920E-02 0.  1.
        2   -1    0    0  501    0  0.00000000000E+00  0.00000000000E+00 -0.97470743278E+03  0.97470743278E+03  0.25500000920E-02 0. -1.
    10030    2    1    2    0    0  0.00000000000E+00  0.00000000000E+00 -0.71809586311E+03  0.12313190025E+04  0.10002423792E+04 0.  0.
        2    1    3    3  502    0 -0.42784337634E+03  0.52665932665E+02 -0.46898505912E+02  0.43361633388E+03  0.25500000920E-02 0.  1.
       -2    1    3    3    0  502  0.42784337634E+03 -0.52665932665E+02 -0.67119735720E+03  0.79770266858E+03  0.25500000920E-02 0. -1.
</event>
<event>
 5   0  0.5960102E-04  0.1000903E+04  0.7818609E-02  0.9307555E-01
        1   -1    0    0  501    0  0.00000000000E+00  0.00000000000E+00  0.84044136052E+03  0.84044136054E+03  0.50400001928E-02 0. -1.
       -1   -1    0    0    0  501  0.00000000000E+00  0.00000000000E+00 -0.29800018207E+03  0.29800018212E+03  0.50400001928E-02 0.  1.
    10030    2    1    2    0    0  0.00000000000E+00  0.00000000000E+00  0.54244117845E+03  0.11384415427E+04  0.10009029493E+04 0.  0.
        5    1    3    3  502    0  0.22692433446E+03 -0.76706034572E+00 -0.23608967812E+03  0.32749911154E+03  0.46999998093E+01 0.  1.
       -5    1    3    3    0  502 -0.22692433446E+03  0.76706034572E+00  0.77853085657E+03  0.81094243111E+03  0.46999998093E+01 0. -1.
</event>
<event>
 5   0  0.5888774E-04  0.9985142E+03  0.7818609E-02  0.9310176E-01
       -1   -1    0    0    0  501  0.00000000000E+00  0.00000000000E+00  0.43254580691E+03  0.43254580694E+03  0.50400001928E-02 0. -1.
        1   -1    0    0  501    0  0.00000000000E+00  0.00000000000E+00 -0.57625726524E+03  0.57625726526E+03  0.50400001928E-02 0.  1.
    10030    2    1    2    0    0  0.00000000000E+00  0.00000000000E+00 -0.14371145833E+03  0.10088030722E+04  0.99851422385E+03 0.  0.
        2    1    3    3  502    0 -0.28593697063E+03 -0.22055026147E+03 -0.42016209117E+03  0.55402035330E+03  0.25500000920E-02 0.  1.
       -2    1    3    3    0  502  0.28593697063E+03  0.22055026147E+03  0.27645063284E+03  0.45478271890E+03  0.25500000920E-02 0. -1.
</event>
<event>
 5   0  0.1020150E-03  0.9994912E+03  0.7818609E-02  0.9309103E-01
       -2   -1    0    0    0  501  0.00000000000E+00  0.00000000000E+00  0.21231471180E+03  0.21231471182E+03  0.25500000920E-02 0. -1.
        2   -1    0    0  501    0  0.00000000000E+00  0.00000000000E+00 -0.11762992807E+04  0.11762992807E+04  0.25500000920E-02 0.  1.
    10030    2    1    2    0    0  0.00000000000E+00  0.00000000000E+00 -0.96398456887E+03  0.13886139925E+04  0.99949115610E+03 0.  0.
        5    1    3    3  502    0 -0.34507203495E+03 -0.31441622980E+03 -0.72970971936E+03  0.86627399787E+03  0.46999998093E+01 0.  1.
       -5    1    3    3    0  502  0.34507203495E+03  0.31441622980E+03 -0.23427484951E+03  0.52233999462E+03  0.46999998093E+01 0. -1.
</event>
<event>
 5   0  0.5888774E-04  0.9998996E+03  0.7818609E-02  0.9308655E-01
       -1   -1    0    0    0  501  0.00000000000E+00  0.00000000000E+00  0.33054382619E+03  0.33054382623E+03  0.50400001928E-02 0. -1.
        1   -1    0    0  501    0  0.00000000000E+00  0.00000000000E+00 -0.75617746740E+03  0.75617746742E+03  0.50400001928E-02 0.  1.
    10030    2    1    2    0    0  0.00000000000E+00  0.00000000000E+00 -0.42563364121E+03  0.10867212936E+04  0.99989958173E+03 0.  0.
        2    1    3    3  502    0  0.22012527374E+03  0.38450463469E+02 -0.69888187312E+03  0.73373663318E+03  0.25500000920E-02 0.  1.
       -2    1    3    3    0  502 -0.22012527374E+03 -0.38450463469E+02  0.27324823191E+03  0.35298466047E+03  0.25500000920E-02 0. -1.
</event>
<event>
 5   0  0.5758786E-04  0.1001429E+04  0.7818609E-02  0.9306979E-01
        1   -1    0    0  501    0  0.00000000000E+00  0.00000000000E+00  0.76125659016E+03  0.76125659018E+03  0.50400001928E-02 0. -1.
       -1   -1    0    0    0  501  0.00000000000E+00  0.00000000000E+00 -0.32934370442E+03  0.32934370446E+03  0.50400001928E-02 0.  1.
    10030    2    1    2    0    0  0.00000000000E+00  0.00000000000E+00  0.43191288574E+03  0.10906002946E+04  0.10014291097E+04 0.  0.
        3    1    3    3  502    0  0.26716993076E+03 -0.38707759158E+03  0.28887282057E+02  0.47121472714E+03  0.10100000352E+00 0.  1.
       -3    1    3    3    0  502 -0.26716993076E+03  0.38707759158E+03  0.40302560369E+03  0.61938556750E+03  0.10100000352E+00 0. -1.
</event>
<event>
 5   0  0.5826939E-04  0.1000263E+04  0.7818609E-02  0.9308257E-01
       -1   -1    0    0    0  501  0.00000000000E+00  0.00000000000E+00  0.11567178980E+03  0.11567178991E+03  0.50400001928E-02 0.  1.
        1   -1    0    0  501    0  0.00000000000E+00  0.00000000000E+00 -0.21624228324E+04  0.21624228324E+04  0.50400001928E-02 0. -1.
    10030    2    1    2    0    0  0.00000000000E+00  0.00000000000E+00 -0.20467510426E+04  0.22780946223E+04  0.10002626044E+04 0.  0.
        1    1    3    3  502    0  0.30448736816E+03  0.19069012255E+03 -0.23096368071E+03  0.42710596114E+03  0.50400001928E-02 0.  1.
       -1    1    3    3    0  502 -0.30448736816E+03 -0.19069012255E+03 -0.18157873618E+04  0.18509886611E+04  0.50400001928E-02 0. -1.
</event>
<event>
 5   0  0.1006749E-03  0.9998673E+03  0.7818609E-02  0.9308690E-01
        2   -1    0    0  501    0  0.00000000000E+00  0.00000000000E+00  0.93083024601E+03  0.93083024601E+03  0.25500000920E-02 0. -1.
       -2   -1    0    0    0  501  0.00000000000E+00  0.00000000000E+00 -0.26850613633E+03  0.26850613634E+03  0.25500000920E-02 0.  1.
    10030    2    1    2    0    0  0.00000000000E+00  0.00000000000E+00  0.66232410968E+03  0.11993363823E+04  0.99986725707E+03 0.  0.
        1    1    3    3  502    0  0.13522040008E+03  0.15871723345E+03 -0.21386044513E+03  0.29868379067E+03  0.50400001928E-02 0.  1.
       -1    1    3    3    0  502 -0.13522040008E+03 -0.15871723345E+03  0.87618455481E+03  0.90065259168E+03  0.50400001928E-02 0. -1.
</event>
<event>
 5   0  0.3854625E-04  0.1008175E+04  0.7818609E-02  0.9299624E-01
       -3   -1    0    0    0  501  0.00000000000E+00  0.00000000000E+00  0.63091647597E+03  0.63091648406E+03  0.10100000352E+00 0. -1.
        3   -1    0    0  501    0  0.00000000000E+00  0.00000000000E+00 -0.40275415751E+03  0.40275417017E+03  0.10100000352E+00 0.  1.
    10030    2    1    2    0    0  0.00000000000E+00  0.00000000000E+00  0.22816231846E+03  0.10336706542E+04  0.10081750730E+04 0.  0.
        1    1    3    3  502    0  0.31124767724E+03  0.31902283001E+03 -0.12735980374E+03  0.46354201782E+03  0.50400001928E-02 0.  1.
       -1    1    3    3    0  502 -0.31124767724E+03 -0.31902283001E+03  0.35552212221E+03  0.57012863641E+03  0.50400001928E-02 0. -1.
</event>
<event>
 5   0  0.9741826E-04  0.1003999E+04  0.7818609E-02  0.9304169E-01
        2   -1    0    0  501    0  0.00000000000E+00  0.00000000000E+00  0.10783107263E+04  0.10783107263E+04  0.25500000920E-02 0. -1.
       -2   -1    0    0    0  501  0.00000000000E+00  0.00000000000E+00 -0.23370221946E+03  0.23370221947E+03  0.25500000920E-02 0.  1.
    10030    2    1    2    0    0  0.00000000000E+00  0.00000000000E+00  0.84460850684E+03  0.13120129458E+04  0.10039992231E+04 0.  0.
        3    1    3    3  502    0  0.31443435168E+03  0.23468169281E+03  0.13091852220E+02  0.39257593566E+03  0.10100000352E+00 0.  1.
       -3    1    3    3    0  502 -0.31443435168E+03 -0.23468169281E+03  0.83151665462E+03  0.91943701012E+03  0.10100000352E+00 0. -1.
</event>
<event>
 5   0  0.1020150E-03  0.1027771E+04  0.7818609E-02  0.9278600E-01
        2   -1    0    0  501    0  0.00000000000E+00  0.00000000000E+00  0.59766192655E+03  0.59766192655E+03  0.25500000920E-02 0.  1.
       -2   -1    0    0    0  501  0.00000000000E+00  0.00000000000E+00 -0.44185217352E+03  0.44185217353E+03  0.25500000920E-02 0. -1.
    10030    2    1    2    0    0  0.00000000000E+00  0.00000000000E+00  0.15580975303E+03  0.10395141001E+04  0.10277708330E+04 0.  0.
        5    1    3    3  502    0  0.10486523810E+03  0.33209216537E+03  0.46007697222E+03  0.57703971686E+03  0.46999998093E+01 0.  1.
       -5    1    3    3    0  502 -0.10486523810E+03 -0.33209216537E+03 -0.30426721920E+03  0.46247438322E+03  0.46999998093E+01 0. -1.
</event>
<event>
 5   0  0.9674819E-04  0.1000857E+04  0.7818609E-02  0.9307606E-01
       -2   -1    0    0    0  501  0.00000000000E+00  0.00000000000E+00  0.51068719947E+03  0.51068719947E+03  0.25500000920E-02 0.  1.
        2   -1    0    0  501    0  0.00000000000E+00  0.00000000000E+00 -0.49037550145E+03  0.49037550145E+03  0.25500000920E-02 0. -1.
    10030    2    1    2    0    0  0.00000000000E+00  0.00000000000E+00  0.20311698018E+02  0.10010627009E+04  0.10008566162E+04 0.  0.
        4    1    3    3  502    0 -0.14617625379E+03 -0.18913845787E+03  0.44988944089E+03  0.50945360470E+03  0.12699999809E+01 0.  1.
       -4    1    3    3    0  502  0.14617625379E+03  0.18913845787E+03 -0.42957774287E+03  0.49160909622E+03  0.12699999809E+01 0. -1.
</event>
<event>
 5   0  0.1006749E-03  0.9994792E+03  0.7818609E-02  0.9309116E-01
        2   -1    0    0  501    0  0.00000000000E+00  0.00000000000E+00  0.26744091542E+04  0.26744091542E+04  0.25500000920E-02 0. -1.
       -2   -1    0    0    0  501  0.00000000000E+00  0.00000000000E+00 -0.93381246883E+02  0.93381246918E+02  0.25500000920E-02 0.  1.
    10030    2    1    2    0    0  0.00000000000E+00  0.00000000000E+00  0.25810279073E+04  0.27677904011E+04  0.99947918746E+03 0.  0.
        1    1    3    3  502    0 -0.24401649618E+03  0.74255702772E+02  0.24805808577E+04  0.24936598307E+04  0.50400001928E-02 0. -1.
       -1    1    3    3    0  502  0.24401649618E+03 -0.74255702772E+02  0.10044704957E+03  0.27413057033E+03  0.50400001928E-02 0.  1.
</event>
<event>
 5   0  0.5888774E-04  0.1000431E+04  0.7818609E-02  0.9308072E-01
       -1   -1    0    0    0  501  0.00000000000E+00  0.00000000000E+00  0.27503746319E+03  0.27503746323E+03  0.50400001928E-02 0.  1.
        1   -1    0    0  501    0  0.00000000000E+00  0.00000000000E+00 -0.90975163164E+03  0.90975163165E+03  0.50400001928E-02 0. -1.
    10030    2    1    2    0    0  0.00000000000E+00  0.00000000000E+00 -0.63471416845E+03  0.11847890949E+04  0.10004314688E+04 0.  0.
        2    1    3    3  502    0 -0.46544247718E+03 -0.17395157234E+03 -0.38559382701E+03  0.62895027507E+03  0.25500000920E-02 0.  1.
       -2    1    3    3    0  502  0.46544247718E+03  0.17395157234E+03 -0.24912034145E+03  0.55583881981E+03  0.25500000920E-02 0. -1.
</event>
<event>
 5   0  0.5758786E-04  0.9989423E+03  0.7818609E-02  0.9309706E-01
       -1   -1    0    0    0  501  0.00000000000E+00  0.00000000000E+00  0.39135612401E+03  0.39135612404E+03  0.50400001928E-02 0.  1.
        1   -1    0    0  501    0  0.00000000000E+00  0.00000000000E+00 -0.63745371172E+03  0.63745371174E+03  0.50400001928E-02 0. -1.
    10030    2    1    2    0    0  0.00000000000E+00  0.00000000000E+00 -0.24609758771E+03  0.10288098358E+04  0.99894226837E+03 0.  0.
        3    1    3    3  502    0  0.34491119537E+03  0.27803585173E+03  0.11450708540E+03  0.45758010266E+03  0.10100000352E+00 0.  1.
       -3    1    3    3    0  502 -0.34491119537E+03 -0.27803585173E+03 -0.36060467311E+03  0.57122973313E+03  0.10100000352E+00 0. -1.
</event>
<event>
 5   0  0.3854625E-04  0.1002363E+04  0.7818609E-02  0.9305957E-01
        3   -1    0    0  501    0  0.00000000000E+00  0.00000000000E+00  0.34979937144E+03  0.34979938603E+03  0.10100000352E+00 0.  1.
       -3   -1    0    0    0  501  0.00000000000E+00  0.00000000000E+00 -0.71807655761E+03  0.71807656471E+03  0.10100000352E+00 0. -1.
    10030    2    1    2    0    0  0.00000000000E+00  0.00000000000E+00 -0.36827718617E+03  0.10678759507E+04  0.10023626890E+04 0.  0.
        5    1    3    3  502    0 -0.37604815941E+03  0.12069902370E+03 -0.51281548300E+03  0.64728840722E+03  0.46999998093E+01 0. -1.
       -5    1    3    3    0  502  0.37604815941E+03 -0.12069902370E+03  0.14453829683E+03  0.42058754352E+03  0.46999998093E+01 0.  1.
</event>
<event>
 5   0  0.9741826E-04  0.9998870E+03  0.7818609E-02  0.9308669E-01
        2   -1    0    0  501    0  0.00000000000E+00  0.00000000000E+00  0.21963426626E+03  0.21963426628E+03  0.25500000920E-02 0. -1.
       -2   -1    0    0    0  501  0.00000000000E+00  0.00000000000E+00 -0.11379986981E+04  0.11379986981E+04  0.25500000920E-02 0.  1.
    10030    2    1    2    0    0  0.00000000000E+00  0.00000000000E+00 -0.91836443184E+03  0.13576329644E+04  0.99988701177E+03 0.  0.
        3    1    3    3  502    0 -0.13165792694E+03  0.45788079828E+03 -0.25346586751E+03  0.53966062609E+03  0.10100000352E+00 0.  1.
       -3    1    3    3    0  502  0.13165792694E+03 -0.45788079828E+03 -0.66489856433E+03  0.81797233829E+03  0.10100000352E+00 0. -1.
</event>
<event>
 5   0  0.9741826E-04  0.1001486E+04  0.7818609E-02  0.9306917E-01
        2   -1    0    0  501    0  0.00000000000E+00  0.00000000000E+00  0.46144597348E+03  0.46144597349E+03  0.25500000920E-02 0.  1.
       -2   -1    0    0    0  501  0.00000000000E+00  0.00000000000E+00 -0.54338655222E+03  0.54338655222E+03  0.25500000920E-02 0. -1.
    10030    2    1    2    0    0  0.00000000000E+00  0.00000000000E+00 -0.81940578731E+02  0.10048325257E+04  0.10014859691E+04 0.  0.
        3    1    3    3  502    0 -0.19445662185E+02  0.36038044736E+03 -0.38924882254E+03  0.53081715936E+03  0.10100000352E+00 0.  1.
       -3    1    3    3    0  502  0.19445662185E+02 -0.36038044736E+03  0.30730824381E+03  0.47401536635E+03  0.10100000352E+00 0. -1.
</event>
<event>
 5   0  0.5888774E-04  0.1006643E+04  0.7818609E-02  0.9301289E-01
        1   -1    0    0  501    0  0.00000000000E+00  0.00000000000E+00  0.69714733007E+03  0.69714733009E+03  0.50400001928E-02 0. -1.
       -1   -1    0    0    0  501  0.00000000000E+00  0.00000000000E+00 -0.36338451582E+03  0.36338451585E+03  0.50400001928E-02 0.  1.
    10030    2    1    2    0    0  0.00000000000E+00  0.00000000000E+00  0.33376281425E+03  0.10605318459E+04  0.10066430251E+04 0.  0.
        2    1    3    3  502    0 -0.36660317643E+03  0.23952414780E+03  0.42828258724E+03  0.61253218764E+03  0.25500000920E-02 0. -1.
       -2    1    3    3    0  502  0.36660317643E+03 -0.23952414780E+03 -0.94519772995E+02  0.44799965830E+03  0.25500000920E-02 0.  1.
</event>
<event>
 5   0  0.5826939E-04  0.9991433E+03  0.7818609E-02  0.9309485E-01
       -1   -1    0    0    0  501  0.00000000000E+00  0.00000000000E+00  0.40811182975E+03  0.40811182978E+03  0.50400001928E-02 0. -1.
        1   -1    0    0  501    0  0.00000000000E+00  0.00000000000E+00 -0.61152806046E+03  0.61152806048E+03  0.50400001928E-02 0.  1.
    10030    2    1    2    0    0  0.00000000000E+00  0.00000000000E+00 -0.20341623071E+03  0.10196398903E+04  0.99914330449E+03 0.  0.
        1    1    3    3  502    0 -0.39293850342E+03 -0.26523151987E+03 -0.26249467678E+03  0.54189656021E+03  0.50400001928E-02 0.  1.
       -1    1    3    3    0  502  0.39293850342E+03  0.26523151987E+03  0.59078446070E+02  0.47774333006E+03  0.50400001928E-02 0. -1.
</event>
<event>
 5   0  0.1020150E-03  0.9996835E+03  0.7818609E-02  0.9308892E-01
       -2   -1    0    0    0  501  0.00000000000E+00  0.00000000000E+00  0.20668772301E+03  0.20668772302E+03  0.25500000920E-02 0.  1.
        2   -1    0    0  501    0  0.00000000000E+00  0.00000000000E+00 -0.12087885411E+04  0.12087885411E+04  0.25500000920E-02 0. -1.
    10030    2    1    2    0    0  0.00000000000E+00  0.00000000000E+00 -0.10021008181E+04  0.14154762641E+04  0.99968345222E+03 0.  0.
        5    1    3    3  502    0  0.29886816985E+03 -0.94193408717E+02 -0.10523981625E+04  0.10980703819E+04  0.46999998093E+01 0. -1.
       -5    1    3    3    0  502 -0.29886816985E+03  0.94193408717E+02  0.50297344423E+02  0.31740588220E+03  0.46999998093E+01 0.  1.
</event>
<event>
 5   0  0.5768102E-04  0.1001994E+04  0.7818609E-02  0.9306360E-01
        1   -1    0    0  501    0  0.00000000000E+00  0.00000000000E+00  0.26282752249E+04  0.26282752249E+04  0.50400001928E-02 0.  1.
       -1   -1    0    0    0  501  0.00000000000E+00  0.00000000000E+00 -0.95499150127E+02  0.95499150260E+02  0.50400001928E-02 0. -1.
    10030    2    1    2    0    0  0.00000000000E+00  0.00000000000E+00  0.25327760748E+04  0.27237743752E+04  0.10019941127E+04 0.  0.
        4    1    3    3  502    0  0.46532641205E+02  0.27050862256E+03  0.12708895876E+03  0.30247878920E+03  0.12699999809E+01 0. -1.
       -4    1    3    3    0  502 -0.46532641205E+02 -0.27050862256E+03  0.24056871160E+04  0.24212955860E+04  0.12699999809E+01 0.  1.
</event>
<event>
 5   0  0.5826939E-04  0.1000124E+04  0.7818609E-02  0.9308409E-01
       -1   -1    0    0    0  501  0.00000000000E+00  0.00000000000E+00  0.25801860986E+03  0.25801860991E+03  0.50400001928E-02 0. -1.
        1   -1    0    0  501    0  0.00000000000E+00  0.00000000000E+00 -0.96916302437E+03  0.96916302438E+03  0.50400001928E-02 0.  1.
    10030    2    1    2    0    0  0.00000000000E+00  0.00000000000E+00 -0.71114441451E+03  0.12271816343E+04  0.10001241849E+04 0.  0.
        1    1    3    3  502    0 -0.33163542798E+02  0.44451501320E+03 -0.63367420930E+03  0.77474926337E+03  0.50400001928E-02 0.  1.
       -1    1    3    3    0  502  0.33163542798E+02 -0.44451501320E+03 -0.77470205218E+02  0.45243237092E+03  0.50400001928E-02 0. -1.
</event>
<event>
 5   0  0.9674819E-04  0.1000278E+04  0.7818609E-02  0.9308240E-01
       -2   -1    0    0    0  501  0.00000000000E+00  0.00000000000E+00  0.20822489449E+03  0.20822489451E+03  0.25500000920E-02 0.  1.
        2   -1    0    0  501    0  0.00000000000E+00  0.00000000000E+00 -0.12012918662E+04  0.12012918662E+04  0.25500000920E-02 0. -1.
    10030    2    1    2    0    0  0.00000000000E+00  0.00000000000E+00 -0.99306697168E+03  0.14095167607E+04  0.10002777056E+04 0.  0.
        4    1    3    3  502    0  0.33363056378E+01  0.44617383839E+03 -0.81493046666E+03  0.92908315203E+03  0.12699999809E+01 0. -1.
       -4    1    3    3    0  502 -0.33363056378E+01 -0.44617383839E+03 -0.17813650501E+03  0.48043360864E+03  0.12699999809E+01 0.  1.
</event>
<event>
 5   0  0.5826939E-04  0.9949178E+03  0.7818609E-02  0.9314136E-01
        1   -1    0    0  501    0  0.00000000000E+00  0.00000000000E+00  0.66078121292E+03  0.66078121294E+03  0.50400001928E-02 0.  1.
       -1   -1    0    0    0  501  0.00000000000E+00  0.00000000000E+00 -0.37450423621E+03  0.37450423624E+03  0.50400001928E-02 0. -1.
    10030    2    1    2    0    0  0.00000000000E+00  0.00000000000E+00  0.28627697671E+03  0.10352854492E+04  0.99491781263E+03 0.  0.
        1    1    3    3  502    0 -0.13186400093E+03  0.38477258995E+03  0.44116309212E+03  0.60005244320E+03  0.50400001928E-02 0.  1.
       -1    1    3    3    0  502  0.13186400093E+03 -0.38477258995E+03 -0.15488611541E+03  0.43523300598E+03  0.50400001928E-02 0. -1.
</event>
<event>
 5   0  0.5826939E-04  0.9991440E+03  0.7818609E-02  0.9309484E-01
        1   -1    0    0  501    0  0.00000000000E+00  0.00000000000E+00  0.95920319891E+03  0.95920319892E+03  0.50400001928E-02 0.  1.
       -1   -1    0    0    0  501  0.00000000000E+00  0.00000000000E+00 -0.26018700116E+03  0.26018700121E+03  0.50400001928E-02 0. -1.
    10030    2    1    2    0    0  0.00000000000E+00  0.00000000000E+00  0.69901619775E+03  0.12193902001E+04  0.99914404139E+03 0.  0.
        1    1    3    3  502    0  0.33935513186E+03  0.35069596191E+02 -0.95876084957E+02  0.35437833707E+03  0.50400001928E-02 0. -1.
       -1    1    3    3    0  502 -0.33935513186E+03 -0.35069596191E+02  0.79489228270E+03  0.86501186305E+03  0.50400001928E-02 0.  1.
</event>
<event>
 5   0  0.5826939E-04  0.9992668E+03  0.7818609E-02  0.9309349E-01
       -1   -1    0    0    0  501  0.00000000000E+00  0.00000000000E+00  0.86482137964E+03  0.86482137965E+03  0.50400001928E-02 0. -1.
        1   -1    0    0  501    0  0.00000000000E+00  0.00000000000E+00 -0.28865327509E+03  0.28865327513E+03  0.50400001928E-02 0.  1.
    10030    2    1    2    0    0  0.00000000000E+00  0.00000000000E+00  0.57616810455E+03  0.11534746548E+04  0.99926677846E+03 0.  0.
        1    1    3    3  502    0 -0.39020169924E+02  0.28977825680E+03 -0.17957912493E+03  0.34313652372E+03  0.50400001928E-02 0.  1.
       -1    1    3    3    0  502  0.39020169924E+02 -0.28977825680E+03  0.75574722948E+03  0.81033813107E+03  0.50400001928E-02 0. -1.
</event>
<event>
 5   0  0.5960102E-04  0.1004012E+04  0.7818609E-02  0.9304155E-01
        1   -1    0    0  501    0  0.00000000000E+00  0.00000000000E+00  0.46201466630E+03  0.46201466633E+03  0.50400001928E-02 0.  1.
       -1   -1    0    0    0  501  0.00000000000E+00  0.00000000000E+00 -0.54545912646E+03  0.54545912649E+03  0.50400001928E-02 0. -1.
    10030    2    1    2    0    0  0.00000000000E+00  0.00000000000E+00 -0.83444460158E+02  0.10074737928E+04  0.10040121838E+04 0.  0.
        5    1    3    3  502    0  0.13925832404E+03 -0.44851166204E+03  0.13618097997E+03  0.48900198476E+03  0.46999998093E+01 0.  1.
       -5    1    3    3    0  502 -0.13925832404E+03  0.44851166204E+03 -0.21962544012E+03  0.51847180806E+03  0.46999998093E+01 0. -1.
</event>
<event>
 5   0  0.5960102E-04  0.9998517E+03  0.7818609E-02  0.9308708E-01
        1   -1    0    0  501    0  0.00000000000E+00  0.00000000000E+00  0.96523667304E+03  0.96523667305E+03  0.50400001928E-02 0. -1.
       -1   -1    0    0    0  501  0.00000000000E+00  0.00000000000E+00 -0.25892699823E+03  0.25892699828E+03  0.50400001928E-02 0.  1.
    10030    2    1    2    0    0  0.00000000000E+00  0.00000000000E+00  0.70630967481E+03  0.12241636713E+04  0.99985165774E+03 0.  0.
        5    1    3    3  502    0  0.13180434095E+03  0.37984535217E+03  0.71686755675E+03  0.82193434031E+03  0.46999998093E+01 0. -1.
       -5    1    3    3    0  502 -0.13180434095E+03 -0.37984535217E+03 -0.10557881948E+02  0.40222933102E+03  0.46999998093E+01 0.  1.
</event>
<event>
 5   0  0.5888774E-04  0.1004421E+04  0.7818609E-02  0.9303709E-01
       -1   -1    0    0    0  501  0.00000000000E+00  0.00000000000E+00  0.20757427817E+03  0.20757427823E+03  0.50400001928E-02 0. -1.
        1   -1    0    0  501    0  0.00000000000E+00  0.00000000000E+00 -0.12150607673E+04  0.12150607674E+04  0.50400001928E-02 0.  1.
    10030    2    1    2    0    0  0.00000000000E+00  0.00000000000E+00 -0.10074864892E+04  0.14226350456E+04  0.10044209511E+04 0.  0.
        2    1    3    3  502    0 -0.34673836883E+03 -0.10353862793E+03 -0.10512473217E+02  0.36201969006E+03  0.25500000920E-02 0. -1.
       -2    1    3    3    0  502  0.34673836883E+03  0.10353862793E+03 -0.99697401596E+03  0.10606153555E+04  0.25500000920E-02 0.  1.
</event>
<event>
 5   0  0.5888774E-04  0.9999652E+03  0.7818609E-02  0.9308583E-01
        1   -1    0    0  501    0  0.00000000000E+00  0.00000000000E+00  0.16197686529E+04  0.16197686529E+04  0.50400001928E-02 0. -1.
       -1   -1    0    0    0  501  0.00000000000E+00  0.00000000000E+00 -0.15433229422E+03  0.15433229430E+03  0.50400001928E-02 0.  1.
    10030    2    1    2    0    0  0.00000000000E+00  0.00000000000E+00  0.14654363587E+04  0.17741009472E+04  0.99996522418E+03 0.  0.
        2    1    3    3  502    0  0.22649896445E+03 -0.42105284276E+03  0.47320884879E+03  0.67269152802E+03  0.25500000920E-02 0.  1.
       -2    1    3    3    0  502 -0.22649896445E+03  0.42105284276E+03  0.99222750990E+03  0.11014094192E+04  0.25500000920E-02 0. -1.
</event>
<event>
 5   0  0.5888774E-04  0.9974415E+03  0.7818609E-02  0.9311355E-01
        1   -1    0    0  501    0  0.00000000000E+00  0.00000000000E+00  0.59467032876E+03  0.59467032878E+03  0.50400001928E-02 0. -1.
       -1   -1    0    0    0  501  0.00000000000E+00  0.00000000000E+00 -0.41825255756E+03  0.41825255759E+03  0.50400001928E-02 0.  1.
    10030    2    1    2    0    0  0.00000000000E+00  0.00000000000E+00  0.17641777119E+03  0.10129228864E+04  0.99744149891E+03 0.  0.
        2    1    3    3  502    0 -0.26979773652E+03  0.52933077539E+02  0.51075555653E+03  0.58005514209E+03  0.25500000920E-02 0. -1.
       -2    1    3    3    0  502  0.26979773652E+03 -0.52933077539E+02 -0.33433778534E+03  0.43286774428E+03  0.25500000920E-02 0.  1.
</event>
<event>
 5   0  0.1020150E-03  0.9994493E+03  0.7818609E-02  0.9309149E-01
       -2   -1    0    0    0  501  0.00000000000E+00  0.00000000000E+00  0.37382689499E+03  0.37382689500E+03  0.25500000920E-02 0.  1.
        2   -1    0    0  501    0  0.00000000000E+00  0.00000000000E+00 -0.66802234123E+03  0.66802234124E+03  0.25500000920E-02 0. -1.
    10030    2    1    2    0    0  0.00000000000E+00  0.00000000000E+00 -0.29419544624E+03  0.10418492362E+04  0.99944928358E+03 0.  0.
        5    1    3    3  502    0  0.29114621441E+03 -0.40130248940E+03 -0.21213709810E+03  0.53929031565E+03  0.46999998093E+01 0.  1.
       -5    1    3    3    0  502 -0.29114621441E+03  0.40130248940E+03 -0.82058348143E+02  0.50255892059E+03  0.46999998093E+01 0. -1.
</event>
<event>
 5   0  0.5826939E-04  0.1007202E+04  0.7818609E-02  0.9300681E-01
        1   -1    0    0  501    0  0.00000000000E+00  0.00000000000E+00  0.17245880723E+04  0.17245880723E+04  0.50400001928E-02 0. -1.
       -1   -1    0    0    0  501  0.00000000000E+00  0.00000000000E+00 -0.14705770412E+03  0.14705770421E+03  0.50400001928E-02 0.  1.
    10030    2    1    2    0    0  0.00000000000E+00  0.00000000000E+00  0.15775303682E+04  0.18716457765E+04  0.10072019908E+04 0.  0.
        1    1    3    3  502    0  0.84902704764E+01 -0.36962591093E+03  0.14241675376E+04  0.14713764215E+04  0.50400001928E-02 0. -1.
       -1    1    3    3    0  502 -0.84902704764E+01  0.36962591093E+03  0.15336283063E+03  0.40026935502E+03  0.50400001928E-02 0.  1.
</event>
<event>
 5   0  0.3854625E-04  0.1005322E+04  0.7818609E-02  0.9302726E-01
        3   -1    0    0  501    0  0.00000000000E+00  0.00000000000E+00  0.23914527497E+03  0.23914529630E+03  0.10100000352E+00 0.  1.
       -3   -1    0    0    0  501  0.00000000000E+00  0.00000000000E+00 -0.10565472119E+04  0.10565472167E+04  0.10100000352E+00 0. -1.
    10030    2    1    2    0    0  0.00000000000E+00  0.00000000000E+00 -0.81740193690E+03  0.12956925130E+04  0.10053224168E+04 0.  0.
        2    1    3    3  502    0 -0.42226530754E+03 -0.22513045177E+03 -0.60701619908E+03  0.77295561076E+03  0.25500000920E-02 0. -1.
       -2    1    3    3    0  502  0.42226530754E+03  0.22513045177E+03 -0.21038573782E+03  0.52273690223E+03  0.25500000920E-02 0.  1.
</event>
<event>
 5   0  0.9741826E-04  0.9988714E+03  0.7818609E-02  0.9309784E-01
       -2   -1    0    0    0  501  0.00000000000E+00  0.00000000000E+00  0.50590073682E+03  0.50590073682E+03  0.25500000920E-02 0. -1.
        2   -1    0    0  501    0  0.00000000000E+00  0.00000000000E+00 -0.49305324595E+03  0.49305324596E+03  0.25500000920E-02 0.  1.
    10030    2    1    2    0    0  0.00000000000E+00  0.00000000000E+00  0.12847490869E+02  0.99895398278E+03  0.99887136393E+03 0.  0.
        3    1    3    3  502    0  0.11472182701E+03 -0.32674177928E+03 -0.35348753263E+03  0.49484819273E+03  0.10100000352E+00 0. -1.
       -3    1    3    3    0  502 -0.11472182701E+03  0.32674177928E+03  0.36633502350E+03  0.50410579005E+03  0.10100000352E+00 0.  1.
</event>
<event>
 5   0  0.5768102E-04  0.9997753E+03  0.7818609E-02  0.9308791E-01
       -1   -1    0    0    0  501  0.00000000000E+00  0.00000000000E+00  0.65226540375E+03  0.65226540377E+03  0.50400001928E-02 0.  1.
        1   -1    0    0  501    0  0.00000000000E+00  0.00000000000E+00 -0.38310736214E+03  0.38310736218E+03  0.50400001928E-02 0. -1.
    10030    2    1    2    0    0  0.00000000000E+00  0.00000000000E+00  0.26915804161E+03  0.10353727659E+04  0.99977533131E+03 0.  0.
        4    1    3    3  502    0 -0.37044944071E+02 -0.49282652804E+03  0.21232361654E+03  0.53789705861E+03  0.12699999809E+01 0.  1.
       -4    1    3    3    0  502  0.37044944071E+02  0.49282652804E+03  0.56834425065E+02  0.49747570734E+03  0.12699999809E+01 0. -1.
</event>
<event>
 5   0  0.9674819E-04  0.9973128E+03  0.7818609E-02  0.9311497E-01
        2   -1    0    0  501    0  0.00000000000E+00  0.00000000000E+00  0.27752215818E+03  0.27752215819E+03  0.25500000920E-02 0. -1.
       -2   -1    0    0    0  501  0.00000000000E+00  0.00000000000E+00 -0.89599413849E+03  0.89599413849E+03  0.25500000920E-02 0.  1.
    10030    2    1    2    0    0  0.00000000000E+00  0.00000000000E+00 -0.61847198031E+03  0.11735162967E+04  0.99731284367E+03 0.  0.
        4    1    3    3  502    0  0.12826995347E+03 -0.28472145868E+03 -0.76668563008E+03  0.82784537098E+03  0.12699999809E+01 0.  1.
       -4    1    3    3    0  502 -0.12826995347E+03  0.28472145868E+03  0.14821364977E+03  0.34567092570E+03  0.12699999809E+01 0. -1.
</event>
<event>
 5   0  0.1006749E-03  0.9994248E+03  0.7818609E-02  0.9309176E-01
        2   -1    0    0  501    0  0.00000000000E+00  0.00000000000E+00  0.10310409518E+04  0.10310409518E+04  0.25500000920E-02 0. -1.
       -2   -1    0    0    0  501  0.00000000000E+00  0.00000000000E+00 -0.24219452131E+03  0.24219452132E+03  0.25500000920E-02 0.  1.
    10030    2    1    2    0    0  0.00000000000E+00  0.00000000000E+00  0.78884643050E+03  0.12732354731E+04  0.99942477412E+03 0.  0.
        1    1    3    3  502    0  0.36254176497E+03  0.42357416893E+02  0.82922131032E+03  0.90600147000E+03  0.50400001928E-02 0. -1.
       -1    1    3    3    0  502 -0.36254176497E+03 -0.42357416893E+02 -0.40374879823E+02  0.36723400314E+03  0.50400001928E-02 0.  1.
</event>
<event>
 5   0  0.5758786E-04  0.9932493E+03  0.7818609E-02  0.9315980E-01
       -1   -1    0    0    0  501  0.00000000000E+00  0.00000000000E+00  0.29478164057E+03  0.29478164061E+03  0.50400001928E-02 0.  1.
        1   -1    0    0  501    0  0.00000000000E+00  0.00000000000E+00 -0.83667376419E+03  0.83667376420E+03  0.50400001928E-02 0. -1.
    10030    2    1    2    0    0  0.00000000000E+00  0.00000000000E+00 -0.54189212361E+03  0.11314554048E+04  0.99324934405E+03 0.  0.
        3    1    3    3  502    0  0.31919176571E+03  0.33807059524E+03 -0.46976183364E+03  0.66094727566E+03  0.10100000352E+00 0.  1.
       -3    1    3    3    0  502 -0.31919176571E+03 -0.33807059524E+03 -0.72130289976E+02  0.47050812915E+03  0.10100000352E+00 0. -1.
</event>
<event>
 5   0  0.9741826E-04  0.9996084E+03  0.7818609E-02  0.9308974E-01
        2   -1    0    0  501    0  0.00000000000E+00  0.00000000000E+00  0.82682950397E+03  0.82682950397E+03  0.25500000920E-02 0.  1.
       -2   -1    0    0    0  501  0.00000000000E+00  0.00000000000E+00 -0.30212305144E+03  0.30212305145E+03  0.25500000920E-02 0. -1.
    10030    2    1    2    0    0  0.00000000000E+00  0.00000000000E+00  0.52470645253E+03  0.11289525554E+04  0.99960842887E+03 0.  0.
        3    1    3    3  502    0  0.46349406699E+03  0.12893502485E+02  0.51633307264E+02  0.46653938865E+03  0.10100000352E+00 0.  1.
       -3    1    3    3    0  502 -0.46349406699E+03 -0.12893502485E+02  0.47307314526E+03  0.66241316677E+03  0.10100000352E+00 0. -1.
</event>
<event>
 5   0  0.5768102E-04  0.9990842E+03  0.7818609E-02  0.9309550E-01
        1   -1    0    0  501    0  0.00000000000E+00  0.00000000000E+00  0.59444502744E+03  0.59444502746E+03  0.50400001928E-02 0.  1.
       -1   -1    0    0    0  501  0.00000000000E+00  0.00000000000E+00 -0.41979040679E+03  0.41979040682E+03  0.50400001928E-02 0. -1.
    10030    2    1    2    0    0  0.00000000000E+00  0.00000000000E+00  0.17465462065E+03  0.10142354343E+04  0.99908422049E+03 0.  0.
        4    1    3    3  502    0 -0.16123717614E+02 -0.32861626778E+03 -0.29426146473E+03  0.44140689646E+03  0.12699999809E+01 0. -1.
       -4    1    3    3    0  502  0.16123717614E+02  0.32861626778E+03  0.46891608537E+03  0.57282853782E+03  0.12699999809E+01 0.  1.
</event>
<event>
 5   0  0.1006006E-03  0.9981750E+03  0.7818609E-02  0.9310549E-01
       -2   -1    0    0    0  501  0.00000000000E+00  0.00000000000E+00  0.20778228925E+03  0.20778228927E+03  0.25500000920E-02 0. -1.
        2   -1    0    0  501    0  0.00000000000E+00  0.00000000000E+00 -0.11987947666E+04  0.11987947666E+04  0.25500000920E-02 0.  1.
    10030    2    1    2    0    0  0.00000000000E+00  0.00000000000E+00 -0.99101247734E+03  0.14065770559E+04  0.99817497656E+03 0.  0.
        2    1    3    3  502    0 -0.42902446754E+03  0.19611673088E+02 -0.13723390945E+03  0.45086556464E+03  0.25500000920E-02 0. -1.
       -2    1    3    3    0  502  0.42902446754E+03 -0.19611673088E+02 -0.85377856789E+03  0.95571149122E+03  0.25500000920E-02 0.  1.
</event>
<event>
 5   0  0.5768102E-04  0.1001249E+04  0.7818609E-02  0.9307176E-01
        1   -1    0    0  501    0  0.00000000000E+00  0.00000000000E+00  0.47617088217E+03  0.47617088220E+03  0.50400001928E-02 0. -1.
       -1   -1    0    0    0  501  0.00000000000E+00  0.00000000000E+00 -0.52633413348E+03  0.52633413351E+03  0.50400001928E-02 0.  1.
    10030    2    1    2    0    0  0.00000000000E+00  0.00000000000E+00 -0.50163251310E+02  0.10025050157E+04  0.10012491971E+04 0.  0.
        4    1    3    3  502    0 -0.30668064855E+03  0.30575037163E+03  0.22640479387E+03  0.48866865414E+03  0.12699999809E+01 0. -1.
       -4    1    3    3    0  502  0.30668064855E+03 -0.30575037163E+03 -0.27656804518E+03  0.51383636156E+03  0.12699999809E+01 0.  1.
</event>
<event>
 5   0  0.5768102E-04  0.9996400E+03  0.7818609E-02  0.9308940E-01
       -1   -1    0    0    0  501  0.00000000000E+00  0.00000000000E+00  0.56792256837E+03  0.56792256839E+03  0.50400001928E-02 0.  1.
        1   -1    0    0  501    0  0.00000000000E+00  0.00000000000E+00 -0.43988397156E+03  0.43988397159E+03  0.50400001928E-02 0. -1.
    10030    2    1    2    0    0  0.00000000000E+00  0.00000000000E+00  0.12803859681E+03  0.10078065400E+04  0.99964000508E+03 0.  0.
        4    1    3    3  502    0 -0.47483615449E+03 -0.13256433440E+03  0.14700668584E+03  0.51444655208E+03  0.12699999809E+01 0.  1.
       -4    1    3    3    0  502  0.47483615449E+03  0.13256433440E+03 -0.18968089028E+02  0.49335998790E+03  0.12699999809E+01 0. -1.
</event>
<event>
 5   0  0.5888774E-04  0.9989570E+03  0.7818609E-02  0.9309690E-01
       -1   -1    0    0    0  501  0.00000000000E+00  0.00000000000E+00  0.27624143946E+03  0.27624143950E+03  0.50400001928E-02 0. -1.
        1   -1    0    0  501    0  0.00000000000E+00  0.00000000000E+00 -0.90311853037E+03  0.90311853039E+03  0.50400001928E-02 0.  1.
    10030    2    1    2    0    0  0.00000000000E+00  0.00000000000E+00 -0.62687709092E+03  0.11793599699E+04  0.99895698179E+03 0.  0.
        2    1    3    3  502    0  0.15500723924E+03 -0.20395037950E+03  0.19278019394E+03  0.32060443649E+03  0.25500000920E-02 0. -1.
       -2    1    3    3    0  502 -0.15500723924E+03  0.20395037950E+03 -0.81965728486E+03  0.85875553340E+03  0.25500000920E-02 0.  1.
</event>
<event>
 5   0  0.1006006E-03  0.1028344E+04  0.7818609E-02  0.9277992E-01
        2   -1    0    0  501    0  0.00000000000E+00  0.00000000000E+00  0.75843662434E+03  0.75843662434E+03  0.25500000920E-02 0. -1.
       -2   -1    0    0    0  501  0.00000000000E+00  0.00000000000E+00 -0.34857626688E+03  0.34857626689E+03  0.25500000920E-02 0.  1.
    10030    2    1    2    0    0  0.00000000000E+00  0.00000000000E+00  0.40986035746E+03  0.11070128912E+04  0.10283443143E+04 0.  0.
        2    1    3    3  502    0 -0.37710401512E+03 -0.22838494111E+03  0.48975734582E+03  0.65896083141E+03  0.25500000920E-02 0. -1.
       -2    1    3    3    0  502  0.37710401512E+03  0.22838494111E+03 -0.79896988362E+02  0.44805205981E+03  0.25500000920E-02 0.  1.
</event>
<event>
 5   0  0.1006749E-03  0.9915329E+03  0.7818609E-02  0.9317880E-01
        2   -1    0    0  501    0  0.00000000000E+00  0.00000000000E+00  0.19751811907E+04  0.19751811907E+04  0.25500000920E-02 0.  1.
       -2   -1    0    0    0  501  0.00000000000E+00  0.00000000000E+00 -0.12443636105E+03  0.12443636107E+03  0.25500000920E-02 0. -1.
    10030    2    1    2    0    0  0.00000000000E+00  0.00000000000E+00  0.18507448296E+04  0.20996175518E+04  0.99153287350E+03 0.  0.
        1    1    3    3  502    0  0.65703579349E+02 -0.43914809974E+03  0.13922728019E+04  0.14613663362E+04  0.50400001928E-02 0.  1.
       -1    1    3    3    0  502 -0.65703579349E+02  0.43914809974E+03  0.45847202778E+03  0.63825121554E+03  0.50400001928E-02 0. -1.
</event>
<event>
 5   0  0.3854625E-04  0.1004125E+04  0.7818609E-02  0.9304032E-01
        4   -1    0    0  501    0  0.00000000000E+00  0.00000000000E+00  0.22438327484E+03  0.22438686889E+03  0.12699999809E+01 0. -1.
       -4   -1    0    0    0  501  0.00000000000E+00  0.00000000000E+00 -0.11233640148E+04  0.11233647327E+04  0.12699999809E+01 0.  1.
    10030    2    1    2    0    0  0.00000000000E+00  0.00000000000E+00 -0.89898074000E+03  0.13477516016E+04  0.10041254945E+04 0.  0.
        2    1    3    3  502    0  0.30324296013E+03 -0.28940154599E+03 -0.78598269315E+02  0.42648239780E+03  0.25500000920E-02 0. -1.
       -2    1    3    3    0  502 -0.30324296013E+03  0.28940154599E+03 -0.82038247068E+03  0.92126920382E+03  0.25500000920E-02 0.  1.
</event>
<event>
 5   0  0.1006749E-03  0.9993540E+03  0.7818609E-02  0.9309254E-01
       -2   -1    0    0    0  501  0.00000000000E+00  0.00000000000E+00  0.22034169009E+03  0.22034169010E+03  0.25500000920E-02 0. -1.
        2   -1    0    0  501    0  0.00000000000E+00  0.00000000000E+00 -0.11331360439E+04  0.11331360439E+04  0.25500000920E-02 0.  1.
    10030    2    1    2    0    0  0.00000000000E+00  0.00000000000E+00 -0.91279435381E+03  0.13534777340E+04  0.99935401340E+03 0.  0.
        1    1    3    3  502    0 -0.16916315492E+03  0.69100936058E+02  0.17346562061E+03  0.25195522202E+03  0.50400001928E-02 0. -1.
       -1    1    3    3    0  502  0.16916315492E+03 -0.69100936058E+02 -0.10862599744E+04  0.11015225120E+04  0.50400001928E-02 0.  1.
</event>
<event>
 5   0  0.5826939E-04  0.9993045E+03  0.7818609E-02  0.9309308E-01
        1   -1    0    0  501    0  0.00000000000E+00  0.00000000000E+00  0.22703287417E+04  0.22703287417E+04  0.50400001928E-02 0. -1.
       -1   -1    0    0    0  501  0.00000000000E+00  0.00000000000E+00 -0.10996310032E+03  0.10996310044E+03  0.50400001928E-02 0.  1.
    10030    2    1    2    0    0  0.00000000000E+00  0.00000000000E+00  0.21603656414E+04  0.23802918421E+04  0.99930453282E+03 0.  0.
        1    1    3    3  502    0 -0.43864233540E+03  0.23925972902E+03  0.10795482691E+04  0.11895699986E+04  0.50400001928E-02 0.  1.
       -1    1    3    3    0  502  0.43864233540E+03 -0.23925972902E+03  0.10808173723E+04  0.11907218435E+04  0.50400001928E-02 0. -1.
</event>
<event>
 5   0  0.1020150E-03  0.1000706E+04  0.7818609E-02  0.9307771E-01
       -2   -1    0    0    0  501  0.00000000000E+00  0.00000000000E+00  0.29561846368E+03  0.29561846369E+03  0.25500000920E-02 0.  1.
        2   -1    0    0  501    0  0.00000000000E+00  0.00000000000E+00 -0.84687933470E+03  0.84687933471E+03  0.25500000920E-02 0. -1.
    10030    2    1    2    0    0  0.00000000000E+00  0.00000000000E+00 -0.55126087103E+03  0.11424977984E+04  0.10007060864E+04 0.  0.
        5    1    3    3  502    0  0.39130454217E+02 -0.44436530554E+03 -0.53431711042E+03  0.69606650667E+03  0.46999998093E+01 0. -1.
       -5    1    3    3    0  502 -0.39130454217E+02  0.44436530554E+03 -0.16943760605E+02  0.44643129173E+03  0.46999998093E+01 0.  1.
</event>
<event>
 5   0  0.3854625E-04  0.1000690E+04  0.7818609E-02  0.9307788E-01
        3   -1    0    0  501    0  0.00000000000E+00  0.00000000000E+00  0.14967962703E+03  0.14967966111E+03  0.10100000352E+00 0. -1.
       -3   -1    0    0    0  501  0.00000000000E+00  0.00000000000E+00 -0.16725402753E+04  0.16725402784E+04  0.10100000352E+00 0.  1.
    10030    2    1    2    0    0  0.00000000000E+00  0.00000000000E+00 -0.15228606483E+04  0.18222199395E+04  0.10006902387E+04 0.  0.
        4    1    3    3  502    0  0.28794169305E+03  0.40879725995E+03 -0.79390311426E+03  0.93824804080E+03  0.12699999809E+01 0. -1.
       -4    1    3    3    0  502 -0.28794169305E+03 -0.40879725995E+03 -0.72895753404E+03  0.88397189868E+03  0.12699999809E+01 0.  1.
</event>
<event>
 5   0  0.9674819E-04  0.9980068E+03  0.7818609E-02  0.9310734E-01
        2   -1    0    0  501    0  0.00000000000E+00  0.00000000000E+00  0.87816107573E+03  0.87816107573E+03  0.25500000920E-02 0.  1.
       -2   -1    0    0    0  501  0.00000000000E+00  0.00000000000E+00 -0.28355206327E+03  0.28355206328E+03  0.25500000920E-02 0. -1.
    10030    2    1    2    0    0  0.00000000000E+00  0.00000000000E+00  0.59460901246E+03  0.11617131390E+04  0.99800678338E+03 0.  0.
        4    1    3    3  502    0 -0.14769545561E+03  0.33740017982E+03 -0.94596213690E+02  0.38026686089E+03  0.12699999809E+01 0. -1.
       -4    1    3    3    0  502  0.14769545561E+03 -0.33740017982E+03  0.68920522615E+03  0.78144627812E+03  0.12699999809E+01 0.  1.
</event>
<event>
 5   0  0.9674819E-04  0.1000359E+04  0.7818609E-02  0.9308151E-01
        2   -1    0    0  501    0  0.00000000000E+00  0.00000000000E+00  0.81708222143E+03  0.81708222143E+03  0.25500000920E-02 0. -1.
       -2   -1    0    0    0  501  0.00000000000E+00  0.00000000000E+00 -0.30618646691E+03  0.30618646692E+03  0.25500000920E-02 0.  1.
    10030    2    1    2    0    0  0.00000000000E+00  0.00000000000E+00  0.51089575452E+03  0.11232686884E+04  0.10003589727E+04 0.  0.
        4    1    3    3  502    0  0.57157970273E+02 -0.49623153592E+03  0.28440681560E+03  0.57480572411E+03  0.12699999809E+01 0.  1.
       -4    1    3    3    0  502 -0.57157970273E+02  0.49623153592E+03  0.22648893891E+03  0.54846296425E+03  0.12699999809E+01 0. -1.
</event>
<event>
 5   0  0.5888774E-04  0.9998076E+03  0.7818609E-02  0.9308756E-01
       -1   -1    0    0    0  501  0.00000000000E+00  0.00000000000E+00  0.13725339705E+03  0.13725339715E+03  0.50400001928E-02 0.  1.
        1   -1    0    0  501    0  0.00000000000E+00  0.00000000000E+00 -0.18207477232E+04  0.18207477232E+04  0.50400001928E-02 0. -1.
    10030    2    1    2    0    0  0.00000000000E+00  0.00000000000E+00 -0.16834943262E+04  0.19580011204E+04  0.99980760207E+03 0.  0.
        2    1    3    3  502    0  0.22629719009E+03 -0.13254238482E+03 -0.16752110547E+04  0.16956149268E+04  0.25500000920E-02 0. -1.
       -2    1    3    3    0  502 -0.22629719009E+03  0.13254238482E+03 -0.82832714774E+01  0.26238619363E+03  0.25500000920E-02 0.  1.
</event>
<event>
 5   0  0.5826939E-04  0.1000565E+04  0.7818609E-02  0.9307926E-01
       -1   -1    0    0    0  501  0.00000000000E+00  0.00000000000E+00  0.48585412600E+03  0.48585412602E+03  0.50400001928E-02 0. -1.
        1   -1    0    0  501    0  0.00000000000E+00  0.00000000000E+00 -0.51513895911E+03  0.51513895913E+03  0.50400001928E-02 0.  1.
    10030    2    1    2    0    0  0.00000000000E+00  0.00000000000E+00 -0.29284833107E+02  0.10009930852E+04  0.10005646181E+04 0.  0.
        1    1    3    3  502    0  0.23895848683E+02  0.48507130525E+03  0.10548067137E+03  0.49698224799E+03  0.50400001928E-02 0. -1.
       -1    1    3    3    0  502 -0.23895848683E+02 -0.48507130525E+03 -0.13476550448E+03  0.50401083717E+03  0.50400001928E-02 0.  1.
</event>
<event>
 5   0  0.5960102E-04  0.1005573E+04  0.7818609E-02  0.9302454E-01
       -1   -1    0    0    0  501  0.00000000000E+00  0.00000000000E+00  0.17157687094E+03  0.17157687102E+03  0.50400001928E-02 0. -1.
        1   -1    0    0  501    0  0.00000000000E+00  0.00000000000E+00 -0.14733582294E+04  0.14733582294E+04  0.50400001928E-02 0.  1.
    10030    2    1    2    0    0  0.00000000000E+00  0.00000000000E+00 -0.13017813584E+04  0.16449351004E+04  0.10055728613E+04 0.  0.
        5    1    3    3  502    0  0.24664102148E+02 -0.19648835293E+03 -0.14068374719E+04  0.14207145220E+04  0.46999998093E+01 0.  1.
       -5    1    3    3    0  502 -0.24664102148E+02  0.19648835293E+03  0.10505611349E+03  0.22422057834E+03  0.46999998093E+01 0. -1.
</event>
<event>
 5   0  0.9674819E-04  0.9960076E+03  0.7818609E-02  0.9312934E-01
        2   -1    0    0  501    0  0.00000000000E+00  0.00000000000E+00  0.48878349396E+03  0.48878349397E+03  0.25500000920E-02 0.  1.
       -2   -1    0    0    0  501  0.00000000000E+00  0.00000000000E+00 -0.50739807105E+03  0.50739807105E+03  0.25500000920E-02 0. -1.
    10030    2    1    2    0    0  0.00000000000E+00  0.00000000000E+00 -0.18614577083E+02  0.99618156502E+03  0.99600763451E+03 0.  0.
        4    1    3    3  502    0  0.34706862934E+03 -0.89487663439E+02  0.33650084885E+03  0.49162903652E+03  0.12699999809E+01 0.  1.
       -4    1    3    3    0  502 -0.34706862934E+03  0.89487663439E+02 -0.35511542593E+03  0.50455252850E+03  0.12699999809E+01 0. -1.
</event>
<event>
 5   0  0.1020150E-03  0.9996213E+03  0.7818609E-02  0.9308960E-01
       -2   -1    0    0    0  501  0.00000000000E+00  0.00000000000E+00  0.41064141808E+03  0.41064141808E+03  0.25500000920E-02 0.  1.
        2   -1    0    0  501    0  0.00000000000E+00  0.00000000000E+00 -0.60834265855E+03  0.60834265855E+03  0.25500000920E-02 0. -1.
    10030    2    1    2    0    0  0.00000000000E+00  0.00000000000E+00 -0.19770124047E+03  0.10189840766E+04  0.99962131228E+03 0.  0.
        5    1    3    3  502    0 -0.20981228539E+03 -0.36569341081E+03 -0.37244419254E+03  0.56257411278E+03  0.46999998093E+01 0. -1.
       -5    1    3    3    0  502  0.20981228539E+03  0.36569341081E+03  0.17474295207E+03  0.45640996386E+03  0.46999998093E+01 0.  1.
</event>
<event>
 5   0  0.1006749E-03  0.1000195E+04  0.7818609E-02  0.9308331E-01
        2   -1    0    0  501    0  0.00000000000E+00  0.00000000000E+00  0.50238419644E+03  0.50238419645E+03  0.25500000920E-02 0.  1.
       -2   -1    0    0    0  501  0.00000000000E+00  0.00000000000E+00 -0.49782140464E+03  0.49782140465E+03  0.25500000920E-02 0. -1.
    10030    2    1    2    0    0  0.00000000000E+00  0.00000000000E+00  0.45627917985E+01  0.10002056011E+04  0.10001951936E+04 0.  0.
        1    1    3    3  502    0 -0.38086035522E+02  0.41704893761E+03  0.27562879171E+03  0.50134977142E+03  0.50400001928E-02 0.  1.
       -1    1    3    3    0  502  0.38086035522E+02 -0.41704893761E+03 -0.27106599991E+03  0.49885582967E+03  0.50400001928E-02 0. -1.
</event>
<event>
 5   0  0.1006749E-03  0.1000985E+04  0.7818609E-02  0.9307465E-01
       -2   -1    0    0    0  501  0.00000000000E+00  0.00000000000E+00  0.14931164924E+03  0.14931164927E+03  0.25500000920E-02 0.  1.
        2   -1    0    0  501    0  0.00000000000E+00  0.00000000000E+00 -0.16776518455E+04  0.16776518455E+04  0.25500000920E-02 0. -1.
    10030    2    1    2    0    0  0.00000000000E+00  0.00000000000E+00 -0.15283401963E+04  0.18269634948E+04  0.10009854423E+04 0.  0.
        1    1    3    3  502    0 -0.53460390626E+02 -0.20667755104E+03 -0.15903860637E+04  0.16046499478E+04  0.50400001928E-02 0. -1.
       -1    1    3    3    0  502  0.53460390626E+02  0.20667755104E+03  0.62045867421E+02  0.22231354695E+03  0.50400001928E-02 0.  1.
</event>
<event>
 5   0  0.5960102E-04  0.1000417E+04  0.7818609E-02  0.9308088E-01
        1   -1    0    0  501    0  0.00000000000E+00  0.00000000000E+00  0.35196016211E+03  0.35196016215E+03  0.50400001928E-02 0. -1.
       -1   -1    0    0    0  501  0.00000000000E+00  0.00000000000E+00 -0.71089997248E+03  0.71089997250E+03  0.50400001928E-02 0.  1.
    10030    2    1    2    0    0  0.00000000000E+00  0.00000000000E+00 -0.35893981037E+03  0.10628601347E+04  0.10004168523E+04 0.  0.
        5    1    3    3  502    0 -0.47265807279E+03  0.14833146148E+01 -0.56143990029E+01  0.47271710935E+03  0.46999998093E+01 0. -1.
       -5    1    3    3    0  502  0.47265807279E+03 -0.14833146148E+01 -0.35332541137E+03  0.59014302530E+03  0.46999998093E+01 0.  1.
</event>
<event>
 5   0  0.5960102E-04  0.1001554E+04  0.7818609E-02  0.9306842E-01
        1   -1    0    0  501    0  0.00000000000E+00  0.00000000000E+00  0.75825442700E+03  0.75825442702E+03  0.50400001928E-02 0.  1.
       -1   -1    0    0    0  501  0.00000000000E+00  0.00000000000E+00 -0.33073045618E+03  0.33073045622E+03  0.50400001928E-02 0. -1.
    10030    2    1    2    0    0  0.00000000000E+00  0.00000000000E+00  0.42752397082E+03  0.10889848832E+04  0.10015544570E+04 0.  0.
        5    1    3    3  502    0 -0.22068883621E+03  0.12811687782E+03 -0.25470718016E+03  0.36057639196E+03  0.46999998093E+01 0. -1.
       -5    1    3    3    0  502  0.22068883621E+03 -0.12811687782E+03  0.68223115098E+03  0.72840849128E+03  0.46999998093E+01 0.  1.
</event>
<event>
 5   0  0.9674819E-04  0.9998148E+03  0.7818609E-02  0.9308748E-01
       -2   -1    0    0    0  501  0.00000000000E+00  0.00000000000E+00  0.21104010178E+03  0.21104010180E+03  0.25500000920E-02 0.  1.
        2   -1    0    0  501    0  0.00000000000E+00  0.00000000000E+00 -0.11841703134E+04  0.11841703134E+04  0.25500000920E-02 0. -1.
    10030    2    1    2    0    0  0.00000000000E+00  0.00000000000E+00 -0.97313021162E+03  0.13952104152E+04  0.99981482981E+03 0.  0.
        4    1    3    3  502    0 -0.11820607239E+03  0.30972777818E+03  0.35574942221E+02  0.33342339681E+03  0.12699999809E+01 0.  1.
       -4    1    3    3    0  502  0.11820607239E+03 -0.30972777818E+03 -0.10087051538E+04  0.10617870184E+04  0.12699999809E+01 0. -1.
</event>
<event>
 5   0  0.5768102E-04  0.9987118E+03  0.7818609E-02  0.9309959E-01
       -1   -1    0    0    0  501  0.00000000000E+00  0.00000000000E+00  0.28397734491E+03  0.28397734496E+03  0.50400001928E-02 0. -1.
        1   -1    0    0  501    0  0.00000000000E+00  0.00000000000E+00 -0.87808518593E+03  0.87808518595E+03  0.50400001928E-02 0.  1.
    10030    2    1    2    0    0  0.00000000000E+00  0.00000000000E+00 -0.59410784102E+03  0.11620625309E+04  0.99871176972E+03 0.  0.
        4    1    3    3  502    0  0.29806557596E+03 -0.30540496345E+03 -0.59877195462E+03  0.73528548592E+03  0.12699999809E+01 0.  1.
       -4    1    3    3    0  502 -0.29806557596E+03  0.30540496345E+03  0.46641135962E+01  0.42677704498E+03  0.12699999809E+01 0. -1.
</event>
<event>
 5   0  0.9674819E-04  0.9946881E+03  0.7818609E-02  0.9314390E-01
        2   -1    0    0  501    0  0.00000000000E+00  0.00000000000E+00  0.13542285015E+04  0.13542285015E+04  0.25500000920E-02 0. -1.
       -2   -1    0    0    0  501  0.00000000000E+00  0.00000000000E+00 -0.18265092649E+03  0.18265092650E+03  0.25500000920E-02 0.  1.
    10030    2    1    2    0    0  0.00000000000E+00  0.00000000000E+00  0.11715775750E+04  0.15368794280E+04  0.99468807270E+03 0.  0.
        4    1    3    3  502    0  0.76732824531E+02  0.19034264015E+03 -0.11417345138E+03  0.23485194681E+03  0.12699999809E+01 0.  1.
       -4    1    3    3    0  502 -0.76732824531E+02 -0.19034264015E+03  0.12857510264E+04  0.13020274812E+04  0.12699999809E+01 0. -1.
</event>
<event>
 5   0  0.5758786E-04  0.9992116E+03  0.7818609E-02  0.9309410E-01
       -1   -1    0    0    0  501  0.00000000000E+00  0.00000000000E+00  0.37825598949E+03  0.37825598952E+03  0.50400001928E-02 0. -1.
        1   -1    0    0  501    0  0.00000000000E+00  0.00000000000E+00 -0.65988628999E+03  0.65988629001E+03  0.50400001928E-02 0.  1.
    10030    2    1    2    0    0  0.00000000000E+00  0.00000000000E+00 -0.28163030050E+03  0.10381422795E+04  0.99921157238E+03 0.  0.
        3    1    3    3  502    0  0.40929610094E+03 -0.16340640220E+03  0.10368534608E+03  0.45274232375E+03  0.10100000352E+00 0. -1.
       -3    1    3    3    0  502 -0.40929610094E+03  0.16340640220E+03 -0.38531564658E+03  0.58539995578E+03  0.10100000352E+00 0.  1.
</event>
<event>
 5   0  0.5768102E-04  0.1001811E+04  0.7818609E-02  0.9306561E-01
        1   -1    0    0  501    0  0.00000000000E+00  0.00000000000E+00  0.95942607273E+03  0.95942607274E+03  0.50400001928E-02 0.  1.
       -1   -1    0    0    0  501  0.00000000000E+00  0.00000000000E+00 -0.26151701744E+03  0.26151701749E+03  0.50400001928E-02 0. -1.
    10030    2    1    2    0    0  0.00000000000E+00  0.00000000000E+00  0.69790905529E+03  0.12209430902E+04  0.10018108505E+04 0.  0.
        4    1    3    3  502    0 -0.31563825640E+03 -0.43764525605E+02  0.81996378653E+03  0.87970737562E+03  0.12699999809E+01 0.  1.
       -4    1    3    3    0  502  0.31563825640E+03  0.43764525605E+02 -0.12205473124E+03  0.34123571461E+03  0.12699999809E+01 0. -1.
</event>
<event>
 5   0  0.5888774E-04  0.1018698E+04  0.7818609E-02  0.9288272E-01
        1   -1    0    0  501    0  0.00000000000E+00  0.00000000000E+00  0.95794720829E+03  0.95794720830E+03  0.50400001928E-02 0. -1.
       -1   -1    0    0    0  501  0.00000000000E+00  0.00000000000E+00 -0.27082526638E+03  0.27082526642E+03  0.50400001928E-02 0.  1.
    10030    2    1    2    0    0  0.00000000000E+00  0.00000000000E+00  0.68712194191E+03  0.12287724747E+04  0.10186978117E+04 0.  0.
        2    1    3    3  502    0  0.38679568238E+02 -0.50240923932E+03  0.43322088940E+03  0.66452350731E+03  0.25500000920E-02 0. -1.
       -2    1    3    3    0  502 -0.38679568238E+02  0.50240923932E+03  0.25390105251E+03  0.56424896741E+03  0.25500000920E-02 0.  1.
</event>
<event>
 5   0  0.1006749E-03  0.1000727E+04  0.7818609E-02  0.9307748E-01
        2   -1    0    0  501    0  0.00000000000E+00  0.00000000000E+00  0.87830648289E+03  0.87830648290E+03  0.25500000920E-02 0.  1.
       -2   -1    0    0    0  501  0.00000000000E+00  0.00000000000E+00 -0.28505253479E+03  0.28505253480E+03  0.25500000920E-02 0. -1.
    10030    2    1    2    0    0  0.00000000000E+00  0.00000000000E+00  0.59325394811E+03  0.11633590177E+04  0.10007267145E+04 0.  0.
        1    1    3    3  502    0  0.42812814525E+03 -0.10656410646E+03  0.22229608767E+02  0.44175080427E+03  0.50400001928E-02 0. -1.
       -1    1    3    3    0  502 -0.42812814525E+03  0.10656410646E+03  0.57102433934E+03  0.72160821343E+03  0.50400001928E-02 0.  1.
</event>
<event>
 5   0  0.5826939E-04  0.9972099E+03  0.7818609E-02  0.9311610E-01
       -1   -1    0    0    0  501  0.00000000000E+00  0.00000000000E+00  0.14543418432E+03  0.14543418441E+03  0.50400001928E-02 0.  1.
        1   -1    0    0  501    0  0.00000000000E+00  0.00000000000E+00 -0.17094118442E+04  0.17094118442E+04  0.50400001928E-02 0. -1.
    10030    2    1    2    0    0  0.00000000000E+00  0.00000000000E+00 -0.15639776599E+04  0.18548460286E+04  0.99720994241E+03 0.  0.
        1    1    3    3  502    0 -0.48664584486E+02  0.28636363352E+03 -0.15357842950E+04  0.15630117636E+04  0.50400001928E-02 0. -1.
       -1    1    3    3    0  502  0.48664584486E+02 -0.28636363352E+03 -0.28193364891E+02  0.29183426501E+03  0.50400001928E-02 0.  1.
</event>
<event>
 5   0  0.1006749E-03  0.1000609E+04  0.7818609E-02  0.9307877E-01
       -2   -1    0    0    0  501  0.00000000000E+00  0.00000000000E+00  0.39391265955E+03  0.39391265956E+03  0.25500000920E-02 0. -1.
        2   -1    0    0  501    0  0.00000000000E+00  0.00000000000E+00 -0.63543130573E+03  0.63543130574E+03  0.25500000920E-02 0.  1.
    10030    2    1    2    0    0  0.00000000000E+00  0.00000000000E+00 -0.24151864618E+03  0.10293439653E+04  0.10006086860E+04 0.  0.
        1    1    3    3  502    0 -0.18286124488E+03 -0.52672636368E+02  0.35522896297E+03  0.40298915327E+03  0.50400001928E-02 0. -1.
       -1    1    3    3    0  502  0.18286124488E+03  0.52672636368E+02 -0.59674760915E+03  0.62635481202E+03  0.50400001928E-02 0.  1.
</event>
<event>
 5   0  0.1006006E-03  0.9997281E+03  0.7818609E-02  0.9308843E-01
       -2   -1    0    0    0  501  0.00000000000E+00  0.00000000000E+00  0.17353259395E+03  0.17353259397E+03  0.25500000920E-02 0. -1.
        2   -1    0    0  501    0  0.00000000000E+00  0.00000000000E+00 -0.14398681433E+04  0.14398681433E+04  0.25500000920E-02 0.  1.
    10030    2    1    2    0    0  0.00000000000E+00  0.00000000000E+00 -0.12663355494E+04  0.16134007373E+04  0.99972807079E+03 0.  0.
        2    1    3    3  502    0 -0.43332636868E+03 -0.24715839122E+03 -0.58200519766E+03  0.76654358145E+03  0.25500000920E-02 0.  1.
       -2    1    3    3    0  502  0.43332636868E+03  0.24715839122E+03 -0.68433035173E+03  0.84685715587E+03  0.25500000920E-02 0. -1.
</event>
<event>
 5   0  0.9674819E-04  0.1000757E+04  0.7818609E-02  0.9307715E-01
        2   -1    0    0  501    0  0.00000000000E+00  0.00000000000E+00  0.13128039486E+04  0.13128039486E+04  0.25500000920E-02 0.  1.
       -2   -1    0    0    0  501  0.00000000000E+00  0.00000000000E+00 -0.19072043926E+03  0.19072043928E+03  0.25500000920E-02 0. -1.
    10030    2    1    2    0    0  0.00000000000E+00  0.00000000000E+00  0.11220835093E+04  0.15035243879E+04  0.10007568051E+04 0.  0.
        4    1    3    3  502    0 -0.36131885067E+03 -0.43694313835E+02  0.10769459769E+04  0.11367826332E+04  0.12699999809E+01 0.  1.
       -4    1    3    3    0  502  0.36131885067E+03  0.43694313835E+02  0.45137532369E+02  0.36674175470E+03  0.12699999809E+01 0. -1.
</event>
<event>
 5   0  0.5888774E-04  0.9995507E+03  0.7818609E-02  0.9309038E-01
       -1   -1    0    0    0  501  0.00000000000E+00  0.00000000000E+00  0.10110175087E+03  0.10110175099E+03  0.50400001928E-02 0.  1.
        1   -1    0    0  501    0  0.00000000000E+00  0.00000000000E+00 -0.24705347738E+04  0.24705347738E+04  0.50400001928E-02 0. -1.
    10030    2    1    2    0    0  0.00000000000E+00  0.00000000000E+00 -0.23694330229E+04  0.25716365248E+04  0.99955068181E+03 0.  0.
        2    1    3    3  502    0  0.27560239709E+03  0.24359440111E+02 -0.11391133612E+03  0.29920871663E+03  0.25500000920E-02 0.  1.
       -2    1    3    3    0  502 -0.27560239709E+03 -0.24359440111E+02 -0.22555216868E+04  0.22724278082E+04  0.25500000920E-02 0. -1.
</event>
<event>
 5   0  0.5826939E-04  0.9994999E+03  0.7818609E-02  0.9309093E-01
       -1   -1    0    0    0  501  0.00000000000E+00  0.00000000000E+00  0.11772639566E+04  0.11772639566E+04  0.50400001928E-02 0. -1.
        1   -1    0    0  501    0  0.00000000000E+00  0.00000000000E+00 -0.21214446152E+03  0.21214446158E+03  0.50400001928E-02 0.  1.
    10030    2    1    2    0    0  0.00000000000E+00  0.00000000000E+00  0.96511949504E+03  0.13894084182E+04  0.99949993134E+03 0.  0.
        1    1    3    3  502    0  0.23651624485E+03  0.41287829878E+03  0.69493920648E+03  0.84222854642E+03  0.50400001928E-02 0. -1.
       -1    1    3    3    0  502 -0.23651624485E+03 -0.41287829878E+03  0.27018028856E+03  0.54717987174E+03  0.50400001928E-02 0.  1.
</event>
<event>
 5   0  0.9674819E-04  0.1000025E+04  0.7818609E-02  0.9308517E-01
       -2   -1    0    0    0  501  0.00000000000E+00  0.00000000000E+00  0.13788170146E+03  0.13788170148E+03  0.25500000920E-02 0.  1.
        2   -1    0    0  501    0  0.00000000000E+00  0.00000000000E+00 -0.18132403658E+04  0.18132403658E+04  0.25500000920E-02 0. -1.
    10030    2    1    2    0    0  0.00000000000E+00  0.00000000000E+00 -0.16753586643E+04  0.19511220673E+04  0.10000253333E+04 0.  0.
        4    1    3    3  502    0  0.20164852176E+02  0.45597087356E+03 -0.43928293478E+03  0.63347231075E+03  0.12699999809E+01 0.  1.
       -4    1    3    3    0  502 -0.20164852176E+02 -0.45597087356E+03 -0.12360757295E+04  0.13176497565E+04  0.12699999809E+01 0. -1.
</event>
<event>
 5   0  0.1020150E-03  0.1001194E+04  0.7818609E-02  0.9307236E-01
       -2   -1    0    0    0  501  0.00000000000E+00  0.00000000000E+00  0.23787783719E+03  0.23787783720E+03  0.25500000920E-02 0. -1.
        2   -1    0    0  501    0  0.00000000000E+00  0.00000000000E+00 -0.10534710324E+04  0.10534710324E+04  0.25500000920E-02 0.  1.
    10030    2    1    2    0    0  0.00000000000E+00  0.00000000000E+00 -0.81559319524E+03  0.12913488696E+04  0.10011941085E+04 0.  0.
        5    1    3    3  502    0 -0.28155115012E+03 -0.18577800858E+03 -0.88483544772E+03  0.94696376813E+03  0.46999998093E+01 0.  1.
       -5    1    3    3    0  502  0.28155115012E+03  0.18577800858E+03  0.69242252478E+02  0.34438510150E+03  0.46999998093E+01 0. -1.
</event>
<event>
 5   0  0.5888774E-04  0.9992238E+03  0.7818609E-02  0.9309396E-01
       -1   -1    0    0    0  501  0.00000000000E+00  0.00000000000E+00  0.29933268367E+03  0.29933268371E+03  0.50400001928E-02 0. -1.
        1   -1    0    0  501    0  0.00000000000E+00  0.00000000000E+00 -0.83389513738E+03  0.83389513739E+03  0.50400001928E-02 0.  1.
    10030    2    1    2    0    0  0.00000000000E+00  0.00000000000E+00 -0.53456245371E+03  0.11332278211E+04  0.99922383759E+03 0.  0.
        2    1    3    3  502    0 -0.33106148079E+03  0.28199696714E+03 -0.54620743754E+03  0.69818805373E+03  0.25500000920E-02 0.  1.
       -2    1    3    3    0  502  0.33106148079E+03 -0.28199696714E+03  0.11644983830E+02  0.43503976737E+03  0.25500000920E-02 0. -1.
</event>
<event>
 5   0  0.3854625E-04  0.1001211E+04  0.7818609E-02  0.9307218E-01
        3   -1    0    0  501    0  0.00000000000E+00  0.00000000000E+00  0.14853730104E+03  0.14853733538E+03  0.10100000352E+00 0. -1.
       -3   -1    0    0    0  501  0.00000000000E+00  0.00000000000E+00 -0.16871571194E+04  0.16871571225E+04  0.10100000352E+00 0.  1.
    10030    2    1    2    0    0  0.00000000000E+00  0.00000000000E+00 -0.15386198184E+04  0.18356944578E+04  0.10012108654E+04 0.  0.
        1    1    3    3  502    0  0.26758187706E+03 -0.26048029553E+03 -0.13805907965E+04  0.14302031298E+04  0.50400001928E-02 0. -1.
       -1    1    3    3    0  502 -0.26758187706E+03  0.26048029553E+03 -0.15802902194E+03  0.40549132801E+03  0.50400001928E-02 0.  1.
</event>
<event>
 5   0  0.5758786E-04  0.9954598E+03  0.7818609E-02  0.9313538E-01
       -1   -1    0    0    0  501  0.00000000000E+00  0.00000000000E+00  0.18592658673E+03  0.18592658680E+03  0.50400001928E-02 0. -1.
        1   -1    0    0  501    0  0.00000000000E+00  0.00000000000E+00 -0.13324348240E+04  0.13324348241E+04  0.50400001928E-02 0.  1.
    10030    2    1    2    0    0  0.00000000000E+00  0.00000000000E+00 -0.11465082373E+04  0.15183614109E+04  0.99545981121E+03 0.  0.
        3    1    3    3  502    0 -0.12726439503E+03 -0.83402200733E+02 -0.12960901031E+04  0.13049910800E+04  0.10100000352E+00 0.  1.
       -3    1    3    3    0  502  0.12726439503E+03  0.83402200733E+02  0.14958186577E+03  0.21337033087E+03  0.10100000352E+00 0. -1.
</event>
<event>
 5   0  0.1006006E-03  0.9995778E+03  0.7818609E-02  0.9309008E-01
       -2   -1    0    0    0  501  0.00000000000E+00  0.00000000000E+00  0.44493351120E+03  0.44493351121E+03  0.25500000920E-02 0. -1.
        2   -1    0    0  501    0  0.00000000000E+00  0.00000000000E+00 -0.56140729634E+03  0.56140729634E+03  0.25500000920E-02 0.  1.
    10030    2    1    2    0    0  0.00000000000E+00  0.00000000000E+00 -0.11647378513E+03  0.10063408076E+04  0.99957775001E+03 0.  0.
        2    1    3    3  502    0 -0.19610170889E+03 -0.29426865259E+03  0.29733680794E+03  0.46201633899E+03  0.25500000920E-02 0. -1.
       -2    1    3    3    0  502  0.19610170889E+03  0.29426865259E+03 -0.41381059308E+03  0.54432446856E+03  0.25500000920E-02 0.  1.
</event>
<event>
 5   0  0.9674819E-04  0.9993209E+03  0.7818609E-02  0.9309290E-01
       -2   -1    0    0    0  501  0.00000000000E+00  0.00000000000E+00  0.13360836156E+03  0.13360836159E+03  0.25500000920E-02 0. -1.
        2   -1    0    0  501    0  0.00000000000E+00  0.00000000000E+00 -0.18685997135E+04  0.18685997135E+04  0.25500000920E-02 0.  1.
    10030    2    1    2    0    0  0.00000000000E+00  0.00000000000E+00 -0.17349913520E+04  0.20022080751E+04  0.99932086172E+03 0.  0.
        4    1    3    3  502    0 -0.35770337945E+03 -0.17662098803E+03 -0.26471691632E+03  0.47877274334E+03  0.12699999809E+01 0. -1.
       -4    1    3    3    0  502  0.35770337945E+03  0.17662098803E+03 -0.14702744356E+04  0.15234353318E+04  0.12699999809E+01 0.  1.
</event>
<event>
 5   0  0.5826939E-04  0.9936516E+03  0.7818609E-02  0.9315535E-01
       -1   -1    0    0    0  501  0.00000000000E+00  0.00000000000E+00  0.56237249448E+03  0.56237249450E+03  0.50400001928E-02 0. -1.
        1   -1    0    0  501    0  0.00000000000E+00  0.00000000000E+00 -0.43891879100E+03  0.43891879103E+03  0.50400001928E-02 0.  1.
    10030    2    1    2    0    0  0.00000000000E+00  0.00000000000E+00  0.12345370348E+03  0.10012912855E+04  0.99365155944E+03 0.  0.
        1    1    3    3  502    0 -0.98440830042E+02  0.28690548026E+02 -0.42814050062E+03  0.44024769490E+03  0.50400001928E-02 0.  1.
       -1    1    3    3    0  502  0.98440830042E+02 -0.28690548026E+02  0.55159420410E+03  0.56104359063E+03  0.50400001928E-02 0. -1.
</event>
<event>
 5   0  0.5826939E-04  0.1000636E+04  0.7818609E-02  0.9307847E-01
        1   -1    0    0  501    0  0.00000000000E+00  0.00000000000E+00  0.14526377579E+04  0.14526377579E+04  0.50400001928E-02 0.  1.
       -1   -1    0    0    0  501  0.00000000000E+00  0.00000000000E+00 -0.17231976140E+03  0.17231976148E+03  0.50400001928E-02 0. -1.
    10030    2    1    2    0    0  0.00000000000E+00  0.00000000000E+00  0.12803179965E+04  0.16249575193E+04  0.10006361814E+04 0.  0.
        1    1    3    3  502    0  0.33066732191E+03 -0.24323227296E+03  0.11046563834E+04  0.11784602420E+04  0.50400001928E-02 0.  1.
       -1    1    3    3    0  502 -0.33066732191E+03  0.24323227296E+03  0.17566161301E+03  0.44649727738E+03  0.50400001928E-02 0. -1.
</event>
<event>
 5   0  0.9741826E-04  0.9984478E+03  0.7818609E-02  0.9310249E-01
        2   -1    0    0  501    0  0.00000000000E+00  0.00000000000E+00  0.72745882564E+03  0.72745882565E+03  0.25500000920E-02 0. -1.
       -2   -1    0    0    0  501  0.00000000000E+00  0.00000000000E+00 -0.34259604655E+03  0.34259604656E+03  0.25500000920E-02 0.  1.
    10030    2    1    2    0    0  0.00000000000E+00  0.00000000000E+00  0.38486277909E+03  0.10700548722E+04  0.99844783079E+03 0.  0.
        3    1    3    3  502    0 -0.15737116959E+03  0.32511571067E+03  0.56176021122E+03  0.66786260223E+03  0.10100000352E+00 0. -1.
       -3    1    3    3    0  502  0.15737116959E+03 -0.32511571067E+03 -0.17689743213E+03  0.40219226999E+03  0.10100000352E+00 0.  1.
</event>
<event>
 5   0  0.5768102E-04  0.1000154E+04  0.7818609E-02  0.9308376E-01
       -1   -1    0    0    0  501  0.00000000000E+00  0.00000000000E+00  0.55290756015E+03  0.55290756017E+03  0.50400001928E-02 0. -1.
        1   -1    0    0  501    0  0.00000000000E+00  0.00000000000E+00 -0.45229453351E+03  0.45229453353E+03  0.50400001928E-02 0.  1.
    10030    2    1    2    0    0  0.00000000000E+00  0.00000000000E+00  0.10061302665E+03  0.10052020937E+04  0.10001541222E+04 0.  0.
        4    1    3    3  502    0  0.15568081162E+03  0.28944057323E+02  0.52704350721E+03  0.55031876667E+03  0.12699999809E+01 0. -1.
       -4    1    3    3    0  502 -0.15568081162E+03 -0.28944057323E+02 -0.42643048056E+03  0.45488332704E+03  0.12699999809E+01 0.  1.
</event>
<event>
 5   0  0.5826939E-04  0.9993132E+03  0.7818609E-02  0.9309298E-01
        1   -1    0    0  501    0  0.00000000000E+00  0.00000000000E+00  0.78797025169E+03  0.78797025171E+03  0.50400001928E-02 0.  1.
       -1   -1    0    0    0  501  0.00000000000E+00  0.00000000000E+00 -0.31683519448E+03  0.31683519452E+03  0.50400001928E-02 0. -1.
    10030    2    1    2    0    0  0.00000000000E+00  0.00000000000E+00  0.47113505722E+03  0.11048054462E+04  0.99931318008E+03 0.  0.
        1    1    3    3  502    0 -0.60079218086E+02 -0.48885211599E+03  0.32853234080E+03  0.59204679100E+03  0.50400001928E-02 0.  1.
       -1    1    3    3    0  502  0.60079218086E+02  0.48885211599E+03  0.14260271642E+03  0.51275865523E+03  0.50400001928E-02 0. -1.
</event>
<event>
 5   0  0.3854625E-04  0.9991537E+03  0.7818609E-02  0.9309474E-01
       -3   -1    0    0    0  501  0.00000000000E+00  0.00000000000E+00  0.68444470634E+03  0.68444471379E+03  0.10100000352E+00 0. -1.
        3   -1    0    0  501    0  0.00000000000E+00  0.00000000000E+00 -0.36464159279E+03  0.36464160678E+03  0.10100000352E+00 0.  1.
    10030    2    1    2    0    0  0.00000000000E+00  0.00000000000E+00  0.31980311355E+03  0.10490863206E+04  0.99915368015E+03 0.  0.
        3    1    3    3  502    0  0.47948482341E+02 -0.46839690915E+03  0.33522626795E+03  0.57798908500E+03  0.10100000352E+00 0. -1.
       -3    1    3    3    0  502 -0.47948482341E+02  0.46839690915E+03 -0.15423154401E+02  0.47109723556E+03  0.10100000352E+00 0.  1.
</event>
<event>
 5   0  0.5826939E-04  0.9983824E+03  0.7818609E-02  0.9310321E-01
       -1   -1    0    0    0  501  0.00000000000E+00  0.00000000000E+00  0.69340717539E+03  0.69340717541E+03  0.50400001928E-02 0.  1.
        1   -1    0    0  501    0  0.00000000000E+00  0.00000000000E+00 -0.35937306805E+03  0.35937306808E+03  0.50400001928E-02 0. -1.
    10030    2    1    2    0    0  0.00000000000E+00  0.00000000000E+00  0.33403410734E+03  0.10527802435E+04  0.99838241983E+03 0.  0.
        1    1    3    3  502    0 -0.18331752989E+03 -0.20897423349E+03 -0.27020227251E+03  0.38766585499E+03  0.50400001928E-02 0. -1.
       -1    1    3    3    0  502  0.18331752989E+03  0.20897423349E+03  0.60423637986E+03  0.66511438851E+03  0.50400001928E-02 0.  1.
</event>
<event>
 5   0  0.5758786E-04  0.1000714E+04  0.7818609E-02  0.9307762E-01
        1   -1    0    0  501    0  0.00000000000E+00  0.00000000000E+00  0.30750739510E+03  0.30750739514E+03  0.50400001928E-02 0.  1.
       -1   -1    0    0    0  501  0.00000000000E+00  0.00000000000E+00 -0.81414929253E+03  0.81414929254E+03  0.50400001928E-02 0. -1.
    10030    2    1    2    0    0  0.00000000000E+00  0.00000000000E+00 -0.50664189743E+03  0.11216566877E+04  0.10007136018E+04 0.  0.
        3    1    3    3  502    0 -0.15503142671E+03 -0.40222656529E+03  0.31420736590E+02  0.43221317192E+03  0.10100000352E+00 0.  1.
       -3    1    3    3    0  502  0.15503142671E+03  0.40222656529E+03 -0.53806263402E+03  0.68944351576E+03  0.10100000352E+00 0. -1.
</event>
<event>
 5   0  0.1020150E-03  0.1000160E+04  0.7818609E-02  0.9308369E-01
        2   -1    0    0  501    0  0.00000000000E+00  0.00000000000E+00  0.11210113970E+04  0.11210113970E+04  0.25500000920E-02 0. -1.
       -2   -1    0    0    0  501  0.00000000000E+00  0.00000000000E+00 -0.22308427877E+03  0.22308427879E+03  0.25500000920E-02 0.  1.
    10030    2    1    2    0    0  0.00000000000E+00  0.00000000000E+00  0.89792711824E+03  0.13440956758E+04  0.10001600252E+04 0.  0.
        5    1    3    3  502    0 -0.41953167771E+03 -0.11789438623E+03  0.11936464045E+03  0.45185829891E+03  0.46999998093E+01 0.  1.
       -5    1    3    3    0  502  0.41953167771E+03  0.11789438623E+03  0.77856247779E+03  0.89223737689E+03  0.46999998093E+01 0. -1.
</event>
<event>
 5   0  0.5768102E-04  0.1000581E+04  0.7818609E-02  0.9307907E-01
       -1   -1    0    0    0  501  0.00000000000E+00  0.00000000000E+00  0.19335751121E+03  0.19335751128E+03  0.50400001928E-02 0. -1.
        1   -1    0    0  501    0  0.00000000000E+00  0.00000000000E+00 -0.12944454156E+04  0.12944454156E+04  0.50400001928E-02 0.  1.
    10030    2    1    2    0    0  0.00000000000E+00  0.00000000000E+00 -0.11010879044E+04  0.14878029269E+04  0.10005813191E+04 0.  0.
        4    1    3    3  502    0 -0.20002131339E+03 -0.40861826703E+03 -0.85999768057E+03  0.97292087934E+03  0.12699999809E+01 0.  1.
       -4    1    3    3    0  502  0.20002131339E+03  0.40861826703E+03 -0.24109022378E+03  0.51488204752E+03  0.12699999809E+01 0. -1.
</event>
<event>
 5   0  0.5826939E-04  0.9961987E+03  0.7818609E-02  0.9312724E-01
        1   -1    0    0  501    0  0.00000000000E+00  0.00000000000E+00  0.48994941857E+03  0.48994941860E+03  0.50400001928E-02 0. -1.
       -1   -1    0    0    0  501  0.00000000000E+00  0.00000000000E+00 -0.50638480916E+03  0.50638480918E+03  0.50400001928E-02 0.  1.
    10030    2    1    2    0    0  0.00000000000E+00  0.00000000000E+00 -0.16435390585E+02  0.99633422778E+03  0.99619866060E+03 0.  0.
        1    1    3    3  502    0 -0.30921163795E+03  0.10876045676E+03 -0.38331842221E+03  0.50435472321E+03  0.50400001928E-02 0.  1.
       -1    1    3    3    0  502  0.30921163795E+03 -0.10876045676E+03  0.36688303162E+03  0.49197950457E+03  0.50400001928E-02 0. -1.
</event>
<event>
 5   0  0.5826939E-04  0.1002071E+04  0.7818609E-02  0.9306276E-01
       -1   -1    0    0    0  501  0.00000000000E+00  0.00000000000E+00  0.83225919853E+03  0.83225919854E+03  0.50400001928E-02 0. -1.
        1   -1    0    0  501    0  0.00000000000E+00  0.00000000000E+00 -0.30163267337E+03  0.30163267341E+03  0.50400001928E-02 0.  1.
    10030    2    1    2    0    0  0.00000000000E+00  0.00000000000E+00  0.53062652516E+03  0.11338918720E+04  0.10020709895E+04 0.  0.
        1    1    3    3  502    0  0.34579554162E+03 -0.36237368253E+03  0.25157882816E+03  0.56051864305E+03  0.50400001928E-02 0. -1.
       -1    1    3    3    0  502 -0.34579554162E+03  0.36237368253E+03  0.27904769700E+03  0.57337322891E+03  0.50400001928E-02 0.  1.
</event>
<event>
 5   0  0.1020150E-03  0.9811407E+03  0.7818609E-02  0.9329475E-01
       -2   -1    0    0    0  501  0.00000000000E+00  0.00000000000E+00  0.45456095740E+03  0.45456095741E+03  0.25500000920E-02 0. -1.
        2   -1    0    0  501    0  0.00000000000E+00  0.00000000000E+00 -0.52943238659E+03  0.52943238659E+03  0.25500000920E-02 0.  1.
    10030    2    1    2    0    0  0.00000000000E+00  0.00000000000E+00 -0.74871429189E+02  0.98399334400E+03  0.98114074940E+03 0.  0.
        5    1    3    3  502    0 -0.27425395217E+03  0.40454871845E+03 -0.79537604160E+02  0.49520017806E+03  0.46999998093E+01 0. -1.
       -5    1    3    3    0  502  0.27425395217E+03 -0.40454871845E+03  0.46661749708E+01  0.48879316594E+03  0.46999998093E+01 0.  1.
</event>
<event>
 5   0  0.9674819E-04  0.9995169E+03  0.7818609E-02  0.9309075E-01
        2   -1    0    0  501    0  0.00000000000E+00  0.00000000000E+00  0.12887167098E+04  0.12887167098E+04  0.25500000920E-02 0. -1.
       -2   -1    0    0    0  501  0.00000000000E+00  0.00000000000E+00 -0.19380404360E+03  0.19380404362E+03  0.25500000920E-02 0.  1.
    10030    2    1    2    0    0  0.00000000000E+00  0.00000000000E+00  0.10949126662E+04  0.14825207534E+04  0.99951690216E+03 0.  0.
        4    1    3    3  502    0  0.45032630872E+03  0.18518322648E+03  0.38049964229E+03  0.61795485464E+03  0.12699999809E+01 0.  1.
       -4    1    3    3    0  502 -0.45032630872E+03 -0.18518322648E+03  0.71441302388E+03  0.86456589875E+03  0.12699999809E+01 0. -1.
</event>
<event>
 5   0  0.5960102E-04  0.9994834E+03  0.7818609E-02  0.9309112E-01
        1   -1    0    0  501    0  0.00000000000E+00  0.00000000000E+00  0.12381959160E+04  0.12381959160E+04  0.50400001928E-02 0. -1.
       -1   -1    0    0    0  501  0.00000000000E+00  0.00000000000E+00 -0.20169810926E+03  0.20169810932E+03  0.50400001928E-02 0.  1.
    10030    2    1    2    0    0  0.00000000000E+00  0.00000000000E+00  0.10364978067E+04  0.14398940253E+04  0.99948341696E+03 0.  0.
        5    1    3    3  502    0  0.28555580344E+03 -0.31097014338E+03  0.13309665380E+03  0.44269781590E+03  0.46999998093E+01 0.  1.
       -5    1    3    3    0  502 -0.28555580344E+03  0.31097014338E+03  0.90340115291E+03  0.99719620940E+03  0.46999998093E+01 0. -1.
</event>
<event>
 5   0  0.9674819E-04  0.9946280E+03  0.7818609E-02  0.9314456E-01
        2   -1    0    0  501    0  0.00000000000E+00  0.00000000000E+00  0.41653168951E+03  0.41653168952E+03  0.25500000920E-02 0.  1.
       -2   -1    0    0    0  501  0.00000000000E+00  0.00000000000E+00 -0.59376323793E+03  0.59376323793E+03  0.25500000920E-02 0. -1.
    10030    2    1    2    0    0  0.00000000000E+00  0.00000000000E+00 -0.17723154842E+03  0.10102949275E+04  0.99462798004E+03 0.  0.
        4    1    3    3  502    0  0.54658206768E+02 -0.37654335794E+03  0.23665822087E+03  0.44808609260E+03  0.12699999809E+01 0.  1.
       -4    1    3    3    0  502 -0.54658206768E+02  0.37654335794E+03 -0.41388976928E+03  0.56220883486E+03  0.12699999809E+01 0. -1.
</event>
<event>
 5   0  0.5758786E-04  0.1001233E+04  0.7818609E-02  0.9307194E-01
       -1   -1    0    0    0  501  0.00000000000E+00  0.00000000000E+00  0.21205165691E+03  0.21205165697E+03  0.50400001928E-02 0. -1.
        1   -1    0    0  501    0  0.00000000000E+00  0.00000000000E+00 -0.11818667563E+04  0.11818667563E+04  0.50400001928E-02 0.  1.
    10030    2    1    2    0    0  0.00000000000E+00  0.00000000000E+00 -0.96981509941E+03  0.13939184133E+04  0.10012328480E+04 0.  0.
        3    1    3    3  502    0 -0.40848430734E+03  0.28916500445E+03 -0.50143695979E+03  0.70845950059E+03  0.10100000352E+00 0.  1.
       -3    1    3    3    0  502  0.40848430734E+03 -0.28916500445E+03 -0.46837813962E+03  0.68545891271E+03  0.10100000352E+00 0. -1.
</event>
<event>
 5   0  0.1006006E-03  0.1001443E+04  0.7818609E-02  0.9306964E-01
        2   -1    0    0  501    0  0.00000000000E+00  0.00000000000E+00  0.61613529703E+03  0.61613529704E+03  0.25500000920E-02 0. -1.
       -2   -1    0    0    0  501  0.00000000000E+00  0.00000000000E+00 -0.40692681844E+03  0.40692681844E+03  0.25500000920E-02 0.  1.
    10030    2    1    2    0    0  0.00000000000E+00  0.00000000000E+00  0.20920847859E+03  0.10230621155E+04  0.10014429113E+04 0.  0.
        2    1    3    3  502    0 -0.16557237758E+03 -0.36829246017E+03 -0.19787628348E+03  0.44967607453E+03  0.25500000920E-02 0. -1.
       -2    1    3    3    0  502  0.16557237758E+03  0.36829246017E+03  0.40708476208E+03  0.57338604095E+03  0.25500000920E-02 0.  1.
</event>
<event>
 5   0  0.1006749E-03  0.1000605E+04  0.7818609E-02  0.9307881E-01
       -2   -1    0    0    0  501  0.00000000000E+00  0.00000000000E+00  0.16932169478E+03  0.16932169480E+03  0.25500000920E-02 0. -1.
        2   -1    0    0  501    0  0.00000000000E+00  0.00000000000E+00 -0.14782672986E+04  0.14782672986E+04  0.25500000920E-02 0.  1.
    10030    2    1    2    0    0  0.00000000000E+00  0.00000000000E+00 -0.13089456038E+04  0.16475889934E+04  0.10006052655E+04 0.  0.
        1    1    3    3  502    0  0.25933086655E+03 -0.24707076041E+02 -0.13577813170E+04  0.13825458556E+04  0.50400001928E-02 0.  1.
       -1    1    3    3    0  502 -0.25933086655E+03  0.24707076041E+02  0.48835713259E+02  0.26504313775E+03  0.50400001928E-02 0. -1.
</event>
<event>
 5   0  0.5768102E-04  0.1000419E+04  0.7818609E-02  0.9308085E-01
       -1   -1    0    0    0  501  0.00000000000E+00  0.00000000000E+00  0.14668934718E+03  0.14668934727E+03  0.50400001928E-02 0.  1.
        1   -1    0    0  501    0  0.00000000000E+00  0.00000000000E+00 -0.17057107959E+04  0.17057107959E+04  0.50400001928E-02 0. -1.
    10030    2    1    2    0    0  0.00000000000E+00  0.00000000000E+00 -0.15590214487E+04  0.18524001432E+04  0.10004191186E+04 0.  0.
        4    1    3    3  502    0  0.54558180486E+02 -0.83290031486E+02  0.12815186658E+03  0.16229090613E+03  0.12699999809E+01 0.  1.
       -4    1    3    3    0  502 -0.54558180486E+02  0.83290031486E+02 -0.16871733153E+04  0.16901092370E+04  0.12699999809E+01 0. -1.
</event>
<event>
 5   0  0.1006749E-03  0.1000035E+04  0.7818609E-02  0.9308506E-01
        2   -1    0    0  501    0  0.00000000000E+00  0.00000000000E+00  0.42128579887E+03  0.42128579888E+03  0.25500000920E-02 0. -1.
       -2   -1    0    0    0  501  0.00000000000E+00  0.00000000000E+00 -0.59346301505E+03  0.59346301505E+03  0.25500000920E-02 0.  1.
    10030    2    1    2    0    0  0.00000000000E+00  0.00000000000E+00 -0.17217721618E+03  0.10147488139E+04  0.10000350802E+04 0.  0.
        1    1    3    3  502    0 -0.22694435767E+03  0.34583269347E+03  0.19896011495E+03  0.45900884602E+03  0.50400001928E-02 0. -1.
       -1    1    3    3    0  502  0.22694435767E+03 -0.34583269347E+03 -0.37113733113E+03  0.55573996791E+03  0.50400001928E-02 0.  1.
</event>
<event>
 5   0  0.3854625E-04  0.9990571E+03  0.7818609E-02  0.9309580E-01
       -4   -1    0    0    0  501  0.00000000000E+00  0.00000000000E+00  0.27911262023E+03  0.27911550955E+03  0.12699999809E+01 0. -1.
        4   -1    0    0  501    0  0.00000000000E+00  0.00000000000E+00 -0.89399951636E+03  0.89400041843E+03  0.12699999809E+01 0.  1.
    10030    2    1    2    0    0  0.00000000000E+00  0.00000000000E+00 -0.61488689613E+03  0.11731159280E+04  0.99905709818E+03 0.  0.
        3    1    3    3  502    0 -0.15556635970E+03 -0.27979282654E+02 -0.86386295090E+03  0.87820438433E+03  0.10100000352E+00 0.  1.
       -3    1    3    3    0  502  0.15556635970E+03  0.27979282654E+02  0.24897605476E+03  0.29491154364E+03  0.10100000352E+00 0. -1.
</event>
<event>
 5   0  0.9674819E-04  0.9988110E+03  0.7818609E-02  0.9309850E-01
        2   -1    0    0  501    0  0.00000000000E+00  0.00000000000E+00  0.13648326976E+03  0.13648326979E+03  0.25500000920E-02 0.  1.
       -2   -1    0    0    0  501  0.00000000000E+00  0.00000000000E+00 -0.18273730581E+04  0.18273730581E+04  0.25500000920E-02 0. -1.
    10030    2    1    2    0    0  0.00000000000E+00  0.00000000000E+00 -0.16908897883E+04  0.19638563279E+04  0.99881099328E+03 0.  0.
        4    1    3    3  502    0  0.20995545878E+03  0.31730900769E+03 -0.14814652000E+04  0.15295447207E+04  0.12699999809E+01 0. -1.
       -4    1    3    3    0  502 -0.20995545878E+03 -0.31730900769E+03 -0.20942458839E+03  0.43431160721E+03  0.12699999809E+01 0.  1.
</event>
<event>
 5   0  0.9741826E-04  0.1004337E+04  0.7818609E-02  0.9303801E-01
        2   -1    0    0  501    0  0.00000000000E+00  0.00000000000E+00  0.94269614699E+03  0.94269614699E+03  0.25500000920E-02 0. -1.
       -2   -1    0    0    0  501  0.00000000000E+00  0.00000000000E+00 -0.26750187966E+03  0.26750187967E+03  0.25500000920E-02 0.  1.
    10030    2    1    2    0    0  0.00000000000E+00  0.00000000000E+00  0.67519426732E+03  0.12101980267E+04  0.10043365796E+04 0.  0.
        3    1    3    3  502    0  0.30775253983E+03  0.26768976101E+03  0.69056062029E+03  0.80202457221E+03  0.10100000352E+00 0. -1.
       -3    1    3    3    0  502 -0.30775253983E+03 -0.26768976101E+03 -0.15366352970E+02  0.40817345446E+03  0.10100000352E+00 0.  1.
</event>
<event>
 5   0  0.5888774E-04  0.1001343E+04  0.7818609E-02  0.9307073E-01
       -1   -1    0    0    0  501  0.00000000000E+00  0.00000000000E+00  0.16906223760E+03  0.16906223768E+03  0.50400001928E-02 0.  1.
        1   -1    0    0  501    0  0.00000000000E+00  0.00000000000E+00 -0.14827190612E+04  0.14827190612E+04  0.50400001928E-02 0. -1.
    10030    2    1    2    0    0  0.00000000000E+00  0.00000000000E+00 -0.13136568236E+04  0.16517812989E+04  0.10013427031E+04 0.  0.
        2    1    3    3  502    0  0.46437228088E+03 -0.11836298826E+03 -0.41766750439E+03  0.63568668106E+03  0.25500000920E-02 0.  1.
       -2    1    3    3    0  502 -0.46437228088E+03  0.11836298826E+03 -0.89598931918E+03  0.10160946178E+04  0.25500000920E-02 0. -1.
</event>
<event>
 5   0  0.5768102E-04  0.1001186E+04  0.7818609E-02  0.9307245E-01
       -1   -1    0    0    0  501  0.00000000000E+00  0.00000000000E+00  0.66677023928E+03  0.66677023930E+03  0.50400001928E-02 0. -1.
        1   -1    0    0  501    0  0.00000000000E+00  0.00000000000E+00 -0.37583144270E+03  0.37583144273E+03  0.50400001928E-02 0.  1.
    10030    2    1    2    0    0  0.00000000000E+00  0.00000000000E+00  0.29093879658E+03  0.10426016820E+04  0.10011857390E+04 0.  0.
        4    1    3    3  502    0 -0.23633682587E+03 -0.13477666648E+03  0.58305637987E+03  0.64340982282E+03  0.12699999809E+01 0. -1.
       -4    1    3    3    0  502  0.23633682587E+03  0.13477666648E+03 -0.29211758330E+03  0.39919185921E+03  0.12699999809E+01 0.  1.
</event>
<event>
 5   0  0.5758786E-04  0.1005951E+04  0.7818609E-02  0.9302042E-01
       -1   -1    0    0    0  501  0.00000000000E+00  0.00000000000E+00  0.72706411290E+03  0.72706411292E+03  0.50400001928E-02 0.  1.
        1   -1    0    0  501    0  0.00000000000E+00  0.00000000000E+00 -0.34795327746E+03  0.34795327749E+03  0.50400001928E-02 0. -1.
    10030    2    1    2    0    0  0.00000000000E+00  0.00000000000E+00  0.37911083544E+03  0.10750173904E+04  0.10059509750E+04 0.  0.
        3    1    3    3  502    0 -0.18527759117E+01  0.25505902128E+03 -0.27371212141E+03  0.37413483227E+03  0.10100000352E+00 0. -1.
       -3    1    3    3    0  502  0.18527759117E+01 -0.25505902128E+03  0.65282295685E+03  0.70088255814E+03  0.10100000352E+00 0.  1.
</event>
<event>
 5   0  0.5758786E-04  0.9996022E+03  0.7818609E-02  0.9308981E-01
       -1   -1    0    0    0  501  0.00000000000E+00  0.00000000000E+00  0.24539182115E+03  0.24539182120E+03  0.50400001928E-02 0.  1.
        1   -1    0    0  501    0  0.00000000000E+00  0.00000000000E+00 -0.10179683935E+04  0.10179683935E+04  0.50400001928E-02 0. -1.
    10030    2    1    2    0    0  0.00000000000E+00  0.00000000000E+00 -0.77257657238E+03  0.12633602147E+04  0.99960215686E+03 0.  0.
        3    1    3    3  502    0 -0.93183707423E+02 -0.34262045142E+03 -0.83085402752E+03  0.90354324872E+03  0.10100000352E+00 0. -1.
       -3    1    3    3    0  502  0.93183707423E+02  0.34262045142E+03  0.58277455137E+02  0.35981696602E+03  0.10100000352E+00 0.  1.
</event>
<event>
 5   0  0.1006749E-03  0.9980373E+03  0.7818609E-02  0.9310700E-01
        2   -1    0    0  501    0  0.00000000000E+00  0.00000000000E+00  0.38312387504E+03  0.38312387505E+03  0.25500000920E-02 0.  1.
       -2   -1    0    0    0  501  0.00000000000E+00  0.00000000000E+00 -0.64997152880E+03  0.64997152881E+03  0.25500000920E-02 0. -1.
    10030    2    1    2    0    0  0.00000000000E+00  0.00000000000E+00 -0.26684765376E+03  0.10330954039E+04  0.99803729547E+03 0.  0.
        1    1    3    3  502    0 -0.16991016441E+03 -0.16702603901E+03  0.32044421009E+03  0.39931397857E+03  0.50400001928E-02 0.  1.
       -1    1    3    3    0  502  0.16991016441E+03  0.16702603901E+03 -0.58729186385E+03  0.63378142529E+03  0.50400001928E-02 0. -1.
</event>
<event>
 5   0  0.1020150E-03  0.9998004E+03  0.7818609E-02  0.9308764E-01
        2   -1    0    0  501    0  0.00000000000E+00  0.00000000000E+00  0.10930614100E+04  0.10930614100E+04  0.25500000920E-02 0.  1.
       -2   -1    0    0    0  501  0.00000000000E+00  0.00000000000E+00 -0.22862410933E+03  0.22862410934E+03  0.25500000920E-02 0. -1.
    10030    2    1    2    0    0  0.00000000000E+00  0.00000000000E+00  0.86443730063E+03  0.13216855193E+04  0.99980036268E+03 0.  0.
        5    1    3    3  502    0 -0.34577285609E+03 -0.28820474728E+03  0.71959372458E+03  0.84879801061E+03  0.46999998093E+01 0. -1.
       -5    1    3    3    0  502  0.34577285609E+03  0.28820474728E+03  0.14484357605E+03  0.47288750870E+03  0.46999998093E+01 0.  1.
</event>
<event>
 5   0  0.1006006E-03  0.9976439E+03  0.7818609E-02  0.9311133E-01
        2   -1    0    0  501    0  0.00000000000E+00  0.00000000000E+00  0.32337822120E+03  0.32337822121E+03  0.25500000920E-02 0.  1.
       -2   -1    0    0    0  501  0.00000000000E+00  0.00000000000E+00 -0.76944986323E+03  0.76944986323E+03  0.25500000920E-02 0. -1.
    10030    2    1    2    0    0  0.00000000000E+00  0.00000000000E+00 -0.44607164203E+03  0.10928280844E+04  0.99764388051E+03 0.  0.
        2    1    3    3  502    0 -0.39545935939E+03  0.18099856542E+02  0.10941245164E+03  0.41071497941E+03  0.25500000920E-02 0.  1.
       -2    1    3    3    0  502  0.39545935939E+03 -0.18099856542E+02 -0.55548409366E+03  0.68211310503E+03  0.25500000920E-02 0. -1.
</event>
<event>
 5   0  0.5826939E-04  0.9996461E+03  0.7818609E-02  0.9308933E-01
       -1   -1    0    0    0  501  0.00000000000E+00  0.00000000000E+00  0.33105530846E+03  0.33105530850E+03  0.50400001928E-02 0. -1.
        1   -1    0    0  501    0  0.00000000000E+00  0.00000000000E+00 -0.75462637172E+03  0.75462637174E+03  0.50400001928E-02 0.  1.
    10030    2    1    2    0    0  0.00000000000E+00  0.00000000000E+00 -0.42357106326E+03  0.10856816802E+04  0.99964606995E+03 0.  0.
        1    1    3    3  502    0 -0.20349314991E+03  0.45436409332E+03 -0.16361908413E+03  0.52404903977E+03  0.50400001928E-02 0.  1.
       -1    1    3    3    0  502  0.20349314991E+03 -0.45436409332E+03 -0.25995197913E+03  0.56163264047E+03  0.50400001928E-02 0. -1.
</event>
<event>
 5   0  0.1006006E-03  0.9989995E+03  0.7818609E-02  0.9309643E-01
       -2   -1    0    0    0  501  0.00000000000E+00  0.00000000000E+00  0.13732418560E+03  0.13732418562E+03  0.25500000920E-02 0. -1.
        2   -1    0    0  501    0  0.00000000000E+00  0.00000000000E+00 -0.18168684763E+04  0.18168684763E+04  0.25500000920E-02 0.  1.
    10030    2    1    2    0    0  0.00000000000E+00  0.00000000000E+00 -0.16795442907E+04  0.19541926619E+04  0.99899946722E+03 0.  0.
        2    1    3    3  502    0  0.22031328078E+03  0.19106992633E+03 -0.16330489795E+04  0.16588835486E+04  0.25500000920E-02 0.  1.
       -2    1    3    3    0  502 -0.22031328078E+03 -0.19106992633E+03 -0.46495311212E+02  0.29530911332E+03  0.25500000920E-02 0. -1.
</event>
<event>
 5   0  0.5826939E-04  0.1001446E+04  0.7818609E-02  0.9306960E-01
       -1   -1    0    0    0  501  0.00000000000E+00  0.00000000000E+00  0.50997346024E+03  0.50997346026E+03  0.50400001928E-02 0.  1.
        1   -1    0    0  501    0  0.00000000000E+00  0.00000000000E+00 -0.49164059180E+03  0.49164059182E+03  0.50400001928E-02 0. -1.
    10030    2    1    2    0    0  0.00000000000E+00  0.00000000000E+00  0.18332868443E+02  0.10016140521E+04  0.10014462618E+04 0.  0.
        1    1    3    3  502    0  0.75635758233E+02  0.39694760307E+03  0.30491089827E+03  0.50622013336E+03  0.50400001928E-02 0.  1.
       -1    1    3    3    0  502 -0.75635758233E+02 -0.39694760307E+03 -0.28657802983E+03  0.49539391873E+03  0.50400001928E-02 0. -1.
</event>
<event>
 5   0  0.5960102E-04  0.1000182E+04  0.7818609E-02  0.9308345E-01
       -1   -1    0    0    0  501  0.00000000000E+00  0.00000000000E+00  0.52423666206E+03  0.52423666208E+03  0.50400001928E-02 0. -1.
        1   -1    0    0  501    0  0.00000000000E+00  0.00000000000E+00 -0.47705792719E+03  0.47705792722E+03  0.50400001928E-02 0.  1.
    10030    2    1    2    0    0  0.00000000000E+00  0.00000000000E+00  0.47178734865E+02  0.10012945893E+04  0.10001824941E+04 0.  0.
        5    1    3    3  502    0 -0.42207961294E+03  0.26356605820E+03 -0.25972230500E+02  0.49831206433E+03  0.46999998093E+01 0.  1.
       -5    1    3    3    0  502  0.42207961294E+03 -0.26356605820E+03  0.73150965364E+02  0.50298252497E+03  0.46999998093E+01 0. -1.
</event>
<event>
 5   0  0.9674819E-04  0.9888986E+03  0.7818609E-02  0.9320805E-01
        2   -1    0    0  501    0  0.00000000000E+00  0.00000000000E+00  0.84891906083E+03  0.84891906084E+03  0.25500000920E-02 0. -1.
       -2   -1    0    0    0  501  0.00000000000E+00  0.00000000000E+00 -0.28798991252E+03  0.28798991253E+03  0.25500000920E-02 0.  1.
    10030    2    1    2    0    0  0.00000000000E+00  0.00000000000E+00  0.56092914832E+03  0.11369089734E+04  0.98889863196E+03 0.  0.
        4    1    3    3  502    0 -0.49271098840E+03  0.35779022277E+02  0.25650676210E+03  0.55663416032E+03  0.12699999809E+01 0. -1.
       -4    1    3    3    0  502  0.49271098840E+03 -0.35779022277E+02  0.30442238621E+03  0.58027481305E+03  0.12699999809E+01 0.  1.
</event>
<event>
 5   0  0.5826939E-04  0.1000050E+04  0.7818609E-02  0.9308490E-01
        1   -1    0    0  501    0  0.00000000000E+00  0.00000000000E+00  0.12237626259E+04  0.12237626259E+04  0.50400001928E-02 0.  1.
       -1   -1    0    0    0  501  0.00000000000E+00  0.00000000000E+00 -0.20430858430E+03  0.20430858436E+03  0.50400001928E-02 0. -1.
    10030    2    1    2    0    0  0.00000000000E+00  0.00000000000E+00  0.10194540416E+04  0.14280712103E+04  0.10000504181E+04 0.  0.
        1    1    3    3  502    0 -0.30383993484E+02  0.37831569539E+03  0.97460438903E+03  0.10458965855E+04  0.50400001928E-02 0.  1.
       -1    1    3    3    0  502  0.30383993484E+02 -0.37831569539E+03  0.44849652557E+02  0.38217462475E+03  0.50400001928E-02 0. -1.
</event>
<event>
 5   0  0.3854625E-04  0.9993078E+03  0.7818609E-02  0.9309304E-01
        3   -1    0    0  501    0  0.00000000000E+00  0.00000000000E+00  0.36332636355E+03  0.36332637759E+03  0.10100000352E+00 0.  1.
       -3   -1    0    0    0  501  0.00000000000E+00  0.00000000000E+00 -0.68713431160E+03  0.68713431902E+03  0.10100000352E+00 0. -1.
    10030    2    1    2    0    0  0.00000000000E+00  0.00000000000E+00 -0.32380794804E+03  0.10504606966E+04  0.99930780439E+03 0.  0.
        2    1    3    3  502    0  0.92239746794E+02 -0.49093262318E+03 -0.17393586035E+03  0.52893921665E+03  0.25500000920E-02 0.  1.
       -2    1    3    3    0  502 -0.92239746794E+02  0.49093262318E+03 -0.14987208769E+03  0.52152147996E+03  0.25500000920E-02 0. -1.
</event>
<event>
 5   0  0.5826939E-04  0.1000553E+04  0.7818609E-02  0.9307939E-01
        1   -1    0    0  501    0  0.00000000000E+00  0.00000000000E+00  0.28141268370E+03  0.28141268375E+03  0.50400001928E-02 0. -1.
       -1   -1    0    0    0  501  0.00000000000E+00  0.00000000000E+00 -0.88935765417E+03  0.88935765419E+03  0.50400001928E-02 0.  1.
    10030    2    1    2    0    0  0.00000000000E+00  0.00000000000E+00 -0.60794497047E+03  0.11707703379E+04  0.10005528957E+04 0.  0.
        1    1    3    3  502    0 -0.32879973187E+03  0.26170800696E+03  0.13638274568E+02  0.42045968552E+03  0.50400001928E-02 0. -1.
       -1    1    3    3    0  502  0.32879973187E+03 -0.26170800696E+03 -0.62158324504E+03  0.75031065242E+03  0.50400001928E-02 0.  1.
</event>
<event>
 5   0  0.5888774E-04  0.1001560E+04  0.7818609E-02  0.9306835E-01
        1   -1    0    0  501    0  0.00000000000E+00  0.00000000000E+00  0.16779771938E+04  0.16779771938E+04  0.50400001928E-02 0. -1.
       -1   -1    0    0    0  501  0.00000000000E+00  0.00000000000E+00 -0.14945421824E+03  0.14945421832E+03  0.50400001928E-02 0.  1.
    10030    2    1    2    0    0  0.00000000000E+00  0.00000000000E+00  0.15285229756E+04  0.18274314122E+04  0.10015603223E+04 0.  0.
        2    1    3    3  502    0 -0.34817476580E+03  0.18807966543E+03  0.20431574122E+03  0.44535890044E+03  0.25500000920E-02 0.  1.
       -2    1    3    3    0  502  0.34817476580E+03 -0.18807966543E+03  0.13242072344E+04  0.13820725117E+04  0.25500000920E-02 0. -1.
</event>
<event>
 5   0  0.5768102E-04  0.9980211E+03  0.7818609E-02  0.9310718E-01
       -1   -1    0    0    0  501  0.00000000000E+00  0.00000000000E+00  0.81061967785E+03  0.81061967786E+03  0.50400001928E-02 0.  1.
        1   -1    0    0  501    0  0.00000000000E+00  0.00000000000E+00 -0.30718663257E+03  0.30718663261E+03  0.50400001928E-02 0. -1.
    10030    2    1    2    0    0  0.00000000000E+00  0.00000000000E+00  0.50343304527E+03  0.11178063105E+04  0.99802110031E+03 0.  0.
        4    1    3    3  502    0  0.11838740870E+03  0.28835801375E+03 -0.18472457821E+03  0.36234059299E+03  0.12699999809E+01 0. -1.
       -4    1    3    3    0  502 -0.11838740870E+03 -0.28835801375E+03  0.68815762348E+03  0.75546571748E+03  0.12699999809E+01 0.  1.
</event>
<event>
 5   0  0.5960102E-04  0.1001148E+04  0.7818609E-02  0.9307286E-01
        1   -1    0    0  501    0  0.00000000000E+00  0.00000000000E+00  0.93055961811E+03  0.93055961813E+03  0.50400001928E-02 0. -1.
       -1   -1    0    0    0  501  0.00000000000E+00  0.00000000000E+00 -0.26927282864E+03  0.26927282868E+03  0.50400001928E-02 0.  1.
    10030    2    1    2    0    0  0.00000000000E+00  0.00000000000E+00  0.66128678948E+03  0.11998324468E+04  0.10011481821E+04 0.  0.
        5    1    3    3  502    0  0.80144612707E+02 -0.39391561726E+03  0.68809626762E+03  0.79692611702E+03  0.46999998093E+01 0. -1.
       -5    1    3    3    0  502 -0.80144612707E+02  0.39391561726E+03 -0.26809478147E+02  0.40290632979E+03  0.46999998093E+01 0.  1.
</event>
<event>
 5   0  0.1006749E-03  0.9993829E+03  0.7818609E-02  0.9309222E-01
       -2   -1    0    0    0  501  0.00000000000E+00  0.00000000000E+00  0.16607939040E+03  0.16607939042E+03  0.25500000920E-02 0. -1.
        2   -1    0    0  501    0  0.00000000000E+00  0.00000000000E+00 -0.15034469914E+04  0.15034469914E+04  0.25500000920E-02 0.  1.
    10030    2    1    2    0    0  0.00000000000E+00  0.00000000000E+00 -0.13373676010E+04  0.16695263818E+04  0.99938292931E+03 0.  0.
        1    1    3    3  502    0 -0.73732929766E+00  0.27644717127E+03 -0.13640611054E+04  0.13917924707E+04  0.50400001928E-02 0.  1.
       -1    1    3    3    0  502  0.73732929766E+00 -0.27644717127E+03  0.26693504468E+02  0.27773391108E+03  0.50400001928E-02 0. -1.
</event>
<event>
 5   0  0.5888774E-04  0.9941374E+03  0.7818609E-02  0.9314998E-01
        1   -1    0    0  501    0  0.00000000000E+00  0.00000000000E+00  0.34945516905E+03  0.34945516909E+03  0.50400001928E-02 0.  1.
       -1   -1    0    0    0  501  0.00000000000E+00  0.00000000000E+00 -0.70703579305E+03  0.70703579306E+03  0.50400001928E-02 0. -1.
    10030    2    1    2    0    0  0.00000000000E+00  0.00000000000E+00 -0.35758062399E+03  0.10564909622E+04  0.99413744042E+03 0.  0.
        2    1    3    3  502    0  0.10717874328E+01 -0.40255558500E+03 -0.48866999097E+03  0.63312756047E+03  0.25500000920E-02 0. -1.
       -2    1    3    3    0  502 -0.10717874328E+01  0.40255558500E+03  0.13108936698E+03  0.42336340168E+03  0.25500000920E-02 0.  1.
</event>
<event>
 5   0  0.9741826E-04  0.9977887E+03  0.7818609E-02  0.9310973E-01
       -2   -1    0    0    0  501  0.00000000000E+00  0.00000000000E+00  0.24159509806E+03  0.24159509807E+03  0.25500000920E-02 0.  1.
        2   -1    0    0  501    0  0.00000000000E+00  0.00000000000E+00 -0.10302177175E+04  0.10302177175E+04  0.25500000920E-02 0. -1.
    10030    2    1    2    0    0  0.00000000000E+00  0.00000000000E+00 -0.78862261944E+03  0.12718128156E+04  0.99778865596E+03 0.  0.
        3    1    3    3  502    0  0.42865338380E+03 -0.52497529241E+02 -0.75919120617E+02  0.43847854804E+03  0.10100000352E+00 0.  1.
       -3    1    3    3    0  502 -0.42865338380E+03  0.52497529241E+02 -0.71270349882E+03  0.83333426754E+03  0.10100000352E+00 0. -1.
</event>
<event>
 5   0  0.5768102E-04  0.9938399E+03  0.7818609E-02  0.9315327E-01
        1   -1    0    0  501    0  0.00000000000E+00  0.00000000000E+00  0.15342790033E+04  0.15342790034E+04  0.50400001928E-02 0. -1.
       -1   -1    0    0    0  501  0.00000000000E+00  0.00000000000E+00 -0.16094167294E+03  0.16094167302E+03  0.50400001928E-02 0.  1.
    10030    2    1    2    0    0  0.00000000000E+00  0.00000000000E+00  0.13733373304E+04  0.16952206764E+04  0.99383988574E+03 0.  0.
        4    1    3    3  502    0  0.15470167924E+03 -0.32506487181E+03  0.12709348067E+04  0.13209378018E+04  0.12699999809E+01 0. -1.
       -4    1    3    3    0  502 -0.15470167924E+03  0.32506487181E+03  0.10240252374E+03  0.37428287459E+03  0.12699999809E+01 0.  1.
</event>
<event>
 5   0  0.1006749E-03  0.1002075E+04  0.7818609E-02  0.9306272E-01
       -2   -1    0    0    0  501  0.00000000000E+00  0.00000000000E+00  0.37967032264E+03  0.37967032265E+03  0.25500000920E-02 0.  1.
        2   -1    0    0  501    0  0.00000000000E+00  0.00000000000E+00 -0.66120104959E+03  0.66120104960E+03  0.25500000920E-02 0. -1.
    10030    2    1    2    0    0  0.00000000000E+00  0.00000000000E+00 -0.28153072695E+03  0.10408713722E+04  0.10020746795E+04 0.  0.
        1    1    3    3  502    0  0.11474193714E+03  0.46946057999E+03 -0.34367375680E+01  0.48329158848E+03  0.50400001928E-02 0.  1.
       -1    1    3    3    0  502 -0.11474193714E+03 -0.46946057999E+03 -0.27809398939E+03  0.55757978377E+03  0.50400001928E-02 0. -1.
</event>
<event>
 5   0  0.5758786E-04  0.9963838E+03  0.7818609E-02  0.9312520E-01
        1   -1    0    0  501    0  0.00000000000E+00  0.00000000000E+00  0.12079091502E+04  0.12079091502E+04  0.50400001928E-02 0.  1.
       -1   -1    0    0    0  501  0.00000000000E+00  0.00000000000E+00 -0.20547501399E+03  0.20547501405E+03  0.50400001928E-02 0. -1.
    10030    2    1    2    0    0  0.00000000000E+00  0.00000000000E+00  0.10024341362E+04  0.14133841642E+04  0.99638376056E+03 0.  0.
        3    1    3    3  502    0  0.23450392954E+02  0.11541413053E+03 -0.18544444337E+03  0.21968157463E+03  0.10100000352E+00 0. -1.
       -3    1    3    3    0  502 -0.23450392954E+02 -0.11541413053E+03  0.11878785795E+04  0.11937025896E+04  0.10100000352E+00 0.  1.
</event>
<event>
 5   0  0.9674819E-04  0.1001248E+04  0.7818609E-02  0.9307177E-01
        2   -1    0    0  501    0  0.00000000000E+00  0.00000000000E+00  0.79251374389E+03  0.79251374390E+03  0.25500000920E-02 0. -1.
       -2   -1    0    0    0  501  0.00000000000E+00  0.00000000000E+00 -0.31623966885E+03  0.31623966886E+03  0.25500000920E-02 0.  1.
    10030    2    1    2    0    0  0.00000000000E+00  0.00000000000E+00  0.47627407504E+03  0.11087534128E+04  0.10012477894E+04 0.  0.
        4    1    3    3  502    0 -0.45032721176E+03  0.18125162960E+03  0.10262116761E+03  0.49616475875E+03  0.12699999809E+01 0.  1.
       -4    1    3    3    0  502  0.45032721176E+03 -0.18125162960E+03  0.37365290743E+03  0.61258865401E+03  0.12699999809E+01 0. -1.
</event>
<event>
 5   0  0.3854625E-04  0.1000287E+04  0.7818609E-02  0.9308230E-01
        3   -1    0    0  501    0  0.00000000000E+00  0.00000000000E+00  0.59637807643E+03  0.59637808498E+03  0.10100000352E+00 0. -1.
       -3   -1    0    0    0  501  0.00000000000E+00  0.00000000000E+00 -0.41943749040E+03  0.41943750256E+03  0.10100000352E+00 0.  1.
    10030    2    1    2    0    0  0.00000000000E+00  0.00000000000E+00  0.17694058603E+03  0.10158155875E+04  0.10002866274E+04 0.  0.
        1    1    3    3  502    0  0.82886871013E+02  0.13826350685E+03  0.56927187499E+03  0.59165657133E+03  0.50400001928E-02 0. -1.
       -1    1    3    3    0  502 -0.82886871013E+02 -0.13826350685E+03 -0.39233128896E+03  0.42415901621E+03  0.50400001928E-02 0.  1.
</event>
<event>
 5   0  0.9674819E-04  0.1000446E+04  0.7818609E-02  0.9308056E-01
       -2   -1    0    0    0  501  0.00000000000E+00  0.00000000000E+00  0.17274832827E+03  0.17274832829E+03  0.25500000920E-02 0. -1.
        2   -1    0    0  501    0  0.00000000000E+00  0.00000000000E+00 -0.14484826303E+04  0.14484826303E+04  0.25500000920E-02 0.  1.
    10030    2    1    2    0    0  0.00000000000E+00  0.00000000000E+00 -0.12757343020E+04  0.16212309586E+04  0.10004458065E+04 0.  0.
        4    1    3    3  502    0  0.12867684803E+03  0.11667090174E+03 -0.13980419994E+04  0.14087912818E+04  0.12699999809E+01 0.  1.
       -4    1    3    3    0  502 -0.12867684803E+03 -0.11667090174E+03  0.12230769741E+03  0.21243967680E+03  0.12699999809E+01 0. -1.
</event>
<event>
 5   0  0.1020150E-03  0.9992983E+03  0.7818609E-02  0.9309315E-01
        2   -1    0    0  501    0  0.00000000000E+00  0.00000000000E+00  0.16787082409E+04  0.16787082409E+04  0.25500000920E-02 0. -1.
       -2   -1    0    0    0  501  0.00000000000E+00  0.00000000000E+00 -0.14871512019E+03  0.14871512021E+03  0.25500000920E-02 0.  1.
    10030    2    1    2    0    0  0.00000000000E+00  0.00000000000E+00  0.15299931207E+04  0.18274233611E+04  0.99929834950E+03 0.  0.
        5    1    3    3  502    0  0.38351378397E+03  0.31370043563E+03  0.88260985697E+03  0.10121823133E+04  0.46999998093E+01 0. -1.
       -5    1    3    3    0  502 -0.38351378397E+03 -0.31370043563E+03  0.64738326373E+03  0.81524104777E+03  0.46999998093E+01 0.  1.
</event>
<event>
 5   0  0.1006006E-03  0.9999580E+03  0.7818609E-02  0.9308591E-01
       -2   -1    0    0    0  501  0.00000000000E+00  0.00000000000E+00  0.86266360232E+03  0.86266360233E+03  0.25500000920E-02 0.  1.
        2   -1    0    0  501    0  0.00000000000E+00  0.00000000000E+00 -0.28977573573E+03  0.28977573574E+03  0.25500000920E-02 0. -1.
    10030    2    1    2    0    0  0.00000000000E+00  0.00000000000E+00  0.57288786659E+03  0.11524393381E+04  0.99995795924E+03 0.  0.
        2    1    3    3  502    0 -0.49308336205E+02 -0.34842462849E+03 -0.12288875250E+03  0.37273674256E+03  0.25500000920E-02 0. -1.
       -2    1    3    3    0  502  0.49308336205E+02  0.34842462849E+03  0.69577661909E+03  0.77970259551E+03  0.25500000920E-02 0.  1.
</event>
<event>
 5   0  0.9741826E-04  0.9981637E+03  0.7818609E-02  0.9310561E-01
       -2   -1    0    0    0  501  0.00000000000E+00  0.00000000000E+00  0.29241146683E+03  0.29241146684E+03  0.25500000920E-02 0.  1.
        2   -1    0    0  501    0  0.00000000000E+00  0.00000000000E+00 -0.85182251092E+03  0.85182251092E+03  0.25500000920E-02 0. -1.
    10030    2    1    2    0    0  0.00000000000E+00  0.00000000000E+00 -0.55941104409E+03  0.11442339778E+04  0.99816365372E+03 0.  0.
        3    1    3    3  502    0 -0.13717926098E+03  0.47047240368E+03 -0.38797375577E+03  0.62504886020E+03  0.10100000352E+00 0.  1.
       -3    1    3    3    0  502  0.13717926098E+03 -0.47047240368E+03 -0.17143728832E+03  0.51918511756E+03  0.10100000352E+00 0. -1.
</event>
<event>
 5   0  0.9741826E-04  0.1001590E+04  0.7818609E-02  0.9306802E-01
       -2   -1    0    0    0  501  0.00000000000E+00  0.00000000000E+00  0.77461740273E+03  0.77461740273E+03  0.25500000920E-02 0.  1.
        2   -1    0    0  501    0  0.00000000000E+00  0.00000000000E+00 -0.32376723479E+03  0.32376723480E+03  0.25500000920E-02 0. -1.
    10030    2    1    2    0    0  0.00000000000E+00  0.00000000000E+00  0.45085016794E+03  0.10983846375E+04  0.10015902046E+04 0.  0.
        3    1    3    3  502    0  0.44628989180E+03 -0.89651945851E+02 -0.35171196793E+01  0.45521919912E+03  0.10100000352E+00 0. -1.
       -3    1    3    3    0  502 -0.44628989180E+03  0.89651945851E+02  0.45436728761E+03  0.64316543841E+03  0.10100000352E+00 0.  1.
</event>
<event>
 5   0  0.1006006E-03  0.1002924E+04  0.7818609E-02  0.9305343E-01
        2   -1    0    0  501    0  0.00000000000E+00  0.00000000000E+00  0.98707043052E+03  0.98707043052E+03  0.25500000920E-02 0. -1.
       -2   -1    0    0    0  501  0.00000000000E+00  0.00000000000E+00 -0.25475812339E+03  0.25475812340E+03  0.25500000920E-02 0.  1.
    10030    2    1    2    0    0  0.00000000000E+00  0.00000000000E+00  0.73231230713E+03  0.12418285539E+04  0.10029241458E+04 0.  0.
        2    1    3    3  502    0 -0.42972820659E+03 -0.93400787582E+02  0.67765602099E+02  0.44495192493E+03  0.25500000920E-02 0.  1.
       -2    1    3    3    0  502  0.42972820659E+03  0.93400787582E+02  0.66454670503E+03  0.79687662900E+03  0.25500000920E-02 0. -1.
</event>
<event>
 5   0  0.3854625E-04  0.9992271E+03  0.7818609E-02  0.9309393E-01
        3   -1    0    0  501    0  0.00000000000E+00  0.00000000000E+00  0.78568371282E+03  0.78568371931E+03  0.10100000352E+00 0. -1.
       -3   -1    0    0    0  501  0.00000000000E+00  0.00000000000E+00 -0.31770247752E+03  0.31770249357E+03  0.10100000352E+00 0.  1.
    10030    2    1    2    0    0  0.00000000000E+00  0.00000000000E+00  0.46798123530E+03  0.11033862129E+04  0.99922705037E+03 0.  0.
        4    1    3    3  502    0 -0.25780571046E+03  0.41087373432E+03  0.10179946095E+03  0.49562662665E+03  0.12699999809E+01 0.  1.
       -4    1    3    3    0  502  0.25780571046E+03 -0.41087373432E+03  0.36618177435E+03  0.60775958624E+03  0.12699999809E+01 0. -1.
</event>
<event>
 5   0  0.3854625E-04  0.1000033E+04  0.7818609E-02  0.9308509E-01
       -4   -1    0    0    0  501  0.00000000000E+00  0.00000000000E+00  0.36695183401E+03  0.36695403171E+03  0.12699999809E+01 0.  1.
        4   -1    0    0  501    0  0.00000000000E+00  0.00000000000E+00 -0.68132815705E+03  0.68132934069E+03  0.12699999809E+01 0. -1.
    10030    2    1    2    0    0  0.00000000000E+00  0.00000000000E+00 -0.31437632304E+03  0.10482833724E+04  0.10000327776E+04 0.  0.
        2    1    3    3  502    0  0.95470944196E+00  0.14958790941E+03 -0.65732372209E+03  0.67413049905E+03  0.25500000920E-02 0. -1.
       -2    1    3    3    0  502 -0.95470944196E+00 -0.14958790941E+03  0.34294739906E+03  0.37415287335E+03  0.25500000920E-02 0.  1.
</event>
<event>
 5   0  0.9741826E-04  0.9995154E+03  0.7818609E-02  0.9309076E-01
        2   -1    0    0  501    0  0.00000000000E+00  0.00000000000E+00  0.15656999455E+04  0.15656999455E+04  0.25500000920E-02 0.  1.
       -2   -1    0    0    0  501  0.00000000000E+00  0.00000000000E+00 -0.15951827579E+03  0.15951827581E+03  0.25500000920E-02 0. -1.
    10030    2    1    2    0    0  0.00000000000E+00  0.00000000000E+00  0.14061816697E+04  0.17252182213E+04  0.99951539404E+03 0.  0.
        3    1    3    3  502    0  0.17331414849E+03 -0.39795320515E+03  0.11306272895E+04  0.12110832446E+04  0.10100000352E+00 0. -1.
       -3    1    3    3    0  502 -0.17331414849E+03  0.39795320515E+03  0.27555438020E+03  0.51413497664E+03  0.10100000352E+00 0.  1.
</event>
<event>
 5   0  0.5768102E-04  0.1009439E+04  0.7818609E-02  0.9298253E-01
        1   -1    0    0  501    0  0.00000000000E+00  0.00000000000E+00  0.37275312809E+03  0.37275312813E+03  0.50400001928E-02 0. -1.
       -1   -1    0    0    0  501  0.00000000000E+00  0.00000000000E+00 -0.68340572354E+03  0.68340572356E+03  0.50400001928E-02 0.  1.
    10030    2    1    2    0    0  0.00000000000E+00  0.00000000000E+00 -0.31065259545E+03  0.10561588517E+04  0.10094386980E+04 0.  0.
        4    1    3    3  502    0  0.29142564076E+01  0.46736611552E+03  0.44018623363E+02  0.46944523741E+03  0.12699999809E+01 0. -1.
       -4    1    3    3    0  502 -0.29142564076E+01 -0.46736611552E+03 -0.35467121881E+03  0.58671361428E+03  0.12699999809E+01 0.  1.
</event>
<event>
 5   0  0.1006749E-03  0.1001314E+04  0.7818609E-02  0.9307105E-01
       -2   -1    0    0    0  501  0.00000000000E+00  0.00000000000E+00  0.17665582688E+03  0.17665582690E+03  0.25500000920E-02 0. -1.
        2   -1    0    0  501    0  0.00000000000E+00  0.00000000000E+00 -0.14189013732E+04  0.14189013732E+04  0.25500000920E-02 0.  1.
    10030    2    1    2    0    0  0.00000000000E+00  0.00000000000E+00 -0.12422455464E+04  0.15955572001E+04  0.10013135281E+04 0.  0.
        1    1    3    3  502    0  0.14832196661E+03 -0.45970467254E+03 -0.41135725324E+03  0.63446243510E+03  0.50400001928E-02 0.  1.
       -1    1    3    3    0  502 -0.14832196661E+03  0.45970467254E+03 -0.83088829312E+03  0.96109476505E+03  0.50400001928E-02 0. -1.
</event>
<event>
 5   0  0.1006006E-03  0.9999583E+03  0.7818609E-02  0.9308590E-01
        2   -1    0    0  501    0  0.00000000000E+00  0.00000000000E+00  0.61831689734E+03  0.61831689734E+03  0.25500000920E-02 0. -1.
       -2   -1    0    0    0  501  0.00000000000E+00  0.00000000000E+00 -0.40428973285E+03  0.40428973286E+03  0.25500000920E-02 0.  1.
    10030    2    1    2    0    0  0.00000000000E+00  0.00000000000E+00  0.21402716449E+03  0.10226066302E+04  0.99995834563E+03 0.  0.
        2    1    3    3  502    0  0.13027259068E+03  0.24061684019E+03  0.53495503169E+03  0.60086961781E+03  0.25500000920E-02 0. -1.
       -2    1    3    3    0  502 -0.13027259068E+03 -0.24061684019E+03 -0.32092786721E+03  0.42173701239E+03  0.25500000920E-02 0.  1.
</event>
<event>
 5   0  0.5888774E-04  0.1000988E+04  0.7818609E-02  0.9307461E-01
       -1   -1    0    0    0  501  0.00000000000E+00  0.00000000000E+00  0.46966599745E+03  0.46966599747E+03  0.50400001928E-02 0.  1.
        1   -1    0    0  501    0  0.00000000000E+00  0.00000000000E+00 -0.53334587590E+03  0.53334587592E+03  0.50400001928E-02 0. -1.
    10030    2    1    2    0    0  0.00000000000E+00  0.00000000000E+00 -0.63679878455E+02  0.10030118734E+04  0.10009883572E+04 0.  0.
        2    1    3    3  502    0  0.14742484765E+03 -0.25693489698E+03 -0.43607185783E+03  0.52717007900E+03  0.25500000920E-02 0. -1.
       -2    1    3    3    0  502 -0.14742484765E+03  0.25693489698E+03  0.37239197937E+03  0.47584179440E+03  0.25500000920E-02 0.  1.
</event>
<event>
 5   0  0.1020150E-03  0.1000992E+04  0.7818609E-02  0.9307458E-01
       -2   -1    0    0    0  501  0.00000000000E+00  0.00000000000E+00  0.22400049444E+03  0.22400049445E+03  0.25500000920E-02 0. -1.
        2   -1    0    0  501    0  0.00000000000E+00  0.00000000000E+00 -0.11182838302E+04  0.11182838302E+04  0.25500000920E-02 0.  1.
    10030    2    1    2    0    0  0.00000000000E+00  0.00000000000E+00 -0.89428333571E+03  0.13422843246E+04  0.10009917700E+04 0.  0.
        5    1    3    3  502    0  0.74596934673E+01  0.30140195517E+03 -0.98281100313E+03  0.10280264313E+04  0.46999998093E+01 0.  1.
       -5    1    3    3    0  502 -0.74596934673E+01 -0.30140195517E+03  0.88527667414E+02  0.31425789330E+03  0.46999998093E+01 0. -1.
</event>
<event>
 5   0  0.5758786E-04  0.1001866E+04  0.7818609E-02  0.9306501E-01
       -1   -1    0    0    0  501  0.00000000000E+00  0.00000000000E+00  0.61232227725E+03  0.61232227727E+03  0.50400001928E-02 0. -1.
        1   -1    0    0  501    0  0.00000000000E+00  0.00000000000E+00 -0.40980662723E+03  0.40980662726E+03  0.50400001928E-02 0.  1.
    10030    2    1    2    0    0  0.00000000000E+00  0.00000000000E+00  0.20251565002E+03  0.10221289045E+04  0.10018657140E+04 0.  0.
        3    1    3    3  502    0  0.37399625843E+03  0.12234716721E+03 -0.21499838568E+03  0.44840422243E+03  0.10100000352E+00 0.  1.
       -3    1    3    3    0  502 -0.37399625843E+03 -0.12234716721E+03  0.41751403570E+03  0.57372468210E+03  0.10100000352E+00 0. -1.
</event>
<event>
 5   0  0.5758786E-04  0.9975755E+03  0.7818609E-02  0.9311208E-01
       -1   -1    0    0    0  501  0.00000000000E+00  0.00000000000E+00  0.56804675475E+03  0.56804675477E+03  0.50400001928E-02 0.  1.
        1   -1    0    0  501    0  0.00000000000E+00  0.00000000000E+00 -0.43797310206E+03  0.43797310209E+03  0.50400001928E-02 0. -1.
    10030    2    1    2    0    0  0.00000000000E+00  0.00000000000E+00  0.13007365269E+03  0.10060198569E+04  0.99757545944E+03 0.  0.
        3    1    3    3  502    0  0.26022130877E+03  0.40372313032E+02 -0.36215745595E+03  0.44777570981E+03  0.10100000352E+00 0. -1.
       -3    1    3    3    0  502 -0.26022130877E+03 -0.40372313032E+02  0.49223110864E+03  0.55824414705E+03  0.10100000352E+00 0.  1.
</event>
<event>
 5   0  0.5768102E-04  0.9992920E+03  0.7818609E-02  0.9309322E-01
       -1   -1    0    0    0  501  0.00000000000E+00  0.00000000000E+00  0.21948454599E+03  0.21948454605E+03  0.50400001928E-02 0.  1.
        1   -1    0    0  501    0  0.00000000000E+00  0.00000000000E+00 -0.11374199585E+04  0.11374199585E+04  0.50400001928E-02 0. -1.
    10030    2    1    2    0    0  0.00000000000E+00  0.00000000000E+00 -0.91793541254E+03  0.13569045046E+04  0.99929195582E+03 0.  0.
        4    1    3    3  502    0  0.27127768801E+03 -0.21250473609E+03 -0.95023497542E+03  0.10107907638E+04  0.12699999809E+01 0. -1.
       -4    1    3    3    0  502 -0.27127768801E+03  0.21250473609E+03  0.32299562874E+02  0.34611374074E+03  0.12699999809E+01 0.  1.
</event>
<event>
 5   0  0.9674819E-04  0.9992063E+03  0.7818609E-02  0.9309416E-01
       -2   -1    0    0    0  501  0.00000000000E+00  0.00000000000E+00  0.49848780427E+03  0.49848780428E+03  0.25500000920E-02 0. -1.
        2   -1    0    0  501    0  0.00000000000E+00  0.00000000000E+00 -0.50072095650E+03  0.50072095651E+03  0.25500000920E-02 0.  1.
    10030    2    1    2    0    0  0.00000000000E+00  0.00000000000E+00 -0.22331522343E+01  0.99920876078E+03  0.99920626532E+03 0.  0.
        4    1    3    3  502    0 -0.12769451197E+03 -0.33467540639E+03  0.34714879261E+03  0.49882603495E+03  0.12699999809E+01 0. -1.
       -4    1    3    3    0  502  0.12769451197E+03  0.33467540639E+03 -0.34938194484E+03  0.50038272584E+03  0.12699999809E+01 0.  1.
</event>
<event>
 5   0  0.1006006E-03  0.9998910E+03  0.7818609E-02  0.9308664E-01
       -2   -1    0    0    0  501  0.00000000000E+00  0.00000000000E+00  0.65991534458E+03  0.65991534458E+03  0.25500000920E-02 0.  1.
        2   -1    0    0  501    0  0.00000000000E+00  0.00000000000E+00 -0.37875390367E+03  0.37875390368E+03  0.25500000920E-02 0. -1.
    10030    2    1    2    0    0  0.00000000000E+00  0.00000000000E+00  0.28116144090E+03  0.10386692483E+04  0.99989101978E+03 0.  0.
        2    1    3    3  502    0  0.13660431877E+03  0.47365983564E+03  0.22706291936E+03  0.54274482877E+03  0.25500000920E-02 0. -1.
       -2    1    3    3    0  502 -0.13660431877E+03 -0.47365983564E+03  0.54098521543E+02  0.49592441949E+03  0.25500000920E-02 0.  1.
</event>
<event>
 5   0  0.9674819E-04  0.1000493E+04  0.7818609E-02  0.9308004E-01
       -2   -1    0    0    0  501  0.00000000000E+00  0.00000000000E+00  0.18018049627E+03  0.18018049629E+03  0.25500000920E-02 0.  1.
        2   -1    0    0  501    0  0.00000000000E+00  0.00000000000E+00 -0.13888669597E+04  0.13888669597E+04  0.25500000920E-02 0. -1.
    10030    2    1    2    0    0  0.00000000000E+00  0.00000000000E+00 -0.12086864635E+04  0.15690474560E+04  0.10004933544E+04 0.  0.
        4    1    3    3  502    0 -0.16037442225E+03 -0.30724505552E+03 -0.11700655594E+04  0.12203173791E+04  0.12699999809E+01 0. -1.
       -4    1    3    3    0  502  0.16037442225E+03  0.30724505552E+03 -0.38620904079E+02  0.34873007697E+03  0.12699999809E+01 0.  1.
</event>
<event>
 5   0  0.1006749E-03  0.9926288E+03  0.7818609E-02  0.9316667E-01
       -2   -1    0    0    0  501  0.00000000000E+00  0.00000000000E+00  0.45698999499E+03  0.45698999500E+03  0.25500000920E-02 0.  1.
        2   -1    0    0  501    0  0.00000000000E+00  0.00000000000E+00 -0.53902268230E+03  0.53902268230E+03  0.25500000920E-02 0. -1.
    10030    2    1    2    0    0  0.00000000000E+00  0.00000000000E+00 -0.82032687303E+02  0.99601267730E+03  0.99262877832E+03 0.  0.
        1    1    3    3  502    0  0.35824377943E+03  0.32467868339E+03  0.71495834625E+02  0.48873971329E+03  0.50400001928E-02 0.  1.
       -1    1    3    3    0  502 -0.35824377943E+03 -0.32467868339E+03 -0.15352852193E+03  0.50727296401E+03  0.50400001928E-02 0. -1.
</event>
<event>
 5   0  0.9741826E-04  0.1000490E+04  0.7818609E-02  0.9308008E-01
        2   -1    0    0  501    0  0.00000000000E+00  0.00000000000E+00  0.13662460081E+04  0.13662460081E+04  0.25500000920E-02 0. -1.
       -2   -1    0    0    0  501  0.00000000000E+00  0.00000000000E+00 -0.18316233677E+03  0.18316233678E+03  0.25500000920E-02 0.  1.
    10030    2    1    2    0    0  0.00000000000E+00  0.00000000000E+00  0.11830836714E+04  0.15494083449E+04  0.10004895031E+04 0.  0.
        3    1    3    3  502    0 -0.31528634969E+03 -0.22200015612E+03  0.98022078851E+02  0.39786667334E+03  0.10100000352E+00 0.  1.
       -3    1    3    3    0  502  0.31528634969E+03  0.22200015612E+03  0.10850615925E+04  0.11515416716E+04  0.10100000352E+00 0. -1.
</event>
<event>
 5   0  0.5826939E-04  0.1001675E+04  0.7818609E-02  0.9306710E-01
        1   -1    0    0  501    0  0.00000000000E+00  0.00000000000E+00  0.11562566330E+04  0.11562566330E+04  0.50400001928E-02 0. -1.
       -1   -1    0    0    0  501  0.00000000000E+00  0.00000000000E+00 -0.21693981838E+03  0.21693981843E+03  0.50400001928E-02 0.  1.
    10030    2    1    2    0    0  0.00000000000E+00  0.00000000000E+00  0.93931681459E+03  0.13731964514E+04  0.10016748055E+04 0.  0.
        1    1    3    3  502    0 -0.80847804586E+02  0.14442554215E+03  0.11176797328E+04  0.11298686162E+04  0.50400001928E-02 0. -1.
       -1    1    3    3    0  502  0.80847804586E+02 -0.14442554215E+03 -0.17836291826E+03  0.24332783516E+03  0.50400001928E-02 0.  1.
</event>
<event>
 5   0  0.1006006E-03  0.1000020E+04  0.7818609E-02  0.9308523E-01
        2   -1    0    0  501    0  0.00000000000E+00  0.00000000000E+00  0.17928769194E+04  0.17928769194E+04  0.25500000920E-02 0.  1.
       -2   -1    0    0    0  501  0.00000000000E+00  0.00000000000E+00 -0.13944632474E+03  0.13944632476E+03  0.25500000920E-02 0. -1.
    10030    2    1    2    0    0  0.00000000000E+00  0.00000000000E+00  0.16534305947E+04  0.19323232442E+04  0.10000201941E+04 0.  0.
        2    1    3    3  502    0  0.26819088635E+03 -0.76393560066E+02  0.16286662572E+04  0.16523668191E+04  0.25500000920E-02 0.  1.
       -2    1    3    3    0  502 -0.26819088635E+03  0.76393560066E+02  0.24764337505E+02  0.27995642511E+03  0.25500000920E-02 0. -1.
</event>
<event>
 5   0  0.5888774E-04  0.9971863E+03  0.7818609E-02  0.9311636E-01
       -1   -1    0    0    0  501  0.00000000000E+00  0.00000000000E+00  0.10626114523E+03  0.10626114534E+03  0.50400001928E-02 0. -1.
        1   -1    0    0  501    0  0.00000000000E+00  0.00000000000E+00 -0.23394735810E+04  0.23394735810E+04  0.50400001928E-02 0.  1.
    10030    2    1    2    0    0  0.00000000000E+00  0.00000000000E+00 -0.22332124358E+04  0.24457347263E+04  0.99718632581E+03 0.  0.
        2    1    3    3  502    0  0.71203993519E+02 -0.33590435603E+03 -0.20032718164E+04  0.20324860923E+04  0.25500000920E-02 0.  1.
       -2    1    3    3    0  502 -0.71203993519E+02  0.33590435603E+03 -0.22994061941E+03  0.41324863406E+03  0.25500000920E-02 0. -1.
</event>
<event>
 5   0  0.9674819E-04  0.9976855E+03  0.7818609E-02  0.9311087E-01
       -2   -1    0    0    0  501  0.00000000000E+00  0.00000000000E+00  0.14046479785E+03  0.14046479788E+03  0.25500000920E-02 0. -1.
        2   -1    0    0  501    0  0.00000000000E+00  0.00000000000E+00 -0.17715763321E+04  0.17715763321E+04  0.25500000920E-02 0.  1.
    10030    2    1    2    0    0  0.00000000000E+00  0.00000000000E+00 -0.16311115342E+04  0.19120411300E+04  0.99768554443E+03 0.  0.
        4    1    3    3  502    0 -0.48536420516E+02  0.71670540851E+02 -0.17570707707E+04  0.17592020227E+04  0.12699999809E+01 0.  1.
       -4    1    3    3    0  502  0.48536420516E+02 -0.71670540851E+02  0.12595923649E+03  0.15283910723E+03  0.12699999809E+01 0. -1.
</event>
<event>
 5   0  0.9674819E-04  0.9997715E+03  0.7818609E-02  0.9308795E-01
       -2   -1    0    0    0  501  0.00000000000E+00  0.00000000000E+00  0.14669398670E+03  0.14669398672E+03  0.25500000920E-02 0.  1.
        2   -1    0    0  501    0  0.00000000000E+00  0.00000000000E+00 -0.17034492156E+04  0.17034492156E+04  0.25500000920E-02 0. -1.
    10030    2    1    2    0    0  0.00000000000E+00  0.00000000000E+00 -0.15567552289E+04  0.18501432023E+04  0.99977148708E+03 0.  0.
        4    1    3    3  502    0  0.17293575258E+03  0.61574010752E+02 -0.16388132547E+04  0.16490629551E+04  0.12699999809E+01 0. -1.
       -4    1    3    3    0  502 -0.17293575258E+03 -0.61574010752E+02  0.82058025779E+02  0.20108024720E+03  0.12699999809E+01 0.  1.
</event>
<event>
 5   0  0.5826939E-04  0.1000580E+04  0.7818609E-02  0.9307909E-01
       -1   -1    0    0    0  501  0.00000000000E+00  0.00000000000E+00  0.45465034776E+03  0.45465034779E+03  0.50400001928E-02 0.  1.
        1   -1    0    0  501    0  0.00000000000E+00  0.00000000000E+00 -0.55051069624E+03  0.55051069626E+03  0.50400001928E-02 0. -1.
    10030    2    1    2    0    0  0.00000000000E+00  0.00000000000E+00 -0.95860348474E+02  0.10051610440E+04  0.10005795911E+04 0.  0.
        1    1    3    3  502    0 -0.47793533770E+03 -0.52567416464E+02  0.90921220332E+02  0.48933852150E+03  0.50400001928E-02 0.  1.
       -1    1    3    3    0  502  0.47793533770E+03  0.52567416464E+02 -0.18678156881E+03  0.51582252255E+03  0.50400001928E-02 0. -1.
</event>
<event>
 5   0  0.5758786E-04  0.1002414E+04  0.7818609E-02  0.9305901E-01
       -1   -1    0    0    0  501  0.00000000000E+00  0.00000000000E+00  0.14799658736E+03  0.14799658745E+03  0.50400001928E-02 0. -1.
        1   -1    0    0  501    0  0.00000000000E+00  0.00000000000E+00 -0.16973928597E+04  0.16973928598E+04  0.50400001928E-02 0.  1.
    10030    2    1    2    0    0  0.00000000000E+00  0.00000000000E+00 -0.15493962724E+04  0.18453894472E+04  0.10024137883E+04 0.  0.
        3    1    3    3  502    0  0.24423401870E+03 -0.17957942784E+03 -0.15094853398E+04  0.15396249634E+04  0.10100000352E+00 0.  1.
       -3    1    3    3    0  502 -0.24423401870E+03  0.17957942784E+03 -0.39910932597E+02  0.30576448377E+03  0.10100000352E+00 0. -1.
</event>
<event>
 5   0  0.9741826E-04  0.1018617E+04  0.7818609E-02  0.9288359E-01
        2   -1    0    0  501    0  0.00000000000E+00  0.00000000000E+00  0.12396647081E+04  0.12396647081E+04  0.25500000920E-02 0.  1.
       -2   -1    0    0    0  501  0.00000000000E+00  0.00000000000E+00 -0.20924604526E+03  0.20924604527E+03  0.25500000920E-02 0. -1.
    10030    2    1    2    0    0  0.00000000000E+00  0.00000000000E+00  0.10304186628E+04  0.14489107533E+04  0.10186165866E+04 0.  0.
        3    1    3    3  502    0 -0.43836821920E+03 -0.98533379293E+02  0.17406505888E+03  0.48184455726E+03  0.10100000352E+00 0.  1.
       -3    1    3    3    0  502  0.43836821920E+03  0.98533379293E+02  0.85635360393E+03  0.96706619608E+03  0.10100000352E+00 0. -1.
</event>
<event>
 5   0  0.5960102E-04  0.1000301E+04  0.7818609E-02  0.9308214E-01
        1   -1    0    0  501    0  0.00000000000E+00  0.00000000000E+00  0.75639393664E+03  0.75639393666E+03  0.50400001928E-02 0. -1.
       -1   -1    0    0    0  501  0.00000000000E+00  0.00000000000E+00 -0.33071478125E+03  0.33071478129E+03  0.50400001928E-02 0.  1.
    10030    2    1    2    0    0  0.00000000000E+00  0.00000000000E+00  0.42567915539E+03  0.10871087180E+04  0.10003012653E+04 0.  0.
        5    1    3    3  502    0  0.40746776695E+02  0.28809336451E+03  0.65492116023E+03  0.71666024209E+03  0.46999998093E+01 0. -1.
       -5    1    3    3    0  502 -0.40746776695E+02 -0.28809336451E+03 -0.22924200484E+03  0.37044847586E+03  0.46999998093E+01 0.  1.
</event>
<event>
 5   0  0.5768102E-04  0.1000395E+04  0.7818609E-02  0.9308112E-01
        1   -1    0    0  501    0  0.00000000000E+00  0.00000000000E+00  0.56051840917E+03  0.56051840919E+03  0.50400001928E-02 0.  1.
       -1   -1    0    0    0  501  0.00000000000E+00  0.00000000000E+00 -0.44636809111E+03  0.44636809114E+03  0.50400001928E-02 0. -1.
    10030    2    1    2    0    0  0.00000000000E+00  0.00000000000E+00  0.11415031806E+03  0.10068865003E+04  0.10003949867E+04 0.  0.
        4    1    3    3  502    0  0.49616530632E+03  0.53955037743E+02  0.23621516920E+02  0.49965062420E+03  0.12699999809E+01 0.  1.
       -4    1    3    3    0  502 -0.49616530632E+03 -0.53955037743E+02  0.90528801140E+02  0.50723587613E+03  0.12699999809E+01 0. -1.
</event>
<event>
 5   0  0.9674819E-04  0.9993486E+03  0.7818609E-02  0.9309260E-01
       -2   -1    0    0    0  501  0.00000000000E+00  0.00000000000E+00  0.94517226781E+03  0.94517226781E+03  0.25500000920E-02 0. -1.
        2   -1    0    0  501    0  0.00000000000E+00  0.00000000000E+00 -0.26415756494E+03  0.26415756496E+03  0.25500000920E-02 0.  1.
    10030    2    1    2    0    0  0.00000000000E+00  0.00000000000E+00  0.68101470286E+03  0.12093298328E+04  0.99934859729E+03 0.  0.
        4    1    3    3  502    0  0.16434675876E+03 -0.45639581511E+02  0.90885071005E+03  0.92471836500E+03  0.12699999809E+01 0. -1.
       -4    1    3    3    0  502 -0.16434675876E+03  0.45639581511E+02 -0.22783600719E+03  0.28461146777E+03  0.12699999809E+01 0.  1.
</event>
<event>
 5   0  0.1006749E-03  0.1001152E+04  0.7818609E-02  0.9307282E-01
       -2   -1    0    0    0  501  0.00000000000E+00  0.00000000000E+00  0.30479880565E+03  0.30479880566E+03  0.25500000920E-02 0. -1.
        2   -1    0    0  501    0  0.00000000000E+00  0.00000000000E+00 -0.82210385803E+03  0.82210385804E+03  0.25500000920E-02 0.  1.
    10030    2    1    2    0    0  0.00000000000E+00  0.00000000000E+00 -0.51730505239E+03  0.11269026637E+04  0.10011518847E+04 0.  0.
        1    1    3    3  502    0 -0.27634894384E+03 -0.18615497832E+03 -0.67914416233E+03  0.75647816093E+03  0.50400001928E-02 0.  1.
       -1    1    3    3    0  502  0.27634894384E+03  0.18615497832E+03  0.16183910994E+03  0.37042450276E+03  0.50400001928E-02 0. -1.
</event>
<event>
 5   0  0.5888774E-04  0.1001415E+04  0.7818609E-02  0.9306994E-01
       -1   -1    0    0    0  501  0.00000000000E+00  0.00000000000E+00  0.29850333529E+03  0.29850333533E+03  0.50400001928E-02 0.  1.
        1   -1    0    0  501    0  0.00000000000E+00  0.00000000000E+00 -0.83988377626E+03  0.83988377628E+03  0.50400001928E-02 0. -1.
    10030    2    1    2    0    0  0.00000000000E+00  0.00000000000E+00 -0.54138044098E+03  0.11383871116E+04  0.10014152156E+04 0.  0.
        2    1    3    3  502    0 -0.33715727548E+03  0.28805365400E+03 -0.63845600194E+01  0.44349825097E+03  0.25500000920E-02 0.  1.
       -2    1    3    3    0  502  0.33715727548E+03 -0.28805365400E+03 -0.53499588096E+03  0.69488886064E+03  0.25500000920E-02 0. -1.
</event>
<event>
 5   0  0.1006006E-03  0.9941064E+03  0.7818609E-02  0.9315032E-01
        2   -1    0    0  501    0  0.00000000000E+00  0.00000000000E+00  0.62863312990E+03  0.62863312990E+03  0.25500000920E-02 0.  1.
       -2   -1    0    0    0  501  0.00000000000E+00  0.00000000000E+00 -0.39301442805E+03  0.39301442806E+03  0.25500000920E-02 0. -1.
    10030    2    1    2    0    0  0.00000000000E+00  0.00000000000E+00  0.23561870184E+03  0.10216475580E+04  0.99410641283E+03 0.  0.
        2    1    3    3  502    0  0.17868617905E+03 -0.33810737523E+03  0.44412216226E+03  0.58608006516E+03  0.25500000920E-02 0.  1.
       -2    1    3    3    0  502 -0.17868617905E+03  0.33810737523E+03 -0.20850346041E+03  0.43556749280E+03  0.25500000920E-02 0. -1.
</event>
<event>
 5   0  0.1006749E-03  0.1000629E+04  0.7818609E-02  0.9307855E-01
       -2   -1    0    0    0  501  0.00000000000E+00  0.00000000000E+00  0.41197646274E+03  0.41197646275E+03  0.25500000920E-02 0. -1.
        2   -1    0    0  501    0  0.00000000000E+00  0.00000000000E+00 -0.60759407918E+03  0.60759407918E+03  0.25500000920E-02 0.  1.
    10030    2    1    2    0    0  0.00000000000E+00  0.00000000000E+00 -0.19561761644E+03  0.10195705419E+04  0.10006287214E+04 0.  0.
        1    1    3    3  502    0  0.46003333166E+02 -0.93420055703E+02  0.40081227620E+03  0.41411845437E+03  0.50400001928E-02 0. -1.
       -1    1    3    3    0  502 -0.46003333166E+02  0.93420055703E+02 -0.59642989264E+03  0.60545208756E+03  0.50400001928E-02 0.  1.
</event>
<event>
 5   0  0.9741826E-04  0.1000092E+04  0.7818609E-02  0.9308444E-01
        2   -1    0    0  501    0  0.00000000000E+00  0.00000000000E+00  0.76928184480E+03  0.76928184480E+03  0.25500000920E-02 0.  1.
       -2   -1    0    0    0  501  0.00000000000E+00  0.00000000000E+00 -0.32503790851E+03  0.32503790852E+03  0.25500000920E-02 0. -1.
    10030    2    1    2    0    0  0.00000000000E+00  0.00000000000E+00  0.44424393629E+03  0.10943197533E+04  0.10000915196E+04 0.  0.
        3    1    3    3  502    0 -0.15892414607E+03  0.13287061191E+03  0.72012326181E+03  0.74932570096E+03  0.10100000352E+00 0.  1.
       -3    1    3    3    0  502  0.15892414607E+03 -0.13287061191E+03 -0.27587932552E+03  0.34499405236E+03  0.10100000352E+00 0. -1.
</event>
<event>
 5   0  0.1006006E-03  0.9990731E+03  0.7818609E-02  0.9309562E-01
        2   -1    0    0  501    0  0.00000000000E+00  0.00000000000E+00  0.89821616889E+03  0.89821616890E+03  0.25500000920E-02 0. -1.
       -2   -1    0    0    0  501  0.00000000000E+00  0.00000000000E+00 -0.27781373141E+03  0.27781373142E+03  0.25500000920E-02 0.  1.
    10030    2    1    2    0    0  0.00000000000E+00  0.00000000000E+00  0.62040243748E+03  0.11760299003E+04  0.99907314148E+03 0.  0.
        2    1    3    3  502    0 -0.17159567292E+02 -0.32950405330E+03 -0.13128882950E+03  0.35511143131E+03  0.25500000920E-02 0.  1.
       -2    1    3    3    0  502  0.17159567292E+02  0.32950405330E+03  0.75169126699E+03  0.82091846901E+03  0.25500000920E-02 0. -1.
</event>
<event>
 5   0  0.5960102E-04  0.1001788E+04  0.7818609E-02  0.9306585E-01
       -1   -1    0    0    0  501  0.00000000000E+00  0.00000000000E+00  0.73310454701E+03  0.73310454702E+03  0.50400001928E-02 0. -1.
        1   -1    0    0  501    0  0.00000000000E+00  0.00000000000E+00 -0.34223633804E+03  0.34223633808E+03  0.50400001928E-02 0.  1.
    10030    2    1    2    0    0  0.00000000000E+00  0.00000000000E+00  0.39086820896E+03  0.10753408851E+04  0.10017884320E+04 0.  0.
        5    1    3    3  502    0 -0.31825188229E+03  0.15777538042E+03  0.57448340595E+03  0.67544844730E+03  0.46999998093E+01 0. -1.
       -5    1    3    3    0  502  0.31825188229E+03 -0.15777538042E+03 -0.18361519699E+03  0.39989243780E+03  0.46999998093E+01 0.  1.
</event>
<event>
 5   0  0.9674819E-04  0.9863882E+03  0.7818609E-02  0.9323601E-01
       -2   -1    0    0    0  501  0.00000000000E+00  0.00000000000E+00  0.29760822103E+03  0.29760822104E+03  0.25500000920E-02 0. -1.
        2   -1    0    0  501    0  0.00000000000E+00  0.00000000000E+00 -0.81731750073E+03  0.81731750073E+03  0.25500000920E-02 0.  1.
    10030    2    1    2    0    0  0.00000000000E+00  0.00000000000E+00 -0.51970927970E+03  0.11149257218E+04  0.98638817392E+03 0.  0.
        4    1    3    3  502    0 -0.31984943331E+03  0.34618584350E+02  0.16267122674E+03  0.36050748575E+03  0.12699999809E+01 0. -1.
       -4    1    3    3    0  502  0.31984943331E+03 -0.34618584350E+02 -0.68238050644E+03  0.75441823602E+03  0.12699999809E+01 0.  1.
</event>
<event>
 5   0  0.5758786E-04  0.9994093E+03  0.7818609E-02  0.9309193E-01
        1   -1    0    0  501    0  0.00000000000E+00  0.00000000000E+00  0.34427571714E+03  0.34427571718E+03  0.50400001928E-02 0. -1.
       -1   -1    0    0    0  501  0.00000000000E+00  0.00000000000E+00 -0.72530451118E+03  0.72530451120E+03  0.50400001928E-02 0.  1.
    10030    2    1    2    0    0  0.00000000000E+00  0.00000000000E+00 -0.38102879404E+03  0.10695802284E+04  0.99940928705E+03 0.  0.
        3    1    3    3  502    0 -0.30999469996E+03  0.39189608283E+03 -0.19591518754E+03  0.53671409955E+03  0.10100000352E+00 0. -1.
       -3    1    3    3    0  502  0.30999469996E+03 -0.39189608283E+03 -0.18511360650E+03  0.53286612883E+03  0.10100000352E+00 0.  1.
</event>
<event>
 5   0  0.5826939E-04  0.9996094E+03  0.7818609E-02  0.9308973E-01
        1   -1    0    0  501    0  0.00000000000E+00  0.00000000000E+00  0.46343671831E+03  0.46343671833E+03  0.50400001928E-02 0.  1.
       -1   -1    0    0    0  501  0.00000000000E+00  0.00000000000E+00 -0.53902667709E+03  0.53902667712E+03  0.50400001928E-02 0. -1.
    10030    2    1    2    0    0  0.00000000000E+00  0.00000000000E+00 -0.75589958787E+02  0.10024633955E+04  0.99960943241E+03 0.  0.
        1    1    3    3  502    0 -0.45601693520E+03  0.14991760653E+03  0.10180741980E+03  0.49070508932E+03  0.50400001928E-02 0.  1.
       -1    1    3    3    0  502  0.45601693520E+03 -0.14991760653E+03 -0.17739737859E+03  0.51175830613E+03  0.50400001928E-02 0. -1.
</event>
<event>
 5   0  0.9741826E-04  0.1005038E+04  0.7818609E-02  0.9303036E-01
       -2   -1    0    0    0  501  0.00000000000E+00  0.00000000000E+00  0.21518169129E+03  0.21518169131E+03  0.25500000920E-02 0. -1.
        2   -1    0    0  501    0  0.00000000000E+00  0.00000000000E+00 -0.11735458411E+04  0.11735458411E+04  0.25500000920E-02 0.  1.
    10030    2    1    2    0    0  0.00000000000E+00  0.00000000000E+00 -0.95836414977E+03  0.13887275324E+04  0.10050384647E+04 0.  0.
        3    1    3    3  502    0 -0.35740996462E+03  0.34574806501E+03 -0.37914032649E+03  0.62532471936E+03  0.10100000352E+00 0. -1.
       -3    1    3    3    0  502  0.35740996462E+03 -0.34574806501E+03 -0.57922382328E+03  0.76340281302E+03  0.10100000352E+00 0.  1.
</event>
<event>
 5   0  0.3854625E-04  0.9999739E+03  0.7818609E-02  0.9308573E-01
        3   -1    0    0  501    0  0.00000000000E+00  0.00000000000E+00  0.19160127488E+04  0.19160127515E+04  0.10100000352E+00 0.  1.
       -3   -1    0    0    0  501  0.00000000000E+00  0.00000000000E+00 -0.13047245407E+03  0.13047249317E+03  0.10100000352E+00 0. -1.
    10030    2    1    2    0    0  0.00000000000E+00  0.00000000000E+00  0.17855402948E+04  0.20464852447E+04  0.99997385586E+03 0.  0.
        2    1    3    3  502    0  0.17789409645E+03  0.30605783482E+03  0.16153728703E+04  0.16537071137E+04  0.25500000920E-02 0.  1.
       -2    1    3    3    0  502 -0.17789409645E+03 -0.30605783482E+03  0.17016742446E+03  0.39277813096E+03  0.25500000920E-02 0. -1.
</event>
<event>
 5   0  0.5758786E-04  0.1000481E+04  0.7818609E-02  0.9308017E-01
        1   -1    0    0  501    0  0.00000000000E+00  0.00000000000E+00  0.42571085346E+03  0.42571085349E+03  0.50400001928E-02 0.  1.
       -1   -1    0    0    0  501  0.00000000000E+00  0.00000000000E+00 -0.58781850369E+03  0.58781850372E+03  0.50400001928E-02 0. -1.
    10030    2    1    2    0    0  0.00000000000E+00  0.00000000000E+00 -0.16210765023E+03  0.10135293572E+04  0.10004813180E+04 0.  0.
        3    1    3    3  502    0 -0.32607972941E+03 -0.30178451705E+03 -0.31391866137E+03  0.54400994551E+03  0.10100000352E+00 0. -1.
       -3    1    3    3    0  502  0.32607972941E+03  0.30178451705E+03  0.15181101114E+03  0.46951941170E+03  0.10100000352E+00 0.  1.
</event>
<event>
 5   0  0.5768102E-04  0.1002284E+04  0.7818609E-02  0.9306043E-01
       -1   -1    0    0    0  501  0.00000000000E+00  0.00000000000E+00  0.57032742559E+03  0.57032742561E+03  0.50400001928E-02 0.  1.
        1   -1    0    0  501    0  0.00000000000E+00  0.00000000000E+00 -0.44034959126E+03  0.44034959129E+03  0.50400001928E-02 0. -1.
    10030    2    1    2    0    0  0.00000000000E+00  0.00000000000E+00  0.12997783433E+03  0.10106770169E+04  0.10022842886E+04 0.  0.
        4    1    3    3  502    0 -0.12025415262E+03  0.42806912031E+03  0.29809035446E+03  0.53531645342E+03  0.12699999809E+01 0. -1.
       -4    1    3    3    0  502  0.12025415262E+03 -0.42806912031E+03 -0.16811252013E+03  0.47536056348E+03  0.12699999809E+01 0.  1.
</event>
<event>
 5   0  0.5960102E-04  0.1001886E+04  0.7818609E-02  0.9306478E-01
       -1   -1    0    0    0  501  0.00000000000E+00  0.00000000000E+00  0.33714710076E+03  0.33714710080E+03  0.50400001928E-02 0. -1.
        1   -1    0    0  501    0  0.00000000000E+00  0.00000000000E+00 -0.74431607507E+03  0.74431607508E+03  0.50400001928E-02 0.  1.
    10030    2    1    2    0    0  0.00000000000E+00  0.00000000000E+00 -0.40716897430E+03  0.10814631759E+04  0.10018862346E+04 0.  0.
        5    1    3    3  502    0  0.82313914997E+02  0.31359005217E+03 -0.61576117985E+03  0.69591538425E+03  0.46999998093E+01 0.  1.
       -5    1    3    3    0  502 -0.82313914997E+02 -0.31359005217E+03  0.20859220555E+03  0.38554779164E+03  0.46999998093E+01 0. -1.
</event>
<event>
 5   0  0.5768102E-04  0.9959689E+03  0.7818609E-02  0.9312977E-01
        1   -1    0    0  501    0  0.00000000000E+00  0.00000000000E+00  0.51071368298E+03  0.51071368300E+03  0.50400001928E-02 0.  1.
       -1   -1    0    0    0  501  0.00000000000E+00  0.00000000000E+00 -0.48557248888E+03  0.48557248891E+03  0.50400001928E-02 0. -1.
    10030    2    1    2    0    0  0.00000000000E+00  0.00000000000E+00  0.25141194096E+02  0.99628617191E+03  0.99596890348E+03 0.  0.
        4    1    3    3  502    0  0.10583053187E+03 -0.36957253715E+03 -0.30407871932E+03  0.49015246825E+03  0.12699999809E+01 0. -1.
       -4    1    3    3    0  502 -0.10583053187E+03  0.36957253715E+03  0.32921991341E+03  0.50613370366E+03  0.12699999809E+01 0.  1.
</event>
<event>
 5   0  0.9741826E-04  0.9997560E+03  0.7818609E-02  0.9308812E-01
        2   -1    0    0  501    0  0.00000000000E+00  0.00000000000E+00  0.44519595619E+03  0.44519595619E+03  0.25500000920E-02 0. -1.
       -2   -1    0    0    0  501  0.00000000000E+00  0.00000000000E+00 -0.56127643711E+03  0.56127643712E+03  0.25500000920E-02 0.  1.
    10030    2    1    2    0    0  0.00000000000E+00  0.00000000000E+00 -0.11608048092E+03  0.10064723933E+04  0.99975597045E+03 0.  0.
        3    1    3    3  502    0  0.23280696273E+03  0.25831682417E+03  0.30347013605E+03  0.46154176108E+03  0.10100000352E+00 0. -1.
       -3    1    3    3    0  502 -0.23280696273E+03 -0.25831682417E+03 -0.41955061698E+03  0.54493063223E+03  0.10100000352E+00 0.  1.
</event>
<event>
 5   0  0.5768102E-04  0.9994025E+03  0.7818609E-02  0.9309200E-01
        1   -1    0    0  501    0  0.00000000000E+00  0.00000000000E+00  0.41748023421E+03  0.41748023424E+03  0.50400001928E-02 0. -1.
       -1   -1    0    0    0  501  0.00000000000E+00  0.00000000000E+00 -0.59811534222E+03  0.59811534224E+03  0.50400001928E-02 0.  1.
    10030    2    1    2    0    0  0.00000000000E+00  0.00000000000E+00 -0.18063510802E+03  0.10155955765E+04  0.99940248785E+03 0.  0.
        4    1    3    3  502    0  0.27864015320E+02 -0.15364014638E+03  0.39205027993E+03  0.42200323793E+03  0.12699999809E+01 0. -1.
       -4    1    3    3    0  502 -0.27864015320E+02  0.15364014638E+03 -0.57268538794E+03  0.59359233856E+03  0.12699999809E+01 0.  1.
</event>
<event>
 5   0  0.9741826E-04  0.9969734E+03  0.7818609E-02  0.9311871E-01
        2   -1    0    0  501    0  0.00000000000E+00  0.00000000000E+00  0.69055808340E+03  0.69055808341E+03  0.25500000920E-02 0. -1.
       -2   -1    0    0    0  501  0.00000000000E+00  0.00000000000E+00 -0.35983791295E+03  0.35983791296E+03  0.25500000920E-02 0.  1.
    10030    2    1    2    0    0  0.00000000000E+00  0.00000000000E+00  0.33072017045E+03  0.10503959964E+04  0.99697337881E+03 0.  0.
        3    1    3    3  502    0 -0.16644624220E+02 -0.46655236672E+03 -0.18763662580E+02  0.46722611190E+03  0.10100000352E+00 0.  1.
       -3    1    3    3    0  502  0.16644624220E+02  0.46655236672E+03  0.34948383303E+03  0.58316988447E+03  0.10100000352E+00 0. -1.
</event>
<event>
 5   0  0.9674819E-04  0.1000438E+04  0.7818609E-02  0.9308065E-01
       -2   -1    0    0    0  501  0.00000000000E+00  0.00000000000E+00  0.49608455790E+03  0.49608455791E+03  0.25500000920E-02 0. -1.
        2   -1    0    0  501    0  0.00000000000E+00  0.00000000000E+00 -0.50438741206E+03  0.50438741206E+03  0.25500000920E-02 0.  1.
    10030    2    1    2    0    0  0.00000000000E+00  0.00000000000E+00 -0.83028541537E+01  0.10004719700E+04  0.10004375169E+04 0.  0.
        4    1    3    3  502    0  0.10416472304E+03 -0.13975908829E+02 -0.49321998191E+03  0.50429473426E+03  0.12699999809E+01 0.  1.
       -4    1    3    3    0  502 -0.10416472304E+03  0.13975908829E+02  0.48491712775E+03  0.49617723571E+03  0.12699999809E+01 0. -1.
</event>
<event>
 5   0  0.5768102E-04  0.9993776E+03  0.7818609E-02  0.9309228E-01
        1   -1    0    0  501    0  0.00000000000E+00  0.00000000000E+00  0.52915683348E+03  0.52915683350E+03  0.50400001928E-02 0.  1.
       -1   -1    0    0    0  501  0.00000000000E+00  0.00000000000E+00 -0.47186184793E+03  0.47186184796E+03  0.50400001928E-02 0. -1.
    10030    2    1    2    0    0  0.00000000000E+00  0.00000000000E+00  0.57294985543E+02  0.10010186815E+04  0.99937764897E+03 0.  0.
        4    1    3    3  502    0 -0.22935946128E+03 -0.17417699223E+03 -0.38036592522E+03  0.47709877077E+03  0.12699999809E+01 0. -1.
       -4    1    3    3    0  502  0.22935946128E+03  0.17417699223E+03  0.43766091077E+03  0.52391991069E+03  0.12699999809E+01 0.  1.
</event>
<event>
 5   0  0.5826939E-04  0.1001416E+04  0.7818609E-02  0.9306993E-01
        1   -1    0    0  501    0  0.00000000000E+00  0.00000000000E+00  0.86115399235E+03  0.86115399236E+03  0.50400001928E-02 0.  1.
       -1   -1    0    0    0  501  0.00000000000E+00  0.00000000000E+00 -0.29113075194E+03  0.29113075198E+03  0.50400001928E-02 0. -1.
    10030    2    1    2    0    0  0.00000000000E+00  0.00000000000E+00  0.57002324040E+03  0.11522847443E+04  0.10014158165E+04 0.  0.
        1    1    3    3  502    0 -0.17330554733E+03 -0.46503711937E+02  0.82288743791E+03  0.84222392714E+03  0.50400001928E-02 0.  1.
       -1    1    3    3    0  502  0.17330554733E+03  0.46503711937E+02 -0.25286419751E+03  0.31006081720E+03  0.50400001928E-02 0. -1.
</event>
<event>
 5   0  0.1006006E-03  0.1002549E+04  0.7818609E-02  0.9305754E-01
        2   -1    0    0  501    0  0.00000000000E+00  0.00000000000E+00  0.48122779656E+03  0.48122779657E+03  0.25500000920E-02 0.  1.
       -2   -1    0    0    0  501  0.00000000000E+00  0.00000000000E+00 -0.52215620019E+03  0.52215620020E+03  0.25500000920E-02 0. -1.
    10030    2    1    2    0    0  0.00000000000E+00  0.00000000000E+00 -0.40928403626E+02  0.10033839968E+04  0.10025489069E+04 0.  0.
        2    1    3    3  502    0  0.32720742073E+02 -0.37505293999E+03  0.31078085320E+03  0.48818039031E+03  0.25500000920E-02 0.  1.
       -2    1    3    3    0  502 -0.32720742073E+02  0.37505293999E+03 -0.35170925683E+03  0.51520360646E+03  0.25500000920E-02 0. -1.
</event>
<event>
 5   0  0.9741826E-04  0.9986350E+03  0.7818609E-02  0.9310043E-01
       -2   -1    0    0    0  501  0.00000000000E+00  0.00000000000E+00  0.18658390690E+03  0.18658390692E+03  0.25500000920E-02 0.  1.
        2   -1    0    0  501    0  0.00000000000E+00  0.00000000000E+00 -0.13362243540E+04  0.13362243540E+04  0.25500000920E-02 0. -1.
    10030    2    1    2    0    0  0.00000000000E+00  0.00000000000E+00 -0.11496404471E+04  0.15228082609E+04  0.99863498933E+03 0.  0.
        3    1    3    3  502    0 -0.15715340133E+03 -0.29811055487E+03 -0.12984003239E+02  0.33724722240E+03  0.10100000352E+00 0.  1.
       -3    1    3    3    0  502  0.15715340133E+03  0.29811055487E+03 -0.11366564439E+04  0.11855610385E+04  0.10100000352E+00 0. -1.
</event>
<event>
 5   0  0.5768102E-04  0.9988023E+03  0.7818609E-02  0.9309859E-01
       -1   -1    0    0    0  501  0.00000000000E+00  0.00000000000E+00  0.31731275134E+03  0.31731275138E+03  0.50400001928E-02 0.  1.
        1   -1    0    0  501    0  0.00000000000E+00  0.00000000000E+00 -0.78598016005E+03  0.78598016006E+03  0.50400001928E-02 0. -1.
    10030    2    1    2    0    0  0.00000000000E+00  0.00000000000E+00 -0.46866740871E+03  0.11032929114E+04  0.99880233703E+03 0.  0.
        4    1    3    3  502    0  0.36243093252E+03  0.32770658595E+03 -0.34834015991E+03  0.60007521797E+03  0.12699999809E+01 0.  1.
       -4    1    3    3    0  502 -0.36243093252E+03 -0.32770658595E+03 -0.12032724880E+03  0.50321769347E+03  0.12699999809E+01 0. -1.
</event>
<event>
 5   0  0.5888774E-04  0.1001060E+04  0.7818609E-02  0.9307383E-01
       -1   -1    0    0    0  501  0.00000000000E+00  0.00000000000E+00  0.28161504498E+03  0.28161504503E+03  0.50400001928E-02 0. -1.
        1   -1    0    0  501    0  0.00000000000E+00  0.00000000000E+00 -0.88961903549E+03  0.88961903550E+03  0.50400001928E-02 0.  1.
    10030    2    1    2    0    0  0.00000000000E+00  0.00000000000E+00 -0.60800399051E+03  0.11712340805E+04  0.10010596480E+04 0.  0.
        2    1    3    3  502    0 -0.34116967174E+03 -0.21954401074E+03  0.38975576510E+02  0.40757258634E+03  0.25500000920E-02 0. -1.
       -2    1    3    3    0  502  0.34116967174E+03  0.21954401074E+03 -0.64697956702E+03  0.76366149419E+03  0.25500000920E-02 0.  1.
</event>
<event>
 5   0  0.5826939E-04  0.1000813E+04  0.7818609E-02  0.9307654E-01
        1   -1    0    0  501    0  0.00000000000E+00  0.00000000000E+00  0.49782311897E+03  0.49782311900E+03  0.50400001928E-02 0. -1.
       -1   -1    0    0    0  501  0.00000000000E+00  0.00000000000E+00 -0.50300324195E+03  0.50300324197E+03  0.50400001928E-02 0.  1.
    10030    2    1    2    0    0  0.00000000000E+00  0.00000000000E+00 -0.51801229759E+01  0.10008263610E+04  0.10008129551E+04 0.  0.
        1    1    3    3  502    0  0.27957849784E+03  0.20518160398E+03 -0.36334829388E+03  0.50228040949E+03  0.50400001928E-02 0.  1.
       -1    1    3    3    0  502 -0.27957849784E+03 -0.20518160398E+03  0.35816817091E+03  0.49854595148E+03  0.50400001928E-02 0. -1.
</event>
<event>
 5   0  0.1006006E-03  0.1000438E+04  0.7818609E-02  0.9308064E-01
       -2   -1    0    0    0  501  0.00000000000E+00  0.00000000000E+00  0.16241996375E+03  0.16241996377E+03  0.25500000920E-02 0. -1.
        2   -1    0    0  501    0  0.00000000000E+00  0.00000000000E+00 -0.15405691361E+04  0.15405691361E+04  0.25500000920E-02 0.  1.
    10030    2    1    2    0    0  0.00000000000E+00  0.00000000000E+00 -0.13781491724E+04  0.17029890999E+04  0.10004382705E+04 0.  0.
        2    1    3    3  502    0 -0.19921702552E+03  0.11203920049E+03  0.68335545031E+02  0.23855806929E+03  0.25500000920E-02 0. -1.
       -2    1    3    3    0  502  0.19921702552E+03 -0.11203920049E+03 -0.14464847174E+04  0.14644310306E+04  0.25500000920E-02 0.  1.
</event>
<event>
 5   0  0.5960102E-04  0.9948641E+03  0.7818609E-02  0.9314196E-01
        1   -1    0    0  501    0  0.00000000000E+00  0.00000000000E+00  0.45970216352E+03  0.45970216354E+03  0.50400001928E-02 0. -1.
       -1   -1    0    0    0  501  0.00000000000E+00  0.00000000000E+00 -0.53825863722E+03  0.53825863725E+03  0.50400001928E-02 0.  1.
    10030    2    1    2    0    0  0.00000000000E+00  0.00000000000E+00 -0.78556473708E+02  0.99796080079E+03  0.99486413160E+03 0.  0.
        5    1    3    3  502    0 -0.49233873534E+03  0.41803652812E+02  0.18097653355E+02  0.49446394283E+03  0.46999998093E+01 0.  1.
       -5    1    3    3    0  502  0.49233873534E+03 -0.41803652812E+02 -0.96654127063E+02  0.50349685796E+03  0.46999998093E+01 0. -1.
</event>
<event>
 5   0  0.5758786E-04  0.1001595E+04  0.7818609E-02  0.9306797E-01
       -1   -1    0    0    0  501  0.00000000000E+00  0.00000000000E+00  0.27660927513E+03  0.27660927517E+03  0.50400001928E-02 0.  1.
        1   -1    0    0  501    0  0.00000000000E+00  0.00000000000E+00 -0.90668682938E+03  0.90668682939E+03  0.50400001928E-02 0. -1.
    10030    2    1    2    0    0  0.00000000000E+00  0.00000000000E+00 -0.63007755425E+03  0.11832961046E+04  0.10015947018E+04 0.  0.
        3    1    3    3  502    0  0.93363849317E+02 -0.22585525762E+03 -0.83145314476E+03  0.86662664850E+03  0.10100000352E+00 0. -1.
       -3    1    3    3    0  502 -0.93363849317E+02  0.22585525762E+03  0.20137559051E+03  0.31666945607E+03  0.10100000352E+00 0.  1.
</event>
<event>
 5   0  0.9741826E-04  0.9997250E+03  0.7818609E-02  0.9308847E-01
        2   -1    0    0  501    0  0.00000000000E+00  0.00000000000E+00  0.53010630837E+03  0.53010630838E+03  0.25500000920E-02 0.  1.
       -2   -1    0    0    0  501  0.00000000000E+00  0.00000000000E+00 -0.47134412766E+03  0.47134412767E+03  0.25500000920E-02 0. -1.
    10030    2    1    2    0    0  0.00000000000E+00  0.00000000000E+00  0.58762180712E+02  0.10014504360E+04  0.99972495317E+03 0.  0.
        3    1    3    3  502    0  0.31656233594E+03 -0.36370161211E+03 -0.10264893735E+03  0.49297808240E+03  0.10100000352E+00 0. -1.
       -3    1    3    3    0  502 -0.31656233594E+03  0.36370161211E+03  0.16141111806E+03  0.50847235365E+03  0.10100000352E+00 0.  1.
</event>
<event>
 5   0  0.9741826E-04  0.9967074E+03  0.7818609E-02  0.9312163E-01
        2   -1    0    0  501    0  0.00000000000E+00  0.00000000000E+00  0.95339292255E+03  0.95339292255E+03  0.25500000920E-02 0. -1.
       -2   -1    0    0    0  501  0.00000000000E+00  0.00000000000E+00 -0.26049743024E+03  0.26049743025E+03  0.25500000920E-02 0.  1.
    10030    2    1    2    0    0  0.00000000000E+00  0.00000000000E+00  0.69289549231E+03  0.12138903528E+04  0.99670739205E+03 0.  0.
        3    1    3    3  502    0 -0.51899500917E+02 -0.34796882875E+03  0.77631748305E+03  0.85231725823E+03  0.10100000352E+00 0.  1.
       -3    1    3    3    0  502  0.51899500917E+02  0.34796882875E+03 -0.83421990745E+02  0.36157309457E+03  0.10100000352E+00 0. -1.
</event>
<event>
 5   0  0.5826939E-04  0.9996148E+03  0.7818609E-02  0.9308967E-01
       -1   -1    0    0    0  501  0.00000000000E+00  0.00000000000E+00  0.23920962716E+03  0.23920962722E+03  0.50400001928E-02 0. -1.
        1   -1    0    0  501    0  0.00000000000E+00  0.00000000000E+00 -0.10443033673E+04  0.10443033673E+04  0.50400001928E-02 0.  1.
    10030    2    1    2    0    0  0.00000000000E+00  0.00000000000E+00 -0.80509374017E+03  0.12835129946E+04  0.99961476417E+03 0.  0.
        1    1    3    3  502    0  0.31142181345E+03  0.34844422389E+03 -0.63011162826E+03  0.78449830283E+03  0.50400001928E-02 0.  1.
       -1    1    3    3    0  502 -0.31142181345E+03 -0.34844422389E+03 -0.17498211191E+03  0.49901469173E+03  0.50400001928E-02 0. -1.
</event>
<event>
 5   0  0.1006749E-03  0.1007943E+04  0.7818609E-02  0.9299875E-01
       -2   -1    0    0    0  501  0.00000000000E+00  0.00000000000E+00  0.33816790435E+03  0.33816790436E+03  0.25500000920E-02 0. -1.
        2   -1    0    0  501    0  0.00000000000E+00  0.00000000000E+00 -0.75106921759E+03  0.75106921759E+03  0.25500000920E-02 0.  1.
    10030    2    1    2    0    0  0.00000000000E+00  0.00000000000E+00 -0.41290131324E+03  0.10892371220E+04  0.10079434574E+04 0.  0.
        1    1    3    3  502    0 -0.34448135238E+03  0.15637593582E+03 -0.56627186792E+03  0.68101737413E+03  0.50400001928E-02 0.  1.
       -1    1    3    3    0  502  0.34448135238E+03 -0.15637593582E+03  0.15337055468E+03  0.40821974782E+03  0.50400001928E-02 0. -1.
</event>
<event>
 5   0  0.5888774E-04  0.9953192E+03  0.7818609E-02  0.9313694E-01
       -1   -1    0    0    0  501  0.00000000000E+00  0.00000000000E+00  0.49431310362E+03  0.49431310365E+03  0.50400001928E-02 0.  1.
        1   -1    0    0  501    0  0.00000000000E+00  0.00000000000E+00 -0.50102877055E+03  0.50102877057E+03  0.50400001928E-02 0. -1.
    10030    2    1    2    0    0  0.00000000000E+00  0.00000000000E+00 -0.67156669248E+01  0.99534187422E+03  0.99531921834E+03 0.  0.
        2    1    3    3  502    0 -0.16706162157E+03  0.44617477599E+03 -0.14717894490E+03  0.49864131192E+03  0.25500000920E-02 0. -1.
       -2    1    3    3    0  502  0.16706162157E+03 -0.44617477599E+03  0.14046327797E+03  0.49670056230E+03  0.25500000920E-02 0.  1.
</event>
<event>
 5   0  0.5826939E-04  0.9991565E+03  0.7818609E-02  0.9309470E-01
        1   -1    0    0  501    0  0.00000000000E+00  0.00000000000E+00  0.19136186456E+04  0.19136186456E+04  0.50400001928E-02 0. -1.
       -1   -1    0    0    0  501  0.00000000000E+00  0.00000000000E+00 -0.13042224181E+03  0.13042224190E+03  0.50400001928E-02 0.  1.
    10030    2    1    2    0    0  0.00000000000E+00  0.00000000000E+00  0.17831964038E+04  0.20440408875E+04  0.99915651192E+03 0.  0.
        1    1    3    3  502    0  0.45191525243E+02 -0.15157851046E+03 -0.77844993619E+02  0.17628999360E+03  0.50400001928E-02 0.  1.
       -1    1    3    3    0  502 -0.45191525243E+02  0.15157851046E+03  0.18610413974E+04  0.18677508939E+04  0.50400001928E-02 0. -1.
</event>
<event>
 5   0  0.3854625E-04  0.9983307E+03  0.7818609E-02  0.9310378E-01
       -4   -1    0    0    0  501  0.00000000000E+00  0.00000000000E+00  0.73407326285E+03  0.73407436144E+03  0.12699999809E+01 0.  1.
        4   -1    0    0  501    0  0.00000000000E+00  0.00000000000E+00 -0.33942684101E+03  0.33942921692E+03  0.12699999809E+01 0. -1.
    10030    2    1    2    0    0  0.00000000000E+00  0.00000000000E+00  0.39464642184E+03  0.10735035784E+04  0.99833067392E+03 0.  0.
        4    1    3    3  502    0 -0.24097068708E+03 -0.85690763654E+02  0.65826728973E+03  0.70620621396E+03  0.12699999809E+01 0.  1.
       -4    1    3    3    0  502  0.24097068708E+03  0.85690763654E+02 -0.26362086789E+03  0.36729736440E+03  0.12699999809E+01 0. -1.
</event>
<event>
 5   0  0.1006749E-03  0.1003124E+04  0.7818609E-02  0.9305125E-01
       -2   -1    0    0    0  501  0.00000000000E+00  0.00000000000E+00  0.36792829528E+03  0.36792829529E+03  0.25500000920E-02 0. -1.
        2   -1    0    0  501    0  0.00000000000E+00  0.00000000000E+00 -0.68373282530E+03  0.68373282530E+03  0.25500000920E-02 0.  1.
    10030    2    1    2    0    0  0.00000000000E+00  0.00000000000E+00 -0.31580453002E+03  0.10516611206E+04  0.10031244247E+04 0.  0.
        1    1    3    3  502    0 -0.46133048407E+03  0.19513035485E+03 -0.13090797852E+03  0.51772441490E+03  0.50400001928E-02 0. -1.
       -1    1    3    3    0  502  0.46133048407E+03 -0.19513035485E+03 -0.18489655149E+03  0.53393670570E+03  0.50400001928E-02 0.  1.
</event>
<event>
 5   0  0.5888774E-04  0.9981022E+03  0.7818609E-02  0.9310629E-01
       -1   -1    0    0    0  501  0.00000000000E+00  0.00000000000E+00  0.61716611773E+03  0.61716611775E+03  0.50400001928E-02 0.  1.
        1   -1    0    0  501    0  0.00000000000E+00  0.00000000000E+00 -0.40354130054E+03  0.40354130057E+03  0.50400001928E-02 0. -1.
    10030    2    1    2    0    0  0.00000000000E+00  0.00000000000E+00  0.21362481720E+03  0.10207074183E+04  0.99810223489E+03 0.  0.
        2    1    3    3  502    0 -0.19009506769E+03  0.46108115208E+03  0.88517171416E+02  0.50652468173E+03  0.25500000920E-02 0.  1.
       -2    1    3    3    0  502  0.19009506769E+03 -0.46108115208E+03  0.12510764578E+03  0.51418273659E+03  0.25500000920E-02 0. -1.
</event>
<event>
 5   0  0.5888774E-04  0.1011669E+04  0.7818609E-02  0.9295839E-01
        1   -1    0    0  501    0  0.00000000000E+00  0.00000000000E+00  0.70997673638E+03  0.70997673640E+03  0.50400001928E-02 0. -1.
       -1   -1    0    0    0  501  0.00000000000E+00  0.00000000000E+00 -0.36038972663E+03  0.36038972666E+03  0.50400001928E-02 0.  1.
    10030    2    1    2    0    0  0.00000000000E+00  0.00000000000E+00  0.34958700976E+03  0.10703664631E+04  0.10116685662E+04 0.  0.
        2    1    3    3  502    0 -0.19935600965E+03  0.38775882885E+02 -0.31535907112E+03  0.37509696269E+03  0.25500000920E-02 0.  1.
       -2    1    3    3    0  502  0.19935600965E+03 -0.38775882885E+02  0.66494608087E+03  0.69526950038E+03  0.25500000920E-02 0. -1.
</event>
<event>
 5   0  0.1006006E-03  0.9998299E+03  0.7818609E-02  0.9308731E-01
       -2   -1    0    0    0  501  0.00000000000E+00  0.00000000000E+00  0.40016022743E+03  0.40016022744E+03  0.25500000920E-02 0.  1.
        2   -1    0    0  501    0  0.00000000000E+00  0.00000000000E+00 -0.62453718001E+03  0.62453718001E+03  0.25500000920E-02 0. -1.
    10030    2    1    2    0    0  0.00000000000E+00  0.00000000000E+00 -0.22437695258E+03  0.10246974074E+04  0.99982986552E+03 0.  0.
        2    1    3    3  502    0  0.46600151297E+03 -0.12395717998E+03  0.22970886712E+02  0.48275299502E+03  0.25500000920E-02 0.  1.
       -2    1    3    3    0  502 -0.46600151297E+03  0.12395717998E+03 -0.24734783929E+03  0.54194441243E+03  0.25500000920E-02 0. -1.
</event>
<event>
 5   0  0.3854625E-04  0.1002574E+04  0.7818609E-02  0.9305726E-01
        3   -1    0    0  501    0  0.00000000000E+00  0.00000000000E+00  0.11301584802E+04  0.11301584847E+04  0.10100000352E+00 0.  1.
       -3   -1    0    0    0  501  0.00000000000E+00  0.00000000000E+00 -0.22234804815E+03  0.22234807109E+03  0.10100000352E+00 0. -1.
    10030    2    1    2    0    0  0.00000000000E+00  0.00000000000E+00  0.90781043200E+03  0.13525065558E+04  0.10025737893E+04 0.  0.
        3    1    3    3  502    0 -0.45462234342E+03 -0.21065603845E+03  0.47441315111E+03  0.69001832571E+03  0.10100000352E+00 0.  1.
       -3    1    3    3    0  502  0.45462234342E+03  0.21065603845E+03  0.43339728089E+03  0.66248823005E+03  0.10100000352E+00 0. -1.
</event>
<event>
 5   0  0.5758786E-04  0.1000042E+04  0.7818609E-02  0.9308499E-01
       -1   -1    0    0    0  501  0.00000000000E+00  0.00000000000E+00  0.47637747085E+03  0.47637747087E+03  0.50400001928E-02 0. -1.
        1   -1    0    0  501    0  0.00000000000E+00  0.00000000000E+00 -0.52483811203E+03  0.52483811205E+03  0.50400001928E-02 0.  1.
    10030    2    1    2    0    0  0.00000000000E+00  0.00000000000E+00 -0.48460641179E+02  0.10012155829E+04  0.10000421040E+04 0.  0.
        3    1    3    3  502    0  0.38662847843E+03  0.19829991009E+03  0.22347991054E+03  0.48861816922E+03  0.10100000352E+00 0. -1.
       -3    1    3    3    0  502 -0.38662847843E+03 -0.19829991009E+03 -0.27194055172E+03  0.51259741371E+03  0.10100000352E+00 0.  1.
</event>
<event>
 5   0  0.1020150E-03  0.1001666E+04  0.7818609E-02  0.9306719E-01
        2   -1    0    0  501    0  0.00000000000E+00  0.00000000000E+00  0.88022180462E+03  0.88022180463E+03  0.25500000920E-02 0. -1.
       -2   -1    0    0    0  501  0.00000000000E+00  0.00000000000E+00 -0.28496647288E+03  0.28496647289E+03  0.25500000920E-02 0.  1.
    10030    2    1    2    0    0  0.00000000000E+00  0.00000000000E+00  0.59525533174E+03  0.11651882775E+04  0.10016660182E+04 0.  0.
        5    1    3    3  502    0  0.19325632625E+03  0.27171543747E+03 -0.13705193884E+03  0.36053101189E+03  0.46999998093E+01 0.  1.
       -5    1    3    3    0  502 -0.19325632625E+03 -0.27171543747E+03  0.73230727058E+03  0.80465726563E+03  0.46999998093E+01 0. -1.
</event>
<event>
 5   0  0.5758786E-04  0.9996980E+03  0.7818609E-02  0.9308876E-01
       -1   -1    0    0    0  501  0.00000000000E+00  0.00000000000E+00  0.48620356158E+03  0.48620356161E+03  0.50400001928E-02 0. -1.
        1   -1    0    0  501    0  0.00000000000E+00  0.00000000000E+00 -0.51387737846E+03  0.51387737849E+03  0.50400001928E-02 0.  1.
    10030    2    1    2    0    0  0.00000000000E+00  0.00000000000E+00 -0.27673816879E+02  0.10000809401E+04  0.99969797769E+03 0.  0.
        3    1    3    3  502    0 -0.25004767524E+03 -0.43261564972E+03 -0.26836546062E+02  0.50040019052E+03  0.10100000352E+00 0. -1.
       -3    1    3    3    0  502  0.25004767524E+03  0.43261564972E+03 -0.83727081739E+00  0.49968074957E+03  0.10100000352E+00 0.  1.
</event>
<event>
 5   0  0.1006006E-03  0.9993255E+03  0.7818609E-02  0.9309285E-01
        2   -1    0    0  501    0  0.00000000000E+00  0.00000000000E+00  0.62993388985E+03  0.62993388986E+03  0.25500000920E-02 0. -1.
       -2   -1    0    0    0  501  0.00000000000E+00  0.00000000000E+00 -0.39633186516E+03  0.39633186517E+03  0.25500000920E-02 0.  1.
    10030    2    1    2    0    0  0.00000000000E+00  0.00000000000E+00  0.23360202470E+03  0.10262657550E+04  0.99932551954E+03 0.  0.
        2    1    3    3  502    0 -0.12514454773E+03 -0.38550896225E+03 -0.18328276698E+03  0.44482680953E+03  0.25500000920E-02 0.  1.
       -2    1    3    3    0  502  0.12514454773E+03  0.38550896225E+03  0.41688479167E+03  0.58143894549E+03  0.25500000920E-02 0. -1.
</event>
<event>
 5   0  0.1006006E-03  0.9998656E+03  0.7818609E-02  0.9308692E-01
        2   -1    0    0  501    0  0.00000000000E+00  0.00000000000E+00  0.94272474324E+03  0.94272474325E+03  0.25500000920E-02 0.  1.
       -2   -1    0    0    0  501  0.00000000000E+00  0.00000000000E+00 -0.26511746336E+03  0.26511746337E+03  0.25500000920E-02 0. -1.
    10030    2    1    2    0    0  0.00000000000E+00  0.00000000000E+00  0.67760727988E+03  0.12078422066E+04  0.99986557613E+03 0.  0.
        2    1    3    3  502    0 -0.43368090059E+02 -0.44804438466E+03  0.60155013899E+03  0.75132358647E+03  0.25500000920E-02 0.  1.
       -2    1    3    3    0  502  0.43368090059E+02  0.44804438466E+03  0.76057140895E+02  0.45651862015E+03  0.25500000920E-02 0. -1.
</event>
<event>
 5   0  0.5826939E-04  0.9997613E+03  0.7818609E-02  0.9308807E-01
       -1   -1    0    0    0  501  0.00000000000E+00  0.00000000000E+00  0.20402193436E+03  0.20402193443E+03  0.50400001928E-02 0.  1.
        1   -1    0    0  501    0  0.00000000000E+00  0.00000000000E+00 -0.12247734252E+04  0.12247734253E+04  0.50400001928E-02 0. -1.
    10030    2    1    2    0    0  0.00000000000E+00  0.00000000000E+00 -0.10207514909E+04  0.14287953597E+04  0.99976125836E+03 0.  0.
        1    1    3    3  502    0  0.10035322765E+03  0.35354078840E+03 -0.26113959588E+02  0.36843425230E+03  0.50400001928E-02 0.  1.
       -1    1    3    3    0  502 -0.10035322765E+03 -0.35354078840E+03 -0.99463753130E+03  0.10603611074E+04  0.50400001928E-02 0. -1.
</event>
<event>
 5   0  0.9741826E-04  0.1002203E+04  0.7818609E-02  0.9306132E-01
       -2   -1    0    0    0  501  0.00000000000E+00  0.00000000000E+00  0.27747391437E+03  0.27747391438E+03  0.25500000920E-02 0.  1.
        2   -1    0    0  501    0  0.00000000000E+00  0.00000000000E+00 -0.90495884670E+03  0.90495884670E+03  0.25500000920E-02 0. -1.
    10030    2    1    2    0    0  0.00000000000E+00  0.00000000000E+00 -0.62748493233E+03  0.11824327611E+04  0.10022025215E+04 0.  0.
        3    1    3    3  502    0  0.25889351989E+03 -0.35845946649E+03 -0.35583160368E+02  0.44360479625E+03  0.10100000352E+00 0.  1.
       -3    1    3    3    0  502 -0.25889351989E+03  0.35845946649E+03 -0.59190177196E+03  0.73882796483E+03  0.10100000352E+00 0. -1.
</event>
<event>
 5   0  0.1006006E-03  0.1004136E+04  0.7818609E-02  0.9304020E-01
        2   -1    0    0  501    0  0.00000000000E+00  0.00000000000E+00  0.14957829797E+04  0.14957829798E+04  0.25500000920E-02 0.  1.
       -2   -1    0    0    0  501  0.00000000000E+00  0.00000000000E+00 -0.16852201602E+03  0.16852201604E+03  0.25500000920E-02 0. -1.
    10030    2    1    2    0    0  0.00000000000E+00  0.00000000000E+00  0.13272609637E+04  0.16643049958E+04  0.10041361726E+04 0.  0.
        2    1    3    3  502    0 -0.27167237260E+03 -0.36611279098E+03  0.31506168221E+03  0.55417354444E+03  0.25500000920E-02 0. -1.
       -2    1    3    3    0  502  0.27167237260E+03  0.36611279098E+03  0.10121992815E+04  0.11101314514E+04  0.25500000920E-02 0.  1.
</event>
<event>
 5   0  0.5758786E-04  0.9999229E+03  0.7818609E-02  0.9308629E-01
       -1   -1    0    0    0  501  0.00000000000E+00  0.00000000000E+00  0.37337107241E+03  0.37337107245E+03  0.50400001928E-02 0.  1.
        1   -1    0    0  501    0  0.00000000000E+00  0.00000000000E+00 -0.66947196102E+03  0.66947196104E+03  0.50400001928E-02 0. -1.
    10030    2    1    2    0    0  0.00000000000E+00  0.00000000000E+00 -0.29610088861E+03  0.10428430335E+04  0.99992292516E+03 0.  0.
        3    1    3    3  502    0  0.39848171750E+03  0.19188250638E+03  0.95098105176E+02  0.45238284146E+03  0.10100000352E+00 0. -1.
       -3    1    3    3    0  502 -0.39848171750E+03 -0.19188250638E+03 -0.39119899379E+03  0.59046019203E+03  0.10100000352E+00 0.  1.
</event>
<event>
 5   0  0.5758786E-04  0.1002470E+04  0.7818609E-02  0.9305840E-01
       -1   -1    0    0    0  501  0.00000000000E+00  0.00000000000E+00  0.73572097918E+03  0.73572097920E+03  0.50400001928E-02 0. -1.
        1   -1    0    0  501    0  0.00000000000E+00  0.00000000000E+00 -0.34148365413E+03  0.34148365417E+03  0.50400001928E-02 0.  1.
    10030    2    1    2    0    0  0.00000000000E+00  0.00000000000E+00  0.39423732505E+03  0.10772046334E+04  0.10024703256E+04 0.  0.
        3    1    3    3  502    0  0.20055484474E+03  0.67972945131E+02  0.68529344107E+03  0.71726541642E+03  0.10100000352E+00 0. -1.
       -3    1    3    3    0  502 -0.20055484474E+03 -0.67972945131E+02 -0.29105611602E+03  0.35993921694E+03  0.10100000352E+00 0.  1.
</event>
<event>
 5   0  0.5768102E-04  0.9961441E+03  0.7818609E-02  0.9312784E-01
       -1   -1    0    0    0  501  0.00000000000E+00  0.00000000000E+00  0.30340553525E+03  0.30340553529E+03  0.50400001928E-02 0.  1.
        1   -1    0    0  501    0  0.00000000000E+00  0.00000000000E+00 -0.81763757915E+03  0.81763757916E+03  0.50400001928E-02 0. -1.
    10030    2    1    2    0    0  0.00000000000E+00  0.00000000000E+00 -0.51423204390E+03  0.11210431145E+04  0.99614410077E+03 0.  0.
        4    1    3    3  502    0 -0.40275628792E+03 -0.19829150789E+03 -0.14330551901E+02  0.44915379012E+03  0.12699999809E+01 0.  1.
       -4    1    3    3    0  502  0.40275628792E+03  0.19829150789E+03 -0.49990149200E+03  0.67188932434E+03  0.12699999809E+01 0. -1.
</event>
<event>
 5   0  0.9741826E-04  0.1000235E+04  0.7818609E-02  0.9308287E-01
       -2   -1    0    0    0  501  0.00000000000E+00  0.00000000000E+00  0.18159930025E+03  0.18159930026E+03  0.25500000920E-02 0.  1.
        2   -1    0    0  501    0  0.00000000000E+00  0.00000000000E+00 -0.13773040644E+04  0.13773040644E+04  0.25500000920E-02 0. -1.
    10030    2    1    2    0    0  0.00000000000E+00  0.00000000000E+00 -0.11957047641E+04  0.15589033646E+04  0.10002348811E+04 0.  0.
        3    1    3    3  502    0  0.16735641971E+03 -0.72111049345E+02  0.12801328435E+03  0.22270066418E+03  0.10100000352E+00 0.  1.
       -3    1    3    3    0  502 -0.16735641971E+03  0.72111049345E+02 -0.13237180485E+04  0.13362027005E+04  0.10100000352E+00 0. -1.
</event>
<event>
 5   0  0.1006006E-03  0.9986459E+03  0.7818609E-02  0.9310031E-01
        2   -1    0    0  501    0  0.00000000000E+00  0.00000000000E+00  0.15704396805E+04  0.15704396805E+04  0.25500000920E-02 0. -1.
       -2   -1    0    0    0  501  0.00000000000E+00  0.00000000000E+00 -0.15876026830E+03  0.15876026832E+03  0.25500000920E-02 0.  1.
    10030    2    1    2    0    0  0.00000000000E+00  0.00000000000E+00  0.14116794122E+04  0.17291999488E+04  0.99864593333E+03 0.  0.
        2    1    3    3  502    0 -0.21916553888E+02  0.34482276600E+03  0.81665680618E+02  0.35503853126E+03  0.25500000920E-02 0. -1.
       -2    1    3    3    0  502  0.21916553888E+02 -0.34482276600E+03  0.13300137316E+04  0.13741614176E+04  0.25500000920E-02 0.  1.
</event>
<event>
 5   0  0.9674819E-04  0.1002232E+04  0.7818609E-02  0.9306100E-01
       -2   -1    0    0    0  501  0.00000000000E+00  0.00000000000E+00  0.35984195962E+03  0.35984195963E+03  0.25500000920E-02 0.  1.
        2   -1    0    0  501    0  0.00000000000E+00  0.00000000000E+00 -0.69785395257E+03  0.69785395258E+03  0.25500000920E-02 0. -1.
    10030    2    1    2    0    0  0.00000000000E+00  0.00000000000E+00 -0.33801199295E+03  0.10576959122E+04  0.10022317772E+04 0.  0.
        4    1    3    3  502    0  0.34597660327E+03  0.29707379812E+03  0.50248147966E+02  0.45878005713E+03  0.12699999809E+01 0.  1.
       -4    1    3    3    0  502 -0.34597660327E+03 -0.29707379812E+03 -0.38826014092E+03  0.59891585508E+03  0.12699999809E+01 0. -1.
</event>
<event>
 5   0  0.5888774E-04  0.9995787E+03  0.7818609E-02  0.9309007E-01
        1   -1    0    0  501    0  0.00000000000E+00  0.00000000000E+00  0.10851692725E+04  0.10851692725E+04  0.50400001928E-02 0.  1.
       -1   -1    0    0    0  501  0.00000000000E+00  0.00000000000E+00 -0.23018472265E+03  0.23018472270E+03  0.50400001928E-02 0. -1.
    10030    2    1    2    0    0  0.00000000000E+00  0.00000000000E+00  0.85498454983E+03  0.13153539952E+04  0.99957868736E+03 0.  0.
        2    1    3    3  502    0  0.10160145980E+03 -0.17291600797E+03  0.10298946554E+04  0.10492405843E+04  0.25500000920E-02 0.  1.
       -2    1    3    3    0  502 -0.10160145980E+03  0.17291600797E+03 -0.17491010556E+03  0.26611341093E+03  0.25500000920E-02 0. -1.
</event>
<event>
 5   0  0.3854625E-04  0.1000592E+04  0.7818609E-02  0.9307896E-01
       -3   -1    0    0    0  501  0.00000000000E+00  0.00000000000E+00  0.55893983780E+03  0.55893984693E+03  0.10100000352E+00 0. -1.
        3   -1    0    0  501    0  0.00000000000E+00  0.00000000000E+00 -0.44780516527E+03  0.44780517666E+03  0.10100000352E+00 0.  1.
    10030    2    1    2    0    0  0.00000000000E+00  0.00000000000E+00  0.11113467253E+03  0.10067450236E+04  0.10005921382E+04 0.  0.
        4    1    3    3  502    0 -0.22242647539E+03 -0.26865594607E+03  0.41644403673E+03  0.54320972280E+03  0.12699999809E+01 0. -1.
       -4    1    3    3    0  502  0.22242647539E+03  0.26865594607E+03 -0.30530936420E+03  0.46353530079E+03  0.12699999809E+01 0.  1.
</event>
<event>
 5   0  0.9741826E-04  0.1001211E+04  0.7818609E-02  0.9307218E-01
        2   -1    0    0  501    0  0.00000000000E+00  0.00000000000E+00  0.97214790485E+03  0.97214790485E+03  0.25500000920E-02 0. -1.
       -2   -1    0    0    0  501  0.00000000000E+00  0.00000000000E+00 -0.25778550087E+03  0.25778550088E+03  0.25500000920E-02 0.  1.
    10030    2    1    2    0    0  0.00000000000E+00  0.00000000000E+00  0.71436240398E+03  0.12299334057E+04  0.10012105365E+04 0.  0.
        3    1    3    3  502    0 -0.35303347024E+03 -0.32027202469E+03  0.16926977245E+03  0.50582513478E+03  0.10100000352E+00 0.  1.
       -3    1    3    3    0  502  0.35303347024E+03  0.32027202469E+03  0.54509263153E+03  0.72410827095E+03  0.10100000352E+00 0. -1.
</event>
<event>
 5   0  0.1006006E-03  0.9985792E+03  0.7818609E-02  0.9310104E-01
       -2   -1    0    0    0  501  0.00000000000E+00  0.00000000000E+00  0.19970875967E+03  0.19970875969E+03  0.25500000920E-02 0.  1.
        2   -1    0    0  501    0  0.00000000000E+00  0.00000000000E+00 -0.12482683131E+04  0.12482683131E+04  0.25500000920E-02 0. -1.
    10030    2    1    2    0    0  0.00000000000E+00  0.00000000000E+00 -0.10485595535E+04  0.14479770728E+04  0.99857922383E+03 0.  0.
        2    1    3    3  502    0 -0.61624833077E+02 -0.33155582558E+03 -0.10581677220E+04  0.11106060568E+04  0.25500000920E-02 0. -1.
       -2    1    3    3    0  502  0.61624833077E+02  0.33155582558E+03  0.96081685559E+01  0.33737101600E+03  0.25500000920E-02 0.  1.
</event>
<event>
 5   0  0.5826939E-04  0.1000189E+04  0.7818609E-02  0.9308337E-01
       -1   -1    0    0    0  501  0.00000000000E+00  0.00000000000E+00  0.12049823014E+04  0.12049823014E+04  0.50400001928E-02 0. -1.
        1   -1    0    0  501    0  0.00000000000E+00  0.00000000000E+00 -0.20755053734E+03  0.20755053740E+03  0.50400001928E-02 0.  1.
    10030    2    1    2    0    0  0.00000000000E+00  0.00000000000E+00  0.99743176406E+03  0.14125328388E+04  0.10001894304E+04 0.  0.
        1    1    3    3  502    0 -0.91015904712E+02  0.26623329027E+03 -0.85167725597E+02  0.29396870797E+03  0.50400001928E-02 0.  1.
       -1    1    3    3    0  502  0.91015904712E+02 -0.26623329027E+03  0.10825994897E+04  0.11185641308E+04  0.50400001928E-02 0. -1.
</event>
<event>
 5   0  0.5758786E-04  0.1000124E+04  0.7818609E-02  0.9308408E-01
       -1   -1    0    0    0  501  0.00000000000E+00  0.00000000000E+00  0.50990699373E+03  0.50990699376E+03  0.50400001928E-02 0. -1.
        1   -1    0    0  501    0  0.00000000000E+00  0.00000000000E+00 -0.49040755099E+03  0.49040755101E+03  0.50400001928E-02 0.  1.
    10030    2    1    2    0    0  0.00000000000E+00  0.00000000000E+00  0.19499442748E+02  0.10003145448E+04  0.10001244724E+04 0.  0.
        3    1    3    3  502    0  0.30465076877E+03 -0.26852226600E+03 -0.28210349248E+03  0.49446808685E+03  0.10100000352E+00 0.  1.
       -3    1    3    3    0  502 -0.30465076877E+03  0.26852226600E+03  0.30160293523E+03  0.50584645792E+03  0.10100000352E+00 0. -1.
</event>
<event>
 5   0  0.5768102E-04  0.9987371E+03  0.7818609E-02  0.9309931E-01
       -1   -1    0    0    0  501  0.00000000000E+00  0.00000000000E+00  0.27997774945E+03  0.27997774950E+03  0.50400001928E-02 0.  1.
        1   -1    0    0  501    0  0.00000000000E+00  0.00000000000E+00 -0.89067408149E+03  0.89067408150E+03  0.50400001928E-02 0. -1.
    10030    2    1    2    0    0  0.00000000000E+00  0.00000000000E+00 -0.61069633204E+03  0.11706518310E+04  0.99873705221E+03 0.  0.
        4    1    3    3  502    0  0.44647607777E+03 -0.12282129179E+03 -0.52445022213E+03  0.69962533268E+03  0.12699999809E+01 0. -1.
       -4    1    3    3    0  502 -0.44647607777E+03  0.12282129179E+03 -0.86246109905E+02  0.47102649831E+03  0.12699999809E+01 0.  1.
</event>
<event>
 5   0  0.3854625E-04  0.9998554E+03  0.7818609E-02  0.9308703E-01
       -3   -1    0    0    0  501  0.00000000000E+00  0.00000000000E+00  0.37705148180E+03  0.37705149533E+03  0.10100000352E+00 0. -1.
        3   -1    0    0  501    0  0.00000000000E+00  0.00000000000E+00 -0.66284768418E+03  0.66284769187E+03  0.10100000352E+00 0.  1.
    10030    2    1    2    0    0  0.00000000000E+00  0.00000000000E+00 -0.28579620238E+03  0.10398991872E+04  0.99985541467E+03 0.  0.
        1    1    3    3  502    0  0.43586050711E+03  0.19893383481E+03 -0.29136917524E+03  0.56075400007E+03  0.50400001928E-02 0.  1.
       -1    1    3    3    0  502 -0.43586050711E+03 -0.19893383481E+03  0.55729728642E+01  0.47914518713E+03  0.50400001928E-02 0. -1.
</event>
<event>
 5   0  0.5826939E-04  0.1003826E+04  0.7818609E-02  0.9304359E-01
       -1   -1    0    0    0  501  0.00000000000E+00  0.00000000000E+00  0.34447362028E+03  0.34447362031E+03  0.50400001928E-02 0. -1.
        1   -1    0    0  501    0  0.00000000000E+00  0.00000000000E+00 -0.73130866237E+03  0.73130866239E+03  0.50400001928E-02 0.  1.
    10030    2    1    2    0    0  0.00000000000E+00  0.00000000000E+00 -0.38683504209E+03  0.10757822827E+04  0.10038257667E+04 0.  0.
        1    1    3    3  502    0  0.55737403038E+02 -0.14331992919E+03 -0.70544089255E+03  0.72200700350E+03  0.50400001928E-02 0.  1.
       -1    1    3    3    0  502 -0.55737403038E+02  0.14331992919E+03  0.31860585046E+03  0.35377527920E+03  0.50400001928E-02 0. -1.
</event>
<event>
 5   0  0.9741826E-04  0.1003228E+04  0.7818609E-02  0.9305011E-01
       -2   -1    0    0    0  501  0.00000000000E+00  0.00000000000E+00  0.10077625614E+03  0.10077625618E+03  0.25500000920E-02 0.  1.
        2   -1    0    0  501    0  0.00000000000E+00  0.00000000000E+00 -0.24967845378E+04  0.24967845378E+04  0.25500000920E-02 0. -1.
    10030    2    1    2    0    0  0.00000000000E+00  0.00000000000E+00 -0.23960082817E+04  0.25975607940E+04  0.10032279864E+04 0.  0.
        3    1    3    3  502    0  0.13336337423E+03 -0.18385307357E+03 -0.39993910294E+02  0.23062364430E+03  0.10100000352E+00 0.  1.
       -3    1    3    3    0  502 -0.13336337423E+03  0.18385307357E+03 -0.23560143714E+04  0.23669371497E+04  0.10100000352E+00 0. -1.
</event>
<event>
 5   0  0.5888774E-04  0.1001029E+04  0.7818609E-02  0.9307417E-01
       -1   -1    0    0    0  501  0.00000000000E+00  0.00000000000E+00  0.22338716140E+03  0.22338716146E+03  0.50400001928E-02 0.  1.
        1   -1    0    0  501    0  0.00000000000E+00  0.00000000000E+00 -0.11214375987E+04  0.11214375987E+04  0.50400001928E-02 0. -1.
    10030    2    1    2    0    0  0.00000000000E+00  0.00000000000E+00 -0.89805043730E+03  0.13448247602E+04  0.10010289944E+04 0.  0.
        2    1    3    3  502    0 -0.41480029117E+03  0.27138207024E+03 -0.35587851342E+03  0.61021064062E+03  0.25500000920E-02 0. -1.
       -2    1    3    3    0  502  0.41480029117E+03 -0.27138207024E+03 -0.54217192388E+03  0.73461411956E+03  0.25500000920E-02 0.  1.
</event>
<event>
 5   0  0.1006749E-03  0.9994481E+03  0.7818609E-02  0.9309150E-01
        2   -1    0    0  501    0  0.00000000000E+00  0.00000000000E+00  0.95060562320E+03  0.95060562320E+03  0.25500000920E-02 0.  1.
       -2   -1    0    0    0  501  0.00000000000E+00  0.00000000000E+00 -0.26270001656E+03  0.26270001657E+03  0.25500000920E-02 0. -1.
    10030    2    1    2    0    0  0.00000000000E+00  0.00000000000E+00  0.68790560664E+03  0.12133056398E+04  0.99944807362E+03 0.  0.
        1    1    3    3  502    0 -0.26746205371E+03  0.22020344022E+03 -0.93244664625E+02  0.35877579736E+03  0.50400001928E-02 0. -1.
       -1    1    3    3    0  502  0.26746205371E+03 -0.22020344022E+03  0.78115027127E+03  0.85452984242E+03  0.50400001928E-02 0.  1.
</event>
<event>
 5   0  0.5888774E-04  0.1000115E+04  0.7818609E-02  0.9308419E-01
        1   -1    0    0  501    0  0.00000000000E+00  0.00000000000E+00  0.97150220009E+03  0.97150220010E+03  0.50400001928E-02 0. -1.
       -1   -1    0    0    0  501  0.00000000000E+00  0.00000000000E+00 -0.25739265149E+03  0.25739265154E+03  0.50400001928E-02 0.  1.
    10030    2    1    2    0    0  0.00000000000E+00  0.00000000000E+00  0.71410954860E+03  0.12288948516E+04  0.10001150479E+04 0.  0.
        2    1    3    3  502    0  0.32584254644E+03  0.17978448837E+03 -0.53359374649E+02  0.37595618122E+03  0.25500000920E-02 0.  1.
       -2    1    3    3    0  502 -0.32584254644E+03 -0.17978448837E+03  0.76746892325E+03  0.85293867041E+03  0.25500000920E-02 0. -1.
</event>
<event>
 5   0  0.5758786E-04  0.9991305E+03  0.7818609E-02  0.9309499E-01
        1   -1    0    0  501    0  0.00000000000E+00  0.00000000000E+00  0.50756075824E+03  0.50756075827E+03  0.50400001928E-02 0. -1.
       -1   -1    0    0    0  501  0.00000000000E+00  0.00000000000E+00 -0.49169569914E+03  0.49169569916E+03  0.50400001928E-02 0.  1.
    10030    2    1    2    0    0  0.00000000000E+00  0.00000000000E+00  0.15865059107E+02  0.99925645743E+03  0.99913050580E+03 0.  0.
        3    1    3    3  502    0 -0.28537086215E+03  0.66713755844E+02 -0.39669006877E+03  0.49320409066E+03  0.10100000352E+00 0.  1.
       -3    1    3    3    0  502  0.28537086215E+03 -0.66713755844E+02  0.41255512787E+03  0.50605236677E+03  0.10100000352E+00 0. -1.
</event>
<event>
 5   0  0.9674819E-04  0.9918776E+03  0.7818609E-02  0.9317498E-01
       -2   -1    0    0    0  501  0.00000000000E+00  0.00000000000E+00  0.50097345436E+03  0.50097345437E+03  0.25500000920E-02 0.  1.
        2   -1    0    0  501    0  0.00000000000E+00  0.00000000000E+00 -0.49095473569E+03  0.49095473569E+03  0.25500000920E-02 0. -1.
    10030    2    1    2    0    0  0.00000000000E+00  0.00000000000E+00  0.10018718675E+02  0.99192819006E+03  0.99187759301E+03 0.  0.
        4    1    3    3  502    0  0.21328055368E+03 -0.41419401564E+03  0.17504273606E+03  0.49768147395E+03  0.12699999809E+01 0.  1.
       -4    1    3    3    0  502 -0.21328055368E+03  0.41419401564E+03 -0.16502401738E+03  0.49424671611E+03  0.12699999809E+01 0. -1.
</event>
<event>
 5   0  0.5768102E-04  0.9997044E+03  0.7818609E-02  0.9308869E-01
        1   -1    0    0  501    0  0.00000000000E+00  0.00000000000E+00  0.15251333531E+04  0.15251333531E+04  0.50400001928E-02 0.  1.
       -1   -1    0    0    0  501  0.00000000000E+00  0.00000000000E+00 -0.16382318990E+03  0.16382318998E+03  0.50400001928E-02 0. -1.
    10030    2    1    2    0    0  0.00000000000E+00  0.00000000000E+00  0.13613101632E+04  0.16889565431E+04  0.99970437831E+03 0.  0.
        4    1    3    3  502    0 -0.34573327708E+03 -0.31837294020E+03  0.96814951467E+03  0.10762006893E+04  0.12699999809E+01 0.  1.
       -4    1    3    3    0  502  0.34573327708E+03  0.31837294020E+03  0.39316064851E+03  0.61275585380E+03  0.12699999809E+01 0. -1.
</event>
<event>
 5   0  0.1006006E-03  0.1000263E+04  0.7818609E-02  0.9308256E-01
       -2   -1    0    0    0  501  0.00000000000E+00  0.00000000000E+00  0.20973841921E+03  0.20973841922E+03  0.25500000920E-02 0. -1.
        2   -1    0    0  501    0  0.00000000000E+00  0.00000000000E+00 -0.11925879372E+04  0.11925879372E+04  0.25500000920E-02 0.  1.
    10030    2    1    2    0    0  0.00000000000E+00  0.00000000000E+00 -0.98284951799E+03  0.14023263564E+04  0.10002629829E+04 0.  0.
        2    1    3    3  502    0 -0.47339020680E+03  0.16041123936E+03 -0.51576619672E+03  0.71822337980E+03  0.25500000920E-02 0. -1.
       -2    1    3    3    0  502  0.47339020680E+03 -0.16041123936E+03 -0.46708332126E+03  0.68410297662E+03  0.25500000920E-02 0.  1.
</event>
<event>
 5   0  0.5960102E-04  0.9994973E+03  0.7818609E-02  0.9309096E-01
       -1   -1    0    0    0  501  0.00000000000E+00  0.00000000000E+00  0.59360350019E+03  0.59360350021E+03  0.50400001928E-02 0.  1.
        1   -1    0    0  501    0  0.00000000000E+00  0.00000000000E+00 -0.42073326043E+03  0.42073326046E+03  0.50400001928E-02 0. -1.
    10030    2    1    2    0    0  0.00000000000E+00  0.00000000000E+00  0.17287023976E+03  0.10143367607E+04  0.99949734579E+03 0.  0.
        5    1    3    3  502    0  0.20961468462E+03  0.12915810301E+03  0.52775527780E+03  0.58238119374E+03  0.46999998093E+01 0.  1.
       -5    1    3    3    0  502 -0.20961468462E+03 -0.12915810301E+03 -0.35488503804E+03  0.43195556693E+03  0.46999998093E+01 0. -1.
</event>
<event>
 5   0  0.9741826E-04  0.9993307E+03  0.7818609E-02  0.9309279E-01
       -2   -1    0    0    0  501  0.00000000000E+00  0.00000000000E+00  0.43836536276E+03  0.43836536277E+03  0.25500000920E-02 0. -1.
        2   -1    0    0  501    0  0.00000000000E+00  0.00000000000E+00 -0.56953738385E+03  0.56953738385E+03  0.25500000920E-02 0.  1.
    10030    2    1    2    0    0  0.00000000000E+00  0.00000000000E+00 -0.13117202109E+03  0.10079027466E+04  0.99933069978E+03 0.  0.
        3    1    3    3  502    0  0.29515723423E+03  0.22005939262E+03 -0.40630251999E+03  0.54829342249E+03  0.10100000352E+00 0.  1.
       -3    1    3    3    0  502 -0.29515723423E+03 -0.22005939262E+03  0.27513049890E+03  0.45960932413E+03  0.10100000352E+00 0. -1.
</event>
<event>
 5   0  0.5888774E-04  0.9998544E+03  0.7818609E-02  0.9308705E-01
       -1   -1    0    0    0  501  0.00000000000E+00  0.00000000000E+00  0.14761029414E+03  0.14761029422E+03  0.50400001928E-02 0.  1.
        1   -1    0    0  501    0  0.00000000000E+00  0.00000000000E+00 -0.16931556718E+04  0.16931556719E+04  0.50400001928E-02 0. -1.
    10030    2    1    2    0    0  0.00000000000E+00  0.00000000000E+00 -0.15455453777E+04  0.18407659661E+04  0.99985440305E+03 0.  0.
        2    1    3    3  502    0  0.46048545613E+02 -0.16292390299E+03 -0.16387684366E+04  0.16474910183E+04  0.25500000920E-02 0. -1.
       -2    1    3    3    0  502 -0.46048545613E+02  0.16292390299E+03  0.93223058867E+02  0.19327494776E+03  0.25500000920E-02 0.  1.
</event>
<event>
 5   0  0.1006006E-03  0.1000146E+04  0.7818609E-02  0.9308385E-01
       -2   -1    0    0    0  501  0.00000000000E+00  0.00000000000E+00  0.10856633136E+03  0.10856633139E+03  0.25500000920E-02 0.  1.
        2   -1    0    0  501    0  0.00000000000E+00  0.00000000000E+00 -0.23034124093E+04  0.23034124093E+04  0.25500000920E-02 0. -1.
    10030    2    1    2    0    0  0.00000000000E+00  0.00000000000E+00 -0.21948460779E+04  0.24119787407E+04  0.10001460592E+04 0.  0.
        2    1    3    3  502    0  0.47806476836E+02 -0.16848170585E+03  0.32190357849E+02  0.17806673912E+03  0.25500000920E-02 0.  1.
       -2    1    3    3    0  502 -0.47806476836E+02  0.16848170585E+03 -0.22270364358E+04  0.22339120016E+04  0.25500000920E-02 0. -1.
</event>
<event>
 5   0  0.1006749E-03  0.9998881E+03  0.7818609E-02  0.9308667E-01
        2   -1    0    0  501    0  0.00000000000E+00  0.00000000000E+00  0.52877022261E+03  0.52877022261E+03  0.25500000920E-02 0.  1.
       -2   -1    0    0    0  501  0.00000000000E+00  0.00000000000E+00 -0.47268938560E+03  0.47268938561E+03  0.25500000920E-02 0. -1.
    10030    2    1    2    0    0  0.00000000000E+00  0.00000000000E+00  0.56080837004E+02  0.10014596082E+04  0.99988813705E+03 0.  0.
        1    1    3    3  502    0  0.13404066988E+03  0.36566540249E+03 -0.28592630818E+03  0.48314794991E+03  0.50400001928E-02 0. -1.
       -1    1    3    3    0  502 -0.13404066988E+03 -0.36566540249E+03  0.34200714519E+03  0.51831165832E+03  0.50400001928E-02 0.  1.
</event>
<event>
 5   0  0.5758786E-04  0.1005701E+04  0.7818609E-02  0.9302314E-01
        1   -1    0    0  501    0  0.00000000000E+00  0.00000000000E+00  0.50656366406E+03  0.50656366408E+03  0.50400001928E-02 0.  1.
       -1   -1    0    0    0  501  0.00000000000E+00  0.00000000000E+00 -0.49916465106E+03  0.49916465109E+03  0.50400001928E-02 0. -1.
    10030    2    1    2    0    0  0.00000000000E+00  0.00000000000E+00  0.73990129959E+01  0.10057283152E+04  0.10057010980E+04 0.  0.
        3    1    3    3  502    0 -0.11347552770E+03  0.48974947265E+03 -0.75889824057E+01  0.50278110963E+03  0.10100000352E+00 0. -1.
       -3    1    3    3    0  502  0.11347552770E+03 -0.48974947265E+03  0.14987995402E+02  0.50294720554E+03  0.10100000352E+00 0.  1.
</event>
<event>
 5   0  0.5888774E-04  0.1001893E+04  0.7818609E-02  0.9306472E-01
        1   -1    0    0  501    0  0.00000000000E+00  0.00000000000E+00  0.44480347532E+03  0.44480347535E+03  0.50400001928E-02 0.  1.
       -1   -1    0    0    0  501  0.00000000000E+00  0.00000000000E+00 -0.56417538760E+03  0.56417538762E+03  0.50400001928E-02 0. -1.
    10030    2    1    2    0    0  0.00000000000E+00  0.00000000000E+00 -0.11937191227E+03  0.10089788630E+04  0.10018925554E+04 0.  0.
        2    1    3    3  502    0 -0.45047156777E+03 -0.14124758286E+03 -0.22841698976E+03  0.52445193703E+03  0.25500000920E-02 0.  1.
       -2    1    3    3    0  502  0.45047156777E+03  0.14124758286E+03  0.10904507749E+03  0.48452692594E+03  0.25500000920E-02 0. -1.
</event>
<event>
 5   0  0.1006006E-03  0.9979282E+03  0.7818609E-02  0.9310820E-01
        2   -1    0    0  501    0  0.00000000000E+00  0.00000000000E+00  0.34882100355E+03  0.34882100356E+03  0.25500000920E-02 0. -1.
       -2   -1    0    0    0  501  0.00000000000E+00  0.00000000000E+00 -0.71373330699E+03  0.71373330699E+03  0.25500000920E-02 0.  1.
    10030    2    1    2    0    0  0.00000000000E+00  0.00000000000E+00 -0.36491230344E+03  0.10625543105E+04  0.99792819063E+03 0.  0.
        2    1    3    3  502    0 -0.99402468291E+02  0.43814757883E+03 -0.41356314396E+03  0.61064607227E+03  0.25500000920E-02 0.  1.
       -2    1    3    3    0  502  0.99402468291E+02 -0.43814757883E+03  0.48650840516E+02  0.45190823828E+03  0.25500000920E-02 0. -1.
</event>
<event>
 5   0  0.9674819E-04  0.1000783E+04  0.7818609E-02  0.9307687E-01
        2   -1    0    0  501    0  0.00000000000E+00  0.00000000000E+00  0.16849906409E+04  0.16849906409E+04  0.25500000920E-02 0. -1.
       -2   -1    0    0    0  501  0.00000000000E+00  0.00000000000E+00 -0.14860116475E+03  0.14860116477E+03  0.25500000920E-02 0.  1.
    10030    2    1    2    0    0  0.00000000000E+00  0.00000000000E+00  0.15363894762E+04  0.18335918057E+04  0.10007828373E+04 0.  0.
        4    1    3    3  502    0 -0.21443885889E+03  0.44804482748E+03  0.65732623533E+03  0.82389779960E+03  0.12699999809E+01 0. -1.
       -4    1    3    3    0  502  0.21443885889E+03 -0.44804482748E+03  0.87906324084E+03  0.10096940061E+04  0.12699999809E+01 0.  1.
</event>
<event>
 5   0  0.9741826E-04  0.9997191E+03  0.7818609E-02  0.9308853E-01
       -2   -1    0    0    0  501  0.00000000000E+00  0.00000000000E+00  0.23848315125E+03  0.23848315126E+03  0.25500000920E-02 0.  1.
        2   -1    0    0  501    0  0.00000000000E+00  0.00000000000E+00 -0.10477031586E+04  0.10477031586E+04  0.25500000920E-02 0. -1.
    10030    2    1    2    0    0  0.00000000000E+00  0.00000000000E+00 -0.80922000735E+03  0.12861863099E+04  0.99971906222E+03 0.  0.
        3    1    3    3  502    0  0.18808209777E+03 -0.11215171314E+03 -0.98270768846E+03  0.10068104556E+04  0.10100000352E+00 0. -1.
       -3    1    3    3    0  502 -0.18808209777E+03  0.11215171314E+03  0.17348768112E+03  0.27937585429E+03  0.10100000352E+00 0.  1.
</event>
<event>
 5   0  0.1020150E-03  0.1000367E+04  0.7818609E-02  0.9308142E-01
        2   -1    0    0  501    0  0.00000000000E+00  0.00000000000E+00  0.60556555146E+03  0.60556555146E+03  0.25500000920E-02 0.  1.
       -2   -1    0    0    0  501  0.00000000000E+00  0.00000000000E+00 -0.41314029194E+03  0.41314029195E+03  0.25500000920E-02 0. -1.
    10030    2    1    2    0    0  0.00000000000E+00  0.00000000000E+00  0.19242525952E+03  0.10187058434E+04  0.10003669901E+04 0.  0.
        5    1    3    3  502    0 -0.45587689701E+03  0.74037483081E+02  0.29171156498E+03  0.54628108265E+03  0.46999998093E+01 0.  1.
       -5    1    3    3    0  502  0.45587689701E+03 -0.74037483081E+02 -0.99286305459E+02  0.47242476076E+03  0.46999998093E+01 0. -1.
</event>
<event>
 5   0  0.5768102E-04  0.9963092E+03  0.7818609E-02  0.9312602E-01
        1   -1    0    0  501    0  0.00000000000E+00  0.00000000000E+00  0.16014392186E+04  0.16014392186E+04  0.50400001928E-02 0.  1.
       -1   -1    0    0    0  501  0.00000000000E+00  0.00000000000E+00 -0.15495937512E+03  0.15495937520E+03  0.50400001928E-02 0. -1.
    10030    2    1    2    0    0  0.00000000000E+00  0.00000000000E+00  0.14464798435E+04  0.17563985938E+04  0.99630923048E+03 0.  0.
        4    1    3    3  502    0 -0.23075992810E+03 -0.41908478484E+03  0.47849303257E+03  0.67663830546E+03  0.12699999809E+01 0. -1.
       -4    1    3    3    0  502  0.23075992810E+03  0.41908478484E+03  0.96798681094E+03  0.10797602884E+04  0.12699999809E+01 0.  1.
</event>
<event>
 5   0  0.5758786E-04  0.1000061E+04  0.7818609E-02  0.9308477E-01
       -1   -1    0    0    0  501  0.00000000000E+00  0.00000000000E+00  0.65574674238E+03  0.65574674240E+03  0.50400001928E-02 0.  1.
        1   -1    0    0  501    0  0.00000000000E+00  0.00000000000E+00 -0.38129155141E+03  0.38129155145E+03  0.50400001928E-02 0. -1.
    10030    2    1    2    0    0  0.00000000000E+00  0.00000000000E+00  0.27445519096E+03  0.10370382938E+04  0.10000613836E+04 0.  0.
        3    1    3    3  502    0 -0.10077977279E+03  0.47374402571E+03  0.26608277558E+03  0.55262104390E+03  0.10100000352E+00 0.  1.
       -3    1    3    3    0  502  0.10077977279E+03 -0.47374402571E+03  0.83724153772E+01  0.48441724994E+03  0.10100000352E+00 0. -1.
</event>
<event>
 5   0  0.5826939E-04  0.9986638E+03  0.7818609E-02  0.9310012E-01
        1   -1    0    0  501    0  0.00000000000E+00  0.00000000000E+00  0.44400957385E+03  0.44400957388E+03  0.50400001928E-02 0.  1.
       -1   -1    0    0    0  501  0.00000000000E+00  0.00000000000E+00 -0.56154724413E+03  0.56154724415E+03  0.50400001928E-02 0. -1.
    10030    2    1    2    0    0  0.00000000000E+00  0.00000000000E+00 -0.11753767028E+03  0.10055568180E+04  0.99866381248E+03 0.  0.
        1    1    3    3  502    0 -0.24446972122E+03 -0.29174648949E+03  0.26665052165E+03  0.46474074433E+03  0.50400001928E-02 0.  1.
       -1    1    3    3    0  502  0.24446972122E+03  0.29174648949E+03 -0.38418819193E+03  0.54081607369E+03  0.50400001928E-02 0. -1.
</event>
<event>
 5   0  0.9674819E-04  0.1002651E+04  0.7818609E-02  0.9305642E-01
        2   -1    0    0  501    0  0.00000000000E+00  0.00000000000E+00  0.14325680176E+04  0.14325680176E+04  0.25500000920E-02 0. -1.
       -2   -1    0    0    0  501  0.00000000000E+00  0.00000000000E+00 -0.17543821228E+03  0.17543821230E+03  0.25500000920E-02 0.  1.
    10030    2    1    2    0    0  0.00000000000E+00  0.00000000000E+00  0.12571298053E+04  0.16080062299E+04  0.10026508305E+04 0.  0.
        4    1    3    3  502    0  0.88030835642E+02 -0.29308378956E+03 -0.82652124916E+01  0.30613307950E+03  0.12699999809E+01 0.  1.
       -4    1    3    3    0  502 -0.88030835642E+02  0.29308378956E+03  0.12653950178E+04  0.13018731504E+04  0.12699999809E+01 0. -1.
</event>
<event>
 5   0  0.9674819E-04  0.9993600E+03  0.7818609E-02  0.9309247E-01
        2   -1    0    0  501    0  0.00000000000E+00  0.00000000000E+00  0.39181067038E+03  0.39181067039E+03  0.25500000920E-02 0. -1.
       -2   -1    0    0    0  501  0.00000000000E+00  0.00000000000E+00 -0.63724687483E+03  0.63724687483E+03  0.25500000920E-02 0.  1.
    10030    2    1    2    0    0  0.00000000000E+00  0.00000000000E+00 -0.24543620445E+03  0.10290575452E+04  0.99936004569E+03 0.  0.
        4    1    3    3  502    0 -0.21646110592E+03  0.22808877286E+03  0.27714962421E+03  0.41915799620E+03  0.12699999809E+01 0. -1.
       -4    1    3    3    0  502  0.21646110592E+03 -0.22808877286E+03 -0.52258582866E+03  0.60989954902E+03  0.12699999809E+01 0.  1.
</event>
<event>
 5   0  0.5960102E-04  0.1000474E+04  0.7818609E-02  0.9308025E-01
        1   -1    0    0  501    0  0.00000000000E+00  0.00000000000E+00  0.46843198697E+03  0.46843198700E+03  0.50400001928E-02 0. -1.
       -1   -1    0    0    0  501  0.00000000000E+00  0.00000000000E+00 -0.53420147708E+03  0.53420147710E+03  0.50400001928E-02 0.  1.
    10030    2    1    2    0    0  0.00000000000E+00  0.00000000000E+00 -0.65769490105E+02  0.10026334641E+04  0.10004740064E+04 0.  0.
        5    1    3    3  502    0  0.20824472479E+02  0.12970510606E+03 -0.51658364960E+03  0.53304580499E+03  0.46999998093E+01 0.  1.
       -5    1    3    3    0  502 -0.20824472479E+02 -0.12970510606E+03  0.45081415949E+03  0.46958765911E+03  0.46999998093E+01 0. -1.
</event>
<event>
 5   0  0.1006006E-03  0.1000371E+04  0.7818609E-02  0.9308138E-01
        2   -1    0    0  501    0  0.00000000000E+00  0.00000000000E+00  0.38420687347E+03  0.38420687348E+03  0.25500000920E-02 0. -1.
       -2   -1    0    0    0  501  0.00000000000E+00  0.00000000000E+00 -0.65117448503E+03  0.65117448503E+03  0.25500000920E-02 0.  1.
    10030    2    1    2    0    0  0.00000000000E+00  0.00000000000E+00 -0.26696761156E+03  0.10353813585E+04  0.10003713570E+04 0.  0.
        2    1    3    3  502    0 -0.31889492408E+03  0.17129467154E+03  0.22377742515E+03  0.42557275890E+03  0.25500000920E-02 0. -1.
       -2    1    3    3    0  502  0.31889492408E+03 -0.17129467154E+03 -0.49074503671E+03  0.60980859961E+03  0.25500000920E-02 0.  1.
</event>
<event>
 5   0  0.5888774E-04  0.1000269E+04  0.7818609E-02  0.9308249E-01
        1   -1    0    0  501    0  0.00000000000E+00  0.00000000000E+00  0.51503937574E+03  0.51503937577E+03  0.50400001928E-02 0. -1.
       -1   -1    0    0    0  501  0.00000000000E+00  0.00000000000E+00 -0.48566139383E+03  0.48566139385E+03  0.50400001928E-02 0.  1.
    10030    2    1    2    0    0  0.00000000000E+00  0.00000000000E+00  0.29377981917E+02  0.10007007696E+04  0.10002694460E+04 0.  0.
        2    1    3    3  502    0  0.41943015831E+03  0.18161178713E+03  0.21782886257E+03  0.50631404513E+03  0.25500000920E-02 0. -1.
       -2    1    3    3    0  502 -0.41943015831E+03 -0.18161178713E+03 -0.18845088065E+03  0.49438672449E+03  0.25500000920E-02 0.  1.
</event>
<event>
 5   0  0.5758786E-04  0.1000816E+04  0.7818609E-02  0.9307650E-01
        1   -1    0    0  501    0  0.00000000000E+00  0.00000000000E+00  0.82107164895E+03  0.82107164896E+03  0.50400001928E-02 0. -1.
       -1   -1    0    0    0  501  0.00000000000E+00  0.00000000000E+00 -0.30497712520E+03  0.30497712525E+03  0.50400001928E-02 0.  1.
    10030    2    1    2    0    0  0.00000000000E+00  0.00000000000E+00  0.51609452374E+03  0.11260487742E+04  0.10008158095E+04 0.  0.
        3    1    3    3  502    0 -0.24622353998E+03 -0.32164997914E+03  0.58862005936E+03  0.71453364176E+03  0.10100000352E+00 0.  1.
       -3    1    3    3    0  502  0.24622353998E+03  0.32164997914E+03 -0.72525535614E+02  0.41151513245E+03  0.10100000352E+00 0. -1.
</event>
<event>
 5   0  0.1020150E-03  0.1000085E+04  0.7818609E-02  0.9308451E-01
       -2   -1    0    0    0  501  0.00000000000E+00  0.00000000000E+00  0.18985848576E+03  0.18985848578E+03  0.25500000920E-02 0. -1.
        2   -1    0    0  501    0  0.00000000000E+00  0.00000000000E+00 -0.13169953095E+04  0.13169953095E+04  0.25500000920E-02 0.  1.
    10030    2    1    2    0    0  0.00000000000E+00  0.00000000000E+00 -0.11271368237E+04  0.15068537952E+04  0.10000854668E+04 0.  0.
        5    1    3    3  502    0 -0.77758506425E+02  0.13718036304E+03 -0.12785182582E+04  0.12882142150E+04  0.46999998093E+01 0.  1.
       -5    1    3    3    0  502  0.77758506425E+02 -0.13718036304E+03  0.15138143449E+03  0.21863958020E+03  0.46999998093E+01 0. -1.
</event>
<event>
 5   0  0.1006749E-03  0.1003243E+04  0.7818609E-02  0.9304996E-01
       -2   -1    0    0    0  501  0.00000000000E+00  0.00000000000E+00  0.77159544283E+03  0.77159544283E+03  0.25500000920E-02 0.  1.
        2   -1    0    0  501    0  0.00000000000E+00  0.00000000000E+00 -0.32610858670E+03  0.32610858671E+03  0.25500000920E-02 0. -1.
    10030    2    1    2    0    0  0.00000000000E+00  0.00000000000E+00  0.44548685613E+03  0.10977040295E+04  0.10032425417E+04 0.  0.
        1    1    3    3  502    0 -0.32239667437E+03 -0.30033919106E+03 -0.39581866454E+02  0.44239119510E+03  0.50400001928E-02 0. -1.
       -1    1    3    3    0  502  0.32239667437E+03  0.30033919106E+03  0.48506872258E+03  0.65531283444E+03  0.50400001928E-02 0.  1.
</event>
<event>
 5   0  0.5768102E-04  0.9998652E+03  0.7818609E-02  0.9308693E-01
       -1   -1    0    0    0  501  0.00000000000E+00  0.00000000000E+00  0.55884793078E+03  0.55884793081E+03  0.50400001928E-02 0.  1.
        1   -1    0    0  501    0  0.00000000000E+00  0.00000000000E+00 -0.44722826836E+03  0.44722826839E+03  0.50400001928E-02 0. -1.
    10030    2    1    2    0    0  0.00000000000E+00  0.00000000000E+00  0.11161966243E+03  0.10060761992E+04  0.99986517568E+03 0.  0.
        4    1    3    3  502    0  0.18170449020E+03  0.46262131951E+03  0.16613042683E+01  0.49703056229E+03  0.12699999809E+01 0. -1.
       -4    1    3    3    0  502 -0.18170449020E+03 -0.46262131951E+03  0.10995835816E+03  0.50904563690E+03  0.12699999809E+01 0.  1.
</event>
<event>
 5   0  0.5768102E-04  0.1000801E+04  0.7818609E-02  0.9307667E-01
       -1   -1    0    0    0  501  0.00000000000E+00  0.00000000000E+00  0.48513018735E+03  0.48513018737E+03  0.50400001928E-02 0.  1.
        1   -1    0    0  501    0  0.00000000000E+00  0.00000000000E+00 -0.51615140595E+03  0.51615140597E+03  0.50400001928E-02 0. -1.
    10030    2    1    2    0    0  0.00000000000E+00  0.00000000000E+00 -0.31021218602E+02  0.10012815933E+04  0.10008009358E+04 0.  0.
        4    1    3    3  502    0  0.42999124640E+02 -0.47712568090E+03 -0.16015243122E+03  0.50512201914E+03  0.12699999809E+01 0.  1.
       -4    1    3    3    0  502 -0.42999124640E+02  0.47712568090E+03  0.12913121262E+03  0.49615957420E+03  0.12699999809E+01 0. -1.
</event>
<event>
 5   0  0.5758786E-04  0.1004622E+04  0.7818609E-02  0.9303489E-01
        1   -1    0    0  501    0  0.00000000000E+00  0.00000000000E+00  0.27505244006E+03  0.27505244010E+03  0.50400001928E-02 0. -1.
       -1   -1    0    0    0  501  0.00000000000E+00  0.00000000000E+00 -0.91733992402E+03  0.91733992403E+03  0.50400001928E-02 0.  1.
    10030    2    1    2    0    0  0.00000000000E+00  0.00000000000E+00 -0.64228748396E+03  0.11923923641E+04  0.10046224853E+04 0.  0.
        3    1    3    3  502    0  0.40052195586E+03 -0.33162077325E+01 -0.68093041866E+03  0.78999688582E+03  0.10100000352E+00 0.  1.
       -3    1    3    3    0  502 -0.40052195586E+03  0.33162077325E+01  0.38642934698E+02  0.40239547831E+03  0.10100000352E+00 0. -1.
</event>
<event>
 5   0  0.9674819E-04  0.1000526E+04  0.7818609E-02  0.9307968E-01
       -2   -1    0    0    0  501  0.00000000000E+00  0.00000000000E+00  0.51282580495E+03  0.51282580495E+03  0.25500000920E-02 0. -1.
        2   -1    0    0  501    0  0.00000000000E+00  0.00000000000E+00 -0.48800800123E+03  0.48800800124E+03  0.25500000920E-02 0.  1.
    10030    2    1    2    0    0  0.00000000000E+00  0.00000000000E+00  0.24817803716E+02  0.10008338062E+04  0.10005260538E+04 0.  0.
        4    1    3    3  502    0  0.80177876049E+01  0.35488326379E+02 -0.48668121259E+03  0.48804090179E+03  0.12699999809E+01 0.  1.
       -4    1    3    3    0  502 -0.80177876049E+01 -0.35488326379E+02  0.51149901631E+03  0.51279290441E+03  0.12699999809E+01 0. -1.
</event>
<event>
 5   0  0.5960102E-04  0.1000440E+04  0.7818609E-02  0.9308062E-01
        1   -1    0    0  501    0  0.00000000000E+00  0.00000000000E+00  0.48442377976E+03  0.48442377978E+03  0.50400001928E-02 0.  1.
       -1   -1    0    0    0  501  0.00000000000E+00  0.00000000000E+00 -0.51653161479E+03  0.51653161481E+03  0.50400001928E-02 0. -1.
    10030    2    1    2    0    0  0.00000000000E+00  0.00000000000E+00 -0.32107835032E+02  0.10009553946E+04  0.10004402975E+04 0.  0.
        5    1    3    3  502    0  0.88759092854E+02  0.27345846218E+03 -0.42558165494E+03  0.51361419579E+03  0.46999998093E+01 0. -1.
       -5    1    3    3    0  502 -0.88759092854E+02 -0.27345846218E+03  0.39347381990E+03  0.48734119880E+03  0.46999998093E+01 0.  1.
</event>
<event>
 5   0  0.9741826E-04  0.1000294E+04  0.7818609E-02  0.9308222E-01
       -2   -1    0    0    0  501  0.00000000000E+00  0.00000000000E+00  0.12238406961E+03  0.12238406964E+03  0.25500000920E-02 0. -1.
        2   -1    0    0  501    0  0.00000000000E+00  0.00000000000E+00 -0.20439528138E+04  0.20439528138E+04  0.25500000920E-02 0.  1.
    10030    2    1    2    0    0  0.00000000000E+00  0.00000000000E+00 -0.19215687441E+04  0.21663368834E+04  0.10002944836E+04 0.  0.
        3    1    3    3  502    0  0.48500297532E+03  0.14940649067E+02 -0.12233269967E+04  0.13160471344E+04  0.10100000352E+00 0.  1.
       -3    1    3    3    0  502 -0.48500297532E+03 -0.14940649067E+02 -0.69824174746E+03  0.85028974894E+03  0.10100000352E+00 0. -1.
</event>
<event>
 5   0  0.9741826E-04  0.9938455E+03  0.7818609E-02  0.9315321E-01
        2   -1    0    0  501    0  0.00000000000E+00  0.00000000000E+00  0.14012368115E+04  0.14012368115E+04  0.25500000920E-02 0. -1.
       -2   -1    0    0    0  501  0.00000000000E+00  0.00000000000E+00 -0.17622448676E+03  0.17622448678E+03  0.25500000920E-02 0.  1.
    10030    2    1    2    0    0  0.00000000000E+00  0.00000000000E+00  0.12250123247E+04  0.15774612982E+04  0.99384553717E+03 0.  0.
        3    1    3    3  502    0 -0.29867168171E+03  0.19066699356E+03  0.59535804146E+02  0.35930933479E+03  0.10100000352E+00 0.  1.
       -3    1    3    3    0  502  0.29867168171E+03 -0.19066699356E+03  0.11654765206E+04  0.12181519634E+04  0.10100000352E+00 0. -1.
</event>
<event>
 5   0  0.3854625E-04  0.1000058E+04  0.7818609E-02  0.9308482E-01
        3   -1    0    0  501    0  0.00000000000E+00  0.00000000000E+00  0.57869854378E+03  0.57869855259E+03  0.10100000352E+00 0.  1.
       -3   -1    0    0    0  501  0.00000000000E+00  0.00000000000E+00 -0.43205367112E+03  0.43205368293E+03  0.10100000352E+00 0. -1.
    10030    2    1    2    0    0  0.00000000000E+00  0.00000000000E+00  0.14664487265E+03  0.10107522355E+04  0.10000576798E+04 0.  0.
        2    1    3    3  502    0 -0.97022935256E+02  0.46834825647E+03 -0.74063292274E+02  0.48399267616E+03  0.25500000920E-02 0. -1.
       -2    1    3    3    0  502  0.97022935256E+02 -0.46834825647E+03  0.22070816493E+03  0.52675955936E+03  0.25500000920E-02 0.  1.
</event>
<event>
 5   0  0.5960102E-04  0.1000837E+04  0.7818609E-02  0.9307627E-01
       -1   -1    0    0    0  501  0.00000000000E+00  0.00000000000E+00  0.30071583472E+03  0.30071583477E+03  0.50400001928E-02 0. -1.
        1   -1    0    0  501    0  0.00000000000E+00  0.00000000000E+00 -0.83274185646E+03  0.83274185647E+03  0.50400001928E-02 0.  1.
    10030    2    1    2    0    0  0.00000000000E+00  0.00000000000E+00 -0.53202602173E+03  0.11334576912E+04  0.10008369747E+04 0.  0.
        5    1    3    3  502    0 -0.68197088798E+01  0.15446654189E+03 -0.80498554402E+03  0.81971350914E+03  0.46999998093E+01 0.  1.
       -5    1    3    3    0  502  0.68197088798E+01 -0.15446654189E+03  0.27295952229E+03  0.31374418209E+03  0.46999998093E+01 0. -1.
</event>
<event>
 5   0  0.9741826E-04  0.1001594E+04  0.7818609E-02  0.9306799E-01
        2   -1    0    0  501    0  0.00000000000E+00  0.00000000000E+00  0.11283742000E+04  0.11283742000E+04  0.25500000920E-02 0.  1.
       -2   -1    0    0    0  501  0.00000000000E+00  0.00000000000E+00 -0.22226445430E+03  0.22226445432E+03  0.25500000920E-02 0. -1.
    10030    2    1    2    0    0  0.00000000000E+00  0.00000000000E+00  0.90610974573E+03  0.13506386544E+04  0.10015936818E+04 0.  0.
        3    1    3    3  502    0 -0.25944231573E+03 -0.30378517186E+03  0.45816107158E+02  0.40211300863E+03  0.10100000352E+00 0. -1.
       -3    1    3    3    0  502  0.25944231573E+03  0.30378517186E+03  0.86029363858E+03  0.94852564573E+03  0.10100000352E+00 0.  1.
</event>
<event>
 5   0  0.3854625E-04  0.9982940E+03  0.7818609E-02  0.9310418E-01
        3   -1    0    0  501    0  0.00000000000E+00  0.00000000000E+00  0.32444474343E+03  0.32444475915E+03  0.10100000352E+00 0. -1.
       -3   -1    0    0    0  501  0.00000000000E+00  0.00000000000E+00 -0.76792033214E+03  0.76792033879E+03  0.10100000352E+00 0.  1.
    10030    2    1    2    0    0  0.00000000000E+00  0.00000000000E+00 -0.44347558871E+03  0.10923650979E+04  0.99829399948E+03 0.  0.
        4    1    3    3  502    0  0.24534065235E+03 -0.34970651424E+03  0.60776327446E+02  0.43148818833E+03  0.12699999809E+01 0. -1.
       -4    1    3    3    0  502 -0.24534065235E+03  0.34970651424E+03 -0.50425191616E+03  0.66087690960E+03  0.12699999809E+01 0.  1.
</event>
<event>
 5   0  0.1006006E-03  0.9995873E+03  0.7818609E-02  0.9308998E-01
       -2   -1    0    0    0  501  0.00000000000E+00  0.00000000000E+00  0.20368124661E+03  0.20368124663E+03  0.25500000920E-02 0.  1.
        2   -1    0    0  501    0  0.00000000000E+00  0.00000000000E+00 -0.12263950584E+04  0.12263950584E+04  0.25500000920E-02 0. -1.
    10030    2    1    2    0    0  0.00000000000E+00  0.00000000000E+00 -0.10227138118E+04  0.14300763051E+04  0.99958726354E+03 0.  0.
        2    1    3    3  502    0  0.78657167912E+02  0.47032484871E+03 -0.72548553169E+03  0.86817145200E+03  0.25500000920E-02 0. -1.
       -2    1    3    3    0  502 -0.78657167912E+02 -0.47032484871E+03 -0.29722828014E+03  0.56190485307E+03  0.25500000920E-02 0.  1.
</event>
<event>
 5   0  0.1006749E-03  0.1000086E+04  0.7818609E-02  0.9308451E-01
       -2   -1    0    0    0  501  0.00000000000E+00  0.00000000000E+00  0.17879040828E+03  0.17879040830E+03  0.25500000920E-02 0.  1.
        2   -1    0    0  501    0  0.00000000000E+00  0.00000000000E+00 -0.13985255253E+04  0.13985255253E+04  0.25500000920E-02 0. -1.
    10030    2    1    2    0    0  0.00000000000E+00  0.00000000000E+00 -0.12197351170E+04  0.15773159336E+04  0.10000858957E+04 0.  0.
        1    1    3    3  502    0 -0.22771852533E+03 -0.79135019316E+02 -0.13008181889E+04  0.13229686462E+04  0.50400001928E-02 0. -1.
       -1    1    3    3    0  502  0.22771852533E+03  0.79135019316E+02  0.81083071900E+02  0.25434728745E+03  0.50400001928E-02 0.  1.
</event>
<event>
 5   0  0.5826939E-04  0.9999654E+03  0.7818609E-02  0.9308583E-01
        1   -1    0    0  501    0  0.00000000000E+00  0.00000000000E+00  0.28327339865E+03  0.28327339870E+03  0.50400001928E-02 0.  1.
       -1   -1    0    0    0  501  0.00000000000E+00  0.00000000000E+00 -0.88247859708E+03  0.88247859709E+03  0.50400001928E-02 0. -1.
    10030    2    1    2    0    0  0.00000000000E+00  0.00000000000E+00 -0.59920519842E+03  0.11657519958E+04  0.99996542233E+03 0.  0.
        1    1    3    3  502    0  0.16371212497E+03 -0.29454104115E+03 -0.73019935671E+03  0.80420593466E+03  0.50400001928E-02 0. -1.
       -1    1    3    3    0  502 -0.16371212497E+03  0.29454104115E+03  0.13099415829E+03  0.36154606112E+03  0.50400001928E-02 0.  1.
</event>
<event>
 5   0  0.9674819E-04  0.1001205E+04  0.7818609E-02  0.9307224E-01
        2   -1    0    0  501    0  0.00000000000E+00  0.00000000000E+00  0.12418330871E+04  0.12418330871E+04  0.25500000920E-02 0.  1.
       -2   -1    0    0    0  501  0.00000000000E+00  0.00000000000E+00 -0.20180084658E+03  0.20180084659E+03  0.25500000920E-02 0. -1.
    10030    2    1    2    0    0  0.00000000000E+00  0.00000000000E+00  0.10400322406E+04  0.14436339337E+04  0.10012052103E+04 0.  0.
        4    1    3    3  502    0 -0.23221262626E+03  0.41355611355E+03  0.28908758410E+03  0.55544991406E+03  0.12699999809E+01 0. -1.
       -4    1    3    3    0  502  0.23221262626E+03 -0.41355611355E+03  0.75094465646E+03  0.88818401968E+03  0.12699999809E+01 0.  1.
</event>
<event>
 5   0  0.9674819E-04  0.1003563E+04  0.7818609E-02  0.9304646E-01
        2   -1    0    0  501    0  0.00000000000E+00  0.00000000000E+00  0.23246604263E+03  0.23246604265E+03  0.25500000920E-02 0.  1.
       -2   -1    0    0    0  501  0.00000000000E+00  0.00000000000E+00 -0.10831019983E+04  0.10831019983E+04  0.25500000920E-02 0. -1.
    10030    2    1    2    0    0  0.00000000000E+00  0.00000000000E+00 -0.85063595571E+03  0.13155680410E+04  0.10035625249E+04 0.  0.
        4    1    3    3  502    0  0.45401468743E+03 -0.12940202243E+03 -0.20243216335E+03  0.51366780459E+03  0.12699999809E+01 0.  1.
       -4    1    3    3    0  502 -0.45401468743E+03  0.12940202243E+03 -0.64820379236E+03  0.80190023640E+03  0.12699999809E+01 0. -1.
</event>
<event>
 5   0  0.1020150E-03  0.1000273E+04  0.7818609E-02  0.9308246E-01
        2   -1    0    0  501    0  0.00000000000E+00  0.00000000000E+00  0.16293573278E+04  0.16293573278E+04  0.25500000920E-02 0.  1.
       -2   -1    0    0    0  501  0.00000000000E+00  0.00000000000E+00 -0.15351836454E+03  0.15351836456E+03  0.25500000920E-02 0. -1.
    10030    2    1    2    0    0  0.00000000000E+00  0.00000000000E+00  0.14758389633E+04  0.17828756924E+04  0.10002725073E+04 0.  0.
        5    1    3    3  502    0  0.16936708390E+03 -0.38842318473E+03  0.26447294202E+03  0.49952558153E+03  0.46999998093E+01 0. -1.
       -5    1    3    3    0  502 -0.16936708390E+03  0.38842318473E+03  0.12113660212E+04  0.12833501108E+04  0.46999998093E+01 0.  1.
</event>
<event>
 5   0  0.5768102E-04  0.9986878E+03  0.7818609E-02  0.9309985E-01
        1   -1    0    0  501    0  0.00000000000E+00  0.00000000000E+00  0.84653587035E+03  0.84653587037E+03  0.50400001928E-02 0.  1.
       -1   -1    0    0    0  501  0.00000000000E+00  0.00000000000E+00 -0.29454670375E+03  0.29454670379E+03  0.50400001928E-02 0. -1.
    10030    2    1    2    0    0  0.00000000000E+00  0.00000000000E+00  0.55198916660E+03  0.11410825742E+04  0.99868783962E+03 0.  0.
        4    1    3    3  502    0  0.36595053856E+03 -0.19782946406E+03  0.59157569122E+03  0.72320101277E+03  0.12699999809E+01 0.  1.
       -4    1    3    3    0  502 -0.36595053856E+03  0.19782946406E+03 -0.39586524616E+02  0.41788156140E+03  0.12699999809E+01 0. -1.
</event>
<event>
 5   0  0.5888774E-04  0.9992240E+03  0.7818609E-02  0.9309396E-01
       -1   -1    0    0    0  501  0.00000000000E+00  0.00000000000E+00  0.42686487375E+03  0.42686487378E+03  0.50400001928E-02 0. -1.
        1   -1    0    0  501    0  0.00000000000E+00  0.00000000000E+00 -0.58475682776E+03  0.58475682778E+03  0.50400001928E-02 0.  1.
    10030    2    1    2    0    0  0.00000000000E+00  0.00000000000E+00 -0.15789195401E+03  0.10116217016E+04  0.99922399788E+03 0.  0.
        2    1    3    3  502    0  0.37961913622E+03 -0.26343617259E+03 -0.27131094660E+03  0.53583480231E+03  0.25500000920E-02 0.  1.
       -2    1    3    3    0  502 -0.37961913622E+03  0.26343617259E+03  0.11341899259E+03  0.47578689926E+03  0.25500000920E-02 0. -1.
</event>
<event>
 5   0  0.9741826E-04  0.9984067E+03  0.7818609E-02  0.9310294E-01
       -2   -1    0    0    0  501  0.00000000000E+00  0.00000000000E+00  0.40584476119E+03  0.40584476120E+03  0.25500000920E-02 0. -1.
        2   -1    0    0  501    0  0.00000000000E+00  0.00000000000E+00 -0.61403773575E+03  0.61403773575E+03  0.25500000920E-02 0.  1.
    10030    2    1    2    0    0  0.00000000000E+00  0.00000000000E+00 -0.20819297456E+03  0.10198824970E+04  0.99840672721E+03 0.  0.
        3    1    3    3  502    0  0.48920670685E+03 -0.80424084480E+02 -0.44421127555E+02  0.49775946216E+03  0.10100000352E+00 0. -1.
       -3    1    3    3    0  502 -0.48920670685E+03  0.80424084480E+02 -0.16377184700E+03  0.52212303480E+03  0.10100000352E+00 0.  1.
</event>
<event>
 5   0  0.9674819E-04  0.9996137E+03  0.7818609E-02  0.9308969E-01
        2   -1    0    0  501    0  0.00000000000E+00  0.00000000000E+00  0.32630249679E+03  0.32630249680E+03  0.25500000920E-02 0. -1.
       -2   -1    0    0    0  501  0.00000000000E+00  0.00000000000E+00 -0.76556848345E+03  0.76556848345E+03  0.25500000920E-02 0.  1.
    10030    2    1    2    0    0  0.00000000000E+00  0.00000000000E+00 -0.43926598666E+03  0.10918709802E+04  0.99961374064E+03 0.  0.
        4    1    3    3  502    0 -0.13016268741E+02  0.13587033839E+03  0.30554879114E+03  0.33465183216E+03  0.12699999809E+01 0. -1.
       -4    1    3    3    0  502  0.13016268741E+02 -0.13587033839E+03 -0.74481477780E+03  0.75721914809E+03  0.12699999809E+01 0.  1.
</event>
<event>
 5   0  0.9674819E-04  0.9996541E+03  0.7818609E-02  0.9308924E-01
       -2   -1    0    0    0  501  0.00000000000E+00  0.00000000000E+00  0.32575380997E+03  0.32575380998E+03  0.25500000920E-02 0. -1.
        2   -1    0    0  501    0  0.00000000000E+00  0.00000000000E+00 -0.76691993686E+03  0.76691993686E+03  0.25500000920E-02 0.  1.
    10030    2    1    2    0    0  0.00000000000E+00  0.00000000000E+00 -0.44116612689E+03  0.10926737468E+04  0.99965412295E+03 0.  0.
        4    1    3    3  502    0  0.16825853767E+03 -0.42867532952E+03 -0.43296166518E+03  0.63208455926E+03  0.12699999809E+01 0. -1.
       -4    1    3    3    0  502 -0.16825853767E+03  0.42867532952E+03 -0.82044617035E+01  0.46058918759E+03  0.12699999809E+01 0.  1.
</event>
<event>
 5   0  0.5758786E-04  0.9979078E+03  0.7818609E-02  0.9310843E-01
       -1   -1    0    0    0  501  0.00000000000E+00  0.00000000000E+00  0.25376283232E+03  0.25376283237E+03  0.50400001928E-02 0. -1.
        1   -1    0    0  501    0  0.00000000000E+00  0.00000000000E+00 -0.98105373655E+03  0.98105373656E+03  0.50400001928E-02 0.  1.
    10030    2    1    2    0    0  0.00000000000E+00  0.00000000000E+00 -0.72729090422E+03  0.12348165689E+04  0.99790776104E+03 0.  0.
        3    1    3    3  502    0  0.17532981914E+02 -0.48083219425E+03 -0.52709524663E+03  0.71367808829E+03  0.10100000352E+00 0.  1.
       -3    1    3    3    0  502 -0.17532981914E+02  0.48083219425E+03 -0.20019565759E+03  0.52113848064E+03  0.10100000352E+00 0. -1.
</event>
<event>
 5   0  0.5826939E-04  0.1011312E+04  0.7818609E-02  0.9296224E-01
       -1   -1    0    0    0  501  0.00000000000E+00  0.00000000000E+00  0.16142120668E+03  0.16142120675E+03  0.50400001928E-02 0. -1.
        1   -1    0    0  501    0  0.00000000000E+00  0.00000000000E+00 -0.15839805076E+04  0.15839805076E+04  0.50400001928E-02 0.  1.
    10030    2    1    2    0    0  0.00000000000E+00  0.00000000000E+00 -0.14225593009E+04  0.17454017144E+04  0.10113121080E+04 0.  0.
        1    1    3    3  502    0 -0.12277559929E+03  0.10433424433E+03 -0.15384932943E+04  0.15469069458E+04  0.50400001928E-02 0.  1.
       -1    1    3    3    0  502  0.12277559929E+03 -0.10433424433E+03  0.11593399335E+03  0.19849476860E+03  0.50400001928E-02 0. -1.
</event>
<event>
 5   0  0.5888774E-04  0.9999636E+03  0.7818609E-02  0.9308585E-01
       -1   -1    0    0    0  501  0.00000000000E+00  0.00000000000E+00  0.37130649876E+03  0.37130649880E+03  0.50400001928E-02 0.  1.
        1   -1    0    0  501    0  0.00000000000E+00  0.00000000000E+00 -0.67324922740E+03  0.67324922742E+03  0.50400001928E-02 0. -1.
    10030    2    1    2    0    0  0.00000000000E+00  0.00000000000E+00 -0.30194272864E+03  0.10445557262E+04  0.99996362624E+03 0.  0.
        2    1    3    3  502    0  0.40558697366E+03 -0.17058510143E+03  0.97065745276E+02  0.45057943688E+03  0.25500000920E-02 0.  1.
       -2    1    3    3    0  502 -0.40558697366E+03  0.17058510143E+03 -0.39900847392E+03  0.59397628934E+03  0.25500000920E-02 0. -1.
</event>
<event>
 5   0  0.1006749E-03  0.9983755E+03  0.7818609E-02  0.9310328E-01
       -2   -1    0    0    0  501  0.00000000000E+00  0.00000000000E+00  0.12358008755E+03  0.12358008757E+03  0.25500000920E-02 0.  1.
        2   -1    0    0  501    0  0.00000000000E+00  0.00000000000E+00 -0.20164121820E+04  0.20164121820E+04  0.25500000920E-02 0. -1.
    10030    2    1    2    0    0  0.00000000000E+00  0.00000000000E+00 -0.18928320944E+04  0.21399922695E+04  0.99837546846E+03 0.  0.
        1    1    3    3  502    0  0.29703297423E+03  0.10607117437E+03 -0.11705842475E+03  0.33642585608E+03  0.50400001928E-02 0.  1.
       -1    1    3    3    0  502 -0.29703297423E+03 -0.10607117437E+03 -0.17757736697E+04  0.18035664134E+04  0.50400001928E-02 0. -1.
</event>
<event>
 5   0  0.9674819E-04  0.9988309E+03  0.7818609E-02  0.9309828E-01
       -2   -1    0    0    0  501  0.00000000000E+00  0.00000000000E+00  0.37635983744E+03  0.37635983745E+03  0.25500000920E-02 0.  1.
        2   -1    0    0  501    0  0.00000000000E+00  0.00000000000E+00 -0.66270567099E+03  0.66270567099E+03  0.25500000920E-02 0. -1.
    10030    2    1    2    0    0  0.00000000000E+00  0.00000000000E+00 -0.28634583354E+03  0.10390655084E+04  0.99883091385E+03 0.  0.
        4    1    3    3  502    0 -0.74029808054E+02  0.46641705860E+03 -0.31216314899E+03  0.56610310856E+03  0.12699999809E+01 0.  1.
       -4    1    3    3    0  502  0.74029808054E+02 -0.46641705860E+03  0.25817315443E+02  0.47296239989E+03  0.12699999809E+01 0. -1.
</event>
<event>
 5   0  0.5960102E-04  0.1001312E+04  0.7818609E-02  0.9307107E-01
       -1   -1    0    0    0  501  0.00000000000E+00  0.00000000000E+00  0.14346897659E+03  0.14346897668E+03  0.50400001928E-02 0. -1.
        1   -1    0    0  501    0  0.00000000000E+00  0.00000000000E+00 -0.17471131612E+04  0.17471131612E+04  0.50400001928E-02 0.  1.
    10030    2    1    2    0    0  0.00000000000E+00  0.00000000000E+00 -0.16036441846E+04  0.18905821379E+04  0.10013122137E+04 0.  0.
        5    1    3    3  502    0  0.13281010321E+03  0.25969683761E+03 -0.15700590378E+04  0.15969309450E+04  0.46999998093E+01 0.  1.
       -5    1    3    3    0  502 -0.13281010321E+03 -0.25969683761E+03 -0.33585146787E+02  0.29365119285E+03  0.46999998093E+01 0. -1.
</event>
<event>
 5   0  0.1006749E-03  0.9980554E+03  0.7818609E-02  0.9310680E-01
       -2   -1    0    0    0  501  0.00000000000E+00  0.00000000000E+00  0.38136682031E+03  0.38136682032E+03  0.25500000920E-02 0.  1.
        2   -1    0    0  501    0  0.00000000000E+00  0.00000000000E+00 -0.65298975706E+03  0.65298975707E+03  0.25500000920E-02 0. -1.
    10030    2    1    2    0    0  0.00000000000E+00  0.00000000000E+00 -0.27162293675E+03  0.10343565774E+04  0.99805536390E+03 0.  0.
        1    1    3    3  502    0 -0.28392276688E+03 -0.27312213071E+03 -0.45325405817E+03  0.60053898884E+03  0.50400001928E-02 0. -1.
       -1    1    3    3    0  502  0.28392276688E+03  0.27312213071E+03  0.18163112143E+03  0.43381758855E+03  0.50400001928E-02 0.  1.
</event>
<event>
 5   0  0.5758786E-04  0.1002545E+04  0.7818609E-02  0.9305758E-01
        1   -1    0    0  501    0  0.00000000000E+00  0.00000000000E+00  0.29187317372E+03  0.29187317376E+03  0.50400001928E-02 0.  1.
       -1   -1    0    0    0  501  0.00000000000E+00  0.00000000000E+00 -0.86090201850E+03  0.86090201852E+03  0.50400001928E-02 0. -1.
    10030    2    1    2    0    0  0.00000000000E+00  0.00000000000E+00 -0.56902884478E+03  0.11527751923E+04  0.10025451699E+04 0.  0.
        3    1    3    3  502    0  0.40037926887E+03  0.39851179780E+02 -0.62828362539E+03  0.74607774368E+03  0.10100000352E+00 0. -1.
       -3    1    3    3    0  502 -0.40037926887E+03 -0.39851179780E+02  0.59254780611E+02  0.40669744860E+03  0.10100000352E+00 0.  1.
</event>
<event>
 5   0  0.5960102E-04  0.1000400E+04  0.7818609E-02  0.9308106E-01
       -1   -1    0    0    0  501  0.00000000000E+00  0.00000000000E+00  0.57917201761E+03  0.57917201763E+03  0.50400001928E-02 0. -1.
        1   -1    0    0  501    0  0.00000000000E+00  0.00000000000E+00 -0.43199601656E+03  0.43199601659E+03  0.50400001928E-02 0.  1.
    10030    2    1    2    0    0  0.00000000000E+00  0.00000000000E+00  0.14717600105E+03  0.10111680342E+04  0.10003999291E+04 0.  0.
        5    1    3    3  502    0 -0.35523264386E+03  0.15108597572E+03 -0.24789322604E+03  0.45879226763E+03  0.46999998093E+01 0.  1.
       -5    1    3    3    0  502  0.35523264386E+03 -0.15108597572E+03  0.39506922709E+03  0.55237576659E+03  0.46999998093E+01 0. -1.
</event>
<event>
 5   0  0.5960102E-04  0.9977353E+03  0.7818609E-02  0.9311032E-01
       -1   -1    0    0    0  501  0.00000000000E+00  0.00000000000E+00  0.17739378137E+03  0.17739378144E+03  0.50400001928E-02 0.  1.
        1   -1    0    0  501    0  0.00000000000E+00  0.00000000000E+00 -0.14029179693E+04  0.14029179693E+04  0.50400001928E-02 0. -1.
    10030    2    1    2    0    0  0.00000000000E+00  0.00000000000E+00 -0.12255241880E+04  0.15803117508E+04  0.99773528272E+03 0.  0.
        5    1    3    3  502    0  0.21606341780E+03  0.11602960996E+03 -0.13008026476E+04  0.13237280268E+04  0.46999998093E+01 0. -1.
       -5    1    3    3    0  502 -0.21606341780E+03 -0.11602960996E+03  0.75278459694E+02  0.25658372394E+03  0.46999998093E+01 0.  1.
</event>
<event>
 5   0  0.3854625E-04  0.9928046E+03  0.7818609E-02  0.9316472E-01
        4   -1    0    0  501    0  0.00000000000E+00  0.00000000000E+00  0.12409183722E+04  0.12409190221E+04  0.12699999809E+01 0. -1.
       -4   -1    0    0    0  501  0.00000000000E+00  0.00000000000E+00 -0.19857217497E+03  0.19857623618E+03  0.12699999809E+01 0.  1.
    10030    2    1    2    0    0  0.00000000000E+00  0.00000000000E+00  0.10423461973E+04  0.14394952583E+04  0.99280461507E+03 0.  0.
        2    1    3    3  502    0 -0.41678221445E+03 -0.64718733905E+02  0.14163709513E+03  0.44492358392E+03  0.25500000920E-02 0.  1.
       -2    1    3    3    0  502  0.41678221445E+03  0.64718733905E+02  0.90070910213E+03  0.99457167438E+03  0.25500000920E-02 0. -1.
</event>
<event>
 5   0  0.1020150E-03  0.1000861E+04  0.7818609E-02  0.9307601E-01
       -2   -1    0    0    0  501  0.00000000000E+00  0.00000000000E+00  0.51948701007E+03  0.51948701007E+03  0.25500000920E-02 0. -1.
        2   -1    0    0  501    0  0.00000000000E+00  0.00000000000E+00 -0.48207279720E+03  0.48207279721E+03  0.25500000920E-02 0.  1.
    10030    2    1    2    0    0  0.00000000000E+00  0.00000000000E+00  0.37414212861E+02  0.10015598073E+04  0.10008607417E+04 0.  0.
        5    1    3    3  502    0 -0.38069061729E+03 -0.32478154505E+03  0.18446227719E+02  0.50077015827E+03  0.46999998093E+01 0.  1.
       -5    1    3    3    0  502  0.38069061729E+03  0.32478154505E+03  0.18967985143E+02  0.50078964901E+03  0.46999998093E+01 0. -1.
</event>
<event>
 5   0  0.9674819E-04  0.1000048E+04  0.7818609E-02  0.9308492E-01
        2   -1    0    0  501    0  0.00000000000E+00  0.00000000000E+00  0.10467252784E+04  0.10467252784E+04  0.25500000920E-02 0. -1.
       -2   -1    0    0    0  501  0.00000000000E+00  0.00000000000E+00 -0.23886297676E+03  0.23886297678E+03  0.25500000920E-02 0.  1.
    10030    2    1    2    0    0  0.00000000000E+00  0.00000000000E+00  0.80786230160E+03  0.12855882551E+04  0.10000478306E+04 0.  0.
        4    1    3    3  502    0  0.27001719998E+03 -0.42082881404E+03  0.39876916702E+03  0.63955034241E+03  0.12699999809E+01 0.  1.
       -4    1    3    3    0  502 -0.27001719998E+03  0.42082881404E+03  0.40909313458E+03  0.64603791272E+03  0.12699999809E+01 0. -1.
</event>
<event>
 5   0  0.5826939E-04  0.1000389E+04  0.7818609E-02  0.9308118E-01
       -1   -1    0    0    0  501  0.00000000000E+00  0.00000000000E+00  0.66694906760E+03  0.66694906762E+03  0.50400001928E-02 0.  1.
        1   -1    0    0  501    0  0.00000000000E+00  0.00000000000E+00 -0.37513293518E+03  0.37513293521E+03  0.50400001928E-02 0. -1.
    10030    2    1    2    0    0  0.00000000000E+00  0.00000000000E+00  0.29181613242E+03  0.10420820028E+04  0.10003890471E+04 0.  0.
        1    1    3    3  502    0 -0.53406025223E+02  0.44962169642E+03 -0.75513031348E+02  0.45903604581E+03  0.50400001928E-02 0. -1.
       -1    1    3    3    0  502  0.53406025223E+02 -0.44962169642E+03  0.36732916377E+03  0.58304595702E+03  0.50400001928E-02 0.  1.
</event>
<event>
 5   0  0.1020150E-03  0.1000633E+04  0.7818609E-02  0.9307851E-01
        2   -1    0    0  501    0  0.00000000000E+00  0.00000000000E+00  0.16479915948E+04  0.16479915948E+04  0.25500000920E-02 0. -1.
       -2   -1    0    0    0  501  0.00000000000E+00  0.00000000000E+00 -0.15189189308E+03  0.15189189311E+03  0.25500000920E-02 0.  1.
    10030    2    1    2    0    0  0.00000000000E+00  0.00000000000E+00  0.14960997017E+04  0.17998834879E+04  0.10006329260E+04 0.  0.
        5    1    3    3  502    0 -0.60740355778E+02 -0.15454083985E+03 -0.10084005268E+03  0.19432721946E+03  0.46999998093E+01 0.  1.
       -5    1    3    3    0  502  0.60740355778E+02  0.15454083985E+03  0.15969397544E+04  0.16055562685E+04  0.46999998093E+01 0. -1.
</event>
<event>
 5   0  0.5960102E-04  0.9999436E+03  0.7818609E-02  0.9308607E-01
        1   -1    0    0  501    0  0.00000000000E+00  0.00000000000E+00  0.84175651420E+03  0.84175651421E+03  0.50400001928E-02 0.  1.
       -1   -1    0    0    0  501  0.00000000000E+00  0.00000000000E+00 -0.29696447052E+03  0.29696447057E+03  0.50400001928E-02 0. -1.
    10030    2    1    2    0    0  0.00000000000E+00  0.00000000000E+00  0.54479204367E+03  0.11387209848E+04  0.99994355357E+03 0.  0.
        5    1    3    3  502    0 -0.23501983856E+03  0.37647441371E+03  0.53452049231E+03  0.69476726707E+03  0.46999998093E+01 0.  1.
       -5    1    3    3    0  502  0.23501983856E+03 -0.37647441371E+03  0.10271551360E+02  0.44395371770E+03  0.46999998093E+01 0. -1.
</event>
<event>
 5   0  0.9741826E-04  0.1002212E+04  0.7818609E-02  0.9306122E-01
        2   -1    0    0  501    0  0.00000000000E+00  0.00000000000E+00  0.11812764703E+04  0.11812764703E+04  0.25500000920E-02 0.  1.
       -2   -1    0    0    0  501  0.00000000000E+00  0.00000000000E+00 -0.21257297586E+03  0.21257297588E+03  0.25500000920E-02 0. -1.
    10030    2    1    2    0    0  0.00000000000E+00  0.00000000000E+00  0.96870349443E+03  0.13938494462E+04  0.10022124617E+04 0.  0.
        3    1    3    3  502    0  0.28064444965E+03 -0.16892640413E+03 -0.43061000302E+02  0.33038113911E+03  0.10100000352E+00 0. -1.
       -3    1    3    3    0  502 -0.28064444965E+03  0.16892640413E+03  0.10117644947E+04  0.10634683071E+04  0.10100000352E+00 0.  1.
</event>
<event>
 5   0  0.1020150E-03  0.1000080E+04  0.7818609E-02  0.9308458E-01
        2   -1    0    0  501    0  0.00000000000E+00  0.00000000000E+00  0.58033433244E+03  0.58033433245E+03  0.25500000920E-02 0. -1.
       -2   -1    0    0    0  501  0.00000000000E+00  0.00000000000E+00 -0.43085470282E+03  0.43085470283E+03  0.25500000920E-02 0.  1.
    10030    2    1    2    0    0  0.00000000000E+00  0.00000000000E+00  0.14947962962E+03  0.10111890353E+04  0.10000795495E+04 0.  0.
        5    1    3    3  502    0  0.36766739951E+02  0.44155376553E+03 -0.15955864903E+03  0.47095920577E+03  0.46999998093E+01 0. -1.
       -5    1    3    3    0  502 -0.36766739951E+02 -0.44155376553E+03  0.30903827865E+03  0.54022982951E+03  0.46999998093E+01 0.  1.
</event>
<event>
 5   0  0.5768102E-04  0.9999630E+03  0.7818609E-02  0.9308585E-01
        1   -1    0    0  501    0  0.00000000000E+00  0.00000000000E+00  0.16904316058E+04  0.16904316058E+04  0.50400001928E-02 0. -1.
       -1   -1    0    0    0  501  0.00000000000E+00  0.00000000000E+00 -0.14788029396E+03  0.14788029404E+03  0.50400001928E-02 0.  1.
    10030    2    1    2    0    0  0.00000000000E+00  0.00000000000E+00  0.15425513119E+04  0.18383118999E+04  0.99996304506E+03 0.  0.
        4    1    3    3  502    0  0.19708185701E+02  0.17775366921E+03  0.16296142578E+04  0.16393989819E+04  0.12699999809E+01 0. -1.
       -4    1    3    3    0  502 -0.19708185701E+02 -0.17775366921E+03 -0.87062945949E+02  0.19891291803E+03  0.12699999809E+01 0.  1.
</event>
<event>
 5   0  0.9741826E-04  0.1000008E+04  0.7818609E-02  0.9308536E-01
        2   -1    0    0  501    0  0.00000000000E+00  0.00000000000E+00  0.30229479095E+03  0.30229479096E+03  0.25500000920E-02 0. -1.
       -2   -1    0    0    0  501  0.00000000000E+00  0.00000000000E+00 -0.82702000248E+03  0.82702000249E+03  0.25500000920E-02 0.  1.
    10030    2    1    2    0    0  0.00000000000E+00  0.00000000000E+00 -0.52472521153E+03  0.11293147934E+04  0.10000076775E+04 0.  0.
        3    1    3    3  502    0 -0.16360962154E+03 -0.37969947055E+03 -0.57990459640E+03  0.71220021576E+03  0.10100000352E+00 0.  1.
       -3    1    3    3    0  502  0.16360962154E+03  0.37969947055E+03  0.55179384867E+02  0.41711457768E+03  0.10100000352E+00 0. -1.
</event>
<event>
 5   0  0.1006006E-03  0.1000131E+04  0.7818609E-02  0.9308401E-01
        2   -1    0    0  501    0  0.00000000000E+00  0.00000000000E+00  0.18780269564E+04  0.18780269564E+04  0.25500000920E-02 0. -1.
       -2   -1    0    0    0  501  0.00000000000E+00  0.00000000000E+00 -0.13315337470E+03  0.13315337472E+03  0.25500000920E-02 0.  1.
    10030    2    1    2    0    0  0.00000000000E+00  0.00000000000E+00  0.17448735817E+04  0.20111803311E+04  0.10001312455E+04 0.  0.
        2    1    3    3  502    0 -0.18737997568E+03  0.26238761217E+03  0.10378490521E+03  0.33871790750E+03  0.25500000920E-02 0.  1.
       -2    1    3    3    0  502  0.18737997568E+03 -0.26238761217E+03  0.16410886765E+04  0.16724624236E+04  0.25500000920E-02 0. -1.
</event>
<event>
 5   0  0.9674819E-04  0.9993869E+03  0.7818609E-02  0.9309217E-01
        2   -1    0    0  501    0  0.00000000000E+00  0.00000000000E+00  0.72435517395E+03  0.72435517395E+03  0.25500000920E-02 0. -1.
       -2   -1    0    0    0  501  0.00000000000E+00  0.00000000000E+00 -0.34471150592E+03  0.34471150593E+03  0.25500000920E-02 0.  1.
    10030    2    1    2    0    0  0.00000000000E+00  0.00000000000E+00  0.37964366803E+03  0.10690666799E+04  0.99938693776E+03 0.  0.
        4    1    3    3  502    0  0.12967695704E+03  0.74230519081E+02  0.69989628120E+03  0.71566940726E+03  0.12699999809E+01 0. -1.
       -4    1    3    3    0  502 -0.12967695704E+03 -0.74230519081E+02 -0.32025261318E+03  0.35339727262E+03  0.12699999809E+01 0.  1.
</event>
<event>
 5   0  0.1020150E-03  0.1005231E+04  0.7818609E-02  0.9302826E-01
        2   -1    0    0  501    0  0.00000000000E+00  0.00000000000E+00  0.12226435737E+04  0.12226435737E+04  0.25500000920E-02 0. -1.
       -2   -1    0    0    0  501  0.00000000000E+00  0.00000000000E+00 -0.20661969836E+03  0.20661969838E+03  0.25500000920E-02 0.  1.
    10030    2    1    2    0    0  0.00000000000E+00  0.00000000000E+00  0.10160238753E+04  0.14292632721E+04  0.10052308121E+04 0.  0.
        5    1    3    3  502    0  0.44484189988E+03 -0.61552842639E+02  0.18714803307E+03  0.48653832799E+03  0.46999998093E+01 0.  1.
       -5    1    3    3    0  502 -0.44484189988E+03  0.61552842639E+02  0.82887584223E+03  0.94272494406E+03  0.46999998093E+01 0. -1.
</event>
<event>
 5   0  0.1006749E-03  0.1001104E+04  0.7818609E-02  0.9307335E-01
       -2   -1    0    0    0  501  0.00000000000E+00  0.00000000000E+00  0.33967474266E+03  0.33967474267E+03  0.25500000920E-02 0. -1.
        2   -1    0    0  501    0  0.00000000000E+00  0.00000000000E+00 -0.73762366060E+03  0.73762366060E+03  0.25500000920E-02 0.  1.
    10030    2    1    2    0    0  0.00000000000E+00  0.00000000000E+00 -0.39794891794E+03  0.10772984033E+04  0.10011036452E+04 0.  0.
        1    1    3    3  502    0  0.84696986496E+02 -0.31543631944E+03 -0.60715743506E+03  0.68943005600E+03  0.50400001928E-02 0.  1.
       -1    1    3    3    0  502 -0.84696986496E+02  0.31543631944E+03  0.20920851712E+03  0.38786834726E+03  0.50400001928E-02 0. -1.
</event>
<event>
 5   0  0.1006749E-03  0.1000109E+04  0.7818609E-02  0.9308425E-01
        2   -1    0    0  501    0  0.00000000000E+00  0.00000000000E+00  0.27542795598E+03  0.27542795600E+03  0.25500000920E-02 0.  1.
       -2   -1    0    0    0  501  0.00000000000E+00  0.00000000000E+00 -0.90787654281E+03  0.90787654282E+03  0.25500000920E-02 0. -1.
    10030    2    1    2    0    0  0.00000000000E+00  0.00000000000E+00 -0.63244858683E+03  0.11833044988E+04  0.10001091550E+04 0.  0.
        1    1    3    3  502    0  0.23952610569E+03  0.31730496114E+03  0.42649362660E+02  0.39984267135E+03  0.50400001928E-02 0.  1.
       -1    1    3    3    0  502 -0.23952610569E+03 -0.31730496114E+03 -0.67509794949E+03  0.78346182747E+03  0.50400001928E-02 0. -1.
</event>
<event>
 5   0  0.5826939E-04  0.1000170E+04  0.7818609E-02  0.9308359E-01
        1   -1    0    0  501    0  0.00000000000E+00  0.00000000000E+00  0.47350971886E+03  0.47350971888E+03  0.50400001928E-02 0.  1.
       -1   -1    0    0    0  501  0.00000000000E+00  0.00000000000E+00 -0.52815135448E+03  0.52815135451E+03  0.50400001928E-02 0. -1.
    10030    2    1    2    0    0  0.00000000000E+00  0.00000000000E+00 -0.54641635629E+02  0.10016610734E+04  0.10001695844E+04 0.  0.
        1    1    3    3  502    0 -0.19592404988E+03 -0.13277573979E+03 -0.46851058020E+03  0.52489788930E+03  0.50400001928E-02 0. -1.
       -1    1    3    3    0  502  0.19592404988E+03  0.13277573979E+03  0.41386894458E+03  0.47676318410E+03  0.50400001928E-02 0.  1.
</event>
<event>
 5   0  0.5888774E-04  0.1009885E+04  0.7818609E-02  0.9297769E-01
       -1   -1    0    0    0  501  0.00000000000E+00  0.00000000000E+00  0.56867886437E+03  0.56867886439E+03  0.50400001928E-02 0.  1.
        1   -1    0    0  501    0  0.00000000000E+00  0.00000000000E+00 -0.44834937359E+03  0.44834937362E+03  0.50400001928E-02 0. -1.
    10030    2    1    2    0    0  0.00000000000E+00  0.00000000000E+00  0.12032949078E+03  0.10170282380E+04  0.10098847709E+04 0.  0.
        2    1    3    3  502    0 -0.22659283641E+03  0.45122848328E+03  0.56218482164E+02  0.50804721767E+03  0.25500000920E-02 0.  1.
       -2    1    3    3    0  502  0.22659283641E+03 -0.45122848328E+03  0.64111008617E+02  0.50898102034E+03  0.25500000920E-02 0. -1.
</event>
<event>
 5   0  0.1006749E-03  0.9921179E+03  0.7818609E-02  0.9317232E-01
        2   -1    0    0  501    0  0.00000000000E+00  0.00000000000E+00  0.52948984139E+03  0.52948984139E+03  0.25500000920E-02 0.  1.
       -2   -1    0    0    0  501  0.00000000000E+00  0.00000000000E+00 -0.46473880856E+03  0.46473880856E+03  0.25500000920E-02 0. -1.
    10030    2    1    2    0    0  0.00000000000E+00  0.00000000000E+00  0.64751032828E+02  0.99422864996E+03  0.99211789226E+03 0.  0.
        1    1    3    3  502    0  0.60073191150E+02  0.45992301154E+02  0.52367398968E+03  0.52911107298E+03  0.50400001928E-02 0.  1.
       -1    1    3    3    0  502 -0.60073191150E+02 -0.45992301154E+02 -0.45892295685E+03  0.46511757697E+03  0.50400001928E-02 0. -1.
</event>
<event>
 5   0  0.5758786E-04  0.1000088E+04  0.7818609E-02  0.9308449E-01
        1   -1    0    0  501    0  0.00000000000E+00  0.00000000000E+00  0.54876403851E+03  0.54876403854E+03  0.50400001928E-02 0. -1.
       -1   -1    0    0    0  501  0.00000000000E+00  0.00000000000E+00 -0.45564895806E+03  0.45564895809E+03  0.50400001928E-02 0.  1.
    10030    2    1    2    0    0  0.00000000000E+00  0.00000000000E+00  0.93115080450E+02  0.10044129966E+04  0.10000875210E+04 0.  0.
        3    1    3    3  502    0  0.44588900767E+03 -0.15509187599E+03  0.21211362525E+03  0.51755453565E+03  0.10100000352E+00 0.  1.
       -3    1    3    3    0  502 -0.44588900767E+03  0.15509187599E+03 -0.11899854480E+03  0.48685846098E+03  0.10100000352E+00 0. -1.
</event>
<event>
 5   0  0.1020150E-03  0.9993929E+03  0.7818609E-02  0.9309211E-01
       -2   -1    0    0    0  501  0.00000000000E+00  0.00000000000E+00  0.20059408789E+03  0.20059408791E+03  0.25500000920E-02 0.  1.
        2   -1    0    0  501    0  0.00000000000E+00  0.00000000000E+00 -0.12447852298E+04  0.12447852298E+04  0.25500000920E-02 0. -1.
    10030    2    1    2    0    0  0.00000000000E+00  0.00000000000E+00 -0.10441911419E+04  0.14453793177E+04  0.99939293133E+03 0.  0.
        5    1    3    3  502    0  0.29657798737E+03  0.83232118235E+02  0.46907669520E+02  0.31162237974E+03  0.46999998093E+01 0.  1.
       -5    1    3    3    0  502 -0.29657798737E+03 -0.83232118235E+02 -0.10910988114E+04  0.11337569379E+04  0.46999998093E+01 0. -1.
</event>
<event>
 5   0  0.5758786E-04  0.9986756E+03  0.7818609E-02  0.9309999E-01
       -1   -1    0    0    0  501  0.00000000000E+00  0.00000000000E+00  0.13150220743E+03  0.13150220752E+03  0.50400001928E-02 0. -1.
        1   -1    0    0  501    0  0.00000000000E+00  0.00000000000E+00 -0.18960766081E+04  0.18960766081E+04  0.50400001928E-02 0.  1.
    10030    2    1    2    0    0  0.00000000000E+00  0.00000000000E+00 -0.17645744007E+04  0.20275788157E+04  0.99867564209E+03 0.  0.
        3    1    3    3  502    0 -0.18398394408E+03 -0.19462168279E+03 -0.26653902610E+02  0.26914332950E+03  0.10100000352E+00 0. -1.
       -3    1    3    3    0  502  0.18398394408E+03  0.19462168279E+03 -0.17379204981E+04  0.17584354861E+04  0.10100000352E+00 0.  1.
</event>
<event>
 5   0  0.1006006E-03  0.1000335E+04  0.7818609E-02  0.9308177E-01
       -2   -1    0    0    0  501  0.00000000000E+00  0.00000000000E+00  0.32478794040E+03  0.32478794041E+03  0.25500000920E-02 0. -1.
        2   -1    0    0  501    0  0.00000000000E+00  0.00000000000E+00 -0.77024922448E+03  0.77024922448E+03  0.25500000920E-02 0.  1.
    10030    2    1    2    0    0  0.00000000000E+00  0.00000000000E+00 -0.44546128408E+03  0.10950371649E+04  0.10003352622E+04 0.  0.
        2    1    3    3  502    0  0.70622013503E+02  0.29227830126E+03 -0.66026139856E+03  0.72550616029E+03  0.25500000920E-02 0.  1.
       -2    1    3    3    0  502 -0.70622013503E+02 -0.29227830126E+03  0.21480011448E+03  0.36953100461E+03  0.25500000920E-02 0. -1.
</event>
<event>
 5   0  0.5768102E-04  0.9990640E+03  0.7818609E-02  0.9309572E-01
       -1   -1    0    0    0  501  0.00000000000E+00  0.00000000000E+00  0.16208481250E+03  0.16208481258E+03  0.50400001928E-02 0.  1.
        1   -1    0    0  501    0  0.00000000000E+00  0.00000000000E+00 -0.15395162140E+04  0.15395162140E+04  0.50400001928E-02 0. -1.
    10030    2    1    2    0    0  0.00000000000E+00  0.00000000000E+00 -0.13774314015E+04  0.17016010266E+04  0.99906395585E+03 0.  0.
        4    1    3    3  502    0 -0.43199023767E+03  0.24989553215E+03 -0.72553158344E+03  0.88060265381E+03  0.12699999809E+01 0.  1.
       -4    1    3    3    0  502  0.43199023767E+03 -0.24989553215E+03 -0.65189981809E+03  0.82099837281E+03  0.12699999809E+01 0. -1.
</event>
<event>
 5   0  0.5960102E-04  0.9997090E+03  0.7818609E-02  0.9308864E-01
        1   -1    0    0  501    0  0.00000000000E+00  0.00000000000E+00  0.34176682715E+03  0.34176682719E+03  0.50400001928E-02 0.  1.
       -1   -1    0    0    0  501  0.00000000000E+00  0.00000000000E+00 -0.73106716082E+03  0.73106716084E+03  0.50400001928E-02 0. -1.
    10030    2    1    2    0    0  0.00000000000E+00  0.00000000000E+00 -0.38930033367E+03  0.10728339880E+04  0.99970896569E+03 0.  0.
        5    1    3    3  502    0 -0.37588727382E+02  0.48238072545E+03 -0.32923630883E+03  0.58525440089E+03  0.46999998093E+01 0. -1.
       -5    1    3    3    0  502  0.37588727382E+02 -0.48238072545E+03 -0.60064024842E+02  0.48757958714E+03  0.46999998093E+01 0.  1.
</event>
<event>
 5   0  0.5826939E-04  0.1000126E+04  0.7818609E-02  0.9308407E-01
        1   -1    0    0  501    0  0.00000000000E+00  0.00000000000E+00  0.97647254198E+03  0.97647254199E+03  0.50400001928E-02 0.  1.
       -1   -1    0    0    0  501  0.00000000000E+00  0.00000000000E+00 -0.25608793772E+03  0.25608793777E+03  0.50400001928E-02 0. -1.
    10030    2    1    2    0    0  0.00000000000E+00  0.00000000000E+00  0.72038460426E+03  0.12325604798E+04  0.10001256712E+04 0.  0.
        1    1    3    3  502    0 -0.10298887938E+03  0.20060220980E+03  0.91025798940E+03  0.93777266070E+03  0.50400001928E-02 0.  1.
       -1    1    3    3    0  502  0.10298887938E+03 -0.20060220980E+03 -0.18987338514E+03  0.29478781906E+03  0.50400001928E-02 0. -1.
</event>
<event>
 5   0  0.5888774E-04  0.9960730E+03  0.7818609E-02  0.9312862E-01
        1   -1    0    0  501    0  0.00000000000E+00  0.00000000000E+00  0.14070875848E+04  0.14070875848E+04  0.50400001928E-02 0.  1.
       -1   -1    0    0    0  501  0.00000000000E+00  0.00000000000E+00 -0.17627924817E+03  0.17627924824E+03  0.50400001928E-02 0. -1.
    10030    2    1    2    0    0  0.00000000000E+00  0.00000000000E+00  0.12308083366E+04  0.15833668330E+04  0.99607297247E+03 0.  0.
        2    1    3    3  502    0  0.10029974700E+03  0.12706109719E+03 -0.13329299019E+03  0.20969402211E+03  0.25500000920E-02 0. -1.
       -2    1    3    3    0  502 -0.10029974700E+03 -0.12706109719E+03  0.13641013268E+04  0.13736728109E+04  0.25500000920E-02 0.  1.
</event>
<event>
 5   0  0.9741826E-04  0.1003050E+04  0.7818609E-02  0.9305206E-01
        2   -1    0    0  501    0  0.00000000000E+00  0.00000000000E+00  0.18773271355E+04  0.18773271355E+04  0.25500000920E-02 0.  1.
       -2   -1    0    0    0  501  0.00000000000E+00  0.00000000000E+00 -0.13398159710E+03  0.13398159713E+03  0.25500000920E-02 0. -1.
    10030    2    1    2    0    0  0.00000000000E+00  0.00000000000E+00  0.17433455384E+04  0.20113087326E+04  0.10030499248E+04 0.  0.
        3    1    3    3  502    0 -0.25738995074E+03  0.20394416891E+03  0.11158962769E+03  0.34683579109E+03  0.10100000352E+00 0. -1.
       -3    1    3    3    0  502  0.25738995074E+03 -0.20394416891E+03  0.16317559107E+04  0.16644729415E+04  0.10100000352E+00 0.  1.
</event>
<event>
 5   0  0.1006749E-03  0.9998717E+03  0.7818609E-02  0.9308685E-01
       -2   -1    0    0    0  501  0.00000000000E+00  0.00000000000E+00  0.40001289002E+03  0.40001289003E+03  0.25500000920E-02 0.  1.
        2   -1    0    0  501    0  0.00000000000E+00  0.00000000000E+00 -0.62481955071E+03  0.62481955072E+03  0.25500000920E-02 0. -1.
    10030    2    1    2    0    0  0.00000000000E+00  0.00000000000E+00 -0.22480666069E+03  0.10248324407E+04  0.99987174024E+03 0.  0.
        1    1    3    3  502    0  0.22161046084E+03  0.22131725937E+03  0.28699519475E+03  0.42480438732E+03  0.50400001928E-02 0.  1.
       -1    1    3    3    0  502 -0.22161046084E+03 -0.22131725937E+03 -0.51180185544E+03  0.60002805343E+03  0.50400001928E-02 0. -1.
</event>
<event>
 5   0  0.5888774E-04  0.9975369E+03  0.7818609E-02  0.9311250E-01
        1   -1    0    0  501    0  0.00000000000E+00  0.00000000000E+00  0.56066364721E+03  0.56066364723E+03  0.50400001928E-02 0. -1.
       -1   -1    0    0    0  501  0.00000000000E+00  0.00000000000E+00 -0.44370625330E+03  0.44370625333E+03  0.50400001928E-02 0.  1.
    10030    2    1    2    0    0  0.00000000000E+00  0.00000000000E+00  0.11695739391E+03  0.10043699006E+04  0.99753689915E+03 0.  0.
        2    1    3    3  502    0  0.32371345644E+03 -0.21252721895E+03  0.37497526537E+03  0.53904050898E+03  0.25500000920E-02 0. -1.
       -2    1    3    3    0  502 -0.32371345644E+03  0.21252721895E+03 -0.25801787146E+03  0.46532939159E+03  0.25500000920E-02 0.  1.
</event>
<event>
 5   0  0.5768102E-04  0.9969949E+03  0.7818609E-02  0.9311847E-01
        1   -1    0    0  501    0  0.00000000000E+00  0.00000000000E+00  0.11395554314E+04  0.11395554314E+04  0.50400001928E-02 0.  1.
       -1   -1    0    0    0  501  0.00000000000E+00  0.00000000000E+00 -0.21806723480E+03  0.21806723486E+03  0.50400001928E-02 0. -1.
    10030    2    1    2    0    0  0.00000000000E+00  0.00000000000E+00  0.92148819659E+03  0.13576226663E+04  0.99699488840E+03 0.  0.
        4    1    3    3  502    0 -0.10470656518E+03 -0.44391105351E+03  0.73470811798E+03  0.86476477712E+03  0.12699999809E+01 0.  1.
       -4    1    3    3    0  502  0.10470656518E+03  0.44391105351E+03  0.18678007860E+03  0.49285788914E+03  0.12699999809E+01 0. -1.
</event>
<event>
 5   0  0.5758786E-04  0.9999658E+03  0.7818609E-02  0.9308582E-01
        1   -1    0    0  501    0  0.00000000000E+00  0.00000000000E+00  0.66139060838E+03  0.66139060840E+03  0.50400001928E-02 0.  1.
       -1   -1    0    0    0  501  0.00000000000E+00  0.00000000000E+00 -0.37796560372E+03  0.37796560376E+03  0.50400001928E-02 0. -1.
    10030    2    1    2    0    0  0.00000000000E+00  0.00000000000E+00  0.28342500466E+03  0.10393562122E+04  0.99996580066E+03 0.  0.
        3    1    3    3  502    0 -0.29113026678E+01  0.47060964388E+03  0.31718503685E+03  0.56752821111E+03  0.10100000352E+00 0.  1.
       -3    1    3    3    0  502  0.29113026678E+01 -0.47060964388E+03 -0.33760032192E+02  0.47182800105E+03  0.10100000352E+00 0. -1.
</event>
<event>
 5   0  0.5768102E-04  0.9994250E+03  0.7818609E-02  0.9309176E-01
        1   -1    0    0  501    0  0.00000000000E+00  0.00000000000E+00  0.63507202495E+03  0.63507202497E+03  0.50400001928E-02 0. -1.
       -1   -1    0    0    0  501  0.00000000000E+00  0.00000000000E+00 -0.39320353802E+03  0.39320353805E+03  0.50400001928E-02 0.  1.
    10030    2    1    2    0    0  0.00000000000E+00  0.00000000000E+00  0.24186848693E+03  0.10282755630E+04  0.99942496894E+03 0.  0.
        4    1    3    3  502    0  0.17731006552E+03 -0.21839117778E+03 -0.30399835594E+03  0.41418616488E+03  0.12699999809E+01 0.  1.
       -4    1    3    3    0  502 -0.17731006552E+03  0.21839117778E+03  0.54586684287E+03  0.61408939814E+03  0.12699999809E+01 0. -1.
</event>
<event>
 5   0  0.1006006E-03  0.1002414E+04  0.7818609E-02  0.9305901E-01
       -2   -1    0    0    0  501  0.00000000000E+00  0.00000000000E+00  0.18515762614E+03  0.18515762616E+03  0.25500000920E-02 0.  1.
        2   -1    0    0  501    0  0.00000000000E+00  0.00000000000E+00 -0.13567267369E+04  0.13567267369E+04  0.25500000920E-02 0. -1.
    10030    2    1    2    0    0  0.00000000000E+00  0.00000000000E+00 -0.11715691107E+04  0.15418843630E+04  0.10024136909E+04 0.  0.
        2    1    3    3  502    0 -0.13088407485E+03  0.13107614531E+03 -0.13021444959E+04  0.13152535440E+04  0.25500000920E-02 0. -1.
       -2    1    3    3    0  502  0.13088407485E+03 -0.13107614531E+03  0.13057538513E+03  0.22663081902E+03  0.25500000920E-02 0.  1.
</event>
<event>
 5   0  0.1006749E-03  0.9832270E+03  0.7818609E-02  0.9327135E-01
       -2   -1    0    0    0  501  0.00000000000E+00  0.00000000000E+00  0.75247967798E+03  0.75247967799E+03  0.25500000920E-02 0.  1.
        2   -1    0    0  501    0  0.00000000000E+00  0.00000000000E+00 -0.32118319826E+03  0.32118319827E+03  0.25500000920E-02 0. -1.
    10030    2    1    2    0    0  0.00000000000E+00  0.00000000000E+00  0.43129647972E+03  0.10736628763E+04  0.98322699233E+03 0.  0.
        1    1    3    3  502    0  0.31090776896E+03 -0.28475906887E+02 -0.19902956986E+03  0.37025300508E+03  0.50400001928E-02 0. -1.
       -1    1    3    3    0  502 -0.31090776896E+03  0.28475906887E+02  0.63032604958E+03  0.70340987118E+03  0.50400001928E-02 0.  1.
</event>
<event>
 5   0  0.3854625E-04  0.9994327E+03  0.7818609E-02  0.9309167E-01
        3   -1    0    0  501    0  0.00000000000E+00  0.00000000000E+00  0.29515276661E+03  0.29515278389E+03  0.10100000352E+00 0. -1.
       -3   -1    0    0    0  501  0.00000000000E+00  0.00000000000E+00 -0.84605819424E+03  0.84605820027E+03  0.10100000352E+00 0.  1.
    10030    2    1    2    0    0  0.00000000000E+00  0.00000000000E+00 -0.55090542763E+03  0.11412109842E+04  0.99943269917E+03 0.  0.
        3    1    3    3  502    0 -0.11078612425E+02  0.47175494640E+03 -0.46322150018E+03  0.66124854142E+03  0.10100000352E+00 0.  1.
       -3    1    3    3    0  502  0.11078612425E+02 -0.47175494640E+03 -0.87683927450E+02  0.47996244274E+03  0.10100000352E+00 0. -1.
</event>
<event>
 5   0  0.5826939E-04  0.9993963E+03  0.7818609E-02  0.9309207E-01
       -1   -1    0    0    0  501  0.00000000000E+00  0.00000000000E+00  0.54699246740E+03  0.54699246742E+03  0.50400001928E-02 0. -1.
        1   -1    0    0  501    0  0.00000000000E+00  0.00000000000E+00 -0.45649304043E+03  0.45649304045E+03  0.50400001928E-02 0.  1.
    10030    2    1    2    0    0  0.00000000000E+00  0.00000000000E+00  0.90499426974E+02  0.10034855079E+04  0.99939632691E+03 0.  0.
        1    1    3    3  502    0  0.25154829871E+03  0.42912029035E+03  0.93167975409E+02  0.50606426652E+03  0.50400001928E-02 0. -1.
       -1    1    3    3    0  502 -0.25154829871E+03 -0.42912029035E+03 -0.26685484357E+01  0.49742124136E+03  0.50400001928E-02 0.  1.
</event>
<event>
 5   0  0.1006006E-03  0.1001978E+04  0.7818609E-02  0.9306378E-01
       -2   -1    0    0    0  501  0.00000000000E+00  0.00000000000E+00  0.28460144717E+03  0.28460144718E+03  0.25500000920E-02 0. -1.
        2   -1    0    0  501    0  0.00000000000E+00  0.00000000000E+00 -0.88189999061E+03  0.88189999061E+03  0.25500000920E-02 0.  1.
    10030    2    1    2    0    0  0.00000000000E+00  0.00000000000E+00 -0.59729854344E+03  0.11665014378E+04  0.10019780708E+04 0.  0.
        2    1    3    3  502    0  0.12909499941E+03 -0.47952990828E+03 -0.37565871280E+03  0.62268284088E+03  0.25500000920E-02 0.  1.
       -2    1    3    3    0  502 -0.12909499941E+03  0.47952990828E+03 -0.22163983064E+03  0.54381859691E+03  0.25500000920E-02 0. -1.
</event>
<event>
 5   0  0.5758786E-04  0.9981357E+03  0.7818609E-02  0.9310592E-01
       -1   -1    0    0    0  501  0.00000000000E+00  0.00000000000E+00  0.84959977957E+03  0.84959977958E+03  0.50400001928E-02 0. -1.
        1   -1    0    0  501    0  0.00000000000E+00  0.00000000000E+00 -0.29316005495E+03  0.29316005499E+03  0.50400001928E-02 0.  1.
    10030    2    1    2    0    0  0.00000000000E+00  0.00000000000E+00  0.55643972462E+03  0.11427598346E+04  0.99813569838E+03 0.  0.
        3    1    3    3  502    0 -0.34905083190E+03 -0.14818555541E+03  0.64969044501E+03  0.75225868331E+03  0.10100000352E+00 0. -1.
       -3    1    3    3    0  502  0.34905083190E+03  0.14818555541E+03 -0.93250720386E+02  0.39050115126E+03  0.10100000352E+00 0.  1.
</event>
<event>
 5   0  0.1006749E-03  0.9995672E+03  0.7818609E-02  0.9309020E-01
       -2   -1    0    0    0  501  0.00000000000E+00  0.00000000000E+00  0.52001263465E+03  0.52001263465E+03  0.25500000920E-02 0.  1.
        2   -1    0    0  501    0  0.00000000000E+00  0.00000000000E+00 -0.48034146214E+03  0.48034146215E+03  0.25500000920E-02 0. -1.
    10030    2    1    2    0    0  0.00000000000E+00  0.00000000000E+00  0.39671172504E+02  0.10003540968E+04  0.99956716486E+03 0.  0.
        1    1    3    3  502    0  0.45792286284E+03  0.57700446592E+02 -0.17204678382E+03  0.49256754430E+03  0.50400001928E-02 0. -1.
       -1    1    3    3    0  502 -0.45792286284E+03 -0.57700446592E+02  0.21171795633E+03  0.50778655251E+03  0.50400001928E-02 0.  1.
</event>
<event>
 5   0  0.5758786E-04  0.9991543E+03  0.7818609E-02  0.9309473E-01
        1   -1    0    0  501    0  0.00000000000E+00  0.00000000000E+00  0.65853170944E+03  0.65853170946E+03  0.50400001928E-02 0. -1.
       -1   -1    0    0    0  501  0.00000000000E+00  0.00000000000E+00 -0.37899063530E+03  0.37899063533E+03  0.50400001928E-02 0.  1.
    10030    2    1    2    0    0  0.00000000000E+00  0.00000000000E+00  0.27954107415E+03  0.10375223448E+04  0.99915434434E+03 0.  0.
        3    1    3    3  502    0 -0.12541792536E+03 -0.14348036400E+03 -0.33976485918E+03  0.38955929021E+03  0.10100000352E+00 0.  1.
       -3    1    3    3    0  502  0.12541792536E+03  0.14348036400E+03  0.61930593333E+03  0.64796305459E+03  0.10100000352E+00 0. -1.
</event>
<event>
 5   0  0.1020150E-03  0.1000145E+04  0.7818609E-02  0.9308386E-01
       -2   -1    0    0    0  501  0.00000000000E+00  0.00000000000E+00  0.13088512097E+04  0.13088512097E+04  0.25500000920E-02 0.  1.
        2   -1    0    0  501    0  0.00000000000E+00  0.00000000000E+00 -0.19106240251E+03  0.19106240253E+03  0.25500000920E-02 0. -1.
    10030    2    1    2    0    0  0.00000000000E+00  0.00000000000E+00  0.11177888072E+04  0.14999136123E+04  0.10001445029E+04 0.  0.
        5    1    3    3  502    0  0.13253596995E+03  0.36573943761E+03  0.87695825130E+02  0.39880291787E+03  0.46999998093E+01 0. -1.
       -5    1    3    3    0  502 -0.13253596995E+03 -0.36573943761E+03  0.10300929821E+04  0.11011106944E+04  0.46999998093E+01 0.  1.
</event>
<event>
 5   0  0.1006749E-03  0.1000926E+04  0.7818609E-02  0.9307530E-01
        2   -1    0    0  501    0  0.00000000000E+00  0.00000000000E+00  0.17962252566E+04  0.17962252566E+04  0.25500000920E-02 0. -1.
       -2   -1    0    0    0  501  0.00000000000E+00  0.00000000000E+00 -0.13943856366E+03  0.13943856368E+03  0.25500000920E-02 0.  1.
    10030    2    1    2    0    0  0.00000000000E+00  0.00000000000E+00  0.16567866929E+04  0.19356638203E+04  0.10009257111E+04 0.  0.
        1    1    3    3  502    0 -0.24990729007E+03  0.42837902294E+03  0.95813347885E+03  0.10788799768E+04  0.50400001928E-02 0. -1.
       -1    1    3    3    0  502  0.24990729007E+03 -0.42837902294E+03  0.69865321408E+03  0.85678384351E+03  0.50400001928E-02 0.  1.
</event>
<event>
 5   0  0.5888774E-04  0.1000194E+04  0.7818609E-02  0.9308332E-01
       -1   -1    0    0    0  501  0.00000000000E+00  0.00000000000E+00  0.16988880375E+03  0.16988880382E+03  0.50400001928E-02 0.  1.
        1   -1    0    0  501    0  0.00000000000E+00  0.00000000000E+00 -0.14721213821E+04  0.14721213821E+04  0.50400001928E-02 0. -1.
    10030    2    1    2    0    0  0.00000000000E+00  0.00000000000E+00 -0.13022325784E+04  0.16420101860E+04  0.10001938625E+04 0.  0.
        2    1    3    3  502    0  0.36813325050E+02 -0.34079308437E+03 -0.53301905013E+02  0.34689514314E+03  0.25500000920E-02 0.  1.
       -2    1    3    3    0  502 -0.36813325050E+02  0.34079308437E+03 -0.12489306734E+04  0.12951150428E+04  0.25500000920E-02 0. -1.
</event>
<event>
 5   0  0.1006006E-03  0.9972368E+03  0.7818609E-02  0.9311581E-01
        2   -1    0    0  501    0  0.00000000000E+00  0.00000000000E+00  0.48340489418E+03  0.48340489418E+03  0.25500000920E-02 0.  1.
       -2   -1    0    0    0  501  0.00000000000E+00  0.00000000000E+00 -0.51431069256E+03  0.51431069257E+03  0.25500000920E-02 0. -1.
    10030    2    1    2    0    0  0.00000000000E+00  0.00000000000E+00 -0.30905798383E+02  0.99771558675E+03  0.99723679418E+03 0.  0.
        2    1    3    3  502    0 -0.26660603495E+03  0.42006299555E+03  0.17556999078E+02  0.49783526023E+03  0.25500000920E-02 0. -1.
       -2    1    3    3    0  502  0.26660603495E+03 -0.42006299555E+03 -0.48462797462E+02  0.49988032652E+03  0.25500000920E-02 0.  1.
</event>
<event>
 5   0  0.1006749E-03  0.9995562E+03  0.7818609E-02  0.9309032E-01
        2   -1    0    0  501    0  0.00000000000E+00  0.00000000000E+00  0.41666799643E+03  0.41666799644E+03  0.25500000920E-02 0.  1.
       -2   -1    0    0    0  501  0.00000000000E+00  0.00000000000E+00 -0.59946566539E+03  0.59946566539E+03  0.25500000920E-02 0. -1.
    10030    2    1    2    0    0  0.00000000000E+00  0.00000000000E+00 -0.18279766896E+03  0.10161336618E+04  0.99955621699E+03 0.  0.
        1    1    3    3  502    0  0.32204189310E+03  0.25585098332E+03 -0.38002201506E+03  0.55998878430E+03  0.50400001928E-02 0. -1.
       -1    1    3    3    0  502 -0.32204189310E+03 -0.25585098332E+03  0.19722434610E+03  0.45614487753E+03  0.50400001928E-02 0.  1.
</event>
<event>
 5   0  0.5888774E-04  0.9999410E+03  0.7818609E-02  0.9308609E-01
        1   -1    0    0  501    0  0.00000000000E+00  0.00000000000E+00  0.51259229710E+03  0.51259229713E+03  0.50400001928E-02 0.  1.
       -1   -1    0    0    0  501  0.00000000000E+00  0.00000000000E+00 -0.48765951377E+03  0.48765951380E+03  0.50400001928E-02 0. -1.
    10030    2    1    2    0    0  0.00000000000E+00  0.00000000000E+00  0.24932783332E+02  0.10002518109E+04  0.99994101905E+03 0.  0.
        2    1    3    3  502    0  0.38009000412E+03 -0.30555650884E+03 -0.97737351637E+02  0.49737891113E+03  0.25500000920E-02 0.  1.
       -2    1    3    3    0  502 -0.38009000412E+03  0.30555650884E+03  0.12267013497E+03  0.50287289979E+03  0.25500000920E-02 0. -1.
</event>
<event>
 5   0  0.5768102E-04  0.9997410E+03  0.7818609E-02  0.9308829E-01
       -1   -1    0    0    0  501  0.00000000000E+00  0.00000000000E+00  0.44914711164E+03  0.44914711166E+03  0.50400001928E-02 0. -1.
        1   -1    0    0  501    0  0.00000000000E+00  0.00000000000E+00 -0.55632216883E+03  0.55632216885E+03  0.50400001928E-02 0.  1.
    10030    2    1    2    0    0  0.00000000000E+00  0.00000000000E+00 -0.10717505719E+03  0.10054692805E+04  0.99974095704E+03 0.  0.
        4    1    3    3  502    0  0.18196275144E+03 -0.46326710639E+03 -0.10013476009E+03  0.50769620626E+03  0.12699999809E+01 0.  1.
       -4    1    3    3    0  502 -0.18196275144E+03  0.46326710639E+03 -0.70402970982E+01  0.49777307426E+03  0.12699999809E+01 0. -1.
</event>
<event>
 5   0  0.1020150E-03  0.9811462E+03  0.7818609E-02  0.9329469E-01
        2   -1    0    0  501    0  0.00000000000E+00  0.00000000000E+00  0.58393799776E+03  0.58393799776E+03  0.25500000920E-02 0.  1.
       -2   -1    0    0    0  501  0.00000000000E+00  0.00000000000E+00 -0.41213612502E+03  0.41213612503E+03  0.25500000920E-02 0. -1.
    10030    2    1    2    0    0  0.00000000000E+00  0.00000000000E+00  0.17180187274E+03  0.99607412279E+03  0.98114615354E+03 0.  0.
        5    1    3    3  502    0 -0.99968626416E+02  0.40329414631E+03  0.35063649419E+03  0.54369838677E+03  0.46999998093E+01 0.  1.
       -5    1    3    3    0  502  0.99968626416E+02 -0.40329414631E+03 -0.17883462145E+03  0.45237573602E+03  0.46999998093E+01 0. -1.
</event>
<event>
 5   0  0.5758786E-04  0.1000153E+04  0.7818609E-02  0.9308377E-01
       -1   -1    0    0    0  501  0.00000000000E+00  0.00000000000E+00  0.25570755004E+03  0.25570755009E+03  0.50400001928E-02 0.  1.
        1   -1    0    0  501    0  0.00000000000E+00  0.00000000000E+00 -0.97797826002E+03  0.97797826003E+03  0.50400001928E-02 0. -1.
    10030    2    1    2    0    0  0.00000000000E+00  0.00000000000E+00 -0.72227070997E+03  0.12336858101E+04  0.10001528381E+04 0.  0.
        3    1    3    3  502    0  0.28547458063E+03 -0.18253062338E+03 -0.81479286729E+03  0.88244013477E+03  0.10100000352E+00 0. -1.
       -3    1    3    3    0  502 -0.28547458063E+03  0.18253062338E+03  0.92522157321E+02  0.35124567535E+03  0.10100000352E+00 0.  1.
</event>
<event>
 5   0  0.5758786E-04  0.1002376E+04  0.7818609E-02  0.9305943E-01
        1   -1    0    0  501    0  0.00000000000E+00  0.00000000000E+00  0.61121006268E+03  0.61121006270E+03  0.50400001928E-02 0.  1.
       -1   -1    0    0    0  501  0.00000000000E+00  0.00000000000E+00 -0.41097064374E+03  0.41097064377E+03  0.50400001928E-02 0. -1.
    10030    2    1    2    0    0  0.00000000000E+00  0.00000000000E+00  0.20023941893E+03  0.10221807065E+04  0.10023759633E+04 0.  0.
        3    1    3    3  502    0  0.38010202167E+02 -0.49340005480E+03  0.18106685542E+03  0.52694744129E+03  0.10100000352E+00 0. -1.
       -3    1    3    3    0  502 -0.38010202167E+02  0.49340005480E+03  0.19172563508E+02  0.49523326518E+03  0.10100000352E+00 0.  1.
</event>
<event>
 5   0  0.9741826E-04  0.9947427E+03  0.7818609E-02  0.9314330E-01
       -2   -1    0    0    0  501  0.00000000000E+00  0.00000000000E+00  0.96317850862E+03  0.96317850862E+03  0.25500000920E-02 0. -1.
        2   -1    0    0  501    0  0.00000000000E+00  0.00000000000E+00 -0.25683529616E+03  0.25683529618E+03  0.25500000920E-02 0.  1.
    10030    2    1    2    0    0  0.00000000000E+00  0.00000000000E+00  0.70634321246E+03  0.12200138048E+04  0.99474265522E+03 0.  0.
        3    1    3    3  502    0  0.27460043372E+03  0.20543475115E+03 -0.88643070689E+02  0.35421242124E+03  0.10100000352E+00 0.  1.
       -3    1    3    3    0  502 -0.27460043372E+03 -0.20543475115E+03  0.79498628315E+03  0.86580138356E+03  0.10100000352E+00 0. -1.
</event>
<event>
 5   0  0.1020150E-03  0.9921105E+03  0.7818609E-02  0.9317240E-01
        2   -1    0    0  501    0  0.00000000000E+00  0.00000000000E+00  0.10061925106E+04  0.10061925106E+04  0.25500000920E-02 0. -1.
       -2   -1    0    0    0  501  0.00000000000E+00  0.00000000000E+00 -0.24455637215E+03  0.24455637217E+03  0.25500000920E-02 0.  1.
    10030    2    1    2    0    0  0.00000000000E+00  0.00000000000E+00  0.76163613849E+03  0.12507488828E+04  0.99211045777E+03 0.  0.
        5    1    3    3  502    0 -0.26168900631E+03  0.33945421308E+03  0.66051988656E+02  0.43369949735E+03  0.46999998093E+01 0.  1.
       -5    1    3    3    0  502  0.26168900631E+03 -0.33945421308E+03  0.69558414983E+03  0.81704938547E+03  0.46999998093E+01 0. -1.
</event>
<event>
 5   0  0.5960102E-04  0.1000913E+04  0.7818609E-02  0.9307544E-01
       -1   -1    0    0    0  501  0.00000000000E+00  0.00000000000E+00  0.48789831466E+03  0.48789831469E+03  0.50400001928E-02 0. -1.
        1   -1    0    0  501    0  0.00000000000E+00  0.00000000000E+00 -0.51333759046E+03  0.51333759049E+03  0.50400001928E-02 0.  1.
    10030    2    1    2    0    0  0.00000000000E+00  0.00000000000E+00 -0.25439275800E+02  0.10012359052E+04  0.10009126740E+04 0.  0.
        5    1    3    3  502    0 -0.39571195897E+03  0.30275453380E+03 -0.59491480793E+02  0.50180632568E+03  0.46999998093E+01 0.  1.
       -5    1    3    3    0  502  0.39571195897E+03 -0.30275453380E+03  0.34052204993E+02  0.49942957949E+03  0.46999998093E+01 0. -1.
</event>
<event>
 5   0  0.5888774E-04  0.9994797E+03  0.7818609E-02  0.9309116E-01
        1   -1    0    0  501    0  0.00000000000E+00  0.00000000000E+00  0.10484950257E+04  0.10484950257E+04  0.50400001928E-02 0.  1.
       -1   -1    0    0    0  501  0.00000000000E+00  0.00000000000E+00 -0.23818895693E+03  0.23818895698E+03  0.50400001928E-02 0. -1.
    10030    2    1    2    0    0  0.00000000000E+00  0.00000000000E+00  0.81030606880E+03  0.12866839827E+04  0.99947973780E+03 0.  0.
        2    1    3    3  502    0 -0.12204130780E+03 -0.48940279607E+02 -0.21552065252E+03  0.25246461820E+03  0.25500000920E-02 0. -1.
       -2    1    3    3    0  502  0.12204130780E+03  0.48940279607E+02  0.10258267213E+04  0.10342193645E+04  0.25500000920E-02 0.  1.
</event>
<event>
 5   0  0.9674819E-04  0.9999281E+03  0.7818609E-02  0.9308624E-01
       -2   -1    0    0    0  501  0.00000000000E+00  0.00000000000E+00  0.56792626578E+03  0.56792626579E+03  0.25500000920E-02 0. -1.
        2   -1    0    0  501    0  0.00000000000E+00  0.00000000000E+00 -0.44013471378E+03  0.44013471379E+03  0.25500000920E-02 0.  1.
    10030    2    1    2    0    0  0.00000000000E+00  0.00000000000E+00  0.12779155200E+03  0.10080609796E+04  0.99992812631E+03 0.  0.
        4    1    3    3  502    0 -0.42229935165E+03 -0.26701472931E+03  0.82177309946E+02  0.50634803371E+03  0.12699999809E+01 0.  1.
       -4    1    3    3    0  502  0.42229935165E+03  0.26701472931E+03  0.45614242054E+02  0.50171294587E+03  0.12699999809E+01 0. -1.
</event>
<event>
 5   0  0.1020150E-03  0.1001633E+04  0.7818609E-02  0.9306756E-01
        2   -1    0    0  501    0  0.00000000000E+00  0.00000000000E+00  0.74955815801E+03  0.74955815801E+03  0.25500000920E-02 0.  1.
       -2   -1    0    0    0  501  0.00000000000E+00  0.00000000000E+00 -0.33461989652E+03  0.33461989653E+03  0.25500000920E-02 0. -1.
    10030    2    1    2    0    0  0.00000000000E+00  0.00000000000E+00  0.41493826149E+03  0.10841780545E+04  0.10016328135E+04 0.  0.
        5    1    3    3  502    0  0.81541944889E+02 -0.31710723128E+03 -0.20269010992E+03  0.38511226359E+03  0.46999998093E+01 0. -1.
       -5    1    3    3    0  502 -0.81541944889E+02  0.31710723128E+03  0.61762837141E+03  0.69906579095E+03  0.46999998093E+01 0.  1.
</event>
<event>
 5   0  0.5826939E-04  0.9923362E+03  0.7818609E-02  0.9316991E-01
       -1   -1    0    0    0  501  0.00000000000E+00  0.00000000000E+00  0.60683712897E+03  0.60683712899E+03  0.50400001928E-02 0.  1.
        1   -1    0    0  501    0  0.00000000000E+00  0.00000000000E+00 -0.40568177512E+03  0.40568177515E+03  0.50400001928E-02 0. -1.
    10030    2    1    2    0    0  0.00000000000E+00  0.00000000000E+00  0.20115535385E+03  0.10125189041E+04  0.99233616021E+03 0.  0.
        1    1    3    3  502    0  0.24347184870E+03 -0.21315255549E+03 -0.28319744951E+03  0.43001552118E+03  0.50400001928E-02 0. -1.
       -1    1    3    3    0  502 -0.24347184870E+03  0.21315255549E+03  0.48435280336E+03  0.58250338296E+03  0.50400001928E-02 0.  1.
</event>
<event>
 5   0  0.1006006E-03  0.1000197E+04  0.7818609E-02  0.9308328E-01
        2   -1    0    0  501    0  0.00000000000E+00  0.00000000000E+00  0.28656913677E+03  0.28656913678E+03  0.25500000920E-02 0.  1.
       -2   -1    0    0    0  501  0.00000000000E+00  0.00000000000E+00 -0.87273439049E+03  0.87273439050E+03  0.25500000920E-02 0. -1.
    10030    2    1    2    0    0  0.00000000000E+00  0.00000000000E+00 -0.58616525373E+03  0.11593035273E+04  0.10001974623E+04 0.  0.
        2    1    3    3  502    0 -0.33153002255E+03  0.18798446202E+03  0.82229302488E+02  0.38988712727E+03  0.25500000920E-02 0.  1.
       -2    1    3    3    0  502  0.33153002255E+03 -0.18798446202E+03 -0.66839455621E+03  0.76941640001E+03  0.25500000920E-02 0. -1.
</event>
<event>
 5   0  0.5888774E-04  0.9982057E+03  0.7818609E-02  0.9310515E-01
        1   -1    0    0  501    0  0.00000000000E+00  0.00000000000E+00  0.98697168208E+03  0.98697168209E+03  0.50400001928E-02 0.  1.
       -1   -1    0    0    0  501  0.00000000000E+00  0.00000000000E+00 -0.25239192004E+03  0.25239192009E+03  0.50400001928E-02 0. -1.
    10030    2    1    2    0    0  0.00000000000E+00  0.00000000000E+00  0.73457976204E+03  0.12393636022E+04  0.99820574614E+03 0.  0.
        2    1    3    3  502    0  0.37111044959E+03 -0.94603597919E+02 -0.30079230806E+02  0.38415825732E+03  0.25500000920E-02 0. -1.
       -2    1    3    3    0  502 -0.37111044959E+03  0.94603597919E+02  0.76465899284E+03  0.85520534486E+03  0.25500000920E-02 0.  1.
</event>
<event>
 5   0  0.1006749E-03  0.1001762E+04  0.7818609E-02  0.9306614E-01
        2   -1    0    0  501    0  0.00000000000E+00  0.00000000000E+00  0.23916823124E+03  0.23916823126E+03  0.25500000920E-02 0.  1.
       -2   -1    0    0    0  501  0.00000000000E+00  0.00000000000E+00 -0.10489764417E+04  0.10489764417E+04  0.25500000920E-02 0. -1.
    10030    2    1    2    0    0  0.00000000000E+00  0.00000000000E+00 -0.80980821044E+03  0.12881446729E+04  0.10017621278E+04 0.  0.
        1    1    3    3  502    0 -0.25862642362E+03 -0.71978130980E+02 -0.94865504065E+03  0.98590814202E+03  0.50400001928E-02 0. -1.
       -1    1    3    3    0  502  0.25862642362E+03  0.71978130980E+02  0.13884683022E+03  0.30223653091E+03  0.50400001928E-02 0.  1.
</event>
<event>
 5   0  0.5758786E-04  0.9983235E+03  0.7818609E-02  0.9310385E-01
       -1   -1    0    0    0  501  0.00000000000E+00  0.00000000000E+00  0.52682385151E+03  0.52682385153E+03  0.50400001928E-02 0.  1.
        1   -1    0    0  501    0  0.00000000000E+00  0.00000000000E+00 -0.47295212410E+03  0.47295212412E+03  0.50400001928E-02 0. -1.
    10030    2    1    2    0    0  0.00000000000E+00  0.00000000000E+00  0.53871727411E+02  0.99977597565E+03  0.99832351394E+03 0.  0.
        3    1    3    3  502    0 -0.29463237618E+03  0.27169193968E+02 -0.37566401207E+03  0.47819437717E+03  0.10100000352E+00 0. -1.
       -3    1    3    3    0  502  0.29463237618E+03 -0.27169193968E+02  0.42953573948E+03  0.52158159849E+03  0.10100000352E+00 0.  1.
</event>
<event>
 5   0  0.5758786E-04  0.1000546E+04  0.7818609E-02  0.9307946E-01
       -1   -1    0    0    0  501  0.00000000000E+00  0.00000000000E+00  0.22217175032E+03  0.22217175038E+03  0.50400001928E-02 0. -1.
        1   -1    0    0  501    0  0.00000000000E+00  0.00000000000E+00 -0.11264847782E+04  0.11264847782E+04  0.50400001928E-02 0.  1.
    10030    2    1    2    0    0  0.00000000000E+00  0.00000000000E+00 -0.90431302784E+03  0.13486565285E+04  0.10005460408E+04 0.  0.
        3    1    3    3  502    0 -0.61420212883E+02 -0.38403385998E+03 -0.87630971823E+03  0.95873519839E+03  0.10100000352E+00 0.  1.
       -3    1    3    3    0  502  0.61420212883E+02  0.38403385998E+03 -0.28003309604E+02  0.38992133015E+03  0.10100000352E+00 0. -1.
</event>
<event>
 5   0  0.9674819E-04  0.9989784E+03  0.7818609E-02  0.9309666E-01
       -2   -1    0    0    0  501  0.00000000000E+00  0.00000000000E+00  0.28472347868E+03  0.28472347869E+03  0.25500000920E-02 0. -1.
        2   -1    0    0  501    0  0.00000000000E+00  0.00000000000E+00 -0.87625173323E+03  0.87625173323E+03  0.25500000920E-02 0.  1.
    10030    2    1    2    0    0  0.00000000000E+00  0.00000000000E+00 -0.59152825455E+03  0.11609752119E+04  0.99897836151E+03 0.  0.
        4    1    3    3  502    0 -0.34631530012E+02  0.71463381425E+02  0.27733811356E+03  0.28848639463E+03  0.12699999809E+01 0. -1.
       -4    1    3    3    0  502  0.34631530012E+02 -0.71463381425E+02 -0.86886636811E+03  0.87248881729E+03  0.12699999809E+01 0.  1.
</event>
<event>
 5   0  0.1006749E-03  0.9992517E+03  0.7818609E-02  0.9309366E-01
       -2   -1    0    0    0  501  0.00000000000E+00  0.00000000000E+00  0.68847360995E+03  0.68847360995E+03  0.25500000920E-02 0.  1.
        2   -1    0    0  501    0  0.00000000000E+00  0.00000000000E+00 -0.36257889341E+03  0.36257889342E+03  0.25500000920E-02 0. -1.
    10030    2    1    2    0    0  0.00000000000E+00  0.00000000000E+00  0.32589471654E+03  0.10510525034E+04  0.99925171933E+03 0.  0.
        1    1    3    3  502    0  0.16555077557E+03  0.13822942187E+03  0.63698937317E+03  0.67251014410E+03  0.50400001928E-02 0.  1.
       -1    1    3    3    0  502 -0.16555077557E+03 -0.13822942187E+03 -0.31109465663E+03  0.37854235928E+03  0.50400001928E-02 0. -1.
</event>
<event>
 5   0  0.3854625E-04  0.1001324E+04  0.7818609E-02  0.9307094E-01
        4   -1    0    0  501    0  0.00000000000E+00  0.00000000000E+00  0.36104786388E+03  0.36105009752E+03  0.12699999809E+01 0. -1.
       -4   -1    0    0    0  501  0.00000000000E+00  0.00000000000E+00 -0.69425908730E+03  0.69426024890E+03  0.12699999809E+01 0.  1.
    10030    2    1    2    0    0  0.00000000000E+00  0.00000000000E+00 -0.33321122341E+03  0.10553103464E+04  0.10013242271E+04 0.  0.
        4    1    3    3  502    0 -0.23960720850E+03 -0.36839056492E+03  0.86197131640E+02  0.44783343008E+03  0.12699999809E+01 0. -1.
       -4    1    3    3    0  502  0.23960720850E+03  0.36839056492E+03 -0.41940835505E+03  0.60747691633E+03  0.12699999809E+01 0.  1.
</event>
<event>
 5   0  0.5768102E-04  0.1001037E+04  0.7818609E-02  0.9307408E-01
        1   -1    0    0  501    0  0.00000000000E+00  0.00000000000E+00  0.86659964013E+03  0.86659964014E+03  0.50400001928E-02 0.  1.
       -1   -1    0    0    0  501  0.00000000000E+00  0.00000000000E+00 -0.28908265660E+03  0.28908265664E+03  0.50400001928E-02 0. -1.
    10030    2    1    2    0    0  0.00000000000E+00  0.00000000000E+00  0.57751698353E+03  0.11556822968E+04  0.10010373144E+04 0.  0.
        4    1    3    3  502    0 -0.45781442998E+02  0.32685195892E+03  0.72317189040E+03  0.79492599626E+03  0.12699999809E+01 0.  1.
       -4    1    3    3    0  502  0.45781442998E+02 -0.32685195892E+03 -0.14565490687E+03  0.36075630052E+03  0.12699999809E+01 0. -1.
</event>
<event>
 5   0  0.5960102E-04  0.9992226E+03  0.7818609E-02  0.9309398E-01
       -1   -1    0    0    0  501  0.00000000000E+00  0.00000000000E+00  0.32434144304E+03  0.32434144308E+03  0.50400001928E-02 0. -1.
        1   -1    0    0  501    0  0.00000000000E+00  0.00000000000E+00 -0.76959470395E+03  0.76959470397E+03  0.50400001928E-02 0.  1.
    10030    2    1    2    0    0  0.00000000000E+00  0.00000000000E+00 -0.44525326091E+03  0.10939361470E+04  0.99922261157E+03 0.  0.
        5    1    3    3  502    0  0.40246945957E+03  0.29243091600E+03 -0.27269876023E+03  0.56734840296E+03  0.46999998093E+01 0.  1.
       -5    1    3    3    0  502 -0.40246945957E+03 -0.29243091600E+03 -0.17255450068E+03  0.52658774408E+03  0.46999998093E+01 0. -1.
</event>
<event>
 5   0  0.1006006E-03  0.1002034E+04  0.7818609E-02  0.9306316E-01
        2   -1    0    0  501    0  0.00000000000E+00  0.00000000000E+00  0.21050069210E+04  0.21050069210E+04  0.25500000920E-02 0. -1.
       -2   -1    0    0    0  501  0.00000000000E+00  0.00000000000E+00 -0.11924814454E+03  0.11924814457E+03  0.25500000920E-02 0.  1.
    10030    2    1    2    0    0  0.00000000000E+00  0.00000000000E+00  0.19857587765E+04  0.22242550656E+04  0.10020342701E+04 0.  0.
        2    1    3    3  502    0  0.48654457029E+03 -0.44068189162E+02  0.12395657172E+04  0.13323628603E+04  0.25500000920E-02 0.  1.
       -2    1    3    3    0  502 -0.48654457029E+03  0.44068189162E+02  0.74619305929E+03  0.89189220532E+03  0.25500000920E-02 0. -1.
</event>
<event>
 5   0  0.5768102E-04  0.1000468E+04  0.7818609E-02  0.9308032E-01
        1   -1    0    0  501    0  0.00000000000E+00  0.00000000000E+00  0.49408187467E+03  0.49408187470E+03  0.50400001928E-02 0. -1.
       -1   -1    0    0    0  501  0.00000000000E+00  0.00000000000E+00 -0.50646254611E+03  0.50646254614E+03  0.50400001928E-02 0.  1.
    10030    2    1    2    0    0  0.00000000000E+00  0.00000000000E+00 -0.12380671440E+02  0.10005444208E+04  0.10004678191E+04 0.  0.
        4    1    3    3  502    0  0.20188355524E+03 -0.30041506706E+03  0.33912752798E+03  0.49599926968E+03  0.12699999809E+01 0. -1.
       -4    1    3    3    0  502 -0.20188355524E+03  0.30041506706E+03 -0.35150819942E+03  0.50454515115E+03  0.12699999809E+01 0.  1.
</event>
<event>
 5   0  0.1020150E-03  0.1006565E+04  0.7818609E-02  0.9301373E-01
        2   -1    0    0  501    0  0.00000000000E+00  0.00000000000E+00  0.45185427740E+03  0.45185427741E+03  0.25500000920E-02 0. -1.
       -2   -1    0    0    0  501  0.00000000000E+00  0.00000000000E+00 -0.56056424202E+03  0.56056424202E+03  0.25500000920E-02 0.  1.
    10030    2    1    2    0    0  0.00000000000E+00  0.00000000000E+00 -0.10870996461E+03  0.10124185194E+04  0.10065651504E+04 0.  0.
        5    1    3    3  502    0  0.48214103525E+03  0.81108084640E+02 -0.17434987812E+03  0.51909389253E+03  0.46999998093E+01 0. -1.
       -5    1    3    3    0  502 -0.48214103525E+03 -0.81108084640E+02  0.65639913509E+02  0.49332462690E+03  0.46999998093E+01 0.  1.
</event>
<event>
 5   0  0.5960102E-04  0.1000359E+04  0.7818609E-02  0.9308151E-01
        1   -1    0    0  501    0  0.00000000000E+00  0.00000000000E+00  0.83747724823E+03  0.83747724825E+03  0.50400001928E-02 0. -1.
       -1   -1    0    0    0  501  0.00000000000E+00  0.00000000000E+00 -0.29872995277E+03  0.29872995281E+03  0.50400001928E-02 0.  1.
    10030    2    1    2    0    0  0.00000000000E+00  0.00000000000E+00  0.53874729546E+03  0.11362072011E+04  0.10003590132E+04 0.  0.
        5    1    3    3  502    0  0.42150400578E+03 -0.13375735430E+03  0.53477377061E+03  0.69394649105E+03  0.46999998093E+01 0. -1.
       -5    1    3    3    0  502 -0.42150400578E+03  0.13375735430E+03  0.39735248562E+01  0.44226071001E+03  0.46999998093E+01 0.  1.
</event>
<event>
 5   0  0.5826939E-04  0.1000234E+04  0.7818609E-02  0.9308288E-01
       -1   -1    0    0    0  501  0.00000000000E+00  0.00000000000E+00  0.61834721730E+03  0.61834721732E+03  0.50400001928E-02 0. -1.
        1   -1    0    0  501    0  0.00000000000E+00  0.00000000000E+00 -0.40449281761E+03  0.40449281764E+03  0.50400001928E-02 0.  1.
    10030    2    1    2    0    0  0.00000000000E+00  0.00000000000E+00  0.21385439970E+03  0.10228400350E+04  0.10002339890E+04 0.  0.
        1    1    3    3  502    0  0.50466449384E+01 -0.32431026574E+02 -0.40339030035E+03  0.40472333087E+03  0.50400001928E-02 0.  1.
       -1    1    3    3    0  502 -0.50466449384E+01  0.32431026574E+02  0.61724470005E+03  0.61811670409E+03  0.50400001928E-02 0. -1.
</event>
<event>
 5   0  0.1006006E-03  0.1007281E+04  0.7818609E-02  0.9300595E-01
        2   -1    0    0  501    0  0.00000000000E+00  0.00000000000E+00  0.39519390829E+03  0.39519390830E+03  0.25500000920E-02 0.  1.
       -2   -1    0    0    0  501  0.00000000000E+00  0.00000000000E+00 -0.64184617926E+03  0.64184617926E+03  0.25500000920E-02 0. -1.
    10030    2    1    2    0    0  0.00000000000E+00  0.00000000000E+00 -0.24665227097E+03  0.10370400876E+04  0.10072808945E+04 0.  0.
        2    1    3    3  502    0 -0.30466455700E+03 -0.25076686544E+03 -0.44554084743E+03  0.59515641627E+03  0.25500000920E-02 0. -1.
       -2    1    3    3    0  502  0.30466455700E+03  0.25076686544E+03  0.19888857646E+03  0.44188367128E+03  0.25500000920E-02 0.  1.
</event>
<event>
 5   0  0.5960102E-04  0.9964588E+03  0.7818609E-02  0.9312437E-01
       -1   -1    0    0    0  501  0.00000000000E+00  0.00000000000E+00  0.43423394475E+03  0.43423394477E+03  0.50400001928E-02 0.  1.
        1   -1    0    0  501    0  0.00000000000E+00  0.00000000000E+00 -0.57165623655E+03  0.57165623657E+03  0.50400001928E-02 0. -1.
    10030    2    1    2    0    0  0.00000000000E+00  0.00000000000E+00 -0.13742229180E+03  0.10058901813E+04  0.99645881533E+03 0.  0.
        5    1    3    3  502    0  0.12671244277E+03  0.12903816623E+03  0.39990628739E+03  0.43892370657E+03  0.46999998093E+01 0.  1.
       -5    1    3    3    0  502 -0.12671244277E+03 -0.12903816623E+03 -0.53732857920E+03  0.56696647477E+03  0.46999998093E+01 0. -1.
</event>
<event>
 5   0  0.1006749E-03  0.9981674E+03  0.7818609E-02  0.9310557E-01
        2   -1    0    0  501    0  0.00000000000E+00  0.00000000000E+00  0.75483079635E+03  0.75483079636E+03  0.25500000920E-02 0. -1.
       -2   -1    0    0    0  501  0.00000000000E+00  0.00000000000E+00 -0.32998722647E+03  0.32998722648E+03  0.25500000920E-02 0.  1.
    10030    2    1    2    0    0  0.00000000000E+00  0.00000000000E+00  0.42484356988E+03  0.10848180228E+04  0.99816736261E+03 0.  0.
        1    1    3    3  502    0  0.18469397092E+03 -0.97719801550E+02  0.70500384065E+03  0.73531723621E+03  0.50400001928E-02 0. -1.
       -1    1    3    3    0  502 -0.18469397092E+03  0.97719801550E+02 -0.28016027077E+03  0.34950078662E+03  0.50400001928E-02 0.  1.
</event>
<event>
 5   0  0.5826939E-04  0.9999696E+03  0.7818609E-02  0.9308578E-01
       -1   -1    0    0    0  501  0.00000000000E+00  0.00000000000E+00  0.38291361224E+03  0.38291361227E+03  0.50400001928E-02 0. -1.
        1   -1    0    0  501    0  0.00000000000E+00  0.00000000000E+00 -0.65284914244E+03  0.65284914246E+03  0.50400001928E-02 0.  1.
    10030    2    1    2    0    0  0.00000000000E+00  0.00000000000E+00 -0.26993553021E+03  0.10357627547E+04  0.99996964635E+03 0.  0.
        1    1    3    3  502    0  0.68010636640E+02  0.57191005560E+02  0.37466883672E+03  0.38506232619E+03  0.50400001928E-02 0. -1.
       -1    1    3    3    0  502 -0.68010636640E+02 -0.57191005560E+02 -0.64460436693E+03  0.65070042854E+03  0.50400001928E-02 0.  1.
</event>
<event>
 5   0  0.5888774E-04  0.1002104E+04  0.7818609E-02  0.9306241E-01
       -1   -1    0    0    0  501  0.00000000000E+00  0.00000000000E+00  0.91196893920E+03  0.91196893921E+03  0.50400001928E-02 0. -1.
        1   -1    0    0  501    0  0.00000000000E+00  0.00000000000E+00 -0.27528665677E+03  0.27528665682E+03  0.50400001928E-02 0.  1.
    10030    2    1    2    0    0  0.00000000000E+00  0.00000000000E+00  0.63668228243E+03  0.11872555960E+04  0.10021035483E+04 0.  0.
        2    1    3    3  502    0 -0.35159989339E+03 -0.19067996489E+03 -0.39197496197E+02  0.40189274409E+03  0.25500000920E-02 0.  1.
       -2    1    3    3    0  502  0.35159989339E+03  0.19067996489E+03  0.67587977863E+03  0.78536285194E+03  0.25500000920E-02 0. -1.
</event>
<event>
 5   0  0.9674819E-04  0.1011873E+04  0.7818609E-02  0.9295618E-01
       -2   -1    0    0    0  501  0.00000000000E+00  0.00000000000E+00  0.23222589933E+03  0.23222589934E+03  0.25500000920E-02 0.  1.
        2   -1    0    0  501    0  0.00000000000E+00  0.00000000000E+00 -0.11022530478E+04  0.11022530478E+04  0.25500000920E-02 0. -1.
    10030    2    1    2    0    0  0.00000000000E+00  0.00000000000E+00 -0.87002714843E+03  0.13344789471E+04  0.10118729274E+04 0.  0.
        4    1    3    3  502    0 -0.28346783631E+03 -0.38663996044E+03 -0.64818011922E+03  0.80621557482E+03  0.12699999809E+01 0.  1.
       -4    1    3    3    0  502  0.28346783631E+03  0.38663996044E+03 -0.22184702921E+03  0.52826337229E+03  0.12699999809E+01 0. -1.
</event>
<event>
 5   0  0.1006006E-03  0.9992017E+03  0.7818609E-02  0.9309421E-01
       -2   -1    0    0    0  501  0.00000000000E+00  0.00000000000E+00  0.30381628696E+03  0.30381628697E+03  0.25500000920E-02 0.  1.
        2   -1    0    0  501    0  0.00000000000E+00  0.00000000000E+00 -0.82155242882E+03  0.82155242882E+03  0.25500000920E-02 0. -1.
    10030    2    1    2    0    0  0.00000000000E+00  0.00000000000E+00 -0.51773614186E+03  0.11253687158E+04  0.99920169831E+03 0.  0.
        2    1    3    3  502    0  0.13316553486E+03  0.23577130414E+01 -0.80118957898E+03  0.81218431403E+03  0.25500000920E-02 0. -1.
       -2    1    3    3    0  502 -0.13316553486E+03 -0.23577130414E+01  0.28345343712E+03  0.31318440176E+03  0.25500000920E-02 0.  1.
</event>
<event>
 5   0  0.9674819E-04  0.1003296E+04  0.7818609E-02  0.9304937E-01
       -2   -1    0    0    0  501  0.00000000000E+00  0.00000000000E+00  0.16764637175E+03  0.16764637177E+03  0.25500000920E-02 0.  1.
        2   -1    0    0  501    0  0.00000000000E+00  0.00000000000E+00 -0.15010815314E+04  0.15010815314E+04  0.25500000920E-02 0. -1.
    10030    2    1    2    0    0  0.00000000000E+00  0.00000000000E+00 -0.13334351597E+04  0.16687279032E+04  0.10032963121E+04 0.  0.
        4    1    3    3  502    0 -0.27892110547E+03 -0.31266014940E+03 -0.20790326180E+03  0.46773788736E+03  0.12699999809E+01 0.  1.
       -4    1    3    3    0  502  0.27892110547E+03  0.31266014940E+03 -0.11255318979E+04  0.12009900158E+04  0.12699999809E+01 0. -1.
</event>
<event>
 5   0  0.5888774E-04  0.9991776E+03  0.7818609E-02  0.9309447E-01
       -1   -1    0    0    0  501  0.00000000000E+00  0.00000000000E+00  0.55010679619E+03  0.55010679621E+03  0.50400001928E-02 0.  1.
        1   -1    0    0  501    0  0.00000000000E+00  0.00000000000E+00 -0.45371002677E+03  0.45371002679E+03  0.50400001928E-02 0. -1.
    10030    2    1    2    0    0  0.00000000000E+00  0.00000000000E+00  0.96396769420E+02  0.10038168230E+04  0.99917760032E+03 0.  0.
        2    1    3    3  502    0  0.27887458668E+03  0.92234600902E+02  0.45419191898E+03  0.54089606763E+03  0.25500000920E-02 0.  1.
       -2    1    3    3    0  502 -0.27887458668E+03 -0.92234600902E+02 -0.35779514956E+03  0.46292075537E+03  0.25500000920E-02 0. -1.
</event>
<event>
 5   0  0.1006749E-03  0.1000120E+04  0.7818609E-02  0.9308413E-01
       -2   -1    0    0    0  501  0.00000000000E+00  0.00000000000E+00  0.13281045804E+03  0.13281045806E+03  0.25500000920E-02 0. -1.
        2   -1    0    0  501    0  0.00000000000E+00  0.00000000000E+00 -0.18828327738E+04  0.18828327738E+04  0.25500000920E-02 0.  1.
    10030    2    1    2    0    0  0.00000000000E+00  0.00000000000E+00 -0.17500223157E+04  0.20156432318E+04  0.10001197591E+04 0.  0.
        1    1    3    3  502    0 -0.46528799637E+03  0.11637268052E+01 -0.50577100306E+03  0.68723982814E+03  0.50400001928E-02 0. -1.
       -1    1    3    3    0  502  0.46528799637E+03 -0.11637268052E+01 -0.12442513127E+04  0.13284034037E+04  0.50400001928E-02 0.  1.
</event>
<event>
 5   0  0.5768102E-04  0.1000036E+04  0.7818609E-02  0.9308505E-01
        1   -1    0    0  501    0  0.00000000000E+00  0.00000000000E+00  0.19652619972E+03  0.19652619979E+03  0.50400001928E-02 0.  1.
       -1   -1    0    0    0  501  0.00000000000E+00  0.00000000000E+00 -0.12721869908E+04  0.12721869908E+04  0.50400001928E-02 0. -1.
    10030    2    1    2    0    0  0.00000000000E+00  0.00000000000E+00 -0.10756607911E+04  0.14687131906E+04  0.10000361487E+04 0.  0.
        4    1    3    3  502    0 -0.25850397433E+03 -0.88330068938E+02  0.77238345532E+02  0.28389061404E+03  0.12699999809E+01 0.  1.
       -4    1    3    3    0  502  0.25850397433E+03  0.88330068938E+02 -0.11528991366E+04  0.11848225766E+04  0.12699999809E+01 0. -1.
</event>
<event>
 5   0  0.5888774E-04  0.1002666E+04  0.7818609E-02  0.9305625E-01
       -1   -1    0    0    0  501  0.00000000000E+00  0.00000000000E+00  0.70779759108E+03  0.70779759109E+03  0.50400001928E-02 0.  1.
        1   -1    0    0  501    0  0.00000000000E+00  0.00000000000E+00 -0.35509445536E+03  0.35509445540E+03  0.50400001928E-02 0. -1.
    10030    2    1    2    0    0  0.00000000000E+00  0.00000000000E+00  0.35270313572E+03  0.10628920465E+04  0.10026664453E+04 0.  0.
        2    1    3    3  502    0  0.44563858047E+03  0.94475418011E+02 -0.45543327185E+02  0.45781387449E+03  0.25500000920E-02 0. -1.
       -2    1    3    3    0  502 -0.44563858047E+03 -0.94475418011E+02  0.39824646290E+03  0.60507817200E+03  0.25500000920E-02 0.  1.
</event>
<event>
 5   0  0.5826939E-04  0.9939782E+03  0.7818609E-02  0.9315174E-01
        1   -1    0    0  501    0  0.00000000000E+00  0.00000000000E+00  0.13423189552E+04  0.13423189553E+04  0.50400001928E-02 0.  1.
       -1   -1    0    0    0  501  0.00000000000E+00  0.00000000000E+00 -0.18400856092E+03  0.18400856099E+03  0.50400001928E-02 0. -1.
    10030    2    1    2    0    0  0.00000000000E+00  0.00000000000E+00  0.11583103943E+04  0.15263275162E+04  0.99397822776E+03 0.  0.
        1    1    3    3  502    0 -0.28614451035E+03  0.38382323753E+03  0.37428850395E+03  0.60769304973E+03  0.50400001928E-02 0.  1.
       -1    1    3    3    0  502  0.28614451035E+03 -0.38382323753E+03  0.78402189036E+03  0.91863446652E+03  0.50400001928E-02 0. -1.
</event>
<event>
 5   0  0.1006749E-03  0.1006174E+04  0.7818609E-02  0.9301799E-01
       -2   -1    0    0    0  501  0.00000000000E+00  0.00000000000E+00  0.23312757029E+03  0.23312757031E+03  0.25500000920E-02 0.  1.
        2   -1    0    0  501    0  0.00000000000E+00  0.00000000000E+00 -0.10856575960E+04  0.10856575961E+04  0.25500000920E-02 0. -1.
    10030    2    1    2    0    0  0.00000000000E+00  0.00000000000E+00 -0.85253002575E+03  0.13187851664E+04  0.10061743737E+04 0.  0.
        1    1    3    3  502    0 -0.27283093305E+03  0.20461622156E+03 -0.91103025239E+03  0.97276957033E+03  0.50400001928E-02 0. -1.
       -1    1    3    3    0  502  0.27283093305E+03 -0.20461622156E+03  0.58500226639E+02  0.34601559603E+03  0.50400001928E-02 0.  1.
</event>
<event>
 5   0  0.5758786E-04  0.1000991E+04  0.7818609E-02  0.9307458E-01
        1   -1    0    0  501    0  0.00000000000E+00  0.00000000000E+00  0.88819991179E+03  0.88819991181E+03  0.50400001928E-02 0. -1.
       -1   -1    0    0    0  501  0.00000000000E+00  0.00000000000E+00 -0.28202655615E+03  0.28202655619E+03  0.50400001928E-02 0.  1.
    10030    2    1    2    0    0  0.00000000000E+00  0.00000000000E+00  0.60617335565E+03  0.11702264680E+04  0.10009914332E+04 0.  0.
        3    1    3    3  502    0 -0.36389520328E+03  0.92354767377E+02 -0.83849612468E+02  0.38468154328E+03  0.10100000352E+00 0.  1.
       -3    1    3    3    0  502  0.36389520328E+03 -0.92354767377E+02  0.69002296811E+03  0.78554492472E+03  0.10100000352E+00 0. -1.
</event>
<event>
 5   0  0.5960102E-04  0.9965945E+03  0.7818609E-02  0.9312288E-01
       -1   -1    0    0    0  501  0.00000000000E+00  0.00000000000E+00  0.60328362590E+03  0.60328362592E+03  0.50400001928E-02 0. -1.
        1   -1    0    0  501    0  0.00000000000E+00  0.00000000000E+00 -0.41158114246E+03  0.41158114249E+03  0.50400001928E-02 0.  1.
    10030    2    1    2    0    0  0.00000000000E+00  0.00000000000E+00  0.19170248345E+03  0.10148647684E+04  0.99659452939E+03 0.  0.
        5    1    3    3  502    0  0.17387079940E+03 -0.21336792018E+03 -0.32712000859E+03  0.42753539533E+03  0.46999998093E+01 0.  1.
       -5    1    3    3    0  502 -0.17387079940E+03  0.21336792018E+03  0.51882249204E+03  0.58732937308E+03  0.46999998093E+01 0. -1.
</event>
<event>
 5   0  0.5758786E-04  0.9983578E+03  0.7818609E-02  0.9310348E-01
       -1   -1    0    0    0  501  0.00000000000E+00  0.00000000000E+00  0.26218202768E+03  0.26218202773E+03  0.50400001928E-02 0. -1.
        1   -1    0    0  501    0  0.00000000000E+00  0.00000000000E+00 -0.95040671787E+03  0.95040671788E+03  0.50400001928E-02 0.  1.
    10030    2    1    2    0    0  0.00000000000E+00  0.00000000000E+00 -0.68822469019E+03  0.12125887456E+04  0.99835777244E+03 0.  0.
        3    1    3    3  502    0  0.59686648612E+02  0.10417574178E+03 -0.93260834318E+03  0.94030495754E+03  0.10100000352E+00 0.  1.
       -3    1    3    3    0  502 -0.59686648612E+02 -0.10417574178E+03  0.24438365299E+03  0.27228378807E+03  0.10100000352E+00 0. -1.
</event>
<event>
 5   0  0.1006006E-03  0.9923006E+03  0.7818609E-02  0.9317030E-01
        2   -1    0    0  501    0  0.00000000000E+00  0.00000000000E+00  0.20635784903E+04  0.20635784903E+04  0.25500000920E-02 0. -1.
       -2   -1    0    0    0  501  0.00000000000E+00  0.00000000000E+00 -0.11929040691E+03  0.11929040693E+03  0.25500000920E-02 0.  1.
    10030    2    1    2    0    0  0.00000000000E+00  0.00000000000E+00  0.19442880834E+04  0.21828688972E+04  0.99230059522E+03 0.  0.
        2    1    3    3  502    0 -0.27950040315E+03  0.29176201806E+02  0.72658980351E+02  0.29026032030E+03  0.25500000920E-02 0.  1.
       -2    1    3    3    0  502  0.27950040315E+03 -0.29176201806E+02  0.18716291030E+04  0.18926085769E+04  0.25500000920E-02 0. -1.
</event>
<event>
 5   0  0.1006006E-03  0.1000751E+04  0.7818609E-02  0.9307721E-01
       -2   -1    0    0    0  501  0.00000000000E+00  0.00000000000E+00  0.18655895108E+03  0.18655895109E+03  0.25500000920E-02 0.  1.
        2   -1    0    0  501    0  0.00000000000E+00  0.00000000000E+00 -0.13420735163E+04  0.13420735163E+04  0.25500000920E-02 0. -1.
    10030    2    1    2    0    0  0.00000000000E+00  0.00000000000E+00 -0.11555145652E+04  0.15286324674E+04  0.10007513727E+04 0.  0.
        2    1    3    3  502    0  0.14729680398E+03 -0.29260703381E+03 -0.11555032334E+04  0.12010424419E+04  0.25500000920E-02 0. -1.
       -2    1    3    3    0  502 -0.14729680398E+03  0.29260703381E+03 -0.11331810758E-01  0.32759002554E+03  0.25500000920E-02 0.  1.
</event>
<event>
 5   0  0.9674819E-04  0.1000046E+04  0.7818609E-02  0.9308494E-01
        2   -1    0    0  501    0  0.00000000000E+00  0.00000000000E+00  0.43200376961E+03  0.43200376962E+03  0.25500000920E-02 0. -1.
       -2   -1    0    0    0  501  0.00000000000E+00  0.00000000000E+00 -0.57875245531E+03  0.57875245532E+03  0.25500000920E-02 0.  1.
    10030    2    1    2    0    0  0.00000000000E+00  0.00000000000E+00 -0.14674868570E+03  0.10107562249E+04  0.10000464837E+04 0.  0.
        4    1    3    3  502    0  0.36939347896E+03 -0.17143070973E+03  0.21987349776E+03  0.46280233195E+03  0.12699999809E+01 0. -1.
       -4    1    3    3    0  502 -0.36939347896E+03  0.17143070973E+03 -0.36662218346E+03  0.54795389299E+03  0.12699999809E+01 0.  1.
</event>
<event>
 5   0  0.3854625E-04  0.9991902E+03  0.7818609E-02  0.9309433E-01
        3   -1    0    0  501    0  0.00000000000E+00  0.00000000000E+00  0.14948175220E+04  0.14948175255E+04  0.10100000352E+00 0. -1.
       -3   -1    0    0    0  501  0.00000000000E+00  0.00000000000E+00 -0.16697372649E+03  0.16697375704E+03  0.10100000352E+00 0.  1.
    10030    2    1    2    0    0  0.00000000000E+00  0.00000000000E+00  0.13278437955E+04  0.16617912825E+04  0.99919023274E+03 0.  0.
        2    1    3    3  502    0 -0.18542034793E+03 -0.25908189155E+03  0.13039408680E+04  0.13422987444E+04  0.25500000920E-02 0. -1.
       -2    1    3    3    0  502  0.18542034793E+03  0.25908189155E+03  0.23902927559E+02  0.31949253811E+03  0.25500000920E-02 0.  1.
</event>
<event>
 5   0  0.5758786E-04  0.1000236E+04  0.7818609E-02  0.9308286E-01
       -1   -1    0    0    0  501  0.00000000000E+00  0.00000000000E+00  0.36206653351E+03  0.36206653354E+03  0.50400001928E-02 0.  1.
        1   -1    0    0  501    0  0.00000000000E+00  0.00000000000E+00 -0.69080681906E+03  0.69080681908E+03  0.50400001928E-02 0. -1.
    10030    2    1    2    0    0  0.00000000000E+00  0.00000000000E+00 -0.32874028556E+03  0.10528733526E+04  0.10002360328E+04 0.  0.
        3    1    3    3  502    0  0.30577782417E+02  0.21384145942E+03 -0.63916680982E+03  0.67468317862E+03  0.10100000352E+00 0. -1.
       -3    1    3    3    0  502 -0.30577782417E+02 -0.21384145942E+03  0.31042652426E+03  0.37819017400E+03  0.10100000352E+00 0.  1.
</event>
<event>
 5   0  0.5768102E-04  0.9979885E+03  0.7818609E-02  0.9310754E-01
       -1   -1    0    0    0  501  0.00000000000E+00  0.00000000000E+00  0.48932423018E+03  0.48932423020E+03  0.50400001928E-02 0. -1.
        1   -1    0    0  501    0  0.00000000000E+00  0.00000000000E+00 -0.50885536577E+03  0.50885536580E+03  0.50400001928E-02 0.  1.
    10030    2    1    2    0    0  0.00000000000E+00  0.00000000000E+00 -0.19531135597E+02  0.99817959600E+03  0.99798849724E+03 0.  0.
        4    1    3    3  502    0 -0.53401504577E+02  0.28366195851E+03  0.39734777663E+03  0.49112391093E+03  0.12699999809E+01 0. -1.
       -4    1    3    3    0  502  0.53401504577E+02 -0.28366195851E+03 -0.41687891223E+03  0.50705568507E+03  0.12699999809E+01 0.  1.
</event>
<event>
 5   0  0.1020150E-03  0.9984384E+03  0.7818609E-02  0.9310259E-01
        2   -1    0    0  501    0  0.00000000000E+00  0.00000000000E+00  0.13935190129E+04  0.13935190129E+04  0.25500000920E-02 0. -1.
       -2   -1    0    0    0  501  0.00000000000E+00  0.00000000000E+00 -0.17884206466E+03  0.17884206468E+03  0.25500000920E-02 0.  1.
    10030    2    1    2    0    0  0.00000000000E+00  0.00000000000E+00  0.12146769482E+04  0.15723610775E+04  0.99843841558E+03 0.  0.
        5    1    3    3  502    0 -0.57654661860E+02  0.41650801467E+03  0.10310638874E+04  0.11135159703E+04  0.46999998093E+01 0. -1.
       -5    1    3    3    0  502  0.57654661860E+02 -0.41650801467E+03  0.18361306082E+03  0.45884510722E+03  0.46999998093E+01 0.  1.
</event>
<event>
 5   0  0.5758786E-04  0.1000687E+04  0.7818609E-02  0.9307791E-01
       -1   -1    0    0    0  501  0.00000000000E+00  0.00000000000E+00  0.30381055970E+03  0.30381055975E+03  0.50400001928E-02 0.  1.
        1   -1    0    0  501    0  0.00000000000E+00  0.00000000000E+00 -0.82401301411E+03  0.82401301412E+03  0.50400001928E-02 0. -1.
    10030    2    1    2    0    0  0.00000000000E+00  0.00000000000E+00 -0.52020245440E+03  0.11278235739E+04  0.10006874738E+04 0.  0.
        3    1    3    3  502    0 -0.34296771317E+03  0.14472160105E+03 -0.63690086776E+03  0.73770856010E+03  0.10100000352E+00 0. -1.
       -3    1    3    3    0  502  0.34296771317E+03 -0.14472160105E+03  0.11669841335E+03  0.39011501377E+03  0.10100000352E+00 0.  1.
</event>
<event>
 5   0  0.5888774E-04  0.1001829E+04  0.7818609E-02  0.9306542E-01
        1   -1    0    0  501    0  0.00000000000E+00  0.00000000000E+00  0.43776807819E+03  0.43776807822E+03  0.50400001928E-02 0. -1.
       -1   -1    0    0    0  501  0.00000000000E+00  0.00000000000E+00 -0.57316900202E+03  0.57316900204E+03  0.50400001928E-02 0.  1.
    10030    2    1    2    0    0  0.00000000000E+00  0.00000000000E+00 -0.13540092383E+03  0.10109370803E+04  0.10018285133E+04 0.  0.
        2    1    3    3  502    0 -0.98875874579E+02  0.45235106594E+03  0.12513161441E+03  0.47964137265E+03  0.25500000920E-02 0. -1.
       -2    1    3    3    0  502  0.98875874579E+02 -0.45235106594E+03 -0.26053253824E+03  0.53129570760E+03  0.25500000920E-02 0.  1.
</event>
<event>
 5   0  0.9741826E-04  0.1000418E+04  0.7818609E-02  0.9308086E-01
        2   -1    0    0  501    0  0.00000000000E+00  0.00000000000E+00  0.19456922794E+04  0.19456922794E+04  0.25500000920E-02 0. -1.
       -2   -1    0    0    0  501  0.00000000000E+00  0.00000000000E+00 -0.12859645565E+03  0.12859645567E+03  0.25500000920E-02 0.  1.
    10030    2    1    2    0    0  0.00000000000E+00  0.00000000000E+00  0.18170958237E+04  0.20742887351E+04  0.10004181744E+04 0.  0.
        3    1    3    3  502    0 -0.37824477446E+03 -0.30380319035E+03  0.65593372443E+03  0.81585203862E+03  0.10100000352E+00 0. -1.
       -3    1    3    3    0  502  0.37824477446E+03  0.30380319035E+03  0.11611620993E+04  0.12584366964E+04  0.10100000352E+00 0.  1.
</event>
<event>
 5   0  0.5758786E-04  0.1004316E+04  0.7818609E-02  0.9303823E-01
       -1   -1    0    0    0  501  0.00000000000E+00  0.00000000000E+00  0.29728872257E+03  0.29728872261E+03  0.50400001928E-02 0.  1.
        1   -1    0    0  501    0  0.00000000000E+00  0.00000000000E+00 -0.84820852629E+03  0.84820852630E+03  0.50400001928E-02 0. -1.
    10030    2    1    2    0    0  0.00000000000E+00  0.00000000000E+00 -0.55091980372E+03  0.11454972489E+04  0.10043163432E+04 0.  0.
        3    1    3    3  502    0 -0.46489136450E+03  0.33903814989E+02 -0.62415522020E+02  0.47028625012E+03  0.10100000352E+00 0.  1.
       -3    1    3    3    0  502  0.46489136450E+03 -0.33903814989E+02 -0.48850428170E+03  0.67521099880E+03  0.10100000352E+00 0. -1.
</event>
<event>
 5   0  0.5758786E-04  0.9986182E+03  0.7818609E-02  0.9310062E-01
       -1   -1    0    0    0  501  0.00000000000E+00  0.00000000000E+00  0.13999526922E+04  0.13999526922E+04  0.50400001928E-02 0. -1.
        1   -1    0    0  501    0  0.00000000000E+00  0.00000000000E+00 -0.17808427147E+03  0.17808427154E+03  0.50400001928E-02 0.  1.
    10030    2    1    2    0    0  0.00000000000E+00  0.00000000000E+00  0.12218684207E+04  0.15780369637E+04  0.99861815594E+03 0.  0.
        3    1    3    3  502    0 -0.46006974293E+03  0.10298182331E+03  0.35108462494E+03  0.58781787006E+03  0.10100000352E+00 0. -1.
       -3    1    3    3    0  502  0.46006974293E+03 -0.10298182331E+03  0.87078379578E+03  0.99021909368E+03  0.10100000352E+00 0.  1.
</event>
<event>
 5   0  0.5758786E-04  0.1004270E+04  0.7818609E-02  0.9303874E-01
       -1   -1    0    0    0  501  0.00000000000E+00  0.00000000000E+00  0.26278685461E+03  0.26278685466E+03  0.50400001928E-02 0.  1.
        1   -1    0    0  501    0  0.00000000000E+00  0.00000000000E+00 -0.95948285514E+03  0.95948285516E+03  0.50400001928E-02 0. -1.
    10030    2    1    2    0    0  0.00000000000E+00  0.00000000000E+00 -0.69669600053E+03  0.12222697098E+04  0.10042698474E+04 0.  0.
        3    1    3    3  502    0 -0.13390344363E+03 -0.25976261761E+03 -0.84531442148E+03  0.89440663631E+03  0.10100000352E+00 0. -1.
       -3    1    3    3    0  502  0.13390344363E+03  0.25976261761E+03  0.14861842095E+03  0.32786307351E+03  0.10100000352E+00 0.  1.
</event>
<event>
 5   0  0.3854625E-04  0.9996073E+03  0.7818609E-02  0.9308976E-01
       -4   -1    0    0    0  501  0.00000000000E+00  0.00000000000E+00  0.67620984838E+03  0.67621104099E+03  0.12699999809E+01 0.  1.
        4   -1    0    0  501    0  0.00000000000E+00  0.00000000000E+00 -0.36941482683E+03  0.36941700987E+03  0.12699999809E+01 0. -1.
    10030    2    1    2    0    0  0.00000000000E+00  0.00000000000E+00  0.30679502156E+03  0.10456280509E+04  0.99960734065E+03 0.  0.
        4    1    3    3  502    0  0.16861895857E+03  0.11573502546E+03 -0.32364107447E+03  0.38284736814E+03  0.12699999809E+01 0. -1.
       -4    1    3    3    0  502 -0.16861895857E+03 -0.11573502546E+03  0.63043609603E+03  0.66278068272E+03  0.12699999809E+01 0.  1.
</event>
<event>
 5   0  0.5768102E-04  0.1001010E+04  0.7818609E-02  0.9307438E-01
        1   -1    0    0  501    0  0.00000000000E+00  0.00000000000E+00  0.91848279124E+03  0.91848279126E+03  0.50400001928E-02 0.  1.
       -1   -1    0    0    0  501  0.00000000000E+00  0.00000000000E+00 -0.27273792131E+03  0.27273792136E+03  0.50400001928E-02 0. -1.
    10030    2    1    2    0    0  0.00000000000E+00  0.00000000000E+00  0.64574486993E+03  0.11912207126E+04  0.10010096649E+04 0.  0.
        4    1    3    3  502    0  0.16744223886E+03  0.46849863949E+03  0.38778681833E+03  0.63079957825E+03  0.12699999809E+01 0.  1.
       -4    1    3    3    0  502 -0.16744223886E+03 -0.46849863949E+03  0.25795805160E+03  0.56042113436E+03  0.12699999809E+01 0. -1.
</event>
<event>
 5   0  0.5768102E-04  0.1000149E+04  0.7818609E-02  0.9308382E-01
        1   -1    0    0  501    0  0.00000000000E+00  0.00000000000E+00  0.11596140926E+04  0.11596140927E+04  0.50400001928E-02 0.  1.
       -1   -1    0    0    0  501  0.00000000000E+00  0.00000000000E+00 -0.21565313522E+03  0.21565313528E+03  0.50400001928E-02 0. -1.
    10030    2    1    2    0    0  0.00000000000E+00  0.00000000000E+00  0.94396095743E+03  0.13752672279E+04  0.10001488185E+04 0.  0.
        4    1    3    3  502    0  0.11821552636E+03 -0.46152848030E+03  0.26303722652E+03  0.54421837918E+03  0.12699999809E+01 0. -1.
       -4    1    3    3    0  502 -0.11821552636E+03  0.46152848030E+03  0.68092373091E+03  0.83104884876E+03  0.12699999809E+01 0.  1.
</event>
<event>
 5   0  0.9741826E-04  0.9994346E+03  0.7818609E-02  0.9309165E-01
       -2   -1    0    0    0  501  0.00000000000E+00  0.00000000000E+00  0.25820702217E+03  0.25820702218E+03  0.25500000920E-02 0. -1.
        2   -1    0    0  501    0  0.00000000000E+00  0.00000000000E+00 -0.96712084444E+03  0.96712084444E+03  0.25500000920E-02 0.  1.
    10030    2    1    2    0    0  0.00000000000E+00  0.00000000000E+00 -0.70891382227E+03  0.12253278666E+04  0.99943462684E+03 0.  0.
        3    1    3    3  502    0 -0.14604969797E+03  0.33791166207E+02  0.22999005866E+03  0.27453195529E+03  0.10100000352E+00 0. -1.
       -3    1    3    3    0  502  0.14604969797E+03 -0.33791166207E+02 -0.93890388093E+03  0.95079591133E+03  0.10100000352E+00 0.  1.
</event>
<event>
 5   0  0.9674819E-04  0.9994350E+03  0.7818609E-02  0.9309165E-01
       -2   -1    0    0    0  501  0.00000000000E+00  0.00000000000E+00  0.94516695431E+03  0.94516695432E+03  0.25500000920E-02 0.  1.
        2   -1    0    0  501    0  0.00000000000E+00  0.00000000000E+00 -0.26420474608E+03  0.26420474609E+03  0.25500000920E-02 0. -1.
    10030    2    1    2    0    0  0.00000000000E+00  0.00000000000E+00  0.68096220823E+03  0.12093717004E+04  0.99943503076E+03 0.  0.
        4    1    3    3  502    0  0.13832125927E+03 -0.19060387115E+03 -0.19284092353E+03  0.30438764947E+03  0.12699999809E+01 0. -1.
       -4    1    3    3    0  502 -0.13832125927E+03  0.19060387115E+03  0.87380313177E+03  0.90498405093E+03  0.12699999809E+01 0.  1.
</event>
<event>
 5   0  0.9674819E-04  0.1007770E+04  0.7818609E-02  0.9300064E-01
        2   -1    0    0  501    0  0.00000000000E+00  0.00000000000E+00  0.71674197379E+03  0.71674197379E+03  0.25500000920E-02 0.  1.
       -2   -1    0    0    0  501  0.00000000000E+00  0.00000000000E+00 -0.35424171646E+03  0.35424171647E+03  0.25500000920E-02 0. -1.
    10030    2    1    2    0    0  0.00000000000E+00  0.00000000000E+00  0.36250025733E+03  0.10709836903E+04  0.10077696305E+04 0.  0.
        4    1    3    3  502    0  0.38673238924E+03  0.16918861684E+03  0.47366718627E+03  0.63446745008E+03  0.12699999809E+01 0.  1.
       -4    1    3    3    0  502 -0.38673238924E+03 -0.16918861684E+03 -0.11116692895E+03  0.43651624018E+03  0.12699999809E+01 0. -1.
</event>
<event>
 5   0  0.5960102E-04  0.1000196E+04  0.7818609E-02  0.9308330E-01
       -1   -1    0    0    0  501  0.00000000000E+00  0.00000000000E+00  0.96924963118E+03  0.96924963119E+03  0.50400001928E-02 0. -1.
        1   -1    0    0  501    0  0.00000000000E+00  0.00000000000E+00 -0.25803254774E+03  0.25803254779E+03  0.50400001928E-02 0.  1.
    10030    2    1    2    0    0  0.00000000000E+00  0.00000000000E+00  0.71121708344E+03  0.12272821790E+04  0.10001958844E+04 0.  0.
        5    1    3    3  502    0 -0.34274839822E+02  0.25451675554E+03  0.88212576473E+03  0.91876084935E+03  0.46999998093E+01 0. -1.
       -5    1    3    3    0  502  0.34274839822E+02 -0.25451675554E+03 -0.17090868130E+03  0.30852132963E+03  0.46999998093E+01 0.  1.
</event>
<event>
 5   0  0.5758786E-04  0.1001751E+04  0.7818609E-02  0.9306627E-01
       -1   -1    0    0    0  501  0.00000000000E+00  0.00000000000E+00  0.18644474979E+03  0.18644474986E+03  0.50400001928E-02 0. -1.
        1   -1    0    0  501    0  0.00000000000E+00  0.00000000000E+00 -0.13455793443E+04  0.13455793443E+04  0.50400001928E-02 0.  1.
    10030    2    1    2    0    0  0.00000000000E+00  0.00000000000E+00 -0.11591345945E+04  0.15320240942E+04  0.10017508757E+04 0.  0.
        3    1    3    3  502    0  0.30464069029E+03  0.28389005967E+03 -0.15387934414E+03  0.44393510665E+03  0.10100000352E+00 0.  1.
       -3    1    3    3    0  502 -0.30464069029E+03 -0.28389005967E+03 -0.10052552504E+04  0.10880889875E+04  0.10100000352E+00 0. -1.
</event>
<event>
 5   0  0.9674819E-04  0.1001438E+04  0.7818609E-02  0.9306969E-01
        2   -1    0    0  501    0  0.00000000000E+00  0.00000000000E+00  0.59246673712E+03  0.59246673713E+03  0.25500000920E-02 0. -1.
       -2   -1    0    0    0  501  0.00000000000E+00  0.00000000000E+00 -0.42317941725E+03  0.42317941725E+03  0.25500000920E-02 0.  1.
    10030    2    1    2    0    0  0.00000000000E+00  0.00000000000E+00  0.16928731988E+03  0.10156461544E+04  0.10014384226E+04 0.  0.
        4    1    3    3  502    0  0.46247910774E+03 -0.17847944037E+03  0.15618722532E+03  0.51974791773E+03  0.12699999809E+01 0. -1.
       -4    1    3    3    0  502 -0.46247910774E+03  0.17847944037E+03  0.13100094551E+02  0.49589823665E+03  0.12699999809E+01 0.  1.
</event>
<event>
 5   0  0.1020150E-03  0.1008400E+04  0.7818609E-02  0.9299379E-01
        2   -1    0    0  501    0  0.00000000000E+00  0.00000000000E+00  0.38192952210E+03  0.38192952211E+03  0.25500000920E-02 0.  1.
       -2   -1    0    0    0  501  0.00000000000E+00  0.00000000000E+00 -0.66561405898E+03  0.66561405899E+03  0.25500000920E-02 0. -1.
    10030    2    1    2    0    0  0.00000000000E+00  0.00000000000E+00 -0.28368453688E+03  0.10475435811E+04  0.10084000386E+04 0.  0.
        5    1    3    3  502    0  0.19030141146E+03  0.41842024968E+03  0.73334514809E+02  0.46549991795E+03  0.46999998093E+01 0.  1.
       -5    1    3    3    0  502 -0.19030141146E+03 -0.41842024968E+03 -0.35701905169E+03  0.58204366315E+03  0.46999998093E+01 0. -1.
</event>
<event>
 5   0  0.5960102E-04  0.1000207E+04  0.7818609E-02  0.9308318E-01
        1   -1    0    0  501    0  0.00000000000E+00  0.00000000000E+00  0.72159919369E+03  0.72159919370E+03  0.50400001928E-02 0. -1.
       -1   -1    0    0    0  501  0.00000000000E+00  0.00000000000E+00 -0.34659603650E+03  0.34659603654E+03  0.50400001928E-02 0.  1.
    10030    2    1    2    0    0  0.00000000000E+00  0.00000000000E+00  0.37500315718E+03  0.10681952302E+04  0.10002068196E+04 0.  0.
        5    1    3    3  502    0 -0.35034601187E+03 -0.29699051934E+03 -0.23772885796E+02  0.45992709934E+03  0.46999998093E+01 0.  1.
       -5    1    3    3    0  502  0.35034601187E+03  0.29699051934E+03  0.39877604298E+03  0.60826813090E+03  0.46999998093E+01 0. -1.
</event>
<event>
 5   0  0.5758786E-04  0.9999316E+03  0.7818609E-02  0.9308620E-01
        1   -1    0    0  501    0  0.00000000000E+00  0.00000000000E+00  0.12072113557E+04  0.12072113557E+04  0.50400001928E-02 0. -1.
       -1   -1    0    0    0  501  0.00000000000E+00  0.00000000000E+00 -0.20706050872E+03  0.20706050879E+03  0.50400001928E-02 0.  1.
    10030    2    1    2    0    0  0.00000000000E+00  0.00000000000E+00  0.10001508469E+04  0.14142718645E+04  0.99993159265E+03 0.  0.
        3    1    3    3  502    0  0.66536629557E+02 -0.11142514008E+03  0.11829725237E+04  0.11900700344E+04  0.10100000352E+00 0. -1.
       -3    1    3    3    0  502 -0.66536629557E+02  0.11142514008E+03 -0.18282167671E+03  0.22420183004E+03  0.10100000352E+00 0.  1.
</event>
<event>
 5   0  0.1006006E-03  0.9991966E+03  0.7818609E-02  0.9309426E-01
        2   -1    0    0  501    0  0.00000000000E+00  0.00000000000E+00  0.12491998608E+04  0.12491998608E+04  0.25500000920E-02 0.  1.
       -2   -1    0    0    0  501  0.00000000000E+00  0.00000000000E+00 -0.19980664802E+03  0.19980664804E+03  0.25500000920E-02 0. -1.
    10030    2    1    2    0    0  0.00000000000E+00  0.00000000000E+00  0.10493932128E+04  0.14490065088E+04  0.99919655105E+03 0.  0.
        2    1    3    3  502    0 -0.33783618273E+03  0.18672599728E+02  0.10577535178E+04  0.11105514202E+04  0.25500000920E-02 0.  1.
       -2    1    3    3    0  502  0.33783618273E+03 -0.18672599728E+02 -0.83603050524E+01  0.33845508867E+03  0.25500000920E-02 0. -1.
</event>
<event>
 5   0  0.1020150E-03  0.1001030E+04  0.7818609E-02  0.9307416E-01
        2   -1    0    0  501    0  0.00000000000E+00  0.00000000000E+00  0.27381667268E+03  0.27381667269E+03  0.25500000920E-02 0. -1.
       -2   -1    0    0    0  501  0.00000000000E+00  0.00000000000E+00 -0.91490086771E+03  0.91490086771E+03  0.25500000920E-02 0.  1.
    10030    2    1    2    0    0  0.00000000000E+00  0.00000000000E+00 -0.64108419503E+03  0.11887175404E+04  0.10010296927E+04 0.  0.
        5    1    3    3  502    0  0.21137285808E+03 -0.15729750933E+03 -0.82585151976E+03  0.86687589323E+03  0.46999998093E+01 0.  1.
       -5    1    3    3    0  502 -0.21137285808E+03  0.15729750933E+03  0.18476732473E+03  0.32184164718E+03  0.46999998093E+01 0. -1.
</event>
<event>
 5   0  0.1006749E-03  0.9945646E+03  0.7818609E-02  0.9314526E-01
       -2   -1    0    0    0  501  0.00000000000E+00  0.00000000000E+00  0.30572541915E+03  0.30572541916E+03  0.25500000920E-02 0.  1.
        2   -1    0    0  501    0  0.00000000000E+00  0.00000000000E+00 -0.80886203493E+03  0.80886203493E+03  0.25500000920E-02 0. -1.
    10030    2    1    2    0    0  0.00000000000E+00  0.00000000000E+00 -0.50313661577E+03  0.11145874541E+04  0.99456459755E+03 0.  0.
        1    1    3    3  502    0  0.25108395608E+03 -0.39692810068E+03 -0.68466352908E+02  0.47463955969E+03  0.50400001928E-02 0. -1.
       -1    1    3    3    0  502 -0.25108395608E+03  0.39692810068E+03 -0.43467026287E+03  0.63994789441E+03  0.50400001928E-02 0.  1.
</event>
<event>
 5   0  0.9674819E-04  0.1016662E+04  0.7818609E-02  0.9290456E-01
        2   -1    0    0  501    0  0.00000000000E+00  0.00000000000E+00  0.14208793693E+04  0.14208793693E+04  0.25500000920E-02 0.  1.
       -2   -1    0    0    0  501  0.00000000000E+00  0.00000000000E+00 -0.18185962906E+03  0.18185962907E+03  0.25500000920E-02 0. -1.
    10030    2    1    2    0    0  0.00000000000E+00  0.00000000000E+00  0.12390197402E+04  0.16027389984E+04  0.10166623728E+04 0.  0.
        4    1    3    3  502    0  0.33525166977E+02  0.26456989471E+03 -0.62717631146E+02  0.27396401254E+03  0.12699999809E+01 0. -1.
       -4    1    3    3    0  502 -0.33525166977E+02 -0.26456989471E+03  0.13017373714E+04  0.13287749858E+04  0.12699999809E+01 0.  1.
</event>
<event>
 5   0  0.1020150E-03  0.1001844E+04  0.7818609E-02  0.9306524E-01
       -2   -1    0    0    0  501  0.00000000000E+00  0.00000000000E+00  0.14933522221E+03  0.14933522223E+03  0.25500000920E-02 0.  1.
        2   -1    0    0  501    0  0.00000000000E+00  0.00000000000E+00 -0.16802670293E+04  0.16802670294E+04  0.25500000920E-02 0. -1.
    10030    2    1    2    0    0  0.00000000000E+00  0.00000000000E+00 -0.15309318071E+04  0.18296022516E+04  0.10018443995E+04 0.  0.
        5    1    3    3  502    0 -0.36862839114E+03  0.26997760319E+03 -0.11402941960E+04  0.12284411831E+04  0.46999998093E+01 0.  1.
       -5    1    3    3    0  502  0.36862839114E+03 -0.26997760319E+03 -0.39063761115E+03  0.60116106846E+03  0.46999998093E+01 0. -1.
</event>
<event>
 5   0  0.9741826E-04  0.1001147E+04  0.7818609E-02  0.9307288E-01
        2   -1    0    0  501    0  0.00000000000E+00  0.00000000000E+00  0.62298918973E+03  0.62298918974E+03  0.25500000920E-02 0.  1.
       -2   -1    0    0    0  501  0.00000000000E+00  0.00000000000E+00 -0.40221192843E+03  0.40221192844E+03  0.25500000920E-02 0. -1.
    10030    2    1    2    0    0  0.00000000000E+00  0.00000000000E+00  0.22077726130E+03  0.10252011182E+04  0.10011467093E+04 0.  0.
        3    1    3    3  502    0 -0.30689916485E+03  0.47000828321E+02  0.51247730800E+03  0.59919043439E+03  0.10100000352E+00 0.  1.
       -3    1    3    3    0  502  0.30689916485E+03 -0.47000828321E+02 -0.29170004670E+03  0.42601068378E+03  0.10100000352E+00 0. -1.
</event>
<event>
 5   0  0.5888774E-04  0.9987094E+03  0.7818609E-02  0.9309961E-01
        1   -1    0    0  501    0  0.00000000000E+00  0.00000000000E+00  0.12155124392E+04  0.12155124392E+04  0.50400001928E-02 0.  1.
       -1   -1    0    0    0  501  0.00000000000E+00  0.00000000000E+00 -0.20514402042E+03  0.20514402049E+03  0.50400001928E-02 0. -1.
    10030    2    1    2    0    0  0.00000000000E+00  0.00000000000E+00  0.10103684188E+04  0.14206564597E+04  0.99870938458E+03 0.  0.
        2    1    3    3  502    0 -0.33555591749E+03  0.30884971246E+03  0.21585755266E+03  0.50455961164E+03  0.25500000920E-02 0. -1.
       -2    1    3    3    0  502  0.33555591749E+03 -0.30884971246E+03  0.79451086616E+03  0.91609684810E+03  0.25500000920E-02 0.  1.
</event>
<event>
 5   0  0.1020150E-03  0.9991665E+03  0.7818609E-02  0.9309459E-01
        2   -1    0    0  501    0  0.00000000000E+00  0.00000000000E+00  0.98930535768E+03  0.98930535768E+03  0.25500000920E-02 0.  1.
       -2   -1    0    0    0  501  0.00000000000E+00  0.00000000000E+00 -0.25228149940E+03  0.25228149942E+03  0.25500000920E-02 0. -1.
    10030    2    1    2    0    0  0.00000000000E+00  0.00000000000E+00  0.73702385827E+03  0.12415868571E+04  0.99916653069E+03 0.  0.
        5    1    3    3  502    0  0.13506794575E+03 -0.23287382655E+03 -0.15440599140E+03  0.31038181203E+03  0.46999998093E+01 0. -1.
       -5    1    3    3    0  502 -0.13506794575E+03  0.23287382655E+03  0.89142984967E+03  0.93120504506E+03  0.46999998093E+01 0.  1.
</event>
<event>
 5   0  0.5960102E-04  0.1002063E+04  0.7818609E-02  0.9306285E-01
        1   -1    0    0  501    0  0.00000000000E+00  0.00000000000E+00  0.71722023910E+03  0.71722023912E+03  0.50400001928E-02 0.  1.
       -1   -1    0    0    0  501  0.00000000000E+00  0.00000000000E+00 -0.35000754858E+03  0.35000754861E+03  0.50400001928E-02 0. -1.
    10030    2    1    2    0    0  0.00000000000E+00  0.00000000000E+00  0.36721269053E+03  0.10672277877E+04  0.10020628677E+04 0.  0.
        5    1    3    3  502    0 -0.26749673509E+02 -0.46418351955E+03  0.38236666333E+03  0.60200352166E+03  0.46999998093E+01 0. -1.
       -5    1    3    3    0  502  0.26749673509E+02  0.46418351955E+03 -0.15153972808E+02  0.46522426608E+03  0.46999998093E+01 0.  1.
</event>
<event>
 5   0  0.5960102E-04  0.9997565E+03  0.7818609E-02  0.9308812E-01
       -1   -1    0    0    0  501  0.00000000000E+00  0.00000000000E+00  0.26774141059E+03  0.26774141064E+03  0.50400001928E-02 0. -1.
        1   -1    0    0  501    0  0.00000000000E+00  0.00000000000E+00 -0.93328201107E+03  0.93328201108E+03  0.50400001928E-02 0.  1.
    10030    2    1    2    0    0  0.00000000000E+00  0.00000000000E+00 -0.66554060047E+03  0.12010234217E+04  0.99975645466E+03 0.  0.
        5    1    3    3  502    0 -0.39948247239E+00 -0.35169656266E+03 -0.75947517251E+03  0.83696789629E+03  0.46999998093E+01 0.  1.
       -5    1    3    3    0  502  0.39948247239E+00  0.35169656266E+03  0.93934572031E+02  0.36405552543E+03  0.46999998093E+01 0. -1.
</event>
<event>
 5   0  0.5960102E-04  0.1000254E+04  0.7818609E-02  0.9308266E-01
       -1   -1    0    0    0  501  0.00000000000E+00  0.00000000000E+00  0.35297798135E+03  0.35297798139E+03  0.50400001928E-02 0.  1.
        1   -1    0    0  501    0  0.00000000000E+00  0.00000000000E+00 -0.70861985385E+03  0.70861985387E+03  0.50400001928E-02 0. -1.
    10030    2    1    2    0    0  0.00000000000E+00  0.00000000000E+00 -0.35564187250E+03  0.10615978353E+04  0.10002543788E+04 0.  0.
        5    1    3    3  502    0  0.61605322678E+02 -0.26437874548E+03 -0.62359604464E+03  0.68013634937E+03  0.46999998093E+01 0. -1.
       -5    1    3    3    0  502 -0.61605322678E+02  0.26437874548E+03  0.26795417215E+03  0.38146148588E+03  0.46999998093E+01 0.  1.
</event>
<event>
 5   0  0.5768102E-04  0.9945106E+03  0.7818609E-02  0.9314586E-01
       -1   -1    0    0    0  501  0.00000000000E+00  0.00000000000E+00  0.26761675560E+03  0.26761675564E+03  0.50400001928E-02 0.  1.
        1   -1    0    0  501    0  0.00000000000E+00  0.00000000000E+00 -0.92394369078E+03  0.92394369079E+03  0.50400001928E-02 0. -1.
    10030    2    1    2    0    0  0.00000000000E+00  0.00000000000E+00 -0.65632693518E+03  0.11915604464E+04  0.99451055885E+03 0.  0.
        4    1    3    3  502    0 -0.36706620742E+03 -0.32360176258E+03 -0.22230953278E+03  0.53747450418E+03  0.12699999809E+01 0. -1.
       -4    1    3    3    0  502  0.36706620742E+03  0.32360176258E+03 -0.43401740240E+03  0.65408594226E+03  0.12699999809E+01 0.  1.
</event>
<event>
 5   0  0.9741826E-04  0.1000484E+04  0.7818609E-02  0.9308014E-01
        2   -1    0    0  501    0  0.00000000000E+00  0.00000000000E+00  0.94202792039E+03  0.94202792039E+03  0.25500000920E-02 0. -1.
       -2   -1    0    0    0  501  0.00000000000E+00  0.00000000000E+00 -0.26564209642E+03  0.26564209643E+03  0.25500000920E-02 0.  1.
    10030    2    1    2    0    0  0.00000000000E+00  0.00000000000E+00  0.67638582397E+03  0.12076700168E+04  0.10004844260E+04 0.  0.
        3    1    3    3  502    0 -0.86749216200E+02 -0.49013049423E+03  0.27797237755E+03  0.57010699063E+03  0.10100000352E+00 0. -1.
       -3    1    3    3    0  502  0.86749216200E+02  0.49013049423E+03  0.39841344642E+03  0.63756302620E+03  0.10100000352E+00 0.  1.
</event>
<event>
 5   0  0.3854625E-04  0.9983307E+03  0.7818609E-02  0.9310378E-01
       -4   -1    0    0    0  501  0.00000000000E+00  0.00000000000E+00  0.62562720370E+03  0.62562849272E+03  0.12699999809E+01 0. -1.
        4   -1    0    0  501    0  0.00000000000E+00  0.00000000000E+00 -0.39826328026E+03  0.39826530517E+03  0.12699999809E+01 0.  1.
    10030    2    1    2    0    0  0.00000000000E+00  0.00000000000E+00  0.22736392344E+03  0.10238937979E+04  0.99833068453E+03 0.  0.
        4    1    3    3  502    0  0.27358854783E+03 -0.19213558791E+03  0.49384522106E+03  0.59636523449E+03  0.12699999809E+01 0. -1.
       -4    1    3    3    0  502 -0.27358854783E+03  0.19213558791E+03 -0.26648129762E+03  0.42752856340E+03  0.12699999809E+01 0.  1.
</event>
<event>
 5   0  0.5768102E-04  0.1001176E+04  0.7818609E-02  0.9307256E-01
        1   -1    0    0  501    0  0.00000000000E+00  0.00000000000E+00  0.12333511048E+04  0.12333511048E+04  0.50400001928E-02 0. -1.
       -1   -1    0    0    0  501  0.00000000000E+00  0.00000000000E+00 -0.20317673460E+03  0.20317673467E+03  0.50400001928E-02 0.  1.
    10030    2    1    2    0    0  0.00000000000E+00  0.00000000000E+00  0.10301743702E+04  0.14365278395E+04  0.10011758090E+04 0.  0.
        4    1    3    3  502    0  0.12197988047E+03  0.11398975831E+03 -0.16205105821E+03  0.23266910969E+03  0.12699999809E+01 0.  1.
       -4    1    3    3    0  502 -0.12197988047E+03 -0.11398975831E+03  0.11922254284E+04  0.12038587298E+04  0.12699999809E+01 0. -1.
</event>
<event>
 5   0  0.9674819E-04  0.9974837E+03  0.7818609E-02  0.9311309E-01
       -2   -1    0    0    0  501  0.00000000000E+00  0.00000000000E+00  0.35484246236E+03  0.35484246237E+03  0.25500000920E-02 0.  1.
        2   -1    0    0  501    0  0.00000000000E+00  0.00000000000E+00 -0.70099687078E+03  0.70099687078E+03  0.25500000920E-02 0. -1.
    10030    2    1    2    0    0  0.00000000000E+00  0.00000000000E+00 -0.34615440842E+03  0.10558393332E+04  0.99748374571E+03 0.  0.
        4    1    3    3  502    0 -0.22230134160E+03 -0.36744646205E+03 -0.44150118705E+03  0.61592182947E+03  0.12699999809E+01 0. -1.
       -4    1    3    3    0  502  0.22230134160E+03  0.36744646205E+03  0.95346778626E+02  0.43991750368E+03  0.12699999809E+01 0.  1.
</event>
<event>
 5   0  0.1006006E-03  0.1000971E+04  0.7818609E-02  0.9307480E-01
       -2   -1    0    0    0  501  0.00000000000E+00  0.00000000000E+00  0.14535616714E+03  0.14535616716E+03  0.25500000920E-02 0.  1.
        2   -1    0    0  501    0  0.00000000000E+00  0.00000000000E+00 -0.17232562441E+04  0.17232562441E+04  0.25500000920E-02 0. -1.
    10030    2    1    2    0    0  0.00000000000E+00  0.00000000000E+00 -0.15779000769E+04  0.18686124112E+04  0.10009713735E+04 0.  0.
        2    1    3    3  502    0  0.37718168458E+02 -0.36994823391E+03 -0.16363765102E+03  0.40627778286E+03  0.25500000920E-02 0.  1.
       -2    1    3    3    0  502 -0.37718168458E+02  0.36994823391E+03 -0.14142624259E+04  0.14623346284E+04  0.25500000920E-02 0. -1.
</event>
<event>
 5   0  0.5768102E-04  0.1000168E+04  0.7818609E-02  0.9308360E-01
        1   -1    0    0  501    0  0.00000000000E+00  0.00000000000E+00  0.46103358351E+03  0.46103358353E+03  0.50400001928E-02 0.  1.
       -1   -1    0    0    0  501  0.00000000000E+00  0.00000000000E+00 -0.54244250258E+03  0.54244250261E+03  0.50400001928E-02 0. -1.
    10030    2    1    2    0    0  0.00000000000E+00  0.00000000000E+00 -0.81408919076E+02  0.10034760861E+04  0.10001684075E+04 0.  0.
        4    1    3    3  502    0 -0.39729583399E+03  0.11686542714E+03 -0.32195471123E+03  0.52455500831E+03  0.12699999809E+01 0. -1.
       -4    1    3    3    0  502  0.39729583399E+03 -0.11686542714E+03  0.24054579215E+03  0.47892107783E+03  0.12699999809E+01 0.  1.
</event>
<event>
 5   0  0.1020150E-03  0.1000068E+04  0.7818609E-02  0.9308470E-01
        2   -1    0    0  501    0  0.00000000000E+00  0.00000000000E+00  0.10037862632E+04  0.10037862632E+04  0.25500000920E-02 0. -1.
       -2   -1    0    0    0  501  0.00000000000E+00  0.00000000000E+00 -0.24909095764E+03  0.24909095766E+03  0.25500000920E-02 0.  1.
    10030    2    1    2    0    0  0.00000000000E+00  0.00000000000E+00  0.75469530553E+03  0.12528772208E+04  0.10000681608E+04 0.  0.
        5    1    3    3  502    0 -0.13339846943E+03 -0.29728777154E+03  0.85247929068E+03  0.91264352394E+03  0.46999998093E+01 0. -1.
       -5    1    3    3    0  502  0.13339846943E+03  0.29728777154E+03 -0.97783985151E+02  0.34023369689E+03  0.46999998093E+01 0.  1.
</event>
<event>
 5   0  0.5758786E-04  0.9999358E+03  0.7818609E-02  0.9308615E-01
        1   -1    0    0  501    0  0.00000000000E+00  0.00000000000E+00  0.86803852158E+03  0.86803852159E+03  0.50400001928E-02 0. -1.
       -1   -1    0    0    0  501  0.00000000000E+00  0.00000000000E+00 -0.28796868510E+03  0.28796868515E+03  0.50400001928E-02 0.  1.
    10030    2    1    2    0    0  0.00000000000E+00  0.00000000000E+00  0.58006983648E+03  0.11560072067E+04  0.99993582137E+03 0.  0.
        3    1    3    3  502    0  0.41553974670E+03 -0.91525905772E+00  0.61144588853E+03  0.73928357454E+03  0.10100000352E+00 0. -1.
       -3    1    3    3    0  502 -0.41553974670E+03  0.91525905772E+00 -0.31376052050E+02  0.41672363220E+03  0.10100000352E+00 0.  1.
</event>
<event>
 5   0  0.9674819E-04  0.1000076E+04  0.7818609E-02  0.9308461E-01
       -2   -1    0    0    0  501  0.00000000000E+00  0.00000000000E+00  0.36407903499E+03  0.36407903500E+03  0.25500000920E-02 0. -1.
        2   -1    0    0  501    0  0.00000000000E+00  0.00000000000E+00 -0.68676865732E+03  0.68676865732E+03  0.25500000920E-02 0.  1.
    10030    2    1    2    0    0  0.00000000000E+00  0.00000000000E+00 -0.32268962232E+03  0.10508476923E+04  0.10000761372E+04 0.  0.
        4    1    3    3  502    0 -0.44288971855E+03 -0.74379921215E+02 -0.39240091288E+03  0.59637552331E+03  0.12699999809E+01 0.  1.
       -4    1    3    3    0  502  0.44288971855E+03  0.74379921215E+02  0.69711290560E+02  0.45447216901E+03  0.12699999809E+01 0. -1.
</event>
<event>
 5   0  0.3854625E-04  0.1000412E+04  0.7818609E-02  0.9308093E-01
        3   -1    0    0  501    0  0.00000000000E+00  0.00000000000E+00  0.66480821424E+03  0.66480822191E+03  0.10100000352E+00 0. -1.
       -3   -1    0    0    0  501  0.00000000000E+00  0.00000000000E+00 -0.37635823725E+03  0.37635825080E+03  0.10100000352E+00 0.  1.
    10030    2    1    2    0    0  0.00000000000E+00  0.00000000000E+00  0.28844997699E+03  0.10411664727E+04  0.10004120325E+04 0.  0.
        1    1    3    3  502    0  0.32816139837E+03  0.10650801408E+03 -0.23270628030E+03  0.41615630881E+03  0.50400001928E-02 0.  1.
       -1    1    3    3    0  502 -0.32816139837E+03 -0.10650801408E+03  0.52115625729E+03  0.62501016390E+03  0.50400001928E-02 0. -1.
</event>
<event>
 5   0  0.3854625E-04  0.1001155E+04  0.7818609E-02  0.9307279E-01
       -4   -1    0    0    0  501  0.00000000000E+00  0.00000000000E+00  0.37470026979E+03  0.37470242203E+03  0.12699999809E+01 0. -1.
        4   -1    0    0  501    0  0.00000000000E+00  0.00000000000E+00 -0.66873763638E+03  0.66873884231E+03  0.12699999809E+01 0.  1.
    10030    2    1    2    0    0  0.00000000000E+00  0.00000000000E+00 -0.29403736660E+03  0.10434412643E+04  0.10011551824E+04 0.  0.
        4    1    3    3  502    0  0.33125077131E+03  0.37529869287E+03 -0.14664358047E+03  0.52161492977E+03  0.12699999809E+01 0.  1.
       -4    1    3    3    0  502 -0.33125077131E+03 -0.37529869287E+03 -0.14739378612E+03  0.52182633457E+03  0.12699999809E+01 0. -1.
</event>
<event>
 5   0  0.5826939E-04  0.9997174E+03  0.7818609E-02  0.9308855E-01
        1   -1    0    0  501    0  0.00000000000E+00  0.00000000000E+00  0.15331958104E+04  0.15331958104E+04  0.50400001928E-02 0.  1.
       -1   -1    0    0    0  501  0.00000000000E+00  0.00000000000E+00 -0.16296596964E+03  0.16296596972E+03  0.50400001928E-02 0. -1.
    10030    2    1    2    0    0  0.00000000000E+00  0.00000000000E+00  0.13702298407E+04  0.16961617801E+04  0.99971744401E+03 0.  0.
        1    1    3    3  502    0  0.18507292819E+03  0.46313018035E+03  0.62840573936E+03  0.80226886141E+03  0.50400001928E-02 0. -1.
       -1    1    3    3    0  502 -0.18507292819E+03 -0.46313018035E+03  0.74182410137E+03  0.89389291870E+03  0.50400001928E-02 0.  1.
</event>
<event>
 5   0  0.5826939E-04  0.9993184E+03  0.7818609E-02  0.9309293E-01
       -1   -1    0    0    0  501  0.00000000000E+00  0.00000000000E+00  0.67661179780E+03  0.67661179782E+03  0.50400001928E-02 0. -1.
        1   -1    0    0  501    0  0.00000000000E+00  0.00000000000E+00 -0.36898458482E+03  0.36898458486E+03  0.50400001928E-02 0.  1.
    10030    2    1    2    0    0  0.00000000000E+00  0.00000000000E+00  0.30762721298E+03  0.10455963827E+04  0.99931841438E+03 0.  0.
        1    1    3    3  502    0  0.22187942221E+03 -0.27352214925E+03  0.52464802251E+03  0.63190220104E+03  0.50400001928E-02 0. -1.
       -1    1    3    3    0  502 -0.22187942221E+03  0.27352214925E+03 -0.21702080954E+03  0.41369418164E+03  0.50400001928E-02 0.  1.
</event>
<event>
 5   0  0.5758786E-04  0.1003512E+04  0.7818609E-02  0.9304702E-01
        1   -1    0    0  501    0  0.00000000000E+00  0.00000000000E+00  0.93101148288E+03  0.93101148290E+03  0.50400001928E-02 0.  1.
       -1   -1    0    0    0  501  0.00000000000E+00  0.00000000000E+00 -0.27041432048E+03  0.27041432052E+03  0.50400001928E-02 0. -1.
    10030    2    1    2    0    0  0.00000000000E+00  0.00000000000E+00  0.66059716241E+03  0.12014258034E+04  0.10035115097E+04 0.  0.
        3    1    3    3  502    0  0.28687689413E+03  0.32796538620E+03  0.32435247017E+02  0.43693443716E+03  0.10100000352E+00 0. -1.
       -3    1    3    3    0  502 -0.28687689413E+03 -0.32796538620E+03  0.62816191539E+03  0.76449136625E+03  0.10100000352E+00 0.  1.
</event>
<event>
 5   0  0.9674819E-04  0.9942142E+03  0.7818609E-02  0.9314913E-01
       -2   -1    0    0    0  501  0.00000000000E+00  0.00000000000E+00  0.30497507305E+03  0.30497507306E+03  0.25500000920E-02 0. -1.
        2   -1    0    0  501    0  0.00000000000E+00  0.00000000000E+00 -0.81028081147E+03  0.81028081148E+03  0.25500000920E-02 0.  1.
    10030    2    1    2    0    0  0.00000000000E+00  0.00000000000E+00 -0.50530573843E+03  0.11152558845E+04  0.99421416139E+03 0.  0.
        4    1    3    3  502    0 -0.23834163540E+03 -0.33537982066E+03  0.60287114684E+02  0.41583952237E+03  0.12699999809E+01 0. -1.
       -4    1    3    3    0  502  0.23834163540E+03  0.33537982066E+03 -0.56559285311E+03  0.69941636216E+03  0.12699999809E+01 0.  1.
</event>
<event>
 5   0  0.1006749E-03  0.1002642E+04  0.7818609E-02  0.9305652E-01
        2   -1    0    0  501    0  0.00000000000E+00  0.00000000000E+00  0.57747701929E+03  0.57747701929E+03  0.25500000920E-02 0. -1.
       -2   -1    0    0    0  501  0.00000000000E+00  0.00000000000E+00 -0.43520827523E+03  0.43520827524E+03  0.25500000920E-02 0.  1.
    10030    2    1    2    0    0  0.00000000000E+00  0.00000000000E+00  0.14226874406E+03  0.10126852945E+04  0.10026420649E+04 0.  0.
        1    1    3    3  502    0  0.59966892270E+02  0.44873288779E+03  0.28861784819E+03  0.53689616787E+03  0.50400001928E-02 0. -1.
       -1    1    3    3    0  502 -0.59966892270E+02 -0.44873288779E+03 -0.14634910413E+03  0.47578912667E+03  0.50400001928E-02 0.  1.
</event>
<event>
 5   0  0.3854625E-04  0.9930288E+03  0.7818609E-02  0.9316224E-01
       -4   -1    0    0    0  501  0.00000000000E+00  0.00000000000E+00  0.80333826397E+03  0.80333926784E+03  0.12699999809E+01 0. -1.
        4   -1    0    0  501    0  0.00000000000E+00  0.00000000000E+00 -0.30687512604E+03  0.30687775397E+03  0.12699999809E+01 0.  1.
    10030    2    1    2    0    0  0.00000000000E+00  0.00000000000E+00  0.49646313793E+03  0.11102170218E+04  0.99302879525E+03 0.  0.
        4    1    3    3  502    0 -0.38554000845E+03 -0.31280492134E+03  0.25502455163E+03  0.55814617419E+03  0.12699999809E+01 0. -1.
       -4    1    3    3    0  502  0.38554000845E+03  0.31280492134E+03  0.24143858630E+03  0.55207084762E+03  0.12699999809E+01 0.  1.
</event>
<event>
 5   0  0.5888774E-04  0.9987770E+03  0.7818609E-02  0.9309887E-01
        1   -1    0    0  501    0  0.00000000000E+00  0.00000000000E+00  0.22420901206E+03  0.22420901212E+03  0.50400001928E-02 0.  1.
       -1   -1    0    0    0  501  0.00000000000E+00  0.00000000000E+00 -0.11123053413E+04  0.11123053413E+04  0.50400001928E-02 0. -1.
    10030    2    1    2    0    0  0.00000000000E+00  0.00000000000E+00 -0.88809632927E+03  0.13365143535E+04  0.99877701563E+03 0.  0.
        2    1    3    3  502    0  0.28719304599E+03  0.25698440299E+03 -0.19055038367E+02  0.38585479592E+03  0.25500000920E-02 0.  1.
       -2    1    3    3    0  502 -0.28719304599E+03 -0.25698440299E+03 -0.86904129091E+03  0.95065955755E+03  0.25500000920E-02 0. -1.
</event>
<event>
 5   0  0.5960102E-04  0.1009106E+04  0.7818609E-02  0.9298613E-01
        1   -1    0    0  501    0  0.00000000000E+00  0.00000000000E+00  0.18607030544E+04  0.18607030544E+04  0.50400001928E-02 0. -1.
       -1   -1    0    0    0  501  0.00000000000E+00  0.00000000000E+00 -0.13681590816E+03  0.13681590826E+03  0.50400001928E-02 0.  1.
    10030    2    1    2    0    0  0.00000000000E+00  0.00000000000E+00  0.17238871462E+04  0.19975189627E+04  0.10091060961E+04 0.  0.
        5    1    3    3  502    0  0.13049334499E+02 -0.40311136965E+03  0.14619705582E+04  0.15165912648E+04  0.46999998093E+01 0. -1.
       -5    1    3    3    0  502 -0.13049334499E+02  0.40311136965E+03  0.26191658804E+03  0.48092769785E+03  0.46999998093E+01 0.  1.
</event>
<event>
 5   0  0.9674819E-04  0.9997162E+03  0.7818609E-02  0.9308856E-01
       -2   -1    0    0    0  501  0.00000000000E+00  0.00000000000E+00  0.26501090984E+03  0.26501090986E+03  0.25500000920E-02 0. -1.
        2   -1    0    0  501    0  0.00000000000E+00  0.00000000000E+00 -0.94282196138E+03  0.94282196138E+03  0.25500000920E-02 0.  1.
    10030    2    1    2    0    0  0.00000000000E+00  0.00000000000E+00 -0.67781105154E+03  0.12078328712E+04  0.99971617135E+03 0.  0.
        4    1    3    3  502    0 -0.39742047659E+03  0.61903421163E+02  0.19663103885E+02  0.40269506990E+03  0.12699999809E+01 0. -1.
       -4    1    3    3    0  502  0.39742047659E+03 -0.61903421163E+02 -0.69747415542E+03  0.80513780134E+03  0.12699999809E+01 0.  1.
</event>
<event>
 5   0  0.5758786E-04  0.9991793E+03  0.7818609E-02  0.9309445E-01
        1   -1    0    0  501    0  0.00000000000E+00  0.00000000000E+00  0.10998891518E+04  0.10998891518E+04  0.50400001928E-02 0. -1.
       -1   -1    0    0    0  501  0.00000000000E+00  0.00000000000E+00 -0.22692268984E+03  0.22692268989E+03  0.50400001928E-02 0.  1.
    10030    2    1    2    0    0  0.00000000000E+00  0.00000000000E+00  0.87296646195E+03  0.13268118417E+04  0.99917927299E+03 0.  0.
        3    1    3    3  502    0  0.14399412911E+03 -0.36856762395E+03  0.31498486600E+02  0.39694907419E+03  0.10100000352E+00 0.  1.
       -3    1    3    3    0  502 -0.14399412911E+03  0.36856762395E+03  0.84146797535E+03  0.92986276750E+03  0.10100000352E+00 0. -1.
</event>
<event>
 5   0  0.9674819E-04  0.1000549E+04  0.7818609E-02  0.9307943E-01
       -2   -1    0    0    0  501  0.00000000000E+00  0.00000000000E+00  0.15863328185E+03  0.15863328187E+03  0.25500000920E-02 0. -1.
        2   -1    0    0  501    0  0.00000000000E+00  0.00000000000E+00 -0.15776922052E+04  0.15776922052E+04  0.25500000920E-02 0.  1.
    10030    2    1    2    0    0  0.00000000000E+00  0.00000000000E+00 -0.14190589234E+04  0.17363254871E+04  0.10005488340E+04 0.  0.
        4    1    3    3  502    0  0.12878888837E+03  0.26487405681E+03 -0.77688961835E+01  0.29462995840E+03  0.12699999809E+01 0. -1.
       -4    1    3    3    0  502 -0.12878888837E+03 -0.26487405681E+03 -0.14112900272E+04  0.14416955287E+04  0.12699999809E+01 0.  1.
</event>
<event>
 5   0  0.5826939E-04  0.1000414E+04  0.7818609E-02  0.9308091E-01
       -1   -1    0    0    0  501  0.00000000000E+00  0.00000000000E+00  0.19028640135E+03  0.19028640142E+03  0.50400001928E-02 0.  1.
        1   -1    0    0  501    0  0.00000000000E+00  0.00000000000E+00 -0.13148976501E+04  0.13148976501E+04  0.50400001928E-02 0. -1.
    10030    2    1    2    0    0  0.00000000000E+00  0.00000000000E+00 -0.11246112488E+04  0.15051840515E+04  0.10004141983E+04 0.  0.
        1    1    3    3  502    0 -0.33782634857E+03  0.68119934437E+02 -0.11077793360E+04  0.11601474150E+04  0.50400001928E-02 0. -1.
       -1    1    3    3    0  502  0.33782634857E+03 -0.68119934437E+02 -0.16831912793E+02  0.34503663656E+03  0.50400001928E-02 0.  1.
</event>
<event>
 5   0  0.5826939E-04  0.9990415E+03  0.7818609E-02  0.9309597E-01
       -1   -1    0    0    0  501  0.00000000000E+00  0.00000000000E+00  0.58677127511E+03  0.58677127514E+03  0.50400001928E-02 0. -1.
        1   -1    0    0  501    0  0.00000000000E+00  0.00000000000E+00 -0.42524406401E+03  0.42524406404E+03  0.50400001928E-02 0.  1.
    10030    2    1    2    0    0  0.00000000000E+00  0.00000000000E+00  0.16152721111E+03  0.10120153392E+04  0.99904154408E+03 0.  0.
        1    1    3    3  502    0  0.33369624586E+03  0.17988879343E+03 -0.24874174378E+03  0.45341550219E+03  0.50400001928E-02 0.  1.
       -1    1    3    3    0  502 -0.33369624586E+03 -0.17988879343E+03  0.41026895489E+03  0.55859983698E+03  0.50400001928E-02 0. -1.
</event>
<event>
 5   0  0.9674819E-04  0.1001272E+04  0.7818609E-02  0.9307150E-01
       -2   -1    0    0    0  501  0.00000000000E+00  0.00000000000E+00  0.58749134894E+03  0.58749134895E+03  0.25500000920E-02 0. -1.
        2   -1    0    0  501    0  0.00000000000E+00  0.00000000000E+00 -0.42662176627E+03  0.42662176628E+03  0.25500000920E-02 0.  1.
    10030    2    1    2    0    0  0.00000000000E+00  0.00000000000E+00  0.16086958267E+03  0.10141131152E+04  0.10012723844E+04 0.  0.
        4    1    3    3  502    0  0.25149570737E+03  0.36671975198E+03  0.31338774591E+03  0.54401007298E+03  0.12699999809E+01 0. -1.
       -4    1    3    3    0  502 -0.25149570737E+03 -0.36671975198E+03 -0.15251816323E+03  0.47010304225E+03  0.12699999809E+01 0.  1.
</event>
<event>
 5   0  0.1006749E-03  0.1000027E+04  0.7818609E-02  0.9308515E-01
        2   -1    0    0  501    0  0.00000000000E+00  0.00000000000E+00  0.36106861722E+03  0.36106861723E+03  0.25500000920E-02 0. -1.
       -2   -1    0    0    0  501  0.00000000000E+00  0.00000000000E+00 -0.69242699512E+03  0.69242699512E+03  0.25500000920E-02 0.  1.
    10030    2    1    2    0    0  0.00000000000E+00  0.00000000000E+00 -0.33135837790E+03  0.10534956123E+04  0.10000273149E+04 0.  0.
        1    1    3    3  502    0  0.68545619014E+02 -0.31319493097E+03  0.23853384127E+03  0.39960975980E+03  0.50400001928E-02 0. -1.
       -1    1    3    3    0  502 -0.68545619014E+02  0.31319493097E+03 -0.56989221917E+03  0.65388585255E+03  0.50400001928E-02 0.  1.
</event>
<event>
 5   0  0.9674819E-04  0.1000166E+04  0.7818609E-02  0.9308362E-01
        2   -1    0    0  501    0  0.00000000000E+00  0.00000000000E+00  0.18978756217E+04  0.18978756217E+04  0.25500000920E-02 0. -1.
       -2   -1    0    0    0  501  0.00000000000E+00  0.00000000000E+00 -0.13177004570E+03  0.13177004573E+03  0.25500000920E-02 0.  1.
    10030    2    1    2    0    0  0.00000000000E+00  0.00000000000E+00  0.17661055760E+04  0.20296456674E+04  0.10001663010E+04 0.  0.
        4    1    3    3  502    0  0.13525872703E+01  0.49595972721E+03  0.75305561534E+03  0.90170519196E+03  0.12699999809E+01 0.  1.
       -4    1    3    3    0  502 -0.13525872703E+01 -0.49595972721E+03  0.10130499606E+04  0.11279404755E+04  0.12699999809E+01 0. -1.
</event>
<event>
 5   0  0.9674819E-04  0.9990130E+03  0.7818609E-02  0.9309628E-01
        2   -1    0    0  501    0  0.00000000000E+00  0.00000000000E+00  0.78063633829E+03  0.78063633830E+03  0.25500000920E-02 0.  1.
       -2   -1    0    0    0  501  0.00000000000E+00  0.00000000000E+00 -0.31961969294E+03  0.31961969295E+03  0.25500000920E-02 0. -1.
    10030    2    1    2    0    0  0.00000000000E+00  0.00000000000E+00  0.46101664535E+03  0.11002560312E+04  0.99901300643E+03 0.  0.
        4    1    3    3  502    0 -0.34988354154E+03  0.92010384508E+02 -0.14880920591E+03  0.39119074140E+03  0.12699999809E+01 0. -1.
       -4    1    3    3    0  502  0.34988354154E+03 -0.92010384508E+02  0.60982585126E+03  0.70906528985E+03  0.12699999809E+01 0.  1.
</event>
<event>
 5   0  0.5826939E-04  0.1000364E+04  0.7818609E-02  0.9308145E-01
       -1   -1    0    0    0  501  0.00000000000E+00  0.00000000000E+00  0.15709096355E+03  0.15709096363E+03  0.50400001928E-02 0.  1.
        1   -1    0    0  501    0  0.00000000000E+00  0.00000000000E+00 -0.15925944369E+04  0.15925944369E+04  0.50400001928E-02 0. -1.
    10030    2    1    2    0    0  0.00000000000E+00  0.00000000000E+00 -0.14355034734E+04  0.17496854006E+04  0.10003643231E+04 0.  0.
        1    1    3    3  502    0 -0.32628942483E+03 -0.34155307824E+03 -0.10054629892E+04  0.11108911363E+04  0.50400001928E-02 0. -1.
       -1    1    3    3    0  502  0.32628942483E+03  0.34155307824E+03 -0.43004048419E+03  0.63879426428E+03  0.50400001928E-02 0.  1.
</event>
<event>
 5   0  0.5758786E-04  0.9989766E+03  0.7818609E-02  0.9309668E-01
       -1   -1    0    0    0  501  0.00000000000E+00  0.00000000000E+00  0.76545754734E+03  0.76545754736E+03  0.50400001928E-02 0. -1.
        1   -1    0    0  501    0  0.00000000000E+00  0.00000000000E+00 -0.32593388736E+03  0.32593388740E+03  0.50400001928E-02 0.  1.
    10030    2    1    2    0    0  0.00000000000E+00  0.00000000000E+00  0.43952365998E+03  0.10913914348E+04  0.99897658441E+03 0.  0.
        3    1    3    3  502    0 -0.32413035211E+03 -0.15124225129E+03 -0.16113694352E+03  0.39230068634E+03  0.10100000352E+00 0. -1.
       -3    1    3    3    0  502  0.32413035211E+03  0.15124225129E+03  0.60066060350E+03  0.69909074843E+03  0.10100000352E+00 0.  1.
</event>
<event>
 5   0  0.1006006E-03  0.9992616E+03  0.7818609E-02  0.9309355E-01
       -2   -1    0    0    0  501  0.00000000000E+00  0.00000000000E+00  0.19560828630E+03  0.19560828632E+03  0.25500000920E-02 0. -1.
        2   -1    0    0  501    0  0.00000000000E+00  0.00000000000E+00 -0.12761776538E+04  0.12761776538E+04  0.25500000920E-02 0.  1.
    10030    2    1    2    0    0  0.00000000000E+00  0.00000000000E+00 -0.10805693675E+04  0.14717859401E+04  0.99926157512E+03 0.  0.
        2    1    3    3  502    0  0.24142612364E+03  0.32554465259E+02  0.10220659140E+03  0.26418280359E+03  0.25500000920E-02 0. -1.
       -2    1    3    3    0  502 -0.24142612364E+03 -0.32554465259E+02 -0.11827759589E+04  0.12076031365E+04  0.25500000920E-02 0.  1.
</event>
<event>
 5   0  0.5888774E-04  0.9709090E+03  0.7818609E-02  0.9341040E-01
       -1   -1    0    0    0  501  0.00000000000E+00  0.00000000000E+00  0.54555843577E+03  0.54555843580E+03  0.50400001928E-02 0. -1.
        1   -1    0    0  501    0  0.00000000000E+00  0.00000000000E+00 -0.43197217747E+03  0.43197217750E+03  0.50400001928E-02 0.  1.
    10030    2    1    2    0    0  0.00000000000E+00  0.00000000000E+00  0.11358625830E+03  0.97753061330E+03  0.97090898743E+03 0.  0.
        2    1    3    3  502    0  0.27078446693E+03  0.40226765321E+03  0.33777366286E+02  0.48609094091E+03  0.25500000920E-02 0.  1.
       -2    1    3    3    0  502 -0.27078446693E+03 -0.40226765321E+03  0.79808892013E+02  0.49143967239E+03  0.25500000920E-02 0. -1.
</event>
<event>
 5   0  0.5768102E-04  0.1000025E+04  0.7818609E-02  0.9308517E-01
        1   -1    0    0  501    0  0.00000000000E+00  0.00000000000E+00  0.57200505530E+03  0.57200505532E+03  0.50400001928E-02 0.  1.
       -1   -1    0    0    0  501  0.00000000000E+00  0.00000000000E+00 -0.43708126051E+03  0.43708126054E+03  0.50400001928E-02 0. -1.
    10030    2    1    2    0    0  0.00000000000E+00  0.00000000000E+00  0.13492379478E+03  0.10090863159E+04  0.10000253809E+04 0.  0.
        4    1    3    3  502    0 -0.19153484038E+03  0.28851353254E+02 -0.39768453247E+03  0.44234895268E+03  0.12699999809E+01 0. -1.
       -4    1    3    3    0  502  0.19153484038E+03 -0.28851353254E+02  0.53260832726E+03  0.56673736318E+03  0.12699999809E+01 0.  1.
</event>
<event>
 5   0  0.5768102E-04  0.1001027E+04  0.7818609E-02  0.9307419E-01
       -1   -1    0    0    0  501  0.00000000000E+00  0.00000000000E+00  0.46232464591E+03  0.46232464594E+03  0.50400001928E-02 0.  1.
        1   -1    0    0  501    0  0.00000000000E+00  0.00000000000E+00 -0.54185682957E+03  0.54185682960E+03  0.50400001928E-02 0. -1.
    10030    2    1    2    0    0  0.00000000000E+00  0.00000000000E+00 -0.79532183659E+02  0.10041814755E+04  0.10010270064E+04 0.  0.
        4    1    3    3  502    0 -0.48504016329E+03  0.10258608296E+03  0.29183970930E+02  0.49662982339E+03  0.12699999809E+01 0. -1.
       -4    1    3    3    0  502  0.48504016329E+03 -0.10258608296E+03 -0.10871615459E+03  0.50755165214E+03  0.12699999809E+01 0.  1.
</event>
<event>
 5   0  0.1006006E-03  0.1000343E+04  0.7818609E-02  0.9308168E-01
        2   -1    0    0  501    0  0.00000000000E+00  0.00000000000E+00  0.54536315616E+03  0.54536315617E+03  0.25500000920E-02 0.  1.
       -2   -1    0    0    0  501  0.00000000000E+00  0.00000000000E+00 -0.45872490395E+03  0.45872490396E+03  0.25500000920E-02 0. -1.
    10030    2    1    2    0    0  0.00000000000E+00  0.00000000000E+00  0.86638252212E+02  0.10040880601E+04  0.10003432640E+04 0.  0.
        2    1    3    3  502    0  0.74872857416E+02  0.46639097933E+02  0.53749388385E+03  0.54468415198E+03  0.25500000920E-02 0.  1.
       -2    1    3    3    0  502 -0.74872857416E+02 -0.46639097933E+02 -0.45085563164E+03  0.45940390815E+03  0.25500000920E-02 0. -1.
</event>
<event>
 5   0  0.5826939E-04  0.1003615E+04  0.7818609E-02  0.9304589E-01
        1   -1    0    0  501    0  0.00000000000E+00  0.00000000000E+00  0.23586719305E+03  0.23586719310E+03  0.50400001928E-02 0. -1.
       -1   -1    0    0    0  501  0.00000000000E+00  0.00000000000E+00 -0.10675955444E+04  0.10675955444E+04  0.50400001928E-02 0.  1.
    10030    2    1    2    0    0  0.00000000000E+00  0.00000000000E+00 -0.83172835132E+03  0.13034627375E+04  0.10036149947E+04 0.  0.
        1    1    3    3  502    0 -0.13574586386E+03  0.45074242997E+03 -0.19010604467E+03  0.50767704890E+03  0.50400001928E-02 0.  1.
       -1    1    3    3    0  502  0.13574586386E+03 -0.45074242997E+03 -0.64162230665E+03  0.79578568858E+03  0.50400001928E-02 0. -1.
</event>
<event>
 5   0  0.1006006E-03  0.1001156E+04  0.7818609E-02  0.9307278E-01
        2   -1    0    0  501    0  0.00000000000E+00  0.00000000000E+00  0.90399759367E+03  0.90399759367E+03  0.25500000920E-02 0. -1.
       -2   -1    0    0    0  501  0.00000000000E+00  0.00000000000E+00 -0.27718926387E+03  0.27718926388E+03  0.25500000920E-02 0.  1.
    10030    2    1    2    0    0  0.00000000000E+00  0.00000000000E+00  0.62680832980E+03  0.11811868575E+04  0.10011561867E+04 0.  0.
        2    1    3    3  502    0 -0.35590579332E+03 -0.30078640341E+03  0.52914414770E+03  0.70507795544E+03  0.25500000920E-02 0. -1.
       -2    1    3    3    0  502  0.35590579332E+03  0.30078640341E+03  0.97664182097E+02  0.47610890211E+03  0.25500000920E-02 0.  1.
</event>
<event>
 5   0  0.1006006E-03  0.9993448E+03  0.7818609E-02  0.9309264E-01
        2   -1    0    0  501    0  0.00000000000E+00  0.00000000000E+00  0.54698294922E+03  0.54698294923E+03  0.25500000920E-02 0. -1.
       -2   -1    0    0    0  501  0.00000000000E+00  0.00000000000E+00 -0.45645395380E+03  0.45645395381E+03  0.25500000920E-02 0.  1.
    10030    2    1    2    0    0  0.00000000000E+00  0.00000000000E+00  0.90528995421E+02  0.10034369030E+04  0.99934484507E+03 0.  0.
        2    1    3    3  502    0 -0.45136227202E+03 -0.17980998584E+03 -0.71888009173E+02  0.49114907867E+03  0.25500000920E-02 0.  1.
       -2    1    3    3    0  502  0.45136227202E+03  0.17980998584E+03  0.16241700459E+03  0.51228782437E+03  0.25500000920E-02 0. -1.
</event>
<event>
 5   0  0.1006006E-03  0.9917577E+03  0.7818609E-02  0.9317631E-01
        2   -1    0    0  501    0  0.00000000000E+00  0.00000000000E+00  0.57416108777E+03  0.57416108778E+03  0.25500000920E-02 0. -1.
       -2   -1    0    0    0  501  0.00000000000E+00  0.00000000000E+00 -0.42826974185E+03  0.42826974186E+03  0.25500000920E-02 0.  1.
    10030    2    1    2    0    0  0.00000000000E+00  0.00000000000E+00  0.14589134592E+03  0.10024308296E+04  0.99175767372E+03 0.  0.
        2    1    3    3  502    0 -0.47471390980E+03 -0.11773972061E+03 -0.96644501175E+01  0.48919253834E+03  0.25500000920E-02 0.  1.
       -2    1    3    3    0  502  0.47471390980E+03  0.11773972061E+03  0.15555579604E+03  0.51323829130E+03  0.25500000920E-02 0. -1.
</event>
<event>
 5   0  0.1006749E-03  0.9993929E+03  0.7818609E-02  0.9309211E-01
       -2   -1    0    0    0  501  0.00000000000E+00  0.00000000000E+00  0.31726226194E+03  0.31726226195E+03  0.25500000920E-02 0. -1.
        2   -1    0    0  501    0  0.00000000000E+00  0.00000000000E+00 -0.78703504805E+03  0.78703504805E+03  0.25500000920E-02 0.  1.
    10030    2    1    2    0    0  0.00000000000E+00  0.00000000000E+00 -0.46977278611E+03  0.11042973100E+04  0.99939285484E+03 0.  0.
        1    1    3    3  502    0  0.19222960283E+03  0.42016262715E+03 -0.44514318800E+03  0.64159279243E+03  0.50400001928E-02 0. -1.
       -1    1    3    3    0  502 -0.19222960283E+03 -0.42016262715E+03 -0.24629598110E+02  0.46270451757E+03  0.50400001928E-02 0.  1.
</event>
<event>
 5   0  0.5888774E-04  0.1000269E+04  0.7818609E-02  0.9308250E-01
       -1   -1    0    0    0  501  0.00000000000E+00  0.00000000000E+00  0.35683026979E+03  0.35683026983E+03  0.50400001928E-02 0.  1.
        1   -1    0    0  501    0  0.00000000000E+00  0.00000000000E+00 -0.70098996373E+03  0.70098996375E+03  0.50400001928E-02 0. -1.
    10030    2    1    2    0    0  0.00000000000E+00  0.00000000000E+00 -0.34415969394E+03  0.10578202336E+04  0.10002688397E+04 0.  0.
        2    1    3    3  502    0 -0.22105690517E+03  0.19833822908E+03  0.25347848264E+03  0.39045556674E+03  0.25500000920E-02 0.  1.
       -2    1    3    3    0  502  0.22105690517E+03 -0.19833822908E+03 -0.59763817657E+03  0.66736466683E+03  0.25500000920E-02 0. -1.
</event>
<event>
 5   0  0.9674819E-04  0.1006053E+04  0.7818609E-02  0.9301931E-01
        2   -1    0    0  501    0  0.00000000000E+00  0.00000000000E+00  0.13999784476E+04  0.13999784476E+04  0.25500000920E-02 0.  1.
       -2   -1    0    0    0  501  0.00000000000E+00  0.00000000000E+00 -0.18074251731E+03  0.18074251733E+03  0.25500000920E-02 0. -1.
    10030    2    1    2    0    0  0.00000000000E+00  0.00000000000E+00  0.12192359303E+04  0.15807209649E+04  0.10060529386E+04 0.  0.
        4    1    3    3  502    0  0.15754960135E+02  0.18489401520E+03  0.13442324011E+04  0.13569806103E+04  0.12699999809E+01 0.  1.
       -4    1    3    3    0  502 -0.15754960135E+02 -0.18489401520E+03 -0.12499647089E+03  0.22374035457E+03  0.12699999809E+01 0. -1.
</event>
<event>
 5   0  0.1020150E-03  0.1000271E+04  0.7818609E-02  0.9308248E-01
        2   -1    0    0  501    0  0.00000000000E+00  0.00000000000E+00  0.14968542760E+04  0.14968542760E+04  0.25500000920E-02 0. -1.
       -2   -1    0    0    0  501  0.00000000000E+00  0.00000000000E+00 -0.16710748790E+03  0.16710748792E+03  0.25500000920E-02 0.  1.
    10030    2    1    2    0    0  0.00000000000E+00  0.00000000000E+00  0.13297467881E+04  0.16639617639E+04  0.10002710789E+04 0.  0.
        5    1    3    3  502    0 -0.77992550917E+02  0.10342803116E+03 -0.13867856841E+03  0.18982631789E+03  0.46999998093E+01 0.  1.
       -5    1    3    3    0  502  0.77992550917E+02 -0.10342803116E+03  0.14684253565E+04  0.14741354460E+04  0.46999998093E+01 0. -1.
</event>
<event>
 5   0  0.5758786E-04  0.1001376E+04  0.7818609E-02  0.9307036E-01
        1   -1    0    0  501    0  0.00000000000E+00  0.00000000000E+00  0.45904035799E+03  0.45904035802E+03  0.50400001928E-02 0. -1.
       -1   -1    0    0    0  501  0.00000000000E+00  0.00000000000E+00 -0.54611471801E+03  0.54611471804E+03  0.50400001928E-02 0.  1.
    10030    2    1    2    0    0  0.00000000000E+00  0.00000000000E+00 -0.87074360020E+02  0.10051550761E+04  0.10013764441E+04 0.  0.
        3    1    3    3  502    0  0.29716388014E+03 -0.34965687840E+03 -0.24459874060E+03  0.51999505611E+03  0.10100000352E+00 0. -1.
       -3    1    3    3    0  502 -0.29716388014E+03  0.34965687840E+03  0.15752438058E+03  0.48516001994E+03  0.10100000352E+00 0.  1.
</event>
<event>
 5   0  0.1020150E-03  0.9940770E+03  0.7818609E-02  0.9315065E-01
        2   -1    0    0  501    0  0.00000000000E+00  0.00000000000E+00  0.15080476822E+04  0.15080476822E+04  0.25500000920E-02 0. -1.
       -2   -1    0    0    0  501  0.00000000000E+00  0.00000000000E+00 -0.16381928550E+03  0.16381928552E+03  0.25500000920E-02 0.  1.
    10030    2    1    2    0    0  0.00000000000E+00  0.00000000000E+00  0.13442283967E+04  0.16718669677E+04  0.99407704695E+03 0.  0.
        5    1    3    3  502    0 -0.26253256114E+03 -0.21237118708E+03  0.58764661230E+02  0.34278308325E+03  0.46999998093E+01 0.  1.
       -5    1    3    3    0  502  0.26253256114E+03  0.21237118708E+03  0.12854637355E+04  0.13290838845E+04  0.46999998093E+01 0. -1.
</event>
<event>
 5   0  0.5960102E-04  0.1009364E+04  0.7818609E-02  0.9298334E-01
        1   -1    0    0  501    0  0.00000000000E+00  0.00000000000E+00  0.35367483046E+03  0.35367483049E+03  0.50400001928E-02 0. -1.
       -1   -1    0    0    0  501  0.00000000000E+00  0.00000000000E+00 -0.72016357628E+03  0.72016357630E+03  0.50400001928E-02 0.  1.
    10030    2    1    2    0    0  0.00000000000E+00  0.00000000000E+00 -0.36648874582E+03  0.10738384068E+04  0.10093636228E+04 0.  0.
        5    1    3    3  502    0  0.42613044316E+03  0.10280244820E+03 -0.44926915933E+03  0.62771041529E+03  0.46999998093E+01 0.  1.
       -5    1    3    3    0  502 -0.42613044316E+03 -0.10280244820E+03  0.82780413502E+02  0.44612799150E+03  0.46999998093E+01 0. -1.
</event>
<event>
 5   0  0.1020150E-03  0.1000351E+04  0.7818609E-02  0.9308160E-01
        2   -1    0    0  501    0  0.00000000000E+00  0.00000000000E+00  0.76392906377E+03  0.76392906378E+03  0.25500000920E-02 0.  1.
       -2   -1    0    0    0  501  0.00000000000E+00  0.00000000000E+00 -0.32748526804E+03  0.32748526805E+03  0.25500000920E-02 0. -1.
    10030    2    1    2    0    0  0.00000000000E+00  0.00000000000E+00  0.43644379573E+03  0.10914143318E+04  0.10003509669E+04 0.  0.
        5    1    3    3  502    0 -0.28387379449E+03 -0.39948038114E+03  0.32724055060E+03  0.58930244702E+03  0.46999998093E+01 0. -1.
       -5    1    3    3    0  502  0.28387379449E+03  0.39948038114E+03  0.10920324514E+03  0.50211188480E+03  0.46999998093E+01 0.  1.
</event>
<event>
 5   0  0.1006006E-03  0.1000289E+04  0.7818609E-02  0.9308228E-01
       -2   -1    0    0    0  501  0.00000000000E+00  0.00000000000E+00  0.52415254306E+03  0.52415254306E+03  0.25500000920E-02 0. -1.
        2   -1    0    0  501    0  0.00000000000E+00  0.00000000000E+00 -0.47723635138E+03  0.47723635138E+03  0.25500000920E-02 0.  1.
    10030    2    1    2    0    0  0.00000000000E+00  0.00000000000E+00  0.46916191681E+02  0.10013888944E+04  0.10002892526E+04 0.  0.
        2    1    3    3  502    0  0.45345445937E+03 -0.21094866341E+03  0.18516892965E+02  0.50046294633E+03  0.25500000920E-02 0.  1.
       -2    1    3    3    0  502 -0.45345445937E+03  0.21094866341E+03  0.28399298717E+02  0.50092594811E+03  0.25500000920E-02 0. -1.
</event>
<event>
 5   0  0.5826939E-04  0.1000865E+04  0.7818609E-02  0.9307596E-01
       -1   -1    0    0    0  501  0.00000000000E+00  0.00000000000E+00  0.39403155392E+03  0.39403155395E+03  0.50400001928E-02 0. -1.
        1   -1    0    0  501    0  0.00000000000E+00  0.00000000000E+00 -0.63556560294E+03  0.63556560296E+03  0.50400001928E-02 0.  1.
    10030    2    1    2    0    0  0.00000000000E+00  0.00000000000E+00 -0.24153404902E+03  0.10295971569E+04  0.10008654299E+04 0.  0.
        1    1    3    3  502    0 -0.13960290409E+03 -0.69040653493E+01 -0.61507782516E+03  0.63075935822E+03  0.50400001928E-02 0.  1.
       -1    1    3    3    0  502  0.13960290409E+03  0.69040653493E+01  0.37354377614E+03  0.39883779869E+03  0.50400001928E-02 0. -1.
</event>
<event>
 5   0  0.5826939E-04  0.1001455E+04  0.7818609E-02  0.9306950E-01
        1   -1    0    0  501    0  0.00000000000E+00  0.00000000000E+00  0.10527116610E+04  0.10527116610E+04  0.50400001928E-02 0.  1.
       -1   -1    0    0    0  501  0.00000000000E+00  0.00000000000E+00 -0.23817374454E+03  0.23817374459E+03  0.50400001928E-02 0. -1.
    10030    2    1    2    0    0  0.00000000000E+00  0.00000000000E+00  0.81453791647E+03  0.12908854056E+04  0.10014554973E+04 0.  0.
        1    1    3    3  502    0  0.35924906474E+03 -0.30856971694E+03  0.61691876503E+03  0.77772998103E+03  0.50400001928E-02 0.  1.
       -1    1    3    3    0  502 -0.35924906474E+03  0.30856971694E+03  0.19761915145E+03  0.51315542458E+03  0.50400001928E-02 0. -1.
</event>
<event>
 5   0  0.9674819E-04  0.1000767E+04  0.7818609E-02  0.9307704E-01
        2   -1    0    0  501    0  0.00000000000E+00  0.00000000000E+00  0.39374729982E+03  0.39374729983E+03  0.25500000920E-02 0.  1.
       -2   -1    0    0    0  501  0.00000000000E+00  0.00000000000E+00 -0.63589917923E+03  0.63589917924E+03  0.25500000920E-02 0. -1.
    10030    2    1    2    0    0  0.00000000000E+00  0.00000000000E+00 -0.24215187941E+03  0.10296464791E+04  0.10007668755E+04 0.  0.
        4    1    3    3  502    0 -0.30842139546E+03 -0.10953905842E+03  0.26834275323E+03  0.42323989487E+03  0.12699999809E+01 0.  1.
       -4    1    3    3    0  502  0.30842139546E+03  0.10953905842E+03 -0.51049463265E+03  0.60640658420E+03  0.12699999809E+01 0. -1.
</event>
<event>
 5   0  0.9674819E-04  0.1001120E+04  0.7818609E-02  0.9307317E-01
        2   -1    0    0  501    0  0.00000000000E+00  0.00000000000E+00  0.18268425756E+03  0.18268425758E+03  0.25500000920E-02 0. -1.
       -2   -1    0    0    0  501  0.00000000000E+00  0.00000000000E+00 -0.13715484413E+04  0.13715484413E+04  0.25500000920E-02 0.  1.
    10030    2    1    2    0    0  0.00000000000E+00  0.00000000000E+00 -0.11888641838E+04  0.15542326989E+04  0.10011199903E+04 0.  0.
        4    1    3    3  502    0  0.87385732434E+02  0.45936443611E+03 -0.31711850058E+03  0.56499354661E+03  0.12699999809E+01 0. -1.
       -4    1    3    3    0  502 -0.87385732434E+02 -0.45936443611E+03 -0.87174568318E+03  0.98923915230E+03  0.12699999809E+01 0.  1.
</event>
<event>
 5   0  0.1006749E-03  0.1000158E+04  0.7818609E-02  0.9308372E-01
        2   -1    0    0  501    0  0.00000000000E+00  0.00000000000E+00  0.99616750376E+03  0.99616750376E+03  0.25500000920E-02 0. -1.
       -2   -1    0    0    0  501  0.00000000000E+00  0.00000000000E+00 -0.25104095196E+03  0.25104095197E+03  0.25500000920E-02 0.  1.
    10030    2    1    2    0    0  0.00000000000E+00  0.00000000000E+00  0.74512655180E+03  0.12472084557E+04  0.10001576645E+04 0.  0.
        1    1    3    3  502    0 -0.45080218811E+03  0.20432779619E+03  0.28345315540E+03  0.57036668244E+03  0.50400001928E-02 0.  1.
       -1    1    3    3    0  502  0.45080218811E+03 -0.20432779619E+03  0.46167339640E+03  0.67684177329E+03  0.50400001928E-02 0. -1.
</event>
<event>
 5   0  0.1020150E-03  0.9933670E+03  0.7818609E-02  0.9315850E-01
       -2   -1    0    0    0  501  0.00000000000E+00  0.00000000000E+00  0.20583262499E+03  0.20583262500E+03  0.25500000920E-02 0. -1.
        2   -1    0    0  501    0  0.00000000000E+00  0.00000000000E+00 -0.11985200110E+04  0.11985200110E+04  0.25500000920E-02 0.  1.
    10030    2    1    2    0    0  0.00000000000E+00  0.00000000000E+00 -0.99268738602E+03  0.14043526360E+04  0.99336704189E+03 0.  0.
        5    1    3    3  502    0 -0.19139382479E+02  0.35935069479E+03 -0.98027147768E+03  0.10442478143E+04  0.46999998093E+01 0.  1.
       -5    1    3    3    0  502  0.19139382479E+02 -0.35935069479E+03 -0.12415908337E+02  0.36010482167E+03  0.46999998093E+01 0. -1.
</event>
<event>
 5   0  0.5758786E-04  0.9986699E+03  0.7818609E-02  0.9310005E-01
       -1   -1    0    0    0  501  0.00000000000E+00  0.00000000000E+00  0.49333675561E+03  0.49333675563E+03  0.50400001928E-02 0. -1.
        1   -1    0    0  501    0  0.00000000000E+00  0.00000000000E+00 -0.50540610113E+03  0.50540610116E+03  0.50400001928E-02 0.  1.
    10030    2    1    2    0    0  0.00000000000E+00  0.00000000000E+00 -0.12069345528E+02  0.99874285679E+03  0.99866992790E+03 0.  0.
        3    1    3    3  502    0 -0.44739539472E+03 -0.11172143589E+03 -0.19759781266E+03  0.50168638035E+03  0.10100000352E+00 0.  1.
       -3    1    3    3    0  502  0.44739539472E+03  0.11172143589E+03  0.18552846714E+03  0.49705647644E+03  0.10100000352E+00 0. -1.
</event>
<event>
 5   0  0.5826939E-04  0.9997081E+03  0.7818609E-02  0.9308865E-01
        1   -1    0    0  501    0  0.00000000000E+00  0.00000000000E+00  0.60774192825E+03  0.60774192827E+03  0.50400001928E-02 0. -1.
       -1   -1    0    0    0  501  0.00000000000E+00  0.00000000000E+00 -0.41111870230E+03  0.41111870233E+03  0.50400001928E-02 0.  1.
    10030    2    1    2    0    0  0.00000000000E+00  0.00000000000E+00  0.19662322596E+03  0.10188606306E+04  0.99970810320E+03 0.  0.
        1    1    3    3  502    0  0.14376266212E+03 -0.43675743109E+03 -0.10147799627E+03  0.47087422990E+03  0.50400001928E-02 0.  1.
       -1    1    3    3    0  502 -0.14376266212E+03  0.43675743109E+03  0.29810122222E+03  0.54798640070E+03  0.50400001928E-02 0. -1.
</event>
<event>
 5   0  0.1006006E-03  0.9976304E+03  0.7818609E-02  0.9311148E-01
        2   -1    0    0  501    0  0.00000000000E+00  0.00000000000E+00  0.14571059318E+04  0.14571059318E+04  0.25500000920E-02 0.  1.
       -2   -1    0    0    0  501  0.00000000000E+00  0.00000000000E+00 -0.17076082338E+03  0.17076082339E+03  0.25500000920E-02 0. -1.
    10030    2    1    2    0    0  0.00000000000E+00  0.00000000000E+00  0.12863451084E+04  0.16278667552E+04  0.99763040987E+03 0.  0.
        2    1    3    3  502    0  0.68072252555E+01 -0.47996297049E+03  0.42179849496E+03  0.63900294343E+03  0.25500000920E-02 0. -1.
       -2    1    3    3    0  502 -0.68072252555E+01  0.47996297049E+03  0.86454661346E+03  0.98886381176E+03  0.25500000920E-02 0.  1.
</event>
<event>
 5   0  0.5960102E-04  0.9985704E+03  0.7818609E-02  0.9310114E-01
        1   -1    0    0  501    0  0.00000000000E+00  0.00000000000E+00  0.34985162309E+03  0.34985162312E+03  0.50400001928E-02 0.  1.
       -1   -1    0    0    0  501  0.00000000000E+00  0.00000000000E+00 -0.71254694797E+03  0.71254694798E+03  0.50400001928E-02 0. -1.
    10030    2    1    2    0    0  0.00000000000E+00  0.00000000000E+00 -0.36269532488E+03  0.10623985711E+04  0.99857039071E+03 0.  0.
        5    1    3    3  502    0 -0.17501841853E+03  0.27450841420E+03  0.22136704254E+03  0.39371534617E+03  0.46999998093E+01 0.  1.
       -5    1    3    3    0  502  0.17501841853E+03 -0.27450841420E+03 -0.58406236741E+03  0.66868322494E+03  0.46999998093E+01 0. -1.
</event>
<event>
 5   0  0.5826939E-04  0.1000862E+04  0.7818609E-02  0.9307599E-01
        1   -1    0    0  501    0  0.00000000000E+00  0.00000000000E+00  0.34474902433E+03  0.34474902437E+03  0.50400001928E-02 0.  1.
       -1   -1    0    0    0  501  0.00000000000E+00  0.00000000000E+00 -0.72641646808E+03  0.72641646810E+03  0.50400001928E-02 0. -1.
    10030    2    1    2    0    0  0.00000000000E+00  0.00000000000E+00 -0.38166744375E+03  0.10711654925E+04  0.10008623655E+04 0.  0.
        1    1    3    3  502    0  0.18002866518E+03  0.26302902124E+03 -0.60372656067E+03  0.68270077369E+03  0.50400001928E-02 0. -1.
       -1    1    3    3    0  502 -0.18002866518E+03 -0.26302902124E+03  0.22205911692E+03  0.38846471878E+03  0.50400001928E-02 0.  1.
</event>
<event>
 5   0  0.5888774E-04  0.9998150E+03  0.7818609E-02  0.9308748E-01
       -1   -1    0    0    0  501  0.00000000000E+00  0.00000000000E+00  0.37834340250E+03  0.37834340254E+03  0.50400001928E-02 0.  1.
        1   -1    0    0  501    0  0.00000000000E+00  0.00000000000E+00 -0.66053090027E+03  0.66053090029E+03  0.50400001928E-02 0. -1.
    10030    2    1    2    0    0  0.00000000000E+00  0.00000000000E+00 -0.28218749777E+03  0.10388743028E+04  0.99981499948E+03 0.  0.
        2    1    3    3  502    0  0.20018241974E+03 -0.27309383122E+03 -0.52323053145E+03  0.62323625606E+03  0.25500000920E-02 0. -1.
       -2    1    3    3    0  502 -0.20018241974E+03  0.27309383122E+03  0.24104303368E+03  0.41563804676E+03  0.25500000920E-02 0.  1.
</event>
<event>
 5   0  0.1006006E-03  0.1000397E+04  0.7818609E-02  0.9308110E-01
        2   -1    0    0  501    0  0.00000000000E+00  0.00000000000E+00  0.34023225073E+03  0.34023225074E+03  0.25500000920E-02 0.  1.
       -2   -1    0    0    0  501  0.00000000000E+00  0.00000000000E+00 -0.73537550474E+03  0.73537550474E+03  0.25500000920E-02 0. -1.
    10030    2    1    2    0    0  0.00000000000E+00  0.00000000000E+00 -0.39514325400E+03  0.10756077555E+04  0.10003968475E+04 0.  0.
        2    1    3    3  502    0 -0.30430291426E+03  0.13770735140E+03 -0.59790138452E+03  0.68487199087E+03  0.25500000920E-02 0. -1.
       -2    1    3    3    0  502  0.30430291426E+03 -0.13770735140E+03  0.20275813052E+03  0.39073576462E+03  0.25500000920E-02 0.  1.
</event>
<event>
 5   0  0.9741826E-04  0.1001861E+04  0.7818609E-02  0.9306506E-01
        2   -1    0    0  501    0  0.00000000000E+00  0.00000000000E+00  0.22027319705E+04  0.22027319705E+04  0.25500000920E-02 0. -1.
       -2   -1    0    0    0  501  0.00000000000E+00  0.00000000000E+00 -0.11391820887E+03  0.11391820890E+03  0.25500000920E-02 0.  1.
    10030    2    1    2    0    0  0.00000000000E+00  0.00000000000E+00  0.20888137616E+04  0.23166501794E+04  0.10018608301E+04 0.  0.
        3    1    3    3  502    0  0.15937263296E+03 -0.47159985134E+03  0.91513829876E+03  0.10417697308E+04  0.10100000352E+00 0. -1.
       -3    1    3    3    0  502 -0.15937263296E+03  0.47159985134E+03  0.11736754629E+04  0.12748804486E+04  0.10100000352E+00 0.  1.
</event>
<event>
 5   0  0.5960102E-04  0.9990868E+03  0.7818609E-02  0.9309547E-01
       -1   -1    0    0    0  501  0.00000000000E+00  0.00000000000E+00  0.30960742890E+03  0.30960742894E+03  0.50400001928E-02 0. -1.
        1   -1    0    0  501    0  0.00000000000E+00  0.00000000000E+00 -0.80599999284E+03  0.80599999286E+03  0.50400001928E-02 0.  1.
    10030    2    1    2    0    0  0.00000000000E+00  0.00000000000E+00 -0.49639256395E+03  0.11156074218E+04  0.99908675401E+03 0.  0.
        5    1    3    3  502    0 -0.48317784963E+02 -0.37155071269E+02 -0.80180736533E+03  0.80413447182E+03  0.46999998093E+01 0.  1.
       -5    1    3    3    0  502  0.48317784963E+02  0.37155071269E+02  0.30541480139E+03  0.31147294998E+03  0.46999998093E+01 0. -1.
</event>
<event>
 5   0  0.5826939E-04  0.9998900E+03  0.7818609E-02  0.9308665E-01
        1   -1    0    0  501    0  0.00000000000E+00  0.00000000000E+00  0.31656659876E+03  0.31656659880E+03  0.50400001928E-02 0. -1.
       -1   -1    0    0    0  501  0.00000000000E+00  0.00000000000E+00 -0.78954947996E+03  0.78954947998E+03  0.50400001928E-02 0.  1.
    10030    2    1    2    0    0  0.00000000000E+00  0.00000000000E+00 -0.47298288120E+03  0.11061160788E+04  0.99988998085E+03 0.  0.
        1    1    3    3  502    0  0.46429626026E+03 -0.11871913387E+03 -0.78955476067E+02  0.48569457200E+03  0.50400001928E-02 0. -1.
       -1    1    3    3    0  502 -0.46429626026E+03  0.11871913387E+03 -0.39402740514E+03  0.62042150677E+03  0.50400001928E-02 0.  1.
</event>
<event>
 5   0  0.5758786E-04  0.9991951E+03  0.7818609E-02  0.9309428E-01
       -1   -1    0    0    0  501  0.00000000000E+00  0.00000000000E+00  0.47196597235E+03  0.47196597238E+03  0.50400001928E-02 0.  1.
        1   -1    0    0  501    0  0.00000000000E+00  0.00000000000E+00 -0.52884679540E+03  0.52884679542E+03  0.50400001928E-02 0. -1.
    10030    2    1    2    0    0  0.00000000000E+00  0.00000000000E+00 -0.56880823048E+02  0.10008127678E+04  0.99919506012E+03 0.  0.
        3    1    3    3  502    0  0.24868890121E+03  0.17233880992E+03 -0.42664015188E+03  0.52303791869E+03  0.10100000352E+00 0. -1.
       -3    1    3    3    0  502 -0.24868890121E+03 -0.17233880992E+03  0.36975932883E+03  0.47777484911E+03  0.10100000352E+00 0.  1.
</event>
<event>
 5   0  0.1020150E-03  0.9988139E+03  0.7818609E-02  0.9309847E-01
        2   -1    0    0  501    0  0.00000000000E+00  0.00000000000E+00  0.13951688604E+04  0.13951688604E+04  0.25500000920E-02 0. -1.
       -2   -1    0    0    0  501  0.00000000000E+00  0.00000000000E+00 -0.17876497266E+03  0.17876497267E+03  0.25500000920E-02 0.  1.
    10030    2    1    2    0    0  0.00000000000E+00  0.00000000000E+00  0.12164038877E+04  0.15739338330E+04  0.99881394302E+03 0.  0.
        5    1    3    3  502    0 -0.38440108423E+03  0.11478188310E-01  0.10586665152E+03  0.39874055675E+03  0.46999998093E+01 0.  1.
       -5    1    3    3    0  502  0.38440108423E+03 -0.11478188310E-01  0.11105372362E+04  0.11751932763E+04  0.46999998093E+01 0. -1.
</event>
<event>
 5   0  0.3854625E-04  0.9989114E+03  0.7818609E-02  0.9309740E-01
        3   -1    0    0  501    0  0.00000000000E+00  0.00000000000E+00  0.64058149985E+03  0.64058150781E+03  0.10100000352E+00 0. -1.
       -3   -1    0    0    0  501  0.00000000000E+00  0.00000000000E+00 -0.38942112268E+03  0.38942113578E+03  0.10100000352E+00 0.  1.
    10030    2    1    2    0    0  0.00000000000E+00  0.00000000000E+00  0.25116037717E+03  0.10300026436E+04  0.99891136280E+03 0.  0.
        2    1    3    3  502    0  0.33799292324E+03  0.35746112259E+03  0.21451022003E+03  0.53668641200E+03  0.25500000920E-02 0. -1.
       -2    1    3    3    0  502 -0.33799292324E+03 -0.35746112259E+03  0.36650157134E+02  0.49331623159E+03  0.25500000920E-02 0.  1.
</event>
<event>
 5   0  0.1006006E-03  0.9994178E+03  0.7818609E-02  0.9309184E-01
        2   -1    0    0  501    0  0.00000000000E+00  0.00000000000E+00  0.15846582414E+04  0.15846582414E+04  0.25500000920E-02 0. -1.
       -2   -1    0    0    0  501  0.00000000000E+00  0.00000000000E+00 -0.15757907510E+03  0.15757907512E+03  0.25500000920E-02 0.  1.
    10030    2    1    2    0    0  0.00000000000E+00  0.00000000000E+00  0.14270791663E+04  0.17422373165E+04  0.99941779063E+03 0.  0.
        2    1    3    3  502    0  0.27953196834E+03  0.11538993251E+03  0.14070298310E+04  0.14391615278E+04  0.25500000920E-02 0. -1.
       -2    1    3    3    0  502 -0.27953196834E+03 -0.11538993251E+03  0.20049335303E+02  0.30307578871E+03  0.25500000920E-02 0.  1.
</event>
<event>
 5   0  0.1006006E-03  0.9956212E+03  0.7818609E-02  0.9313361E-01
       -2   -1    0    0    0  501  0.00000000000E+00  0.00000000000E+00  0.47041312485E+03  0.47041312486E+03  0.25500000920E-02 0.  1.
        2   -1    0    0  501    0  0.00000000000E+00  0.00000000000E+00 -0.52680369183E+03  0.52680369184E+03  0.25500000920E-02 0. -1.
    10030    2    1    2    0    0  0.00000000000E+00  0.00000000000E+00 -0.56390566980E+02  0.99721681670E+03  0.99562115459E+03 0.  0.
        2    1    3    3  502    0 -0.57025960577E+01  0.17295547679E+03  0.43931745785E+03  0.47217152109E+03  0.25500000920E-02 0.  1.
       -2    1    3    3    0  502  0.57025960577E+01 -0.17295547679E+03 -0.49570802483E+03  0.52504529561E+03  0.25500000920E-02 0. -1.
</event>
<event>
 5   0  0.1020150E-03  0.9982174E+03  0.7818609E-02  0.9310502E-01
       -2   -1    0    0    0  501  0.00000000000E+00  0.00000000000E+00  0.20472749409E+03  0.20472749410E+03  0.25500000920E-02 0. -1.
        2   -1    0    0  501    0  0.00000000000E+00  0.00000000000E+00 -0.12167856880E+04  0.12167856880E+04  0.25500000920E-02 0.  1.
    10030    2    1    2    0    0  0.00000000000E+00  0.00000000000E+00 -0.10120581939E+04  0.14215131821E+04  0.99821738066E+03 0.  0.
        5    1    3    3  502    0  0.13642997705E+03 -0.17171441445E+03 -0.11444561441E+04  0.11652900646E+04  0.46999998093E+01 0.  1.
       -5    1    3    3    0  502 -0.13642997705E+03  0.17171441445E+03  0.13239795018E+03  0.25622311757E+03  0.46999998093E+01 0. -1.
</event>
<event>
 5   0  0.1006749E-03  0.1000069E+04  0.7818609E-02  0.9308470E-01
       -2   -1    0    0    0  501  0.00000000000E+00  0.00000000000E+00  0.43113933950E+03  0.43113933951E+03  0.25500000920E-02 0. -1.
        2   -1    0    0  501    0  0.00000000000E+00  0.00000000000E+00 -0.57993850907E+03  0.57993850908E+03  0.25500000920E-02 0.  1.
    10030    2    1    2    0    0  0.00000000000E+00  0.00000000000E+00 -0.14879916957E+03  0.10110778486E+04  0.10000686092E+04 0.  0.
        1    1    3    3  502    0 -0.36377178898E+03  0.34292043604E+03 -0.85001483559E+02  0.50709919360E+03  0.50400001928E-02 0. -1.
       -1    1    3    3    0  502  0.36377178898E+03 -0.34292043604E+03 -0.63797686014E+02  0.50397865498E+03  0.50400001928E-02 0.  1.
</event>
<event>
 5   0  0.1006006E-03  0.1019987E+04  0.7818609E-02  0.9286891E-01
       -2   -1    0    0    0  501  0.00000000000E+00  0.00000000000E+00  0.74831101670E+03  0.74831101671E+03  0.25500000920E-02 0. -1.
        2   -1    0    0  501    0  0.00000000000E+00  0.00000000000E+00 -0.34757403769E+03  0.34757403770E+03  0.25500000920E-02 0.  1.
    10030    2    1    2    0    0  0.00000000000E+00  0.00000000000E+00  0.40073697902E+03  0.10958850544E+04  0.10199872186E+04 0.  0.
        2    1    3    3  502    0  0.12278919960E+03 -0.36693578739E+03 -0.15657913447E+03  0.41741596155E+03  0.25500000920E-02 0.  1.
       -2    1    3    3    0  502 -0.12278919960E+03  0.36693578739E+03  0.55731611348E+03  0.67846909285E+03  0.25500000920E-02 0. -1.
</event>
<event>
 5   0  0.1006749E-03  0.1003061E+04  0.7818609E-02  0.9305194E-01
       -2   -1    0    0    0  501  0.00000000000E+00  0.00000000000E+00  0.89480926910E+03  0.89480926910E+03  0.25500000920E-02 0. -1.
        2   -1    0    0  501    0  0.00000000000E+00  0.00000000000E+00 -0.28110216173E+03  0.28110216174E+03  0.25500000920E-02 0.  1.
    10030    2    1    2    0    0  0.00000000000E+00  0.00000000000E+00  0.61370710737E+03  0.11759114308E+04  0.10030609551E+04 0.  0.
        1    1    3    3  502    0  0.14012922159E+02  0.15372387512E+03  0.86626838770E+03  0.87991380903E+03  0.50400001928E-02 0. -1.
       -1    1    3    3    0  502 -0.14012922159E+02 -0.15372387512E+03 -0.25256128033E+03  0.29599762181E+03  0.50400001928E-02 0.  1.
</event>
<event>
 5   0  0.5768102E-04  0.9989369E+03  0.7818609E-02  0.9309712E-01
       -1   -1    0    0    0  501  0.00000000000E+00  0.00000000000E+00  0.38930529336E+03  0.38930529340E+03  0.50400001928E-02 0. -1.
        1   -1    0    0  501    0  0.00000000000E+00  0.00000000000E+00 -0.64080485191E+03  0.64080485192E+03  0.50400001928E-02 0.  1.
    10030    2    1    2    0    0  0.00000000000E+00  0.00000000000E+00 -0.25149955854E+03  0.10301101453E+04  0.99893687666E+03 0.  0.
        4    1    3    3  502    0  0.22360689990E+03  0.44350954757E+03 -0.17998715565E+03  0.52829703157E+03  0.12699999809E+01 0.  1.
       -4    1    3    3    0  502 -0.22360689990E+03 -0.44350954757E+03 -0.71512402892E+02  0.50181311375E+03  0.12699999809E+01 0. -1.
</event>
<event>
 5   0  0.5768102E-04  0.1000518E+04  0.7818609E-02  0.9307976E-01
       -1   -1    0    0    0  501  0.00000000000E+00  0.00000000000E+00  0.58432576747E+03  0.58432576749E+03  0.50400001928E-02 0.  1.
        1   -1    0    0  501    0  0.00000000000E+00  0.00000000000E+00 -0.42828724990E+03  0.42828724993E+03  0.50400001928E-02 0. -1.
    10030    2    1    2    0    0  0.00000000000E+00  0.00000000000E+00  0.15603851758E+03  0.10126130174E+04  0.10005184177E+04 0.  0.
        4    1    3    3  502    0 -0.49494593414E+02  0.49756904830E+03  0.62570715177E+02  0.50392596668E+03  0.12699999809E+01 0.  1.
       -4    1    3    3    0  502  0.49494593414E+02 -0.49756904830E+03  0.93467802398E+02  0.50868705073E+03  0.12699999809E+01 0. -1.
</event>
<event>
 5   0  0.5768102E-04  0.1008982E+04  0.7818609E-02  0.9298748E-01
       -1   -1    0    0    0  501  0.00000000000E+00  0.00000000000E+00  0.27211594673E+03  0.27211594678E+03  0.50400001928E-02 0. -1.
        1   -1    0    0  501    0  0.00000000000E+00  0.00000000000E+00 -0.93530435070E+03  0.93530435072E+03  0.50400001928E-02 0.  1.
    10030    2    1    2    0    0  0.00000000000E+00  0.00000000000E+00 -0.66318840397E+03  0.12074202975E+04  0.10089821186E+04 0.  0.
        4    1    3    3  502    0  0.23906638513E+03 -0.41557241242E+03 -0.51950003966E+03  0.70691942297E+03  0.12699999809E+01 0.  1.
       -4    1    3    3    0  502 -0.23906638513E+03  0.41557241242E+03 -0.14368836431E+03  0.50050087452E+03  0.12699999809E+01 0. -1.
</event>
<event>
 5   0  0.9674819E-04  0.9994946E+03  0.7818609E-02  0.9309099E-01
       -2   -1    0    0    0  501  0.00000000000E+00  0.00000000000E+00  0.27550057938E+03  0.27550057939E+03  0.25500000920E-02 0. -1.
        2   -1    0    0  501    0  0.00000000000E+00  0.00000000000E+00 -0.90652210684E+03  0.90652210685E+03  0.25500000920E-02 0.  1.
    10030    2    1    2    0    0  0.00000000000E+00  0.00000000000E+00 -0.63102152747E+03  0.11820226862E+04  0.99949460361E+03 0.  0.
        4    1    3    3  502    0  0.48479408531E+02  0.40133648803E+03  0.31955346189E+02  0.40551693765E+03  0.12699999809E+01 0. -1.
       -4    1    3    3    0  502 -0.48479408531E+02 -0.40133648803E+03 -0.66297687366E+03  0.77650574858E+03  0.12699999809E+01 0.  1.
</event>
<event>
 5   0  0.5960102E-04  0.9980538E+03  0.7818609E-02  0.9310682E-01
       -1   -1    0    0    0  501  0.00000000000E+00  0.00000000000E+00  0.12769631539E+03  0.12769631549E+03  0.50400001928E-02 0. -1.
        1   -1    0    0  501    0  0.00000000000E+00  0.00000000000E+00 -0.19501568865E+04  0.19501568865E+04  0.50400001928E-02 0.  1.
    10030    2    1    2    0    0  0.00000000000E+00  0.00000000000E+00 -0.18224605711E+04  0.20778532020E+04  0.99805380405E+03 0.  0.
        5    1    3    3  502    0  0.11288555434E+03 -0.51974175159E+02  0.94916503414E+02  0.15644710250E+03  0.46999998093E+01 0. -1.
       -5    1    3    3    0  502 -0.11288555434E+03  0.51974175159E+02 -0.19173770745E+04  0.19214060995E+04  0.46999998093E+01 0.  1.
</event>
<event>
 5   0  0.5888774E-04  0.1000823E+04  0.7818609E-02  0.9307643E-01
       -1   -1    0    0    0  501  0.00000000000E+00  0.00000000000E+00  0.46165293877E+03  0.46165293880E+03  0.50400001928E-02 0.  1.
        1   -1    0    0  501    0  0.00000000000E+00  0.00000000000E+00 -0.54242354055E+03  0.54242354057E+03  0.50400001928E-02 0. -1.
    10030    2    1    2    0    0  0.00000000000E+00  0.00000000000E+00 -0.80770601776E+02  0.10040764794E+04  0.10008225049E+04 0.  0.
        2    1    3    3  502    0  0.27179134975E+03  0.41373613000E+03 -0.11385795290E+03  0.50794857664E+03  0.25500000920E-02 0. -1.
       -2    1    3    3    0  502 -0.27179134975E+03 -0.41373613000E+03  0.33087351119E+02  0.49612790274E+03  0.25500000920E-02 0.  1.
</event>
<event>
 5   0  0.5768102E-04  0.9992276E+03  0.7818609E-02  0.9309392E-01
        1   -1    0    0  501    0  0.00000000000E+00  0.00000000000E+00  0.52569687963E+03  0.52569687966E+03  0.50400001928E-02 0. -1.
       -1   -1    0    0    0  501  0.00000000000E+00  0.00000000000E+00 -0.47482487041E+03  0.47482487044E+03  0.50400001928E-02 0.  1.
    10030    2    1    2    0    0  0.00000000000E+00  0.00000000000E+00  0.50872009220E+02  0.10005217501E+04  0.99922760725E+03 0.  0.
        4    1    3    3  502    0  0.17049594697E+03 -0.41797318045E+03  0.23982050240E+03  0.51116135787E+03  0.12699999809E+01 0.  1.
       -4    1    3    3    0  502 -0.17049594697E+03  0.41797318045E+03 -0.18894849318E+03  0.48936039223E+03  0.12699999809E+01 0. -1.
</event>
<event>
 5   0  0.5768102E-04  0.1002207E+04  0.7818609E-02  0.9306128E-01
        1   -1    0    0  501    0  0.00000000000E+00  0.00000000000E+00  0.98486723851E+03  0.98486723853E+03  0.50400001928E-02 0.  1.
       -1   -1    0    0    0  501  0.00000000000E+00  0.00000000000E+00 -0.25496283236E+03  0.25496283241E+03  0.50400001928E-02 0. -1.
    10030    2    1    2    0    0  0.00000000000E+00  0.00000000000E+00  0.72990440615E+03  0.12398300709E+04  0.10022066467E+04 0.  0.
        4    1    3    3  502    0 -0.18041941546E+03 -0.11722019535E+02 -0.21320438346E+03  0.27954658510E+03  0.12699999809E+01 0. -1.
       -4    1    3    3    0  502  0.18041941546E+03  0.11722019535E+02  0.94310878961E+03  0.96028348583E+03  0.12699999809E+01 0.  1.
</event>
<event>
 5   0  0.9741826E-04  0.1000392E+04  0.7818609E-02  0.9308115E-01
        2   -1    0    0  501    0  0.00000000000E+00  0.00000000000E+00  0.30843582841E+03  0.30843582842E+03  0.25500000920E-02 0. -1.
       -2   -1    0    0    0  501  0.00000000000E+00  0.00000000000E+00 -0.81117736225E+03  0.81117736225E+03  0.25500000920E-02 0.  1.
    10030    2    1    2    0    0  0.00000000000E+00  0.00000000000E+00 -0.50274153384E+03  0.11196131907E+04  0.10003922465E+04 0.  0.
        3    1    3    3  502    0 -0.11643283144E+03  0.60866950720E+02  0.28877980666E+03  0.31726200035E+03  0.10100000352E+00 0. -1.
       -3    1    3    3    0  502  0.11643283144E+03 -0.60866950720E+02 -0.79152134051E+03  0.80235119032E+03  0.10100000352E+00 0.  1.
</event>
<event>
 5   0  0.5888774E-04  0.1002350E+04  0.7818609E-02  0.9305971E-01
       -1   -1    0    0    0  501  0.00000000000E+00  0.00000000000E+00  0.39845190242E+03  0.39845190245E+03  0.50400001928E-02 0. -1.
        1   -1    0    0  501    0  0.00000000000E+00  0.00000000000E+00 -0.63038086003E+03  0.63038086005E+03  0.50400001928E-02 0.  1.
    10030    2    1    2    0    0  0.00000000000E+00  0.00000000000E+00 -0.23192895761E+03  0.10288327625E+04  0.10023501443E+04 0.  0.
        2    1    3    3  502    0 -0.29164863366E+03  0.62995363131E+02  0.29735189951E+03  0.42124279631E+03  0.25500000920E-02 0. -1.
       -2    1    3    3    0  502  0.29164863366E+03 -0.62995363131E+02 -0.52928085712E+03  0.60758996619E+03  0.25500000920E-02 0.  1.
</event>
<event>
 5   0  0.9741826E-04  0.1001333E+04  0.7818609E-02  0.9307084E-01
       -2   -1    0    0    0  501  0.00000000000E+00  0.00000000000E+00  0.85243951282E+03  0.85243951282E+03  0.25500000920E-02 0.  1.
        2   -1    0    0  501    0  0.00000000000E+00  0.00000000000E+00 -0.29405823257E+03  0.29405823258E+03  0.25500000920E-02 0. -1.
    10030    2    1    2    0    0  0.00000000000E+00  0.00000000000E+00  0.55838128025E+03  0.11464977454E+04  0.10013328248E+04 0.  0.
        3    1    3    3  502    0  0.32890056166E+03 -0.36198473298E+03  0.40175246660E+03  0.63294042452E+03  0.10100000352E+00 0.  1.
       -3    1    3    3    0  502 -0.32890056166E+03  0.36198473298E+03  0.15662881365E+03  0.51355732089E+03  0.10100000352E+00 0. -1.
</event>
<event>
 5   0  0.5960102E-04  0.1006679E+04  0.7818609E-02  0.9301249E-01
        1   -1    0    0  501    0  0.00000000000E+00  0.00000000000E+00  0.93181168328E+03  0.93181168329E+03  0.50400001928E-02 0. -1.
       -1   -1    0    0    0  501  0.00000000000E+00  0.00000000000E+00 -0.27189055360E+03  0.27189055365E+03  0.50400001928E-02 0.  1.
    10030    2    1    2    0    0  0.00000000000E+00  0.00000000000E+00  0.65992112968E+03  0.12037022369E+04  0.10066792825E+04 0.  0.
        5    1    3    3  502    0  0.10025055590E+03  0.79509883943E+02 -0.25209231361E+03  0.28274479691E+03  0.46999998093E+01 0.  1.
       -5    1    3    3    0  502 -0.10025055590E+03 -0.79509883943E+02  0.91201344329E+03  0.92095744003E+03  0.46999998093E+01 0. -1.
</event>
<event>
 5   0  0.9741826E-04  0.9981375E+03  0.7818609E-02  0.9310590E-01
        2   -1    0    0  501    0  0.00000000000E+00  0.00000000000E+00  0.19158392573E+04  0.19158392573E+04  0.25500000920E-02 0. -1.
       -2   -1    0    0    0  501  0.00000000000E+00  0.00000000000E+00 -0.13000547791E+03  0.13000547794E+03  0.25500000920E-02 0.  1.
    10030    2    1    2    0    0  0.00000000000E+00  0.00000000000E+00  0.17858337794E+04  0.20458447353E+04  0.99813746205E+03 0.  0.
        3    1    3    3  502    0  0.41325391085E+03  0.12332348986E+03  0.37812058472E+03  0.57355266958E+03  0.10100000352E+00 0.  1.
       -3    1    3    3    0  502 -0.41325391085E+03 -0.12332348986E+03  0.14077131947E+04  0.14722920657E+04  0.10100000352E+00 0. -1.
</event>
<event>
 5   0  0.5758786E-04  0.1007868E+04  0.7818609E-02  0.9299957E-01
        1   -1    0    0  501    0  0.00000000000E+00  0.00000000000E+00  0.11337156853E+04  0.11337156853E+04  0.50400001928E-02 0. -1.
       -1   -1    0    0    0  501  0.00000000000E+00  0.00000000000E+00 -0.22399760411E+03  0.22399760416E+03  0.50400001928E-02 0.  1.
    10030    2    1    2    0    0  0.00000000000E+00  0.00000000000E+00  0.90971808119E+03  0.13577132895E+04  0.10078682400E+04 0.  0.
        3    1    3    3  502    0 -0.13981942327E+03 -0.12852873338E+03 -0.17394231804E+03  0.25753649573E+03  0.10100000352E+00 0.  1.
       -3    1    3    3    0  502  0.13981942327E+03  0.12852873338E+03  0.10836603992E+04  0.11001767937E+04  0.10100000352E+00 0. -1.
</event>
<event>
 5   0  0.5960102E-04  0.1000201E+04  0.7818609E-02  0.9308325E-01
       -1   -1    0    0    0  501  0.00000000000E+00  0.00000000000E+00  0.90668183327E+03  0.90668183329E+03  0.50400001928E-02 0. -1.
        1   -1    0    0  501    0  0.00000000000E+00  0.00000000000E+00 -0.27584136983E+03  0.27584136987E+03  0.50400001928E-02 0.  1.
    10030    2    1    2    0    0  0.00000000000E+00  0.00000000000E+00  0.63084046345E+03  0.11825232032E+04  0.10002006977E+04 0.  0.
        5    1    3    3  502    0  0.24828249189E+03 -0.42068379582E+03  0.44198125901E+03  0.65877809250E+03  0.46999998093E+01 0. -1.
       -5    1    3    3    0  502 -0.24828249189E+03  0.42068379582E+03  0.18885920444E+03  0.52374511066E+03  0.46999998093E+01 0.  1.
</event>
<event>
 5   0  0.1020150E-03  0.9997794E+03  0.7818609E-02  0.9308787E-01
        2   -1    0    0  501    0  0.00000000000E+00  0.00000000000E+00  0.83726564481E+03  0.83726564481E+03  0.25500000920E-02 0.  1.
       -2   -1    0    0    0  501  0.00000000000E+00  0.00000000000E+00 -0.29845931675E+03  0.29845931676E+03  0.25500000920E-02 0. -1.
    10030    2    1    2    0    0  0.00000000000E+00  0.00000000000E+00  0.53880632806E+03  0.11357249616E+04  0.99977944026E+03 0.  0.
        5    1    3    3  502    0  0.12141202860E+03  0.37724237966E+03  0.61548430487E+03  0.73204898282E+03  0.46999998093E+01 0.  1.
       -5    1    3    3    0  502 -0.12141202860E+03 -0.37724237966E+03 -0.76677976809E+02  0.40367597876E+03  0.46999998093E+01 0. -1.
</event>
<event>
 5   0  0.5826939E-04  0.9975410E+03  0.7818609E-02  0.9311246E-01
        1   -1    0    0  501    0  0.00000000000E+00  0.00000000000E+00  0.99146069640E+03  0.99146069641E+03  0.50400001928E-02 0. -1.
       -1   -1    0    0    0  501  0.00000000000E+00  0.00000000000E+00 -0.25091464039E+03  0.25091464044E+03  0.50400001928E-02 0.  1.
    10030    2    1    2    0    0  0.00000000000E+00  0.00000000000E+00  0.74054605600E+03  0.12423753369E+04  0.99754098490E+03 0.  0.
        1    1    3    3  502    0 -0.22246156829E+03  0.44574257661E+03  0.33985755427E+03  0.60305783403E+03  0.50400001928E-02 0. -1.
       -1    1    3    3    0  502  0.22246156829E+03 -0.44574257661E+03  0.40068850173E+03  0.63931750282E+03  0.50400001928E-02 0.  1.
</event>
<event>
 5   0  0.5888774E-04  0.1000627E+04  0.7818609E-02  0.9307857E-01
       -1   -1    0    0    0  501  0.00000000000E+00  0.00000000000E+00  0.21178704593E+03  0.21178704599E+03  0.50400001928E-02 0.  1.
        1   -1    0    0  501    0  0.00000000000E+00  0.00000000000E+00 -0.11819119083E+04  0.11819119083E+04  0.50400001928E-02 0. -1.
    10030    2    1    2    0    0  0.00000000000E+00  0.00000000000E+00 -0.97012486234E+03  0.13936989543E+04  0.10006270667E+04 0.  0.
        2    1    3    3  502    0 -0.86262877199E+02  0.20457835797E+03  0.13941451310E+03  0.26216406123E+03  0.25500000920E-02 0.  1.
       -2    1    3    3    0  502  0.86262877199E+02 -0.20457835797E+03 -0.11095393754E+04  0.11315348930E+04  0.25500000920E-02 0. -1.
</event>
<event>
 5   0  0.1006006E-03  0.1000283E+04  0.7818609E-02  0.9308234E-01
        2   -1    0    0  501    0  0.00000000000E+00  0.00000000000E+00  0.47237161828E+03  0.47237161829E+03  0.25500000920E-02 0.  1.
       -2   -1    0    0    0  501  0.00000000000E+00  0.00000000000E+00 -0.52954425987E+03  0.52954425988E+03  0.25500000920E-02 0. -1.
    10030    2    1    2    0    0  0.00000000000E+00  0.00000000000E+00 -0.57172641588E+02  0.10019158782E+04  0.10002833179E+04 0.  0.
        2    1    3    3  502    0  0.94307349226E+02 -0.49004019101E+03  0.47608694233E+01  0.49905503786E+03  0.25500000920E-02 0.  1.
       -2    1    3    3    0  502 -0.94307349226E+02  0.49004019101E+03 -0.61933511011E+02  0.50286084031E+03  0.25500000920E-02 0. -1.
</event>
<event>
 5   0  0.1006006E-03  0.9981308E+03  0.7818609E-02  0.9310597E-01
        2   -1    0    0  501    0  0.00000000000E+00  0.00000000000E+00  0.37727430538E+03  0.37727430539E+03  0.25500000920E-02 0.  1.
       -2   -1    0    0    0  501  0.00000000000E+00  0.00000000000E+00 -0.66017293225E+03  0.66017293225E+03  0.25500000920E-02 0. -1.
    10030    2    1    2    0    0  0.00000000000E+00  0.00000000000E+00 -0.28289862687E+03  0.10374472376E+04  0.99813082199E+03 0.  0.
        2    1    3    3  502    0 -0.27538048736E+03 -0.36221078213E+03  0.71651554802E+02  0.46061373061E+03  0.25500000920E-02 0.  1.
       -2    1    3    3    0  502  0.27538048736E+03  0.36221078213E+03 -0.35455018167E+03  0.57683350704E+03  0.25500000920E-02 0. -1.
</event>
<event>
 5   0  0.9674819E-04  0.1001870E+04  0.7818609E-02  0.9306496E-01
       -2   -1    0    0    0  501  0.00000000000E+00  0.00000000000E+00  0.14288420527E+03  0.14288420529E+03  0.25500000920E-02 0. -1.
        2   -1    0    0  501    0  0.00000000000E+00  0.00000000000E+00 -0.17562189310E+04  0.17562189310E+04  0.25500000920E-02 0.  1.
    10030    2    1    2    0    0  0.00000000000E+00  0.00000000000E+00 -0.16133347257E+04  0.18991031363E+04  0.10018701438E+04 0.  0.
        4    1    3    3  502    0 -0.14125651316E+03  0.29253049511E+03 -0.15294863214E+04  0.15636040142E+04  0.12699999809E+01 0.  1.
       -4    1    3    3    0  502  0.14125651316E+03 -0.29253049511E+03 -0.83848404308E+02  0.33549912203E+03  0.12699999809E+01 0. -1.
</event>
<event>
 5   0  0.1006749E-03  0.1001148E+04  0.7818609E-02  0.9307287E-01
        2   -1    0    0  501    0  0.00000000000E+00  0.00000000000E+00  0.16978463137E+04  0.16978463137E+04  0.25500000920E-02 0. -1.
       -2   -1    0    0    0  501  0.00000000000E+00  0.00000000000E+00 -0.14758354172E+03  0.14758354174E+03  0.25500000920E-02 0.  1.
    10030    2    1    2    0    0  0.00000000000E+00  0.00000000000E+00  0.15502627720E+04  0.18454298554E+04  0.10011476860E+04 0.  0.
        1    1    3    3  502    0 -0.23465490581E+03 -0.41767778946E+03  0.10426121819E+04  0.11474135360E+04  0.50400001928E-02 0. -1.
       -1    1    3    3    0  502  0.23465490581E+03  0.41767778946E+03  0.50765059004E+03  0.69801631945E+03  0.50400001928E-02 0.  1.
</event>
<event>
 5   0  0.3854625E-04  0.9974064E+03  0.7818609E-02  0.9311394E-01
       -4   -1    0    0    0  501  0.00000000000E+00  0.00000000000E+00  0.42547488414E+03  0.42547677954E+03  0.12699999809E+01 0. -1.
        4   -1    0    0  501    0  0.00000000000E+00  0.00000000000E+00 -0.58453089073E+03  0.58453227038E+03  0.12699999809E+01 0.  1.
    10030    2    1    2    0    0  0.00000000000E+00  0.00000000000E+00 -0.15905600659E+03  0.10100090499E+04  0.99740637039E+03 0.  0.
        4    1    3    3  502    0 -0.75879741422E+02  0.48657888905E+03 -0.15917616607E+03  0.51754750040E+03  0.12699999809E+01 0. -1.
       -4    1    3    3    0  502  0.75879741422E+02 -0.48657888905E+03  0.12015948228E+00  0.49246154953E+03  0.12699999809E+01 0.  1.
</event>
<event>
 5   0  0.9674819E-04  0.9994516E+03  0.7818609E-02  0.9309146E-01
       -2   -1    0    0    0  501  0.00000000000E+00  0.00000000000E+00  0.12203909339E+03  0.12203909342E+03  0.25500000920E-02 0. -1.
        2   -1    0    0  501    0  0.00000000000E+00  0.00000000000E+00 -0.20462778559E+04  0.20462778559E+04  0.25500000920E-02 0.  1.
    10030    2    1    2    0    0  0.00000000000E+00  0.00000000000E+00 -0.19242387625E+04  0.21683169494E+04  0.99945163845E+03 0.  0.
        4    1    3    3  502    0  0.40702887069E+03  0.28732250433E+03 -0.10460755997E+04  0.11586640999E+04  0.12699999809E+01 0. -1.
       -4    1    3    3    0  502 -0.40702887069E+03 -0.28732250433E+03 -0.87816316283E+03  0.10096528495E+04  0.12699999809E+01 0.  1.
</event>
<event>
 5   0  0.9741826E-04  0.1004616E+04  0.7818609E-02  0.9303496E-01
       -2   -1    0    0    0  501  0.00000000000E+00  0.00000000000E+00  0.20528425765E+03  0.20528425767E+03  0.25500000920E-02 0. -1.
        2   -1    0    0  501    0  0.00000000000E+00  0.00000000000E+00 -0.12290933739E+04  0.12290933739E+04  0.25500000920E-02 0.  1.
    10030    2    1    2    0    0  0.00000000000E+00  0.00000000000E+00 -0.10238091163E+04  0.14343776316E+04  0.10046163862E+04 0.  0.
        3    1    3    3  502    0  0.21911965199E+03  0.44410239473E+03 -0.63198429701E+03  0.80289757800E+03  0.10100000352E+00 0.  1.
       -3    1    3    3    0  502 -0.21911965199E+03 -0.44410239473E+03 -0.39182481926E+03  0.63148005359E+03  0.10100000352E+00 0. -1.
</event>
<event>
 5   0  0.3854625E-04  0.1000643E+04  0.7818609E-02  0.9307840E-01
       -3   -1    0    0    0  501  0.00000000000E+00  0.00000000000E+00  0.41061468927E+03  0.41061470169E+03  0.10100000352E+00 0. -1.
        3   -1    0    0  501    0  0.00000000000E+00  0.00000000000E+00 -0.60962677481E+03  0.60962678317E+03  0.10100000352E+00 0.  1.
    10030    2    1    2    0    0  0.00000000000E+00  0.00000000000E+00 -0.19901208554E+03  0.10202414849E+04  0.10006432318E+04 0.  0.
        4    1    3    3  502    0  0.35796253614E+03 -0.12570965746E+03  0.23304149172E+03  0.44525278777E+03  0.12699999809E+01 0. -1.
       -4    1    3    3    0  502 -0.35796253614E+03  0.12570965746E+03 -0.43205357726E+03  0.57498869709E+03  0.12699999809E+01 0.  1.
</event>
<event>
 5   0  0.3854625E-04  0.9988067E+03  0.7818609E-02  0.9309855E-01
        3   -1    0    0  501    0  0.00000000000E+00  0.00000000000E+00  0.35196577669E+03  0.35196579118E+03  0.10100000352E+00 0. -1.
       -3   -1    0    0    0  501  0.00000000000E+00  0.00000000000E+00 -0.70860205240E+03  0.70860205959E+03  0.10100000352E+00 0.  1.
    10030    2    1    2    0    0  0.00000000000E+00  0.00000000000E+00 -0.35663627571E+03  0.10605678508E+04  0.99880665443E+03 0.  0.
        4    1    3    3  502    0  0.33519964647E+02  0.28990258228E+03  0.25200020169E+03  0.38558113257E+03  0.12699999809E+01 0. -1.
       -4    1    3    3    0  502 -0.33519964647E+02 -0.28990258228E+03 -0.60863647740E+03  0.67498671821E+03  0.12699999809E+01 0.  1.
</event>
<event>
 5   0  0.5758786E-04  0.1004622E+04  0.7818609E-02  0.9303490E-01
       -1   -1    0    0    0  501  0.00000000000E+00  0.00000000000E+00  0.37520609805E+03  0.37520609808E+03  0.50400001928E-02 0. -1.
        1   -1    0    0  501    0  0.00000000000E+00  0.00000000000E+00 -0.67247439093E+03  0.67247439095E+03  0.50400001928E-02 0.  1.
    10030    2    1    2    0    0  0.00000000000E+00  0.00000000000E+00 -0.29726829288E+03  0.10476804890E+04  0.10046223017E+04 0.  0.
        3    1    3    3  502    0  0.25207027977E+03  0.43097076987E+03 -0.20614531882E+03  0.54015843333E+03  0.10100000352E+00 0.  1.
       -3    1    3    3    0  502 -0.25207027977E+03 -0.43097076987E+03 -0.91122974065E+02  0.50752205571E+03  0.10100000352E+00 0. -1.
</event>
<event>
 5   0  0.1020150E-03  0.9988720E+03  0.7818609E-02  0.9309783E-01
       -2   -1    0    0    0  501  0.00000000000E+00  0.00000000000E+00  0.20636863116E+03  0.20636863117E+03  0.25500000920E-02 0.  1.
        2   -1    0    0  501    0  0.00000000000E+00  0.00000000000E+00 -0.12086930836E+04  0.12086930836E+04  0.25500000920E-02 0. -1.
    10030    2    1    2    0    0  0.00000000000E+00  0.00000000000E+00 -0.10023244525E+04  0.14150617148E+04  0.99887203819E+03 0.  0.
        5    1    3    3  502    0  0.20923425527E+02 -0.33023563374E+03 -0.10310779360E+04  0.10828837258E+04  0.46999998093E+01 0. -1.
       -5    1    3    3    0  502 -0.20923425527E+02  0.33023563374E+03  0.28753483564E+02  0.33217798895E+03  0.46999998093E+01 0.  1.
</event>
<event>
 5   0  0.5768102E-04  0.9999635E+03  0.7818609E-02  0.9308585E-01
       -1   -1    0    0    0  501  0.00000000000E+00  0.00000000000E+00  0.25794810402E+03  0.25794810407E+03  0.50400001928E-02 0.  1.
        1   -1    0    0  501    0  0.00000000000E+00  0.00000000000E+00 -0.96911647711E+03  0.96911647712E+03  0.50400001928E-02 0. -1.
    10030    2    1    2    0    0  0.00000000000E+00  0.00000000000E+00 -0.71116837309E+03  0.12270645812E+04  0.99996351510E+03 0.  0.
        4    1    3    3  502    0 -0.42768876596E+03  0.17093583645E+03 -0.59429844738E+03  0.75188363340E+03  0.12699999809E+01 0. -1.
       -4    1    3    3    0  502  0.42768876596E+03 -0.17093583645E+03 -0.11686992571E+03  0.47518094779E+03  0.12699999809E+01 0.  1.
</event>
<event>
 5   0  0.1006749E-03  0.1000382E+04  0.7818609E-02  0.9308125E-01
        2   -1    0    0  501    0  0.00000000000E+00  0.00000000000E+00  0.86700562557E+03  0.86700562558E+03  0.25500000920E-02 0. -1.
       -2   -1    0    0    0  501  0.00000000000E+00  0.00000000000E+00 -0.28856936385E+03  0.28856936386E+03  0.25500000920E-02 0.  1.
    10030    2    1    2    0    0  0.00000000000E+00  0.00000000000E+00  0.57843626173E+03  0.11555749894E+04  0.10003824505E+04 0.  0.
        1    1    3    3  502    0  0.22785570823E+03 -0.64806628118E+02 -0.21966116826E+03  0.32306214833E+03  0.50400001928E-02 0.  1.
       -1    1    3    3    0  502 -0.22785570823E+03  0.64806628118E+02  0.79809742998E+03  0.83251284110E+03  0.50400001928E-02 0. -1.
</event>
<event>
 5   0  0.3854625E-04  0.9997250E+03  0.7818609E-02  0.9308846E-01
        3   -1    0    0  501    0  0.00000000000E+00  0.00000000000E+00  0.40745964582E+03  0.40745965833E+03  0.10100000352E+00 0. -1.
       -3   -1    0    0    0  501  0.00000000000E+00  0.00000000000E+00 -0.61322024852E+03  0.61322025684E+03  0.10100000352E+00 0.  1.
    10030    2    1    2    0    0  0.00000000000E+00  0.00000000000E+00 -0.20576060271E+03  0.10206799152E+04  0.99972499399E+03 0.  0.
        3    1    3    3  502    0  0.76435008870E+02  0.33199206026E+01  0.40144655480E+03  0.40867184759E+03  0.10100000352E+00 0. -1.
       -3    1    3    3    0  502 -0.76435008870E+02 -0.33199206026E+01 -0.60720715751E+03  0.61200806758E+03  0.10100000352E+00 0.  1.
</event>
<event>
 5   0  0.1006006E-03  0.1001152E+04  0.7818609E-02  0.9307282E-01
        2   -1    0    0  501    0  0.00000000000E+00  0.00000000000E+00  0.13523636699E+04  0.13523636699E+04  0.25500000920E-02 0. -1.
       -2   -1    0    0    0  501  0.00000000000E+00  0.00000000000E+00 -0.18528760350E+03  0.18528760351E+03  0.25500000920E-02 0.  1.
    10030    2    1    2    0    0  0.00000000000E+00  0.00000000000E+00  0.11670760664E+04  0.15376512734E+04  0.10011517836E+04 0.  0.
        2    1    3    3  502    0  0.21703100506E+03  0.44656207291E+03  0.68135433844E+03  0.84306813286E+03  0.25500000920E-02 0. -1.
       -2    1    3    3    0  502 -0.21703100506E+03 -0.44656207291E+03  0.48572172794E+03  0.69458314054E+03  0.25500000920E-02 0.  1.
</event>
<event>
 5   0  0.5960102E-04  0.1001436E+04  0.7818609E-02  0.9306972E-01
       -1   -1    0    0    0  501  0.00000000000E+00  0.00000000000E+00  0.18483705736E+03  0.18483705743E+03  0.50400001928E-02 0. -1.
        1   -1    0    0  501    0  0.00000000000E+00  0.00000000000E+00 -0.13564292115E+04  0.13564292115E+04  0.50400001928E-02 0.  1.
    10030    2    1    2    0    0  0.00000000000E+00  0.00000000000E+00 -0.11715921541E+04  0.15412662690E+04  0.10014357374E+04 0.  0.
        5    1    3    3  502    0 -0.11084977747E+03 -0.48261121983E+02 -0.13335930671E+04  0.13390703371E+04  0.46999998093E+01 0.  1.
       -5    1    3    3    0  502  0.11084977747E+03  0.48261121983E+02  0.16200091296E+03  0.20219593185E+03  0.46999998093E+01 0. -1.
</event>
<event>
 5   0  0.9674819E-04  0.9999051E+03  0.7818609E-02  0.9308649E-01
       -2   -1    0    0    0  501  0.00000000000E+00  0.00000000000E+00  0.14270214107E+03  0.14270214109E+03  0.25500000920E-02 0.  1.
        2   -1    0    0  501    0  0.00000000000E+00  0.00000000000E+00 -0.17515684614E+04  0.17515684614E+04  0.25500000920E-02 0. -1.
    10030    2    1    2    0    0  0.00000000000E+00  0.00000000000E+00 -0.16088663204E+04  0.18942706025E+04  0.99990513490E+03 0.  0.
        4    1    3    3  502    0 -0.24723888939E+03  0.26422253712E+03 -0.14579782670E+04  0.15022126539E+04  0.12699999809E+01 0. -1.
       -4    1    3    3    0  502  0.24723888939E+03 -0.26422253712E+03 -0.15088805337E+03  0.39205794865E+03  0.12699999809E+01 0.  1.
</event>
<event>
 5   0  0.1020150E-03  0.9962392E+03  0.7818609E-02  0.9312679E-01
        2   -1    0    0  501    0  0.00000000000E+00  0.00000000000E+00  0.10973792382E+04  0.10973792382E+04  0.25500000920E-02 0.  1.
       -2   -1    0    0    0  501  0.00000000000E+00  0.00000000000E+00 -0.22610517879E+03  0.22610517880E+03  0.25500000920E-02 0. -1.
    10030    2    1    2    0    0  0.00000000000E+00  0.00000000000E+00  0.87127405944E+03  0.13234844170E+04  0.99623918587E+03 0.  0.
        5    1    3    3  502    0 -0.32625309623E+03 -0.22698211099E+03  0.83448902247E+03  0.92431378878E+03  0.46999998093E+01 0.  1.
       -5    1    3    3    0  502  0.32625309623E+03  0.22698211099E+03  0.36785036964E+02  0.39917062824E+03  0.46999998093E+01 0. -1.
</event>
<event>
 5   0  0.5768102E-04  0.9961507E+03  0.7818609E-02  0.9312777E-01
       -1   -1    0    0    0  501  0.00000000000E+00  0.00000000000E+00  0.67949123044E+03  0.67949123046E+03  0.50400001928E-02 0.  1.
        1   -1    0    0  501    0  0.00000000000E+00  0.00000000000E+00 -0.36509530044E+03  0.36509530047E+03  0.50400001928E-02 0. -1.
    10030    2    1    2    0    0  0.00000000000E+00  0.00000000000E+00  0.31439593000E+03  0.10445865309E+04  0.99615070136E+03 0.  0.
        4    1    3    3  502    0 -0.37230721052E+03 -0.87298193734E+02  0.49184477713E+03  0.62301406993E+03  0.12699999809E+01 0.  1.
       -4    1    3    3    0  502  0.37230721052E+03  0.87298193734E+02 -0.17744884713E+03  0.42157246101E+03  0.12699999809E+01 0. -1.
</event>
<event>
 5   0  0.9741826E-04  0.1000290E+04  0.7818609E-02  0.9308227E-01
       -2   -1    0    0    0  501  0.00000000000E+00  0.00000000000E+00  0.49558747100E+03  0.49558747100E+03  0.25500000920E-02 0.  1.
        2   -1    0    0  501    0  0.00000000000E+00  0.00000000000E+00 -0.50474442617E+03  0.50474442618E+03  0.25500000920E-02 0. -1.
    10030    2    1    2    0    0  0.00000000000E+00  0.00000000000E+00 -0.91569551787E+01  0.10003318972E+04  0.10002899853E+04 0.  0.
        3    1    3    3  502    0 -0.14037978043E+02  0.10218132588E+03  0.48483646523E+03  0.49568588482E+03  0.10100000352E+00 0.  1.
       -3    1    3    3    0  502  0.14037978043E+02 -0.10218132588E+03 -0.49399342041E+03  0.50464601237E+03  0.10100000352E+00 0. -1.
</event>
<event>
 5   0  0.5960102E-04  0.1000025E+04  0.7818609E-02  0.9308517E-01
       -1   -1    0    0    0  501  0.00000000000E+00  0.00000000000E+00  0.14140737562E+03  0.14140737571E+03  0.50400001928E-02 0. -1.
        1   -1    0    0  501    0  0.00000000000E+00  0.00000000000E+00 -0.17680317488E+04  0.17680317488E+04  0.50400001928E-02 0.  1.
    10030    2    1    2    0    0  0.00000000000E+00  0.00000000000E+00 -0.16266243731E+04  0.19094391245E+04  0.10000254591E+04 0.  0.
        5    1    3    3  502    0  0.11264201779E+03  0.34252604897E+03 -0.15193965898E+03  0.39130559460E+03  0.46999998093E+01 0. -1.
       -5    1    3    3    0  502 -0.11264201779E+03 -0.34252604897E+03 -0.14746847141E+04  0.15181335299E+04  0.46999998093E+01 0.  1.
</event>
<event>
 5   0  0.5758786E-04  0.9996674E+03  0.7818609E-02  0.9308910E-01
       -1   -1    0    0    0  501  0.00000000000E+00  0.00000000000E+00  0.11490057921E+04  0.11490057921E+04  0.50400001928E-02 0. -1.
        1   -1    0    0  501    0  0.00000000000E+00  0.00000000000E+00 -0.21743470532E+03  0.21743470538E+03  0.50400001928E-02 0.  1.
    10030    2    1    2    0    0  0.00000000000E+00  0.00000000000E+00  0.93157108674E+03  0.13664404975E+04  0.99966741641E+03 0.  0.
        3    1    3    3  502    0 -0.58388809197E+02 -0.10989920548E+03 -0.19591966196E+03  0.23210259057E+03  0.10100000352E+00 0.  1.
       -3    1    3    3    0  502  0.58388809197E+02  0.10989920548E+03  0.11274907487E+04  0.11343379069E+04  0.10100000352E+00 0. -1.
</event>
<event>
 5   0  0.5758786E-04  0.1001148E+04  0.7818609E-02  0.9307287E-01
        1   -1    0    0  501    0  0.00000000000E+00  0.00000000000E+00  0.26700599451E+03  0.26700599456E+03  0.50400001928E-02 0.  1.
       -1   -1    0    0    0  501  0.00000000000E+00  0.00000000000E+00 -0.93845939601E+03  0.93845939603E+03  0.50400001928E-02 0. -1.
    10030    2    1    2    0    0  0.00000000000E+00  0.00000000000E+00 -0.67145340150E+03  0.12054653906E+04  0.10011479099E+04 0.  0.
        3    1    3    3  502    0  0.18560132653E+03  0.58652976078E+02  0.21957142580E+03  0.29342741052E+03  0.10100000352E+00 0.  1.
       -3    1    3    3    0  502 -0.18560132653E+03 -0.58652976078E+02 -0.89102482730E+03  0.91203798007E+03  0.10100000352E+00 0. -1.
</event>
<event>
 5   0  0.5768102E-04  0.1000345E+04  0.7818609E-02  0.9308166E-01
        1   -1    0    0  501    0  0.00000000000E+00  0.00000000000E+00  0.12019304354E+04  0.12019304354E+04  0.50400001928E-02 0. -1.
       -1   -1    0    0    0  501  0.00000000000E+00  0.00000000000E+00 -0.20814226882E+03  0.20814226888E+03  0.50400001928E-02 0.  1.
    10030    2    1    2    0    0  0.00000000000E+00  0.00000000000E+00  0.99378816654E+03  0.14100727042E+04  0.10003449961E+04 0.  0.
        4    1    3    3  502    0 -0.36587786503E+02 -0.16087731743E+03  0.11624677921E+04  0.11741180341E+04  0.12699999809E+01 0. -1.
       -4    1    3    3    0  502  0.36587786503E+02  0.16087731743E+03 -0.16867962557E+03  0.23595467015E+03  0.12699999809E+01 0.  1.
</event>
<event>
 5   0  0.9741826E-04  0.1001234E+04  0.7818609E-02  0.9307193E-01
       -2   -1    0    0    0  501  0.00000000000E+00  0.00000000000E+00  0.10980687772E+04  0.10980687772E+04  0.25500000920E-02 0.  1.
        2   -1    0    0  501    0  0.00000000000E+00  0.00000000000E+00 -0.22823448653E+03  0.22823448654E+03  0.25500000920E-02 0. -1.
    10030    2    1    2    0    0  0.00000000000E+00  0.00000000000E+00  0.86983429063E+03  0.13263032637E+04  0.10012335662E+04 0.  0.
        3    1    3    3  502    0 -0.44357720865E+03 -0.13652352391E+03  0.68350973773E+03  0.82618701538E+03  0.10100000352E+00 0.  1.
       -3    1    3    3    0  502  0.44357720865E+03  0.13652352391E+03  0.18632455289E+03  0.50011624831E+03  0.10100000352E+00 0. -1.
</event>
<event>
 5   0  0.3854625E-04  0.1000065E+04  0.7818609E-02  0.9308474E-01
       -3   -1    0    0    0  501  0.00000000000E+00  0.00000000000E+00  0.11511248452E+04  0.11511248496E+04  0.10100000352E+00 0. -1.
        3   -1    0    0  501    0  0.00000000000E+00  0.00000000000E+00 -0.21720709101E+03  0.21720711450E+03  0.10100000352E+00 0.  1.
    10030    2    1    2    0    0  0.00000000000E+00  0.00000000000E+00  0.93391775419E+03  0.13683319641E+04  0.10000649941E+04 0.  0.
        2    1    3    3  502    0 -0.23503653370E+03 -0.58650656960E+02  0.10654779074E+04  0.10926688624E+04  0.25500000920E-02 0. -1.
       -2    1    3    3    0  502  0.23503653370E+03  0.58650656960E+02 -0.13156015320E+03  0.27566310172E+03  0.25500000920E-02 0.  1.
</event>
<event>
 5   0  0.9741826E-04  0.1001106E+04  0.7818609E-02  0.9307333E-01
       -2   -1    0    0    0  501  0.00000000000E+00  0.00000000000E+00  0.69647727178E+03  0.69647727178E+03  0.25500000920E-02 0.  1.
        2   -1    0    0  501    0  0.00000000000E+00  0.00000000000E+00 -0.35974337953E+03  0.35974337954E+03  0.25500000920E-02 0. -1.
    10030    2    1    2    0    0  0.00000000000E+00  0.00000000000E+00  0.33673389225E+03  0.10562206513E+04  0.10011055639E+04 0.  0.
        3    1    3    3  502    0 -0.32422832472E+02  0.44579282441E+03 -0.69361365475E+02  0.45232012069E+03  0.10100000352E+00 0. -1.
       -3    1    3    3    0  502  0.32422832472E+02 -0.44579282441E+03  0.40609525772E+03  0.60390053064E+03  0.10100000352E+00 0.  1.
</event>
<event>
 5   0  0.1020150E-03  0.9993708E+03  0.7818609E-02  0.9309235E-01
        2   -1    0    0  501    0  0.00000000000E+00  0.00000000000E+00  0.12051703553E+04  0.12051703553E+04  0.25500000920E-02 0. -1.
       -2   -1    0    0    0  501  0.00000000000E+00  0.00000000000E+00 -0.20717860288E+03  0.20717860290E+03  0.25500000920E-02 0.  1.
    10030    2    1    2    0    0  0.00000000000E+00  0.00000000000E+00  0.99799175244E+03  0.14123489582E+04  0.99937082299E+03 0.  0.
        5    1    3    3  502    0  0.33402983468E+03  0.26292199653E+03  0.87011423874E+03  0.96841354037E+03  0.46999998093E+01 0. -1.
       -5    1    3    3    0  502 -0.33402983468E+03 -0.26292199653E+03  0.12787751370E+03  0.44393541785E+03  0.46999998093E+01 0.  1.
</event>
<event>
 5   0  0.5888774E-04  0.9981501E+03  0.7818609E-02  0.9310576E-01
       -1   -1    0    0    0  501  0.00000000000E+00  0.00000000000E+00  0.87564798639E+03  0.87564798641E+03  0.50400001928E-02 0. -1.
        1   -1    0    0  501    0  0.00000000000E+00  0.00000000000E+00 -0.28444755418E+03  0.28444755422E+03  0.50400001928E-02 0.  1.
    10030    2    1    2    0    0  0.00000000000E+00  0.00000000000E+00  0.59120043221E+03  0.11600955406E+04  0.99815014519E+03 0.  0.
        2    1    3    3  502    0 -0.38161947917E+03  0.29495651068E+03  0.44463598006E+03  0.65599841833E+03  0.25500000920E-02 0. -1.
       -2    1    3    3    0  502  0.38161947917E+03 -0.29495651068E+03  0.14656445215E+03  0.50409712230E+03  0.25500000920E-02 0.  1.
</event>
<event>
 5   0  0.5768102E-04  0.9998594E+03  0.7818609E-02  0.9308699E-01
       -1   -1    0    0    0  501  0.00000000000E+00  0.00000000000E+00  0.14045501624E+03  0.14045501633E+03  0.50400001928E-02 0.  1.
        1   -1    0    0  501    0  0.00000000000E+00  0.00000000000E+00 -0.17794288161E+04  0.17794288161E+04  0.50400001928E-02 0. -1.
    10030    2    1    2    0    0  0.00000000000E+00  0.00000000000E+00 -0.16389737999E+04  0.19198838325E+04  0.99985939682E+03 0.  0.
        4    1    3    3  502    0  0.25451189385E+03 -0.17321045262E+02  0.60715423044E+01  0.25517601621E+03  0.12699999809E+01 0.  1.
       -4    1    3    3    0  502 -0.25451189385E+03  0.17321045262E+02 -0.16450453422E+04  0.16647078163E+04  0.12699999809E+01 0. -1.
</event>
<event>
 5   0  0.1006006E-03  0.9946275E+03  0.7818609E-02  0.9314457E-01
        2   -1    0    0  501    0  0.00000000000E+00  0.00000000000E+00  0.50374073481E+03  0.50374073481E+03  0.25500000920E-02 0. -1.
       -2   -1    0    0    0  501  0.00000000000E+00  0.00000000000E+00 -0.49096876817E+03  0.49096876818E+03  0.25500000920E-02 0.  1.
    10030    2    1    2    0    0  0.00000000000E+00  0.00000000000E+00  0.12771966633E+02  0.99470950299E+03  0.99462750425E+03 0.  0.
        2    1    3    3  502    0  0.44238318449E+03 -0.41141000265E+02  0.22984456213E+03  0.50022393642E+03  0.25500000920E-02 0. -1.
       -2    1    3    3    0  502 -0.44238318449E+03  0.41141000265E+02 -0.21707259550E+03  0.49448556657E+03  0.25500000920E-02 0.  1.
</event>
<event>
 5   0  0.9741826E-04  0.1001658E+04  0.7818609E-02  0.9306728E-01
       -2   -1    0    0    0  501  0.00000000000E+00  0.00000000000E+00  0.16261611093E+03  0.16261611095E+03  0.25500000920E-02 0. -1.
        2   -1    0    0  501    0  0.00000000000E+00  0.00000000000E+00 -0.15424664503E+04  0.15424664503E+04  0.25500000920E-02 0.  1.
    10030    2    1    2    0    0  0.00000000000E+00  0.00000000000E+00 -0.13798503393E+04  0.17050825612E+04  0.10016584156E+04 0.  0.
        3    1    3    3  502    0  0.26483401841E+03 -0.39298845346E+03 -0.96573798306E+03  0.10757447857E+04  0.10100000352E+00 0.  1.
       -3    1    3    3    0  502 -0.26483401841E+03  0.39298845346E+03 -0.41411235626E+03  0.62933777550E+03  0.10100000352E+00 0. -1.
</event>
<event>
 5   0  0.5826939E-04  0.1000217E+04  0.7818609E-02  0.9308307E-01
       -1   -1    0    0    0  501  0.00000000000E+00  0.00000000000E+00  0.19718649448E+03  0.19718649454E+03  0.50400001928E-02 0. -1.
        1   -1    0    0  501    0  0.00000000000E+00  0.00000000000E+00 -0.12683847334E+04  0.12683847334E+04  0.50400001928E-02 0.  1.
    10030    2    1    2    0    0  0.00000000000E+00  0.00000000000E+00 -0.10711982389E+04  0.14655712280E+04  0.10002166551E+04 0.  0.
        1    1    3    3  502    0  0.10464810521E+03  0.33501411303E+03 -0.13584787652E+02  0.35124098328E+03  0.50400001928E-02 0. -1.
       -1    1    3    3    0  502 -0.10464810521E+03 -0.33501411303E+03 -0.10576134513E+04  0.11143302447E+04  0.50400001928E-02 0.  1.
</event>
<event>
 5   0  0.1020150E-03  0.1000164E+04  0.7818609E-02  0.9308365E-01
        2   -1    0    0  501    0  0.00000000000E+00  0.00000000000E+00  0.21804989479E+04  0.21804989479E+04  0.25500000920E-02 0.  1.
       -2   -1    0    0    0  501  0.00000000000E+00  0.00000000000E+00 -0.11469032690E+03  0.11469032692E+03  0.25500000920E-02 0. -1.
    10030    2    1    2    0    0  0.00000000000E+00  0.00000000000E+00  0.20658086210E+04  0.22951892748E+04  0.10001642608E+04 0.  0.
        5    1    3    3  502    0 -0.64115771113E+02 -0.27870397310E+02 -0.10336954187E+03  0.12487971547E+03  0.46999998093E+01 0. -1.
       -5    1    3    3    0  502  0.64115771113E+02  0.27870397310E+02  0.21691781629E+04  0.21703095593E+04  0.46999998093E+01 0.  1.
</event>
<event>
 5   0  0.5768102E-04  0.1000495E+04  0.7818609E-02  0.9308002E-01
       -1   -1    0    0    0  501  0.00000000000E+00  0.00000000000E+00  0.46912004093E+03  0.46912004095E+03  0.50400001928E-02 0. -1.
        1   -1    0    0  501    0  0.00000000000E+00  0.00000000000E+00 -0.53344041004E+03  0.53344041006E+03  0.50400001928E-02 0.  1.
    10030    2    1    2    0    0  0.00000000000E+00  0.00000000000E+00 -0.64320369113E+02  0.10025604510E+04  0.10004950515E+04 0.  0.
        4    1    3    3  502    0  0.47099828314E+03 -0.68456613538E+01  0.13659093263E+03  0.49045381186E+03  0.12699999809E+01 0. -1.
       -4    1    3    3    0  502 -0.47099828314E+03  0.68456613538E+01 -0.20091130174E+03  0.51210663915E+03  0.12699999809E+01 0.  1.
</event>
<event>
 5   0  0.5960102E-04  0.1000781E+04  0.7818609E-02  0.9307688E-01
       -1   -1    0    0    0  501  0.00000000000E+00  0.00000000000E+00  0.45397126829E+03  0.45397126832E+03  0.50400001928E-02 0. -1.
        1   -1    0    0  501    0  0.00000000000E+00  0.00000000000E+00 -0.55155634137E+03  0.55155634139E+03  0.50400001928E-02 0.  1.
    10030    2    1    2    0    0  0.00000000000E+00  0.00000000000E+00 -0.97585073082E+02  0.10055276097E+04  0.10007811586E+04 0.  0.
        5    1    3    3  502    0 -0.46796751392E+03 -0.16347918984E+03 -0.11730392692E+03  0.50941274117E+03  0.46999998093E+01 0.  1.
       -5    1    3    3    0  502  0.46796751392E+03  0.16347918984E+03  0.19718853841E+02  0.49611486854E+03  0.46999998093E+01 0. -1.
</event>
<event>
 5   0  0.1006006E-03  0.9998307E+03  0.7818609E-02  0.9308730E-01
        2   -1    0    0  501    0  0.00000000000E+00  0.00000000000E+00  0.14220716845E+04  0.14220716845E+04  0.25500000920E-02 0. -1.
       -2   -1    0    0    0  501  0.00000000000E+00  0.00000000000E+00 -0.17574033986E+03  0.17574033988E+03  0.25500000920E-02 0.  1.
    10030    2    1    2    0    0  0.00000000000E+00  0.00000000000E+00  0.12463313446E+04  0.15978120244E+04  0.99983070799E+03 0.  0.
        2    1    3    3  502    0  0.10313332788E+03 -0.38519193296E+03  0.14133370070E+03  0.42306562552E+03  0.25500000920E-02 0.  1.
       -2    1    3    3    0  502 -0.10313332788E+03  0.38519193296E+03  0.11049976439E+04  0.11747463989E+04  0.25500000920E-02 0. -1.
</event>
<event>
 5   0  0.5826939E-04  0.1001109E+04  0.7818609E-02  0.9307329E-01
        1   -1    0    0  501    0  0.00000000000E+00  0.00000000000E+00  0.14476078338E+04  0.14476078338E+04  0.50400001928E-02 0. -1.
       -1   -1    0    0    0  501  0.00000000000E+00  0.00000000000E+00 -0.17308203016E+03  0.17308203023E+03  0.50400001928E-02 0.  1.
    10030    2    1    2    0    0  0.00000000000E+00  0.00000000000E+00  0.12745258036E+04  0.16206898640E+04  0.10011091905E+04 0.  0.
        1    1    3    3  502    0  0.72602708298E+02  0.37407277672E+03  0.11179940160E+03  0.39711547660E+03  0.50400001928E-02 0.  1.
       -1    1    3    3    0  502 -0.72602708298E+02 -0.37407277672E+03  0.11627264020E+04  0.12235743874E+04  0.50400001928E-02 0. -1.
</event>
<event>
 5   0  0.5888774E-04  0.9989859E+03  0.7818609E-02  0.9309658E-01
       -1   -1    0    0    0  501  0.00000000000E+00  0.00000000000E+00  0.13603271171E+03  0.13603271180E+03  0.50400001928E-02 0. -1.
        1   -1    0    0  501    0  0.00000000000E+00  0.00000000000E+00 -0.18340678272E+04  0.18340678272E+04  0.50400001928E-02 0.  1.
    10030    2    1    2    0    0  0.00000000000E+00  0.00000000000E+00 -0.16980351155E+04  0.19701005390E+04  0.99898592603E+03 0.  0.
        2    1    3    3  502    0  0.28824777881E+03 -0.21476062386E+03 -0.15329819857E+04  0.15745611058E+04  0.25500000920E-02 0.  1.
       -2    1    3    3    0  502 -0.28824777881E+03  0.21476062386E+03 -0.16505312984E+03  0.39553943322E+03  0.25500000920E-02 0. -1.
</event>
<event>
 5   0  0.1020150E-03  0.9993329E+03  0.7818609E-02  0.9309277E-01
       -2   -1    0    0    0  501  0.00000000000E+00  0.00000000000E+00  0.26671304328E+03  0.26671304329E+03  0.25500000920E-02 0.  1.
        2   -1    0    0  501    0  0.00000000000E+00  0.00000000000E+00 -0.93608685549E+03  0.93608685549E+03  0.25500000920E-02 0. -1.
    10030    2    1    2    0    0  0.00000000000E+00  0.00000000000E+00 -0.66937381221E+03  0.12027998988E+04  0.99933292552E+03 0.  0.
        5    1    3    3  502    0  0.96259257560E+02 -0.33207053189E+03 -0.76883195744E+03  0.84300732595E+03  0.46999998093E+01 0. -1.
       -5    1    3    3    0  502 -0.96259257560E+02  0.33207053189E+03  0.99458145227E+02  0.35979257284E+03  0.46999998093E+01 0.  1.
</event>
<event>
 5   0  0.9674819E-04  0.9911993E+03  0.7818609E-02  0.9318250E-01
       -2   -1    0    0    0  501  0.00000000000E+00  0.00000000000E+00  0.27008499510E+03  0.27008499511E+03  0.25500000920E-02 0. -1.
        2   -1    0    0  501    0  0.00000000000E+00  0.00000000000E+00 -0.90941378016E+03  0.90941378017E+03  0.25500000920E-02 0.  1.
    10030    2    1    2    0    0  0.00000000000E+00  0.00000000000E+00 -0.63932878507E+03  0.11794987753E+04  0.99119930663E+03 0.  0.
        4    1    3    3  502    0  0.40018560076E+03 -0.15656733726E+03 -0.61345855200E+03  0.74899589723E+03  0.12699999809E+01 0.  1.
       -4    1    3    3    0  502 -0.40018560076E+03  0.15656733726E+03 -0.25870233067E+02  0.43050287805E+03  0.12699999809E+01 0. -1.
</event>
<event>
 5   0  0.5888774E-04  0.1000385E+04  0.7818609E-02  0.9308123E-01
       -1   -1    0    0    0  501  0.00000000000E+00  0.00000000000E+00  0.15246994212E+03  0.15246994220E+03  0.50400001928E-02 0.  1.
        1   -1    0    0  501    0  0.00000000000E+00  0.00000000000E+00 -0.16409299203E+04  0.16409299203E+04  0.50400001928E-02 0. -1.
    10030    2    1    2    0    0  0.00000000000E+00  0.00000000000E+00 -0.14884599781E+04  0.17933998625E+04  0.10003849060E+04 0.  0.
        2    1    3    3  502    0  0.53096736569E+02 -0.19747324358E+03 -0.15625731550E+04  0.15758965100E+04  0.25500000920E-02 0. -1.
       -2    1    3    3    0  502 -0.53096736569E+02  0.19747324358E+03  0.74113176859E+02  0.21750335252E+03  0.25500000920E-02 0.  1.
</event>
<event>
 5   0  0.5758786E-04  0.1000566E+04  0.7818609E-02  0.9307924E-01
       -1   -1    0    0    0  501  0.00000000000E+00  0.00000000000E+00  0.11260169698E+04  0.11260169699E+04  0.50400001928E-02 0. -1.
        1   -1    0    0  501    0  0.00000000000E+00  0.00000000000E+00 -0.22227289364E+03  0.22227289370E+03  0.50400001928E-02 0.  1.
    10030    2    1    2    0    0  0.00000000000E+00  0.00000000000E+00  0.90374407621E+03  0.13482898636E+04  0.10005659403E+04 0.  0.
        3    1    3    3  502    0 -0.31142430299E+03 -0.16994822246E+03  0.92717976860E+03  0.99273854983E+03  0.10100000352E+00 0. -1.
       -3    1    3    3    0  502  0.31142430299E+03  0.16994822246E+03 -0.23435692396E+02  0.35555131372E+03  0.10100000352E+00 0.  1.
</event>
<event>
 5   0  0.5888774E-04  0.1001617E+04  0.7818609E-02  0.9306773E-01
       -1   -1    0    0    0  501  0.00000000000E+00  0.00000000000E+00  0.26062748535E+03  0.26062748540E+03  0.50400001928E-02 0.  1.
        1   -1    0    0  501    0  0.00000000000E+00  0.00000000000E+00 -0.96232823907E+03  0.96232823909E+03  0.50400001928E-02 0. -1.
    10030    2    1    2    0    0  0.00000000000E+00  0.00000000000E+00 -0.70170075372E+03  0.12229557245E+04  0.10016170707E+04 0.  0.
        2    1    3    3  502    0 -0.21508617909E+03  0.45055487770E+03 -0.39888054151E+03  0.63903634377E+03  0.25500000920E-02 0. -1.
       -2    1    3    3    0  502  0.21508617909E+03 -0.45055487770E+03 -0.30282021221E+03  0.58391938072E+03  0.25500000920E-02 0.  1.
</event>
<event>
 5   0  0.9741826E-04  0.9991583E+03  0.7818609E-02  0.9309468E-01
        2   -1    0    0  501    0  0.00000000000E+00  0.00000000000E+00  0.77125443674E+03  0.77125443675E+03  0.25500000920E-02 0.  1.
       -2   -1    0    0    0  501  0.00000000000E+00  0.00000000000E+00 -0.32360177472E+03  0.32360177473E+03  0.25500000920E-02 0. -1.
    10030    2    1    2    0    0  0.00000000000E+00  0.00000000000E+00  0.44765266203E+03  0.10948562115E+04  0.99915825473E+03 0.  0.
        3    1    3    3  502    0  0.48480536374E+03 -0.80526136769E+02  0.32219401989E+03  0.58764759513E+03  0.10100000352E+00 0. -1.
       -3    1    3    3    0  502 -0.48480536374E+03  0.80526136769E+02  0.12545864214E+03  0.50720861635E+03  0.10100000352E+00 0.  1.
</event>
<event>
 5   0  0.5960102E-04  0.9991644E+03  0.7818609E-02  0.9309462E-01
        1   -1    0    0  501    0  0.00000000000E+00  0.00000000000E+00  0.32669545340E+03  0.32669545344E+03  0.50400001928E-02 0.  1.
       -1   -1    0    0    0  501  0.00000000000E+00  0.00000000000E+00 -0.76396041996E+03  0.76396041998E+03  0.50400001928E-02 0. -1.
    10030    2    1    2    0    0  0.00000000000E+00  0.00000000000E+00 -0.43726496656E+03  0.10906558734E+04  0.99916444254E+03 0.  0.
        5    1    3    3  502    0  0.39068757172E+03  0.28583313414E+03 -0.83953405665E+02  0.49133249800E+03  0.46999998093E+01 0.  1.
       -5    1    3    3    0  502 -0.39068757172E+03 -0.28583313414E+03 -0.35331156089E+03  0.59932337542E+03  0.46999998093E+01 0. -1.
</event>
<event>
 5   0  0.5768102E-04  0.1002573E+04  0.7818609E-02  0.9305728E-01
        1   -1    0    0  501    0  0.00000000000E+00  0.00000000000E+00  0.12607014396E+04  0.12607014396E+04  0.50400001928E-02 0.  1.
       -1   -1    0    0    0  501  0.00000000000E+00  0.00000000000E+00 -0.19932389065E+03  0.19932389072E+03  0.50400001928E-02 0. -1.
    10030    2    1    2    0    0  0.00000000000E+00  0.00000000000E+00  0.10613775490E+04  0.14600253303E+04  0.10025725230E+04 0.  0.
        4    1    3    3  502    0  0.24838570772E+03  0.73184987232E+02 -0.94383775445E+02  0.27561097968E+03  0.12699999809E+01 0. -1.
       -4    1    3    3    0  502 -0.24838570772E+03 -0.73184987232E+02  0.11557613244E+04  0.11844143507E+04  0.12699999809E+01 0.  1.
</event>
<event>
 5   0  0.5758786E-04  0.9870726E+03  0.7818609E-02  0.9322838E-01
        1   -1    0    0  501    0  0.00000000000E+00  0.00000000000E+00  0.10028374221E+04  0.10028374221E+04  0.50400001928E-02 0. -1.
       -1   -1    0    0    0  501  0.00000000000E+00  0.00000000000E+00 -0.24288887821E+03  0.24288887826E+03  0.50400001928E-02 0.  1.
    10030    2    1    2    0    0  0.00000000000E+00  0.00000000000E+00  0.75994854392E+03  0.12457263004E+04  0.98707255362E+03 0.  0.
        3    1    3    3  502    0  0.16444233148E+03  0.31367968785E+03 -0.53811581493E+02  0.35823445319E+03  0.10100000352E+00 0.  1.
       -3    1    3    3    0  502 -0.16444233148E+03 -0.31367968785E+03  0.81376012541E+03  0.88749184721E+03  0.10100000352E+00 0. -1.
</event>
<event>
 5   0  0.1006749E-03  0.9992788E+03  0.7818609E-02  0.9309336E-01
        2   -1    0    0  501    0  0.00000000000E+00  0.00000000000E+00  0.79523370073E+03  0.79523370074E+03  0.25500000920E-02 0.  1.
       -2   -1    0    0    0  501  0.00000000000E+00  0.00000000000E+00 -0.31391973538E+03  0.31391973539E+03  0.25500000920E-02 0. -1.
    10030    2    1    2    0    0  0.00000000000E+00  0.00000000000E+00  0.48131396536E+03  0.11091534361E+04  0.99927884578E+03 0.  0.
        1    1    3    3  502    0  0.24051422662E+03 -0.10179530378E+03 -0.23212367010E+03  0.34941490427E+03  0.50400001928E-02 0. -1.
       -1    1    3    3    0  502 -0.24051422662E+03  0.10179530378E+03  0.71343763545E+03  0.75973853186E+03  0.50400001928E-02 0.  1.
</event>
<event>
 5   0  0.5826939E-04  0.9991907E+03  0.7818609E-02  0.9309433E-01
        1   -1    0    0  501    0  0.00000000000E+00  0.00000000000E+00  0.86120590949E+03  0.86120590951E+03  0.50400001928E-02 0.  1.
       -1   -1    0    0    0  501  0.00000000000E+00  0.00000000000E+00 -0.28982095982E+03  0.28982095987E+03  0.50400001928E-02 0. -1.
    10030    2    1    2    0    0  0.00000000000E+00  0.00000000000E+00  0.57138494967E+03  0.11510268694E+04  0.99919071919E+03 0.  0.
        1    1    3    3  502    0 -0.94452121884E+02  0.44249185670E+03  0.41663924377E+02  0.45437443721E+03  0.50400001928E-02 0. -1.
       -1    1    3    3    0  502  0.94452121884E+02 -0.44249185670E+03  0.52972102529E+03  0.69665243216E+03  0.50400001928E-02 0.  1.
</event>
<event>
 5   0  0.9741826E-04  0.1000201E+04  0.7818609E-02  0.9308325E-01
        2   -1    0    0  501    0  0.00000000000E+00  0.00000000000E+00  0.52912394252E+03  0.52912394253E+03  0.25500000920E-02 0.  1.
       -2   -1    0    0    0  501  0.00000000000E+00  0.00000000000E+00 -0.47266884234E+03  0.47266884235E+03  0.25500000920E-02 0. -1.
    10030    2    1    2    0    0  0.00000000000E+00  0.00000000000E+00  0.56455100178E+02  0.10017927849E+04  0.10002007826E+04 0.  0.
        3    1    3    3  502    0  0.21576014238E+03  0.61172701571E+02  0.47593550619E+03  0.52612655769E+03  0.10100000352E+00 0.  1.
       -3    1    3    3    0  502 -0.21576014238E+03 -0.61172701571E+02 -0.41948040601E+03  0.47566622718E+03  0.10100000352E+00 0. -1.
</event>
<event>
 5   0  0.9741826E-04  0.1000517E+04  0.7818609E-02  0.9307977E-01
       -2   -1    0    0    0  501  0.00000000000E+00  0.00000000000E+00  0.23555397455E+03  0.23555397457E+03  0.25500000920E-02 0. -1.
        2   -1    0    0  501    0  0.00000000000E+00  0.00000000000E+00 -0.10624264662E+04  0.10624264662E+04  0.25500000920E-02 0.  1.
    10030    2    1    2    0    0  0.00000000000E+00  0.00000000000E+00 -0.82687249166E+03  0.12979804408E+04  0.10005174197E+04 0.  0.
        3    1    3    3  502    0  0.41331819828E+03  0.28135030675E+03 -0.39216518282E+03  0.63543958718E+03  0.10100000352E+00 0. -1.
       -3    1    3    3    0  502 -0.41331819828E+03 -0.28135030675E+03 -0.43470730884E+03  0.66254085360E+03  0.10100000352E+00 0.  1.
</event>
<event>
 5   0  0.9674819E-04  0.9995251E+03  0.7818609E-02  0.9309066E-01
        2   -1    0    0  501    0  0.00000000000E+00  0.00000000000E+00  0.55091397602E+03  0.55091397602E+03  0.25500000920E-02 0.  1.
       -2   -1    0    0    0  501  0.00000000000E+00  0.00000000000E+00 -0.45336044721E+03  0.45336044722E+03  0.25500000920E-02 0. -1.
    10030    2    1    2    0    0  0.00000000000E+00  0.00000000000E+00  0.97553528804E+02  0.10042744232E+04  0.99952510034E+03 0.  0.
        4    1    3    3  502    0 -0.42553099141E+02 -0.46111673989E+03 -0.14005661097E+03  0.48379425506E+03  0.12699999809E+01 0. -1.
       -4    1    3    3    0  502  0.42553099141E+02  0.46111673989E+03  0.23761013978E+03  0.52048016819E+03  0.12699999809E+01 0.  1.
</event>
<event>
 5   0  0.5758786E-04  0.9979119E+03  0.7818609E-02  0.9310838E-01
       -1   -1    0    0    0  501  0.00000000000E+00  0.00000000000E+00  0.32631005602E+03  0.32631005606E+03  0.50400001928E-02 0. -1.
        1   -1    0    0  501    0  0.00000000000E+00  0.00000000000E+00 -0.76294625501E+03  0.76294625503E+03  0.50400001928E-02 0.  1.
    10030    2    1    2    0    0  0.00000000000E+00  0.00000000000E+00 -0.43663619899E+03  0.10892563111E+04  0.99791189039E+03 0.  0.
        3    1    3    3  502    0  0.11500731150E+03  0.25994480281E+03 -0.66592626529E+03  0.72405509681E+03  0.10100000352E+00 0.  1.
       -3    1    3    3    0  502 -0.11500731150E+03 -0.25994480281E+03  0.22929006630E+03  0.36520121428E+03  0.10100000352E+00 0. -1.
</event>
<event>
 5   0  0.9674819E-04  0.1004600E+04  0.7818609E-02  0.9303514E-01
        2   -1    0    0  501    0  0.00000000000E+00  0.00000000000E+00  0.70431586580E+03  0.70431586580E+03  0.25500000920E-02 0.  1.
       -2   -1    0    0    0  501  0.00000000000E+00  0.00000000000E+00 -0.35822712282E+03  0.35822712283E+03  0.25500000920E-02 0. -1.
    10030    2    1    2    0    0  0.00000000000E+00  0.00000000000E+00  0.34608874298E+03  0.10625429886E+04  0.10045995146E+04 0.  0.
        4    1    3    3  502    0 -0.99208321803E+02 -0.29226082568E+03  0.59219030768E+03  0.66779462019E+03  0.12699999809E+01 0.  1.
       -4    1    3    3    0  502  0.99208321803E+02  0.29226082568E+03 -0.24610156470E+03  0.39474836844E+03  0.12699999809E+01 0. -1.
</event>
<event>
 5   0  0.5960102E-04  0.9971059E+03  0.7818609E-02  0.9311725E-01
       -1   -1    0    0    0  501  0.00000000000E+00  0.00000000000E+00  0.26142369886E+03  0.26142369890E+03  0.50400001928E-02 0. -1.
        1   -1    0    0  501    0  0.00000000000E+00  0.00000000000E+00 -0.95077476063E+03  0.95077476065E+03  0.50400001928E-02 0.  1.
    10030    2    1    2    0    0  0.00000000000E+00  0.00000000000E+00 -0.68935106178E+03  0.12121984595E+04  0.99710592164E+03 0.  0.
        5    1    3    3  502    0  0.98719671673E+01 -0.48691338625E+03 -0.47419852611E+03  0.67975615746E+03  0.46999998093E+01 0.  1.
       -5    1    3    3    0  502 -0.98719671673E+01  0.48691338625E+03 -0.21515253567E+03  0.53244230209E+03  0.46999998093E+01 0. -1.
</event>
<event>
 5   0  0.1006749E-03  0.9996096E+03  0.7818609E-02  0.9308973E-01
        2   -1    0    0  501    0  0.00000000000E+00  0.00000000000E+00  0.15155606748E+04  0.15155606748E+04  0.25500000920E-02 0. -1.
       -2   -1    0    0    0  501  0.00000000000E+00  0.00000000000E+00 -0.16482669244E+03  0.16482669246E+03  0.25500000920E-02 0.  1.
    10030    2    1    2    0    0  0.00000000000E+00  0.00000000000E+00  0.13507339824E+04  0.16803873673E+04  0.99960963030E+03 0.  0.
        1    1    3    3  502    0  0.62176898560E+01 -0.49975619363E+03  0.67006690875E+03  0.83593335558E+03  0.50400001928E-02 0. -1.
       -1    1    3    3    0  502 -0.62176898560E+01  0.49975619363E+03  0.68066707363E+03  0.84445401171E+03  0.50400001928E-02 0.  1.
</event>
<event>
 5   0  0.5888774E-04  0.9991183E+03  0.7818609E-02  0.9309512E-01
       -1   -1    0    0    0  501  0.00000000000E+00  0.00000000000E+00  0.92378362416E+03  0.92378362418E+03  0.50400001928E-02 0.  1.
        1   -1    0    0  501    0  0.00000000000E+00  0.00000000000E+00 -0.27014912395E+03  0.27014912399E+03  0.50400001928E-02 0. -1.
    10030    2    1    2    0    0  0.00000000000E+00  0.00000000000E+00  0.65363450022E+03  0.11939327482E+04  0.99911828493E+03 0.  0.
        2    1    3    3  502    0  0.13148530043E+03  0.51011236041E+01 -0.24906816468E+03  0.28169017795E+03  0.25500000920E-02 0. -1.
       -2    1    3    3    0  502 -0.13148530043E+03 -0.51011236041E+01  0.90270266490E+03  0.91224257022E+03  0.25500000920E-02 0.  1.
</event>
<event>
 5   0  0.1020150E-03  0.9999732E+03  0.7818609E-02  0.9308574E-01
        2   -1    0    0  501    0  0.00000000000E+00  0.00000000000E+00  0.15920887501E+04  0.15920887501E+04  0.25500000920E-02 0.  1.
       -2   -1    0    0    0  501  0.00000000000E+00  0.00000000000E+00 -0.15701801406E+03  0.15701801408E+03  0.25500000920E-02 0. -1.
    10030    2    1    2    0    0  0.00000000000E+00  0.00000000000E+00  0.14350707360E+04  0.17491067641E+04  0.99997322717E+03 0.  0.
        5    1    3    3  502    0 -0.24812424183E+03  0.15328375053E+03  0.72347480518E+01  0.29178070385E+03  0.46999998093E+01 0. -1.
       -5    1    3    3    0  502  0.24812424183E+03 -0.15328375053E+03  0.14278359879E+04  0.14573260603E+04  0.46999998093E+01 0.  1.
</event>
<event>
 5   0  0.5758786E-04  0.1005800E+04  0.7818609E-02  0.9302206E-01
       -1   -1    0    0    0  501  0.00000000000E+00  0.00000000000E+00  0.13198766128E+03  0.13198766138E+03  0.50400001928E-02 0.  1.
        1   -1    0    0  501    0  0.00000000000E+00  0.00000000000E+00 -0.19161534028E+04  0.19161534028E+04  0.50400001928E-02 0. -1.
    10030    2    1    2    0    0  0.00000000000E+00  0.00000000000E+00 -0.17841657415E+04  0.20481410641E+04  0.10058003905E+04 0.  0.
        3    1    3    3  502    0 -0.10016428276E+03 -0.18962394859E+03  0.34208664151E+02  0.21716438088E+03  0.10100000352E+00 0.  1.
       -3    1    3    3    0  502  0.10016428276E+03  0.18962394859E+03 -0.18183744056E+04  0.18309766833E+04  0.10100000352E+00 0. -1.
</event>
<event>
 5   0  0.5758786E-04  0.9982278E+03  0.7818609E-02  0.9310491E-01
       -1   -1    0    0    0  501  0.00000000000E+00  0.00000000000E+00  0.86058378422E+03  0.86058378424E+03  0.50400001928E-02 0.  1.
        1   -1    0    0  501    0  0.00000000000E+00  0.00000000000E+00 -0.28947173841E+03  0.28947173845E+03  0.50400001928E-02 0. -1.
    10030    2    1    2    0    0  0.00000000000E+00  0.00000000000E+00  0.57111204582E+03  0.11500555227E+04  0.99822779784E+03 0.  0.
        3    1    3    3  502    0 -0.48442309172E+03  0.57598766393E+02  0.16400389549E+03  0.51466555900E+03  0.10100000352E+00 0. -1.
       -3    1    3    3    0  502  0.48442309172E+03 -0.57598766393E+02  0.40710815033E+03  0.63538996368E+03  0.10100000352E+00 0.  1.
</event>
<event>
 5   0  0.3854625E-04  0.9978727E+03  0.7818609E-02  0.9310881E-01
       -3   -1    0    0    0  501  0.00000000000E+00  0.00000000000E+00  0.40905641845E+03  0.40905643092E+03  0.10100000352E+00 0.  1.
        3   -1    0    0  501    0  0.00000000000E+00  0.00000000000E+00 -0.60856517756E+03  0.60856518594E+03  0.10100000352E+00 0. -1.
    10030    2    1    2    0    0  0.00000000000E+00  0.00000000000E+00 -0.19950875911E+03  0.10176216169E+04  0.99787274246E+03 0.  0.
        2    1    3    3  502    0 -0.95518232357E+02  0.44033118932E+03 -0.31829016888E+03  0.55165561777E+03  0.25500000920E-02 0. -1.
       -2    1    3    3    0  502  0.95518232357E+02 -0.44033118932E+03  0.11878140977E+03  0.46596599910E+03  0.25500000920E-02 0.  1.
</event>
<event>
 5   0  0.5826939E-04  0.9996347E+03  0.7818609E-02  0.9308946E-01
       -1   -1    0    0    0  501  0.00000000000E+00  0.00000000000E+00  0.27438186796E+03  0.27438186801E+03  0.50400001928E-02 0. -1.
        1   -1    0    0  501    0  0.00000000000E+00  0.00000000000E+00 -0.91047328500E+03  0.91047328501E+03  0.50400001928E-02 0.  1.
    10030    2    1    2    0    0  0.00000000000E+00  0.00000000000E+00 -0.63609141703E+03  0.11848551530E+04  0.99963465467E+03 0.  0.
        1    1    3    3  502    0  0.30835767863E+03 -0.29400354070E+03 -0.82910526443E+01  0.42613528544E+03  0.50400001928E-02 0.  1.
       -1    1    3    3    0  502 -0.30835767863E+03  0.29400354070E+03 -0.62780036439E+03  0.75871986759E+03  0.50400001928E-02 0. -1.
</event>
<event>
 5   0  0.5888774E-04  0.1002349E+04  0.7818609E-02  0.9305973E-01
       -1   -1    0    0    0  501  0.00000000000E+00  0.00000000000E+00  0.15736245389E+03  0.15736245397E+03  0.50400001928E-02 0. -1.
        1   -1    0    0  501    0  0.00000000000E+00  0.00000000000E+00 -0.15961599943E+04  0.15961599943E+04  0.50400001928E-02 0.  1.
    10030    2    1    2    0    0  0.00000000000E+00  0.00000000000E+00 -0.14387975404E+04  0.17535224482E+04  0.10023485493E+04 0.  0.
        2    1    3    3  502    0  0.29478397540E+03 -0.89630118573E+01 -0.10513205505E+02  0.29510753164E+03  0.25500000920E-02 0. -1.
       -2    1    3    3    0  502 -0.29478397540E+03  0.89630118573E+01 -0.14282843349E+04  0.14584149166E+04  0.25500000920E-02 0.  1.
</event>
<event>
 5   0  0.5960102E-04  0.9982727E+03  0.7818609E-02  0.9310441E-01
       -1   -1    0    0    0  501  0.00000000000E+00  0.00000000000E+00  0.43608706045E+03  0.43608706048E+03  0.50400001928E-02 0. -1.
        1   -1    0    0  501    0  0.00000000000E+00  0.00000000000E+00 -0.57130131143E+03  0.57130131146E+03  0.50400001928E-02 0.  1.
    10030    2    1    2    0    0  0.00000000000E+00  0.00000000000E+00 -0.13521425098E+03  0.10073883719E+04  0.99827272739E+03 0.  0.
        5    1    3    3  502    0  0.36150072496E+03  0.17248384562E+03  0.23290666736E+03  0.46335845395E+03  0.46999998093E+01 0. -1.
       -5    1    3    3    0  502 -0.36150072496E+03 -0.17248384562E+03 -0.36812091834E+03  0.54402991799E+03  0.46999998093E+01 0.  1.
</event>
<event>
 5   0  0.1020150E-03  0.1000368E+04  0.7818609E-02  0.9308141E-01
       -2   -1    0    0    0  501  0.00000000000E+00  0.00000000000E+00  0.33605266160E+03  0.33605266161E+03  0.25500000920E-02 0. -1.
        2   -1    0    0  501    0  0.00000000000E+00  0.00000000000E+00 -0.74447894930E+03  0.74447894930E+03  0.25500000920E-02 0.  1.
    10030    2    1    2    0    0  0.00000000000E+00  0.00000000000E+00 -0.40842628769E+03  0.10805316109E+04  0.10003681971E+04 0.  0.
        5    1    3    3  502    0 -0.41559983028E+02 -0.14883689450E+03 -0.71802364711E+03  0.73447920404E+03  0.46999998093E+01 0.  1.
       -5    1    3    3    0  502  0.41559983028E+02  0.14883689450E+03  0.30959735942E+03  0.34605240688E+03  0.46999998093E+01 0. -1.
</event>
<event>
 5   0  0.5960102E-04  0.9987623E+03  0.7818609E-02  0.9309903E-01
        1   -1    0    0  501    0  0.00000000000E+00  0.00000000000E+00  0.29292369979E+03  0.29292369984E+03  0.50400001928E-02 0.  1.
       -1   -1    0    0    0  501  0.00000000000E+00  0.00000000000E+00 -0.85135324326E+03  0.85135324328E+03  0.50400001928E-02 0. -1.
    10030    2    1    2    0    0  0.00000000000E+00  0.00000000000E+00 -0.55842954347E+03  0.11442769431E+04  0.99876231783E+03 0.  0.
        5    1    3    3  502    0  0.75005071616E+02 -0.28669228816E+03 -0.73969467588E+03  0.79686167707E+03  0.46999998093E+01 0. -1.
       -5    1    3    3    0  502 -0.75005071616E+02  0.28669228816E+03  0.18126513240E+03  0.34741526605E+03  0.46999998093E+01 0.  1.
</event>
<event>
 5   0  0.1006749E-03  0.9991675E+03  0.7818609E-02  0.9309458E-01
       -2   -1    0    0    0  501  0.00000000000E+00  0.00000000000E+00  0.14558465796E+03  0.14558465799E+03  0.25500000920E-02 0.  1.
        2   -1    0    0  501    0  0.00000000000E+00  0.00000000000E+00 -0.17143560025E+04  0.17143560025E+04  0.25500000920E-02 0. -1.
    10030    2    1    2    0    0  0.00000000000E+00  0.00000000000E+00 -0.15687713445E+04  0.18599406605E+04  0.99916751803E+03 0.  0.
        1    1    3    3  502    0 -0.26608158565E+03  0.33326328403E+03 -0.12688029165E+04  0.13385531994E+04  0.50400001928E-02 0. -1.
       -1    1    3    3    0  502  0.26608158565E+03 -0.33326328403E+03 -0.29996842799E+03  0.52138746103E+03  0.50400001928E-02 0.  1.
</event>
<event>
 5   0  0.5826939E-04  0.1001047E+04  0.7818609E-02  0.9307398E-01
       -1   -1    0    0    0  501  0.00000000000E+00  0.00000000000E+00  0.23939005381E+03  0.23939005387E+03  0.50400001928E-02 0. -1.
        1   -1    0    0  501    0  0.00000000000E+00  0.00000000000E+00 -0.10465077672E+04  0.10465077672E+04  0.50400001928E-02 0.  1.
    10030    2    1    2    0    0  0.00000000000E+00  0.00000000000E+00 -0.80711771336E+03  0.12858978210E+04  0.10010465538E+04 0.  0.
        1    1    3    3  502    0 -0.21800068787E+02  0.26261686318E+03  0.14306459088E+03  0.29985052445E+03  0.50400001928E-02 0. -1.
       -1    1    3    3    0  502  0.21800068787E+02 -0.26261686318E+03 -0.95018230424E+03  0.98604729660E+03  0.50400001928E-02 0.  1.
</event>
<event>
 5   0  0.9674819E-04  0.9997959E+03  0.7818609E-02  0.9308769E-01
        2   -1    0    0  501    0  0.00000000000E+00  0.00000000000E+00  0.52740816014E+03  0.52740816015E+03  0.25500000920E-02 0. -1.
       -2   -1    0    0    0  501  0.00000000000E+00  0.00000000000E+00 -0.47382267520E+03  0.47382267521E+03  0.25500000920E-02 0.  1.
    10030    2    1    2    0    0  0.00000000000E+00  0.00000000000E+00  0.53585484938E+02  0.10012308354E+04  0.99979586990E+03 0.  0.
        4    1    3    3  502    0 -0.35284081569E+03  0.33485846544E+03 -0.88565902760E+02  0.49444146785E+03  0.12699999809E+01 0.  1.
       -4    1    3    3    0  502  0.35284081569E+03 -0.33485846544E+03  0.14215138770E+03  0.50678936751E+03  0.12699999809E+01 0. -1.
</event>
<event>
 5   0  0.9741826E-04  0.9996005E+03  0.7818609E-02  0.9308983E-01
       -2   -1    0    0    0  501  0.00000000000E+00  0.00000000000E+00  0.20937336854E+03  0.20937336856E+03  0.25500000920E-02 0. -1.
        2   -1    0    0  501    0  0.00000000000E+00  0.00000000000E+00 -0.11930853079E+04  0.11930853079E+04  0.25500000920E-02 0.  1.
    10030    2    1    2    0    0  0.00000000000E+00  0.00000000000E+00 -0.98371193932E+03  0.14024586764E+04  0.99960049996E+03 0.  0.
        3    1    3    3  502    0 -0.42796749676E+02  0.13683862211E+03 -0.11636134511E+04  0.11724131713E+04  0.10100000352E+00 0.  1.
       -3    1    3    3    0  502  0.42796749676E+02 -0.13683862211E+03  0.17990151182E+03  0.23004550515E+03  0.10100000352E+00 0. -1.
</event>
<event>
 5   0  0.5758786E-04  0.1006041E+04  0.7818609E-02  0.9301944E-01
        1   -1    0    0  501    0  0.00000000000E+00  0.00000000000E+00  0.71614495450E+03  0.71614495452E+03  0.50400001928E-02 0. -1.
       -1   -1    0    0    0  501  0.00000000000E+00  0.00000000000E+00 -0.35332200753E+03  0.35332200757E+03  0.50400001928E-02 0.  1.
    10030    2    1    2    0    0  0.00000000000E+00  0.00000000000E+00  0.36282294697E+03  0.10694669621E+04  0.10060412974E+04 0.  0.
        3    1    3    3  502    0  0.29663755120E+03  0.26599857151E+02  0.61234257832E+03  0.68092938885E+03  0.10100000352E+00 0. -1.
       -3    1    3    3    0  502 -0.29663755120E+03 -0.26599857151E+02 -0.24951963135E+03  0.38853757323E+03  0.10100000352E+00 0.  1.
</event>
<event>
 5   0  0.5960102E-04  0.1000526E+04  0.7818609E-02  0.9307968E-01
       -1   -1    0    0    0  501  0.00000000000E+00  0.00000000000E+00  0.19848315152E+03  0.19848315159E+03  0.50400001928E-02 0. -1.
        1   -1    0    0  501    0  0.00000000000E+00  0.00000000000E+00 -0.12608772279E+04  0.12608772279E+04  0.50400001928E-02 0.  1.
    10030    2    1    2    0    0  0.00000000000E+00  0.00000000000E+00 -0.10623940764E+04  0.14593603795E+04  0.10005256337E+04 0.  0.
        5    1    3    3  502    0  0.36226889824E+03 -0.27587382455E+02 -0.10327517762E+04  0.10948050692E+04  0.46999998093E+01 0.  1.
       -5    1    3    3    0  502 -0.36226889824E+03  0.27587382455E+02 -0.29642300177E+02  0.36455531029E+03  0.46999998093E+01 0. -1.
</event>
<event>
 5   0  0.3854625E-04  0.9964593E+03  0.7818609E-02  0.9312437E-01
       -3   -1    0    0    0  501  0.00000000000E+00  0.00000000000E+00  0.21005479548E+03  0.21005481977E+03  0.10100000352E+00 0. -1.
        3   -1    0    0  501    0  0.00000000000E+00  0.00000000000E+00 -0.11817525180E+04  0.11817525223E+04  0.10100000352E+00 0.  1.
    10030    2    1    2    0    0  0.00000000000E+00  0.00000000000E+00 -0.97169772251E+03  0.13918073421E+04  0.99645933862E+03 0.  0.
        1    1    3    3  502    0  0.29717788949E+03 -0.36245496186E+03 -0.72183190967E+03  0.86065649549E+03  0.50400001928E-02 0.  1.
       -1    1    3    3    0  502 -0.29717788949E+03  0.36245496186E+03 -0.24986581284E+03  0.53115084659E+03  0.50400001928E-02 0. -1.
</event>
<event>
 5   0  0.5888774E-04  0.9989278E+03  0.7818609E-02  0.9309722E-01
       -1   -1    0    0    0  501  0.00000000000E+00  0.00000000000E+00  0.10442741535E+04  0.10442741535E+04  0.50400001928E-02 0.  1.
        1   -1    0    0  501    0  0.00000000000E+00  0.00000000000E+00 -0.23888762475E+03  0.23888762481E+03  0.50400001928E-02 0. -1.
    10030    2    1    2    0    0  0.00000000000E+00  0.00000000000E+00  0.80538652877E+03  0.12831617783E+04  0.99892776950E+03 0.  0.
        2    1    3    3  502    0 -0.17900974474E+03  0.29729648152E+03  0.86411731323E+03  0.93119730330E+03  0.25500000920E-02 0. -1.
       -2    1    3    3    0  502  0.17900974474E+03 -0.29729648152E+03 -0.58730784467E+02  0.35196447504E+03  0.25500000920E-02 0.  1.
</event>
<event>
 5   0  0.9741826E-04  0.9973111E+03  0.7818609E-02  0.9311499E-01
        2   -1    0    0  501    0  0.00000000000E+00  0.00000000000E+00  0.61601257817E+03  0.61601257817E+03  0.25500000920E-02 0. -1.
       -2   -1    0    0    0  501  0.00000000000E+00  0.00000000000E+00 -0.40365626435E+03  0.40365626435E+03  0.25500000920E-02 0.  1.
    10030    2    1    2    0    0  0.00000000000E+00  0.00000000000E+00  0.21235631382E+03  0.10196688425E+04  0.99731105699E+03 0.  0.
        3    1    3    3  502    0  0.27128366928E+03 -0.12190483256E+03  0.51540309028E+03  0.59505963827E+03  0.10100000352E+00 0. -1.
       -3    1    3    3    0  502 -0.27128366928E+03  0.12190483256E+03 -0.30304677646E+03  0.42460920426E+03  0.10100000352E+00 0.  1.
</event>
<event>
 5   0  0.1006006E-03  0.9995023E+03  0.7818609E-02  0.9309091E-01
       -2   -1    0    0    0  501  0.00000000000E+00  0.00000000000E+00  0.21452387862E+03  0.21452387863E+03  0.25500000920E-02 0.  1.
        2   -1    0    0  501    0  0.00000000000E+00  0.00000000000E+00 -0.11642116926E+04  0.11642116926E+04  0.25500000920E-02 0. -1.
    10030    2    1    2    0    0  0.00000000000E+00  0.00000000000E+00 -0.94968781400E+03  0.13787355713E+04  0.99950229183E+03 0.  0.
        2    1    3    3  502    0 -0.33003082394E+03  0.37297269270E+03 -0.41759816177E+03  0.64993630378E+03  0.25500000920E-02 0. -1.
       -2    1    3    3    0  502  0.33003082394E+03 -0.37297269270E+03 -0.53208965223E+03  0.72879926747E+03  0.25500000920E-02 0.  1.
</event>
<event>
 5   0  0.9741826E-04  0.1003020E+04  0.7818609E-02  0.9305239E-01
       -2   -1    0    0    0  501  0.00000000000E+00  0.00000000000E+00  0.10985949424E+03  0.10985949427E+03  0.25500000920E-02 0.  1.
        2   -1    0    0  501    0  0.00000000000E+00  0.00000000000E+00 -0.22893976860E+04  0.22893976860E+04  0.25500000920E-02 0. -1.
    10030    2    1    2    0    0  0.00000000000E+00  0.00000000000E+00 -0.21795381918E+04  0.23992571803E+04  0.10030195849E+04 0.  0.
        3    1    3    3  502    0 -0.11403126457E+02  0.31207914275E+03 -0.15110170569E+03  0.34692240962E+03  0.10100000352E+00 0.  1.
       -3    1    3    3    0  502  0.11403126457E+02 -0.31207914275E+03 -0.20284364861E+04  0.20523347707E+04  0.10100000352E+00 0. -1.
</event>
<event>
 5   0  0.1006006E-03  0.9999729E+03  0.7818609E-02  0.9308575E-01
        2   -1    0    0  501    0  0.00000000000E+00  0.00000000000E+00  0.44904510769E+03  0.44904510770E+03  0.25500000920E-02 0.  1.
       -2   -1    0    0    0  501  0.00000000000E+00  0.00000000000E+00 -0.55670673258E+03  0.55670673259E+03  0.25500000920E-02 0. -1.
    10030    2    1    2    0    0  0.00000000000E+00  0.00000000000E+00 -0.10766162489E+03  0.10057518403E+04  0.99997286902E+03 0.  0.
        2    1    3    3  502    0  0.25673245640E+03  0.10636670576E+03 -0.47187816657E+03  0.54762618122E+03  0.25500000920E-02 0. -1.
       -2    1    3    3    0  502 -0.25673245640E+03 -0.10636670576E+03  0.36421654168E+03  0.45812565908E+03  0.25500000920E-02 0.  1.
</event>
<event>
 5   0  0.9741826E-04  0.1000483E+04  0.7818609E-02  0.9308015E-01
        2   -1    0    0  501    0  0.00000000000E+00  0.00000000000E+00  0.52844276727E+03  0.52844276728E+03  0.25500000920E-02 0. -1.
       -2   -1    0    0    0  501  0.00000000000E+00  0.00000000000E+00 -0.47354517392E+03  0.47354517392E+03  0.25500000920E-02 0.  1.
    10030    2    1    2    0    0  0.00000000000E+00  0.00000000000E+00  0.54897593354E+02  0.10019879412E+04  0.10004829277E+04 0.  0.
        3    1    3    3  502    0  0.28939193338E+03 -0.29534091764E+03  0.30941727881E+03  0.51644265060E+03  0.10100000352E+00 0. -1.
       -3    1    3    3    0  502 -0.28939193338E+03  0.29534091764E+03 -0.25451968545E+03  0.48554529060E+03  0.10100000352E+00 0.  1.
</event>
<event>
 5   0  0.1020150E-03  0.1001709E+04  0.7818609E-02  0.9306673E-01
        2   -1    0    0  501    0  0.00000000000E+00  0.00000000000E+00  0.83900877287E+03  0.83900877287E+03  0.25500000920E-02 0. -1.
       -2   -1    0    0    0  501  0.00000000000E+00  0.00000000000E+00 -0.29898971794E+03  0.29898971795E+03  0.25500000920E-02 0.  1.
    10030    2    1    2    0    0  0.00000000000E+00  0.00000000000E+00  0.54001905493E+03  0.11379984908E+04  0.10017085332E+04 0.  0.
        5    1    3    3  502    0  0.72019441273E+02 -0.45440324580E+03  0.49483354599E+03  0.67568590184E+03  0.46999998093E+01 0. -1.
       -5    1    3    3    0  502 -0.72019441273E+02  0.45440324580E+03  0.45185508933E+02  0.46231258898E+03  0.46999998093E+01 0.  1.
</event>
<event>
 5   0  0.9674819E-04  0.1000146E+04  0.7818609E-02  0.9308385E-01
       -2   -1    0    0    0  501  0.00000000000E+00  0.00000000000E+00  0.25196100945E+03  0.25196100947E+03  0.25500000920E-02 0. -1.
        2   -1    0    0  501    0  0.00000000000E+00  0.00000000000E+00 -0.99250582063E+03  0.99250582064E+03  0.25500000920E-02 0.  1.
    10030    2    1    2    0    0  0.00000000000E+00  0.00000000000E+00 -0.74054481118E+03  0.12444668301E+04  0.10001455263E+04 0.  0.
        4    1    3    3  502    0 -0.37056257590E+03 -0.23583052931E+03 -0.72842574234E+02  0.44524186094E+03  0.12699999809E+01 0.  1.
       -4    1    3    3    0  502  0.37056257590E+03  0.23583052931E+03 -0.66770223695E+03  0.79922496916E+03  0.12699999809E+01 0. -1.
</event>
<event>
 5   0  0.9674819E-04  0.1001536E+04  0.7818609E-02  0.9306861E-01
        2   -1    0    0  501    0  0.00000000000E+00  0.00000000000E+00  0.53894094929E+03  0.53894094930E+03  0.25500000920E-02 0.  1.
       -2   -1    0    0    0  501  0.00000000000E+00  0.00000000000E+00 -0.46529923853E+03  0.46529923854E+03  0.25500000920E-02 0. -1.
    10030    2    1    2    0    0  0.00000000000E+00  0.00000000000E+00  0.73641710761E+02  0.10042401878E+04  0.10015364463E+04 0.  0.
        4    1    3    3  502    0 -0.38278463286E+03  0.87079279172E+02 -0.27492089041E+03  0.47925983026E+03  0.12699999809E+01 0. -1.
       -4    1    3    3    0  502  0.38278463286E+03 -0.87079279172E+02  0.34856260117E+03  0.52498035758E+03  0.12699999809E+01 0.  1.
</event>
<event>
 5   0  0.5826939E-04  0.9982899E+03  0.7818609E-02  0.9310422E-01
        1   -1    0    0  501    0  0.00000000000E+00  0.00000000000E+00  0.33515546016E+03  0.33515546019E+03  0.50400001928E-02 0.  1.
       -1   -1    0    0    0  501  0.00000000000E+00  0.00000000000E+00 -0.74337348683E+03  0.74337348684E+03  0.50400001928E-02 0. -1.
    10030    2    1    2    0    0  0.00000000000E+00  0.00000000000E+00 -0.40821802667E+03  0.10785289470E+04  0.99828990394E+03 0.  0.
        1    1    3    3  502    0 -0.22258045010E+03 -0.37473323412E+03  0.58710482924E+02  0.43978855641E+03  0.50400001928E-02 0.  1.
       -1    1    3    3    0  502  0.22258045010E+03  0.37473323412E+03 -0.46692850959E+03  0.63874039063E+03  0.50400001928E-02 0. -1.
</event>
<event>
 5   0  0.1006006E-03  0.1001101E+04  0.7818609E-02  0.9307338E-01
        2   -1    0    0  501    0  0.00000000000E+00  0.00000000000E+00  0.43700498506E+03  0.43700498506E+03  0.25500000920E-02 0. -1.
       -2   -1    0    0    0  501  0.00000000000E+00  0.00000000000E+00 -0.57333634176E+03  0.57333634177E+03  0.25500000920E-02 0.  1.
    10030    2    1    2    0    0  0.00000000000E+00  0.00000000000E+00 -0.13633135671E+03  0.10103413268E+04  0.10011010728E+04 0.  0.
        2    1    3    3  502    0  0.28390715606E+02  0.15286639240E+03 -0.54834784533E+03  0.56996449551E+03  0.25500000920E-02 0.  1.
       -2    1    3    3    0  502 -0.28390715606E+02 -0.15286639240E+03  0.41201648863E+03  0.44037683132E+03  0.25500000920E-02 0. -1.
</event>
<event>
 5   0  0.5960102E-04  0.1005333E+04  0.7818609E-02  0.9302715E-01
        1   -1    0    0  501    0  0.00000000000E+00  0.00000000000E+00  0.15800121273E+03  0.15800121281E+03  0.50400001928E-02 0. -1.
       -1   -1    0    0    0  501  0.00000000000E+00  0.00000000000E+00 -0.15991873696E+04  0.15991873696E+04  0.50400001928E-02 0.  1.
    10030    2    1    2    0    0  0.00000000000E+00  0.00000000000E+00 -0.14411861569E+04  0.17571885825E+04  0.10053328680E+04 0.  0.
        5    1    3    3  502    0 -0.25540003902E+03 -0.52686672273E+02  0.30474301192E+02  0.26259443711E+03  0.46999998093E+01 0. -1.
       -5    1    3    3    0  502  0.25540003902E+03  0.52686672273E+02 -0.14716604581E+04  0.14945941453E+04  0.46999998093E+01 0.  1.
</event>
<event>
 5   0  0.5768102E-04  0.9989826E+03  0.7818609E-02  0.9309661E-01
       -1   -1    0    0    0  501  0.00000000000E+00  0.00000000000E+00  0.45771633655E+03  0.45771633658E+03  0.50400001928E-02 0. -1.
        1   -1    0    0  501    0  0.00000000000E+00  0.00000000000E+00 -0.54507903672E+03  0.54507903674E+03  0.50400001928E-02 0.  1.
    10030    2    1    2    0    0  0.00000000000E+00  0.00000000000E+00 -0.87362700164E+02  0.10027953733E+04  0.99898264218E+03 0.  0.
        4    1    3    3  502    0  0.15903777825E+03  0.39859873860E+03 -0.30022670855E+03  0.52374770525E+03  0.12699999809E+01 0.  1.
       -4    1    3    3    0  502 -0.15903777825E+03 -0.39859873860E+03  0.21286400839E+03  0.47904766808E+03  0.12699999809E+01 0. -1.
</event>
<event>
 5   0  0.5960102E-04  0.1002474E+04  0.7818609E-02  0.9305836E-01
       -1   -1    0    0    0  501  0.00000000000E+00  0.00000000000E+00  0.28456686050E+03  0.28456686054E+03  0.50400001928E-02 0.  1.
        1   -1    0    0  501    0  0.00000000000E+00  0.00000000000E+00 -0.88288028958E+03  0.88288028959E+03  0.50400001928E-02 0. -1.
    10030    2    1    2    0    0  0.00000000000E+00  0.00000000000E+00 -0.59831342908E+03  0.11674471501E+04  0.10024738844E+04 0.  0.
        5    1    3    3  502    0  0.43781902542E+03 -0.15775062823E+03 -0.82392120710E+02  0.47263232145E+03  0.46999998093E+01 0.  1.
       -5    1    3    3    0  502 -0.43781902542E+03  0.15775062823E+03 -0.51592130837E+03  0.69481482868E+03  0.46999998093E+01 0. -1.
</event>
<event>
 5   0  0.1006749E-03  0.1000440E+04  0.7818609E-02  0.9308063E-01
        2   -1    0    0  501    0  0.00000000000E+00  0.00000000000E+00  0.16866837696E+03  0.16866837698E+03  0.25500000920E-02 0. -1.
       -2   -1    0    0    0  501  0.00000000000E+00  0.00000000000E+00 -0.14835018901E+04  0.14835018901E+04  0.25500000920E-02 0.  1.
    10030    2    1    2    0    0  0.00000000000E+00  0.00000000000E+00 -0.13148335131E+04  0.16521702671E+04  0.10004396155E+04 0.  0.
        1    1    3    3  502    0 -0.59029105291E+02 -0.46305795794E+03 -0.95427620125E+03  0.10623324225E+04  0.50400001928E-02 0.  1.
       -1    1    3    3    0  502  0.59029105291E+02  0.46305795794E+03 -0.36055731189E+03  0.58983784455E+03  0.50400001928E-02 0. -1.
</event>
<event>
 5   0  0.9741826E-04  0.1000166E+04  0.7818609E-02  0.9308363E-01
       -2   -1    0    0    0  501  0.00000000000E+00  0.00000000000E+00  0.20508670616E+03  0.20508670618E+03  0.25500000920E-02 0. -1.
        2   -1    0    0  501    0  0.00000000000E+00  0.00000000000E+00 -0.12194013575E+04  0.12194013575E+04  0.25500000920E-02 0.  1.
    10030    2    1    2    0    0  0.00000000000E+00  0.00000000000E+00 -0.10143146513E+04  0.14244880637E+04  0.10001660021E+04 0.  0.
        3    1    3    3  502    0  0.25919507622E+03  0.19563617169E+03 -0.10487989276E+04  0.10979229481E+04  0.10100000352E+00 0.  1.
       -3    1    3    3    0  502 -0.25919507622E+03 -0.19563617169E+03  0.34484276257E+02  0.32656511560E+03  0.10100000352E+00 0. -1.
</event>
<event>
 5   0  0.1020150E-03  0.1000571E+04  0.7818609E-02  0.9307919E-01
       -2   -1    0    0    0  501  0.00000000000E+00  0.00000000000E+00  0.11252894115E+04  0.11252894115E+04  0.25500000920E-02 0. -1.
        2   -1    0    0  501    0  0.00000000000E+00  0.00000000000E+00 -0.22241871804E+03  0.22241871805E+03  0.25500000920E-02 0.  1.
    10030    2    1    2    0    0  0.00000000000E+00  0.00000000000E+00  0.90287069347E+03  0.13477081296E+04  0.10005706938E+04 0.  0.
        5    1    3    3  502    0 -0.24492578803E+03 -0.35493501066E+03  0.10989698593E+03  0.44504712217E+03  0.46999998093E+01 0. -1.
       -5    1    3    3    0  502  0.24492578803E+03  0.35493501066E+03  0.79297370753E+03  0.90266100740E+03  0.46999998093E+01 0.  1.
</event>
<event>
 5   0  0.5960102E-04  0.1000578E+04  0.7818609E-02  0.9307911E-01
       -1   -1    0    0    0  501  0.00000000000E+00  0.00000000000E+00  0.23247516937E+03  0.23247516942E+03  0.50400001928E-02 0. -1.
        1   -1    0    0  501    0  0.00000000000E+00  0.00000000000E+00 -0.10766264946E+04  0.10766264946E+04  0.50400001928E-02 0.  1.
    10030    2    1    2    0    0  0.00000000000E+00  0.00000000000E+00 -0.84415132520E+03  0.13091016640E+04  0.10005776866E+04 0.  0.
        5    1    3    3  502    0  0.22224891176E+03 -0.41031544312E+03 -0.65799002952E+03  0.80667608778E+03  0.46999998093E+01 0.  1.
       -5    1    3    3    0  502 -0.22224891176E+03  0.41031544312E+03 -0.18616129569E+03  0.50242557623E+03  0.46999998093E+01 0. -1.
</event>
<event>
 5   0  0.9741826E-04  0.9975987E+03  0.7818609E-02  0.9311182E-01
        2   -1    0    0  501    0  0.00000000000E+00  0.00000000000E+00  0.67705459569E+03  0.67705459569E+03  0.25500000920E-02 0. -1.
       -2   -1    0    0    0  501  0.00000000000E+00  0.00000000000E+00 -0.36747525617E+03  0.36747525618E+03  0.25500000920E-02 0.  1.
    10030    2    1    2    0    0  0.00000000000E+00  0.00000000000E+00  0.30957933952E+03  0.10445298519E+04  0.99759873897E+03 0.  0.
        3    1    3    3  502    0 -0.37720190439E+03  0.13998144062E+03  0.46348966019E+03  0.61375789665E+03  0.10100000352E+00 0. -1.
       -3    1    3    3    0  502  0.37720190439E+03 -0.13998144062E+03 -0.15391032067E+03  0.43077195522E+03  0.10100000352E+00 0.  1.
</event>
<event>
 5   0  0.9674819E-04  0.1011098E+04  0.7818609E-02  0.9296455E-01
        2   -1    0    0  501    0  0.00000000000E+00  0.00000000000E+00  0.15423429561E+04  0.15423429561E+04  0.25500000920E-02 0. -1.
       -2   -1    0    0    0  501  0.00000000000E+00  0.00000000000E+00 -0.16570891644E+03  0.16570891646E+03  0.25500000920E-02 0.  1.
    10030    2    1    2    0    0  0.00000000000E+00  0.00000000000E+00  0.13766340397E+04  0.17080518726E+04  0.10110983732E+04 0.  0.
        4    1    3    3  502    0 -0.32177562191E+03 -0.73362958688E+02  0.13352489510E+04  0.13754319498E+04  0.12699999809E+01 0. -1.
       -4    1    3    3    0  502  0.32177562191E+03  0.73362958688E+02  0.41385088721E+02  0.33261992278E+03  0.12699999809E+01 0.  1.
</event>
<event>
 5   0  0.1020150E-03  0.1000706E+04  0.7818609E-02  0.9307771E-01
       -2   -1    0    0    0  501  0.00000000000E+00  0.00000000000E+00  0.16388085783E+03  0.16388085785E+03  0.25500000920E-02 0. -1.
        2   -1    0    0  501    0  0.00000000000E+00  0.00000000000E+00 -0.15276532929E+04  0.15276532929E+04  0.25500000920E-02 0.  1.
    10030    2    1    2    0    0  0.00000000000E+00  0.00000000000E+00 -0.13637724351E+04  0.16915341508E+04  0.10007060150E+04 0.  0.
        5    1    3    3  502    0 -0.37505189462E+03  0.23795504903E+03 -0.29257717273E+03  0.53189286611E+03  0.46999998093E+01 0.  1.
       -5    1    3    3    0  502  0.37505189462E+03 -0.23795504903E+03 -0.10711952623E+04  0.11596412847E+04  0.46999998093E+01 0. -1.
</event>
<event>
 5   0  0.5960102E-04  0.9999584E+03  0.7818609E-02  0.9308590E-01
        1   -1    0    0  501    0  0.00000000000E+00  0.00000000000E+00  0.47630285041E+03  0.47630285044E+03  0.50400001928E-02 0. -1.
       -1   -1    0    0    0  501  0.00000000000E+00  0.00000000000E+00 -0.52483242940E+03  0.52483242942E+03  0.50400001928E-02 0.  1.
    10030    2    1    2    0    0  0.00000000000E+00  0.00000000000E+00 -0.48529578986E+02  0.10011352799E+04  0.99995836340E+03 0.  0.
        5    1    3    3  502    0 -0.38521130245E+03  0.83144036546E+02  0.28376014386E+03  0.48563627088E+03  0.46999998093E+01 0.  1.
       -5    1    3    3    0  502  0.38521130245E+03 -0.83144036546E+02 -0.33228972285E+03  0.51549900898E+03  0.46999998093E+01 0. -1.
</event>
<event>
 5   0  0.9741826E-04  0.9998476E+03  0.7818609E-02  0.9308712E-01
       -2   -1    0    0    0  501  0.00000000000E+00  0.00000000000E+00  0.23899517306E+03  0.23899517308E+03  0.25500000920E-02 0. -1.
        2   -1    0    0  501    0  0.00000000000E+00  0.00000000000E+00 -0.10457274873E+04  0.10457274874E+04  0.25500000920E-02 0.  1.
    10030    2    1    2    0    0  0.00000000000E+00  0.00000000000E+00 -0.80673231429E+03  0.12847226604E+04  0.99984763204E+03 0.  0.
        3    1    3    3  502    0  0.20729842753E+03 -0.54377203658E+01 -0.98785803559E+03  0.10093887831E+04  0.10100000352E+00 0.  1.
       -3    1    3    3    0  502 -0.20729842753E+03  0.54377203658E+01  0.18112572130E+03  0.27533387728E+03  0.10100000352E+00 0. -1.
</event>
<event>
 5   0  0.1006749E-03  0.1000072E+04  0.7818609E-02  0.9308465E-01
       -2   -1    0    0    0  501  0.00000000000E+00  0.00000000000E+00  0.17423498986E+03  0.17423498988E+03  0.25500000920E-02 0.  1.
        2   -1    0    0  501    0  0.00000000000E+00  0.00000000000E+00 -0.14350514906E+04  0.14350514906E+04  0.25500000920E-02 0. -1.
    10030    2    1    2    0    0  0.00000000000E+00  0.00000000000E+00 -0.12608165007E+04  0.16092864805E+04  0.10000723612E+04 0.  0.
        1    1    3    3  502    0  0.23828588735E+03 -0.11962145125E+03 -0.13111208929E+04  0.13379564460E+04  0.50400001928E-02 0. -1.
       -1    1    3    3    0  502 -0.23828588735E+03  0.11962145125E+03  0.50304392128E+02  0.27133003446E+03  0.50400001928E-02 0.  1.
</event>
<event>
 5   0  0.9674819E-04  0.1000782E+04  0.7818609E-02  0.9307688E-01
       -2   -1    0    0    0  501  0.00000000000E+00  0.00000000000E+00  0.15362159812E+03  0.15362159814E+03  0.25500000920E-02 0. -1.
        2   -1    0    0  501    0  0.00000000000E+00  0.00000000000E+00 -0.16299204701E+04  0.16299204701E+04  0.25500000920E-02 0.  1.
    10030    2    1    2    0    0  0.00000000000E+00  0.00000000000E+00 -0.14762988720E+04  0.17835420682E+04  0.10007816694E+04 0.  0.
        4    1    3    3  502    0  0.41042586992E+03  0.27723293783E+03 -0.61110485834E+03  0.78661188480E+03  0.12699999809E+01 0. -1.
       -4    1    3    3    0  502 -0.41042586992E+03 -0.27723293783E+03 -0.86519401364E+03  0.99693018344E+03  0.12699999809E+01 0.  1.
</event>
<event>
 5   0  0.1006749E-03  0.9993385E+03  0.7818609E-02  0.9309271E-01
       -2   -1    0    0    0  501  0.00000000000E+00  0.00000000000E+00  0.44182508506E+03  0.44182508506E+03  0.25500000920E-02 0.  1.
        2   -1    0    0  501    0  0.00000000000E+00  0.00000000000E+00 -0.56508644790E+03  0.56508644790E+03  0.25500000920E-02 0. -1.
    10030    2    1    2    0    0  0.00000000000E+00  0.00000000000E+00 -0.12326136284E+03  0.10069115330E+04  0.99933851704E+03 0.  0.
        1    1    3    3  502    0  0.38360633288E+03  0.25433723588E+03 -0.25759909008E+03  0.52744529519E+03  0.50400001928E-02 0.  1.
       -1    1    3    3    0  502 -0.38360633288E+03 -0.25433723588E+03  0.13433772724E+03  0.47946623777E+03  0.50400001928E-02 0. -1.
</event>
<event>
 5   0  0.9741826E-04  0.1000896E+04  0.7818609E-02  0.9307562E-01
        2   -1    0    0  501    0  0.00000000000E+00  0.00000000000E+00  0.49967202891E+03  0.49967202892E+03  0.25500000920E-02 0.  1.
       -2   -1    0    0    0  501  0.00000000000E+00  0.00000000000E+00 -0.50122555362E+03  0.50122555362E+03  0.25500000920E-02 0. -1.
    10030    2    1    2    0    0  0.00000000000E+00  0.00000000000E+00 -0.15535247029E+01  0.10008975825E+04  0.10008963769E+04 0.  0.
        3    1    3    3  502    0 -0.27828098371E+03 -0.40696359347E+03 -0.86734453208E+02  0.50058220891E+03  0.10100000352E+00 0.  1.
       -3    1    3    3    0  502  0.27828098371E+03  0.40696359347E+03  0.85180928505E+02  0.50031537363E+03  0.10100000352E+00 0. -1.
</event>
<event>
 5   0  0.1006006E-03  0.9997922E+03  0.7818609E-02  0.9308773E-01
       -2   -1    0    0    0  501  0.00000000000E+00  0.00000000000E+00  0.47352927843E+03  0.47352927844E+03  0.25500000920E-02 0. -1.
        2   -1    0    0  501    0  0.00000000000E+00  0.00000000000E+00 -0.52773103442E+03  0.52773103442E+03  0.25500000920E-02 0.  1.
    10030    2    1    2    0    0  0.00000000000E+00  0.00000000000E+00 -0.54201755984E+02  0.10012603129E+04  0.99979217029E+03 0.  0.
        2    1    3    3  502    0  0.29127035656E+01  0.27968628140E+03  0.38783010799E+03  0.47816847712E+03  0.25500000920E-02 0. -1.
       -2    1    3    3    0  502 -0.29127035656E+01 -0.27968628140E+03 -0.44203186397E+03  0.52309183574E+03  0.25500000920E-02 0.  1.
</event>
<event>
 5   0  0.1006749E-03  0.1018192E+04  0.7818609E-02  0.9288814E-01
        2   -1    0    0  501    0  0.00000000000E+00  0.00000000000E+00  0.80263533455E+03  0.80263533456E+03  0.25500000920E-02 0.  1.
       -2   -1    0    0    0  501  0.00000000000E+00  0.00000000000E+00 -0.32290952245E+03  0.32290952246E+03  0.25500000920E-02 0. -1.
    10030    2    1    2    0    0  0.00000000000E+00  0.00000000000E+00  0.47972581210E+03  0.11255448570E+04  0.10181917159E+04 0.  0.
        1    1    3    3  502    0  0.18070463836E+03  0.19546759177E+03  0.71957187177E+03  0.76723231451E+03  0.50400001928E-02 0.  1.
       -1    1    3    3    0  502 -0.18070463836E+03 -0.19546759177E+03 -0.23984605967E+03  0.35831254251E+03  0.50400001928E-02 0. -1.
</event>
<event>
 5   0  0.1006006E-03  0.1000554E+04  0.7818609E-02  0.9307937E-01
        2   -1    0    0  501    0  0.00000000000E+00  0.00000000000E+00  0.28091727863E+03  0.28091727864E+03  0.25500000920E-02 0.  1.
       -2   -1    0    0    0  501  0.00000000000E+00  0.00000000000E+00 -0.89092797792E+03  0.89092797793E+03  0.25500000920E-02 0. -1.
    10030    2    1    2    0    0  0.00000000000E+00  0.00000000000E+00 -0.61001069929E+03  0.11718452566E+04  0.10005539726E+04 0.  0.
        2    1    3    3  502    0 -0.44876065157E+03 -0.65813495459E+02 -0.55223469528E+03  0.71461926734E+03  0.25500000920E-02 0. -1.
       -2    1    3    3    0  502  0.44876065157E+03  0.65813495459E+02 -0.57776004010E+02  0.45722598923E+03  0.25500000920E-02 0.  1.
</event>
<event>
 5   0  0.5826939E-04  0.9972792E+03  0.7818609E-02  0.9311534E-01
        1   -1    0    0  501    0  0.00000000000E+00  0.00000000000E+00  0.51940871486E+03  0.51940871488E+03  0.50400001928E-02 0.  1.
       -1   -1    0    0    0  501  0.00000000000E+00  0.00000000000E+00 -0.47870099081E+03  0.47870099083E+03  0.50400001928E-02 0. -1.
    10030    2    1    2    0    0  0.00000000000E+00  0.00000000000E+00  0.40707724050E+02  0.99810970572E+03  0.99727923163E+03 0.  0.
        1    1    3    3  502    0  0.49330434770E+03  0.69856164400E+02  0.29236312324E-01  0.49822591667E+03  0.50400001928E-02 0.  1.
       -1    1    3    3    0  502 -0.49330434770E+03 -0.69856164400E+02  0.40678487738E+02  0.49988378905E+03  0.50400001928E-02 0. -1.
</event>
<event>
 5   0  0.5888774E-04  0.9928764E+03  0.7818609E-02  0.9316393E-01
       -1   -1    0    0    0  501  0.00000000000E+00  0.00000000000E+00  0.92071598356E+03  0.92071598357E+03  0.50400001928E-02 0. -1.
        1   -1    0    0  501    0  0.00000000000E+00  0.00000000000E+00 -0.26767306665E+03  0.26767306670E+03  0.50400001928E-02 0.  1.
    10030    2    1    2    0    0  0.00000000000E+00  0.00000000000E+00  0.65304291691E+03  0.11883890503E+04  0.99287636868E+03 0.  0.
        2    1    3    3  502    0 -0.11858982731E+03  0.60308151866E+02 -0.24593736884E+03  0.27961725576E+03  0.25500000920E-02 0.  1.
       -2    1    3    3    0  502  0.11858982731E+03 -0.60308151866E+02  0.89898028575E+03  0.90877179451E+03  0.25500000920E-02 0. -1.
</event>
<event>
 5   0  0.5768102E-04  0.1004423E+04  0.7818609E-02  0.9303707E-01
       -1   -1    0    0    0  501  0.00000000000E+00  0.00000000000E+00  0.39989931450E+03  0.39989931453E+03  0.50400001928E-02 0. -1.
        1   -1    0    0  501    0  0.00000000000E+00  0.00000000000E+00 -0.63070027587E+03  0.63070027589E+03  0.50400001928E-02 0.  1.
    10030    2    1    2    0    0  0.00000000000E+00  0.00000000000E+00 -0.23080096138E+03  0.10305995904E+04  0.10044234326E+04 0.  0.
        4    1    3    3  502    0 -0.39091260993E+03  0.77719717484E+01  0.20799906889E+03  0.44287503622E+03  0.12699999809E+01 0. -1.
       -4    1    3    3    0  502  0.39091260993E+03 -0.77719717484E+01 -0.43880003027E+03  0.58772455420E+03  0.12699999809E+01 0.  1.
</event>
<event>
 5   0  0.5960102E-04  0.1001850E+04  0.7818609E-02  0.9306519E-01
       -1   -1    0    0    0  501  0.00000000000E+00  0.00000000000E+00  0.55055728807E+03  0.55055728809E+03  0.50400001928E-02 0.  1.
        1   -1    0    0  501    0  0.00000000000E+00  0.00000000000E+00 -0.45576665027E+03  0.45576665030E+03  0.50400001928E-02 0. -1.
    10030    2    1    2    0    0  0.00000000000E+00  0.00000000000E+00  0.94790637797E+02  0.10063239384E+04  0.10018495915E+04 0.  0.
        5    1    3    3  502    0 -0.21287012507E+03  0.25584942322E+03 -0.32861719731E+03  0.46774348726E+03  0.46999998093E+01 0. -1.
       -5    1    3    3    0  502  0.21287012507E+03 -0.25584942322E+03  0.42340783510E+03  0.53858045113E+03  0.46999998093E+01 0.  1.
</event>
<event>
 5   0  0.9741826E-04  0.1000287E+04  0.7818609E-02  0.9308231E-01
       -2   -1    0    0    0  501  0.00000000000E+00  0.00000000000E+00  0.11049168124E+03  0.11049168127E+03  0.25500000920E-02 0.  1.
        2   -1    0    0  501    0  0.00000000000E+00  0.00000000000E+00 -0.22639105069E+04  0.22639105069E+04  0.25500000920E-02 0. -1.
    10030    2    1    2    0    0  0.00000000000E+00  0.00000000000E+00 -0.21534188256E+04  0.23744021881E+04  0.10002865152E+04 0.  0.
        3    1    3    3  502    0 -0.10173654727E+03 -0.44519702071E+03 -0.59260652574E+03  0.74815320413E+03  0.10100000352E+00 0.  1.
       -3    1    3    3    0  502  0.10173654727E+03  0.44519702071E+03 -0.15608122999E+04  0.16262489840E+04  0.10100000352E+00 0. -1.
</event>
<event>
 5   0  0.3854625E-04  0.1000120E+04  0.7818609E-02  0.9308413E-01
       -3   -1    0    0    0  501  0.00000000000E+00  0.00000000000E+00  0.46334409222E+03  0.46334410323E+03  0.10100000352E+00 0. -1.
        3   -1    0    0  501    0  0.00000000000E+00  0.00000000000E+00 -0.53968573035E+03  0.53968573980E+03  0.10100000352E+00 0.  1.
    10030    2    1    2    0    0  0.00000000000E+00  0.00000000000E+00 -0.76341638125E+02  0.10030298430E+04  0.10001204029E+04 0.  0.
        1    1    3    3  502    0 -0.44967315179E+03 -0.18388351553E+03  0.80669102152E+02  0.49246989227E+03  0.50400001928E-02 0. -1.
       -1    1    3    3    0  502  0.44967315179E+03  0.18388351553E+03 -0.15701074028E+03  0.51055995076E+03  0.50400001928E-02 0.  1.
</event>
<event>
 5   0  0.9741826E-04  0.1000326E+04  0.7818609E-02  0.9308187E-01
        2   -1    0    0  501    0  0.00000000000E+00  0.00000000000E+00  0.42970152183E+03  0.42970152184E+03  0.25500000920E-02 0. -1.
       -2   -1    0    0    0  501  0.00000000000E+00  0.00000000000E+00 -0.58217909055E+03  0.58217909055E+03  0.25500000920E-02 0.  1.
    10030    2    1    2    0    0  0.00000000000E+00  0.00000000000E+00 -0.15247756871E+03  0.10118806124E+04  0.10003264291E+04 0.  0.
        3    1    3    3  502    0  0.10065346593E+03 -0.32846824638E+03  0.29147157839E+03  0.45053102034E+03  0.10100000352E+00 0. -1.
       -3    1    3    3    0  502 -0.10065346593E+03  0.32846824638E+03 -0.44394914710E+03  0.56134959205E+03  0.10100000352E+00 0.  1.
</event>
<event>
 5   0  0.5758786E-04  0.1000913E+04  0.7818609E-02  0.9307544E-01
       -1   -1    0    0    0  501  0.00000000000E+00  0.00000000000E+00  0.89250980996E+03  0.89250980998E+03  0.50400001928E-02 0. -1.
        1   -1    0    0  501    0  0.00000000000E+00  0.00000000000E+00 -0.28062063545E+03  0.28062063549E+03  0.50400001928E-02 0.  1.
    10030    2    1    2    0    0  0.00000000000E+00  0.00000000000E+00  0.61188917452E+03  0.11731304455E+04  0.10009129234E+04 0.  0.
        3    1    3    3  502    0  0.43606554431E+03  0.19284049899E+03  0.12774497503E+03  0.49361868465E+03  0.10100000352E+00 0. -1.
       -3    1    3    3    0  502 -0.43606554431E+03 -0.19284049899E+03  0.48414419949E+03  0.67951176082E+03  0.10100000352E+00 0.  1.
</event>
<event>
 5   0  0.5768102E-04  0.1000619E+04  0.7818609E-02  0.9307866E-01
        1   -1    0    0  501    0  0.00000000000E+00  0.00000000000E+00  0.70817725138E+03  0.70817725140E+03  0.50400001928E-02 0.  1.
       -1   -1    0    0    0  501  0.00000000000E+00  0.00000000000E+00 -0.35345624626E+03  0.35345624630E+03  0.50400001928E-02 0. -1.
    10030    2    1    2    0    0  0.00000000000E+00  0.00000000000E+00  0.35472100512E+03  0.10616334977E+04  0.10006191543E+04 0.  0.
        4    1    3    3  502    0  0.36412394713E+03  0.27254425174E+03 -0.43774717556E+02  0.45692937838E+03  0.12699999809E+01 0. -1.
       -4    1    3    3    0  502 -0.36412394713E+03 -0.27254425174E+03  0.39849572268E+03  0.60470411932E+03  0.12699999809E+01 0.  1.
</event>
<event>
 5   0  0.5960102E-04  0.9806685E+03  0.7818609E-02  0.9330005E-01
       -1   -1    0    0    0  501  0.00000000000E+00  0.00000000000E+00  0.13532635294E+03  0.13532635303E+03  0.50400001928E-02 0.  1.
        1   -1    0    0  501    0  0.00000000000E+00  0.00000000000E+00 -0.17766507476E+04  0.17766507476E+04  0.50400001928E-02 0. -1.
    10030    2    1    2    0    0  0.00000000000E+00  0.00000000000E+00 -0.16413243947E+04  0.19119771006E+04  0.98066847857E+03 0.  0.
        5    1    3    3  502    0 -0.46606428145E+03 -0.22642504135E+02 -0.11142601801E+04  0.12080258426E+04  0.46999998093E+01 0. -1.
       -5    1    3    3    0  502  0.46606428145E+03  0.22642504135E+02 -0.52706421459E+03  0.70395125807E+03  0.46999998093E+01 0.  1.
</event>
<event>
 5   0  0.9674819E-04  0.9976755E+03  0.7818609E-02  0.9311098E-01
       -2   -1    0    0    0  501  0.00000000000E+00  0.00000000000E+00  0.10365267401E+03  0.10365267404E+03  0.25500000920E-02 0. -1.
        2   -1    0    0  501    0  0.00000000000E+00  0.00000000000E+00 -0.24007012393E+04  0.24007012393E+04  0.25500000920E-02 0.  1.
    10030    2    1    2    0    0  0.00000000000E+00  0.00000000000E+00 -0.22970485653E+04  0.25043539134E+04  0.99767550436E+03 0.  0.
        4    1    3    3  502    0  0.19081469942E+01 -0.43875828019E+03 -0.55278385399E+03  0.70575071491E+03  0.12699999809E+01 0. -1.
       -4    1    3    3    0  502 -0.19081469942E+01  0.43875828019E+03 -0.17442647113E+04  0.17986031985E+04  0.12699999809E+01 0.  1.
</event>
<event>
 5   0  0.9674819E-04  0.9987668E+03  0.7818609E-02  0.9309898E-01
        2   -1    0    0  501    0  0.00000000000E+00  0.00000000000E+00  0.33437380830E+03  0.33437380831E+03  0.25500000920E-02 0. -1.
       -2   -1    0    0    0  501  0.00000000000E+00  0.00000000000E+00 -0.74582333600E+03  0.74582333600E+03  0.25500000920E-02 0.  1.
    10030    2    1    2    0    0  0.00000000000E+00  0.00000000000E+00 -0.41144952770E+03  0.10801971443E+04  0.99876681800E+03 0.  0.
        4    1    3    3  502    0 -0.13669891786E+03  0.24004302482E+02 -0.72454333456E+03  0.73771773548E+03  0.12699999809E+01 0.  1.
       -4    1    3    3    0  502  0.13669891786E+03 -0.24004302482E+02  0.31309380686E+03  0.34247940884E+03  0.12699999809E+01 0. -1.
</event>
<event>
 5   0  0.9741826E-04  0.9987399E+03  0.7818609E-02  0.9309928E-01
        2   -1    0    0  501    0  0.00000000000E+00  0.00000000000E+00  0.56892030012E+03  0.56892030012E+03  0.25500000920E-02 0. -1.
       -2   -1    0    0    0  501  0.00000000000E+00  0.00000000000E+00 -0.43832214442E+03  0.43832214443E+03  0.25500000920E-02 0.  1.
    10030    2    1    2    0    0  0.00000000000E+00  0.00000000000E+00  0.13059815570E+03  0.10072424446E+04  0.99873993804E+03 0.  0.
        3    1    3    3  502    0  0.20243416851E+02  0.28173232111E+03  0.48061489178E+03  0.55747069975E+03  0.10100000352E+00 0. -1.
       -3    1    3    3    0  502 -0.20243416851E+02 -0.28173232111E+03 -0.35001673608E+03  0.44977174480E+03  0.10100000352E+00 0.  1.
</event>
<event>
 5   0  0.5826939E-04  0.1004678E+04  0.7818609E-02  0.9303429E-01
        1   -1    0    0  501    0  0.00000000000E+00  0.00000000000E+00  0.13135287985E+04  0.13135287985E+04  0.50400001928E-02 0.  1.
       -1   -1    0    0    0  501  0.00000000000E+00  0.00000000000E+00 -0.19211189457E+03  0.19211189464E+03  0.50400001928E-02 0. -1.
    10030    2    1    2    0    0  0.00000000000E+00  0.00000000000E+00  0.11214169039E+04  0.15056406931E+04  0.10046780701E+04 0.  0.
        1    1    3    3  502    0  0.17813993911E+03  0.16484366357E+03 -0.98411501097E+02  0.26190092573E+03  0.50400001928E-02 0. -1.
       -1    1    3    3    0  502 -0.17813993911E+03 -0.16484366357E+03  0.12198284050E+04  0.12437397674E+04  0.50400001928E-02 0.  1.
</event>
<event>
 5   0  0.9674819E-04  0.1009151E+04  0.7818609E-02  0.9298565E-01
       -2   -1    0    0    0  501  0.00000000000E+00  0.00000000000E+00  0.13148052688E+03  0.13148052691E+03  0.25500000920E-02 0.  1.
        2   -1    0    0  501    0  0.00000000000E+00  0.00000000000E+00 -0.19363810278E+04  0.19363810278E+04  0.25500000920E-02 0. -1.
    10030    2    1    2    0    0  0.00000000000E+00  0.00000000000E+00 -0.18049005009E+04  0.20678615547E+04  0.10091509259E+04 0.  0.
        4    1    3    3  502    0 -0.20071166354E+03  0.37007929584E+03 -0.33255098179E+03  0.53650314583E+03  0.12699999809E+01 0.  1.
       -4    1    3    3    0  502  0.20071166354E+03 -0.37007929584E+03 -0.14723495191E+04  0.15313584088E+04  0.12699999809E+01 0. -1.
</event>
<event>
 5   0  0.5768102E-04  0.9998042E+03  0.7818609E-02  0.9308760E-01
        1   -1    0    0  501    0  0.00000000000E+00  0.00000000000E+00  0.12386133103E+04  0.12386133103E+04  0.50400001928E-02 0.  1.
       -1   -1    0    0    0  501  0.00000000000E+00  0.00000000000E+00 -0.20175958425E+03  0.20175958432E+03  0.50400001928E-02 0. -1.
    10030    2    1    2    0    0  0.00000000000E+00  0.00000000000E+00  0.10368537260E+04  0.14403728946E+04  0.99980419401E+03 0.  0.
        4    1    3    3  502    0 -0.59608326123E+02  0.43867179115E+02  0.12306745236E+04  0.12328985675E+04  0.12699999809E+01 0.  1.
       -4    1    3    3    0  502  0.59608326123E+02 -0.43867179115E+02 -0.19382079753E+03  0.20747432709E+03  0.12699999809E+01 0. -1.
</event>
<event>
 5   0  0.1006749E-03  0.1000085E+04  0.7818609E-02  0.9308451E-01
        2   -1    0    0  501    0  0.00000000000E+00  0.00000000000E+00  0.63719463981E+03  0.63719463982E+03  0.25500000920E-02 0.  1.
       -2   -1    0    0    0  501  0.00000000000E+00  0.00000000000E+00 -0.39241162460E+03  0.39241162461E+03  0.25500000920E-02 0. -1.
    10030    2    1    2    0    0  0.00000000000E+00  0.00000000000E+00  0.24478301521E+03  0.10296062644E+04  0.10000851640E+04 0.  0.
        1    1    3    3  502    0 -0.49395670294E+03 -0.66667687110E+02  0.81149310419E+02  0.50499803513E+03  0.50400001928E-02 0.  1.
       -1    1    3    3    0  502  0.49395670294E+03  0.66667687110E+02  0.16363370479E+03  0.52460822930E+03  0.50400001928E-02 0. -1.
</event>
<event>
 5   0  0.1020150E-03  0.1000346E+04  0.7818609E-02  0.9308166E-01
       -2   -1    0    0    0  501  0.00000000000E+00  0.00000000000E+00  0.26323719145E+03  0.26323719146E+03  0.25500000920E-02 0. -1.
        2   -1    0    0  501    0  0.00000000000E+00  0.00000000000E+00 -0.95037069748E+03  0.95037069749E+03  0.25500000920E-02 0.  1.
    10030    2    1    2    0    0  0.00000000000E+00  0.00000000000E+00 -0.68713350603E+03  0.12136078890E+04  0.10003457667E+04 0.  0.
        5    1    3    3  502    0 -0.32740243562E+03  0.25967870920E+03 -0.10159630047E+02  0.41803193053E+03  0.46999998093E+01 0. -1.
       -5    1    3    3    0  502  0.32740243562E+03 -0.25967870920E+03 -0.67697387598E+03  0.79557595842E+03  0.46999998093E+01 0.  1.
</event>
<event>
 5   0  0.5768102E-04  0.9999454E+03  0.7818609E-02  0.9308605E-01
        1   -1    0    0  501    0  0.00000000000E+00  0.00000000000E+00  0.12396003185E+04  0.12396003185E+04  0.50400001928E-02 0.  1.
       -1   -1    0    0    0  501  0.00000000000E+00  0.00000000000E+00 -0.20165587486E+03  0.20165587493E+03  0.50400001928E-02 0. -1.
    10030    2    1    2    0    0  0.00000000000E+00  0.00000000000E+00  0.10379444437E+04  0.14412561935E+04  0.99994537204E+03 0.  0.
        4    1    3    3  502    0  0.25725112727E+02 -0.25688259912E+03 -0.98149131271E+02  0.27619796528E+03  0.12699999809E+01 0. -1.
       -4    1    3    3    0  502 -0.25725112727E+02  0.25688259912E+03  0.11360935749E+04  0.11650582282E+04  0.12699999809E+01 0.  1.
</event>
<event>
 5   0  0.5826939E-04  0.9817434E+03  0.7818609E-02  0.9328798E-01
       -1   -1    0    0    0  501  0.00000000000E+00  0.00000000000E+00  0.46263886485E+03  0.46263886488E+03  0.50400001928E-02 0.  1.
        1   -1    0    0  501    0  0.00000000000E+00  0.00000000000E+00 -0.52082744547E+03  0.52082744549E+03  0.50400001928E-02 0. -1.
    10030    2    1    2    0    0  0.00000000000E+00  0.00000000000E+00 -0.58188580614E+02  0.98346631037E+03  0.98174338435E+03 0.  0.
        1    1    3    3  502    0  0.31197211549E+03 -0.17059075058E+03  0.30991831792E+03  0.47167485499E+03  0.50400001928E-02 0.  1.
       -1    1    3    3    0  502 -0.31197211549E+03  0.17059075058E+03 -0.36810689854E+03  0.51179145538E+03  0.50400001928E-02 0. -1.
</event>
<event>
 5   0  0.5768102E-04  0.1000317E+04  0.7818609E-02  0.9308197E-01
       -1   -1    0    0    0  501  0.00000000000E+00  0.00000000000E+00  0.32872125598E+03  0.32872125602E+03  0.50400001928E-02 0. -1.
        1   -1    0    0  501    0  0.00000000000E+00  0.00000000000E+00 -0.76100461586E+03  0.76100461588E+03  0.50400001928E-02 0.  1.
    10030    2    1    2    0    0  0.00000000000E+00  0.00000000000E+00 -0.43228335988E+03  0.10897258719E+04  0.10003167362E+04 0.  0.
        4    1    3    3  502    0 -0.30871906095E+03 -0.16260254328E+03 -0.60651371711E+03  0.69971962072E+03  0.12699999809E+01 0.  1.
       -4    1    3    3    0  502  0.30871906095E+03  0.16260254328E+03  0.17423035723E+03  0.39000625118E+03  0.12699999809E+01 0. -1.
</event>
<event>
 5   0  0.9674819E-04  0.1001297E+04  0.7818609E-02  0.9307124E-01
        2   -1    0    0  501    0  0.00000000000E+00  0.00000000000E+00  0.71980662603E+03  0.71980662603E+03  0.25500000920E-02 0.  1.
       -2   -1    0    0    0  501  0.00000000000E+00  0.00000000000E+00 -0.34821677546E+03  0.34821677547E+03  0.25500000920E-02 0. -1.
    10030    2    1    2    0    0  0.00000000000E+00  0.00000000000E+00  0.37158985056E+03  0.10680234015E+04  0.10012966439E+04 0.  0.
        4    1    3    3  502    0 -0.82451349674E+02  0.62896597080E+02 -0.33663341197E+03  0.35224689345E+03  0.12699999809E+01 0. -1.
       -4    1    3    3    0  502  0.82451349674E+02 -0.62896597080E+02  0.70822326254E+03  0.71577650806E+03  0.12699999809E+01 0.  1.
</event>
<event>
 5   0  0.5826939E-04  0.1000260E+04  0.7818609E-02  0.9308260E-01
        1   -1    0    0  501    0  0.00000000000E+00  0.00000000000E+00  0.90287840455E+03  0.90287840457E+03  0.50400001928E-02 0. -1.
       -1   -1    0    0    0  501  0.00000000000E+00  0.00000000000E+00 -0.27703623726E+03  0.27703623730E+03  0.50400001928E-02 0.  1.
    10030    2    1    2    0    0  0.00000000000E+00  0.00000000000E+00  0.62584216729E+03  0.11799146419E+04  0.10002600381E+04 0.  0.
        1    1    3    3  502    0 -0.13743530451E+02 -0.49849832912E+03  0.26814929707E+03  0.56620977942E+03  0.50400001928E-02 0.  1.
       -1    1    3    3    0  502  0.13743530451E+02  0.49849832912E+03  0.35769287022E+03  0.61370486245E+03  0.50400001928E-02 0. -1.
</event>
<event>
 5   0  0.1006749E-03  0.9999660E+03  0.7818609E-02  0.9308582E-01
        2   -1    0    0  501    0  0.00000000000E+00  0.00000000000E+00  0.20457184359E+03  0.20457184360E+03  0.25500000920E-02 0.  1.
       -2   -1    0    0    0  501  0.00000000000E+00  0.00000000000E+00 -0.12219815073E+04  0.12219815073E+04  0.25500000920E-02 0. -1.
    10030    2    1    2    0    0  0.00000000000E+00  0.00000000000E+00 -0.10174096637E+04  0.14265533509E+04  0.99996601899E+03 0.  0.
        1    1    3    3  502    0 -0.12204108851E+03  0.16136083343E+03 -0.11609781153E+04  0.11784742382E+04  0.50400001928E-02 0. -1.
       -1    1    3    3    0  502  0.12204108851E+03 -0.16136083343E+03  0.14356845158E+03  0.24807911272E+03  0.50400001928E-02 0.  1.
</event>
<event>
 5   0  0.3854625E-04  0.9997482E+03  0.7818609E-02  0.9308821E-01
        3   -1    0    0  501    0  0.00000000000E+00  0.00000000000E+00  0.67343794403E+03  0.67343795160E+03  0.10100000352E+00 0. -1.
       -3   -1    0    0    0  501  0.00000000000E+00  0.00000000000E+00 -0.37104254257E+03  0.37104255632E+03  0.10100000352E+00 0.  1.
    10030    2    1    2    0    0  0.00000000000E+00  0.00000000000E+00  0.30239540145E+03  0.10444805079E+04  0.99974824461E+03 0.  0.
        4    1    3    3  502    0 -0.47342643959E+01 -0.34590179877E+03 -0.22578256227E+03  0.41309786489E+03  0.12699999809E+01 0.  1.
       -4    1    3    3    0  502  0.47342643959E+01  0.34590179877E+03  0.52817796372E+03  0.63138264303E+03  0.12699999809E+01 0. -1.
</event>
<event>
 5   0  0.5960102E-04  0.1000118E+04  0.7818609E-02  0.9308416E-01
       -1   -1    0    0    0  501  0.00000000000E+00  0.00000000000E+00  0.79267395004E+03  0.79267395005E+03  0.50400001928E-02 0.  1.
        1   -1    0    0  501    0  0.00000000000E+00  0.00000000000E+00 -0.31546234395E+03  0.31546234399E+03  0.50400001928E-02 0. -1.
    10030    2    1    2    0    0  0.00000000000E+00  0.00000000000E+00  0.47721160609E+03  0.11081362940E+04  0.10001175577E+04 0.  0.
        5    1    3    3  502    0  0.74618949470E+02  0.16206250625E+03 -0.27896995632E+03  0.33117755068E+03  0.46999998093E+01 0. -1.
       -5    1    3    3    0  502 -0.74618949470E+02 -0.16206250625E+03  0.75618156241E+03  0.77695874336E+03  0.46999998093E+01 0.  1.
</event>
<event>
 5   0  0.9741826E-04  0.1000062E+04  0.7818609E-02  0.9308477E-01
       -2   -1    0    0    0  501  0.00000000000E+00  0.00000000000E+00  0.16674516344E+03  0.16674516346E+03  0.25500000920E-02 0.  1.
        2   -1    0    0  501    0  0.00000000000E+00  0.00000000000E+00 -0.14994785621E+04  0.14994785621E+04  0.25500000920E-02 0. -1.
    10030    2    1    2    0    0  0.00000000000E+00  0.00000000000E+00 -0.13327333986E+04  0.16662237256E+04  0.10000615940E+04 0.  0.
        3    1    3    3  502    0 -0.43890402617E+03 -0.63309102923E+02 -0.10513308252E+04  0.11410264243E+04  0.10100000352E+00 0. -1.
       -3    1    3    3    0  502  0.43890402617E+03  0.63309102923E+02 -0.28140257341E+03  0.52519730124E+03  0.10100000352E+00 0.  1.
</event>
<event>
 5   0  0.5826939E-04  0.1002202E+04  0.7818609E-02  0.9306133E-01
       -1   -1    0    0    0  501  0.00000000000E+00  0.00000000000E+00  0.40884685147E+03  0.40884685151E+03  0.50400001928E-02 0. -1.
        1   -1    0    0  501    0  0.00000000000E+00  0.00000000000E+00 -0.61417234318E+03  0.61417234320E+03  0.50400001928E-02 0.  1.
    10030    2    1    2    0    0  0.00000000000E+00  0.00000000000E+00 -0.20532549170E+03  0.10230191947E+04  0.10022024322E+04 0.  0.
        1    1    3    3  502    0  0.28882118713E+02 -0.47552546439E+03 -0.26127290645E+03  0.54334351541E+03  0.50400001928E-02 0.  1.
       -1    1    3    3    0  502 -0.28882118713E+02  0.47552546439E+03  0.55947414750E+02  0.47967567929E+03  0.50400001928E-02 0. -1.
</event>
<event>
 5   0  0.5960102E-04  0.9985775E+03  0.7818609E-02  0.9310106E-01
        1   -1    0    0  501    0  0.00000000000E+00  0.00000000000E+00  0.43800869815E+03  0.43800869817E+03  0.50400001928E-02 0.  1.
       -1   -1    0    0    0  501  0.00000000000E+00  0.00000000000E+00 -0.56914229849E+03  0.56914229851E+03  0.50400001928E-02 0. -1.
    10030    2    1    2    0    0  0.00000000000E+00  0.00000000000E+00 -0.13113360034E+03  0.10071509967E+04  0.99857754280E+03 0.  0.
        5    1    3    3  502    0  0.37145284754E+03  0.23194465118E+03  0.17626598144E+03  0.47208826015E+03  0.46999998093E+01 0.  1.
       -5    1    3    3    0  502 -0.37145284754E+03 -0.23194465118E+03 -0.30739958179E+03  0.53506273654E+03  0.46999998093E+01 0. -1.
</event>
<event>
 5   0  0.3854625E-04  0.1017196E+04  0.7818609E-02  0.9289883E-01
       -3   -1    0    0    0  501  0.00000000000E+00  0.00000000000E+00  0.32600057238E+03  0.32600058803E+03  0.10100000352E+00 0.  1.
        3   -1    0    0  501    0  0.00000000000E+00  0.00000000000E+00 -0.79347010160E+03  0.79347010803E+03  0.10100000352E+00 0. -1.
    10030    2    1    2    0    0  0.00000000000E+00  0.00000000000E+00 -0.46746952922E+03  0.11194706961E+04  0.10171955950E+04 0.  0.
        3    1    3    3  502    0 -0.50119189312E+03  0.79820642000E+02 -0.19711681691E+03  0.54444439416E+03  0.10100000352E+00 0.  1.
       -3    1    3    3    0  502  0.50119189312E+03 -0.79820642000E+02 -0.27035271232E+03  0.57502630190E+03  0.10100000352E+00 0. -1.
</event>
<event>
 5   0  0.1020150E-03  0.1008084E+04  0.7818609E-02  0.9299722E-01
       -2   -1    0    0    0  501  0.00000000000E+00  0.00000000000E+00  0.14936485127E+03  0.14936485130E+03  0.25500000920E-02 0. -1.
        2   -1    0    0  501    0  0.00000000000E+00  0.00000000000E+00 -0.17009254550E+04  0.17009254550E+04  0.25500000920E-02 0.  1.
    10030    2    1    2    0    0  0.00000000000E+00  0.00000000000E+00 -0.15515606038E+04  0.18502903063E+04  0.10080842775E+04 0.  0.
        5    1    3    3  502    0  0.20490342941E+03  0.23409172043E+03 -0.47931494927E+02  0.31480766694E+03  0.46999998093E+01 0. -1.
       -5    1    3    3    0  502 -0.20490342941E+03 -0.23409172043E+03 -0.15036291088E+04  0.15354826394E+04  0.46999998093E+01 0.  1.
</event>
<event>
 5   0  0.5826939E-04  0.1000201E+04  0.7818609E-02  0.9308325E-01
        1   -1    0    0  501    0  0.00000000000E+00  0.00000000000E+00  0.64605431237E+03  0.64605431239E+03  0.50400001928E-02 0.  1.
       -1   -1    0    0    0  501  0.00000000000E+00  0.00000000000E+00 -0.38711970107E+03  0.38711970110E+03  0.50400001928E-02 0. -1.
    10030    2    1    2    0    0  0.00000000000E+00  0.00000000000E+00  0.25893461130E+03  0.10331740135E+04  0.10002006845E+04 0.  0.
        1    1    3    3  502    0  0.81438298461E+02  0.23209529664E+03 -0.32031815436E+03  0.40386153966E+03  0.50400001928E-02 0. -1.
       -1    1    3    3    0  502 -0.81438298461E+02 -0.23209529664E+03  0.57925276565E+03  0.62931247383E+03  0.50400001928E-02 0.  1.
</event>
<event>
 5   0  0.5960102E-04  0.1001562E+04  0.7818609E-02  0.9306833E-01
       -1   -1    0    0    0  501  0.00000000000E+00  0.00000000000E+00  0.23277113697E+03  0.23277113702E+03  0.50400001928E-02 0. -1.
        1   -1    0    0  501    0  0.00000000000E+00  0.00000000000E+00 -0.10773749881E+04  0.10773749881E+04  0.50400001928E-02 0.  1.
    10030    2    1    2    0    0  0.00000000000E+00  0.00000000000E+00 -0.84460385113E+03  0.13101461251E+04  0.10015623814E+04 0.  0.
        5    1    3    3  502    0  0.30821622693E+03  0.15529680792E+02 -0.93816764391E+03  0.98763304501E+03  0.46999998093E+01 0.  1.
       -5    1    3    3    0  502 -0.30821622693E+03 -0.15529680792E+02  0.93563792780E+02  0.32251308012E+03  0.46999998093E+01 0. -1.
</event>
<event>
 5   0  0.5758786E-04  0.9982215E+03  0.7818609E-02  0.9310498E-01
       -1   -1    0    0    0  501  0.00000000000E+00  0.00000000000E+00  0.18342059682E+03  0.18342059689E+03  0.50400001928E-02 0. -1.
        1   -1    0    0  501    0  0.00000000000E+00  0.00000000000E+00 -0.13581437200E+04  0.13581437201E+04  0.50400001928E-02 0.  1.
    10030    2    1    2    0    0  0.00000000000E+00  0.00000000000E+00 -0.11747231232E+04  0.15415643169E+04  0.99822148196E+03 0.  0.
        3    1    3    3  502    0 -0.63494361097E+02 -0.49453610080E+03 -0.62237462413E+03  0.79746327304E+03  0.10100000352E+00 0. -1.
       -3    1    3    3    0  502  0.63494361097E+02  0.49453610080E+03 -0.55234849909E+03  0.74410104390E+03  0.10100000352E+00 0.  1.
</event>
<event>
 5   0  0.9674819E-04  0.1001997E+04  0.7818609E-02  0.9306357E-01
       -2   -1    0    0    0  501  0.00000000000E+00  0.00000000000E+00  0.40302648953E+03  0.40302648954E+03  0.25500000920E-02 0. -1.
        2   -1    0    0  501    0  0.00000000000E+00  0.00000000000E+00 -0.62278710172E+03  0.62278710173E+03  0.25500000920E-02 0.  1.
    10030    2    1    2    0    0  0.00000000000E+00  0.00000000000E+00 -0.21976061220E+03  0.10258135913E+04  0.10019974039E+04 0.  0.
        4    1    3    3  502    0 -0.68351658800E+02  0.22944827492E+02  0.39768566998E+03  0.40417065626E+03  0.12699999809E+01 0. -1.
       -4    1    3    3    0  502  0.68351658800E+02 -0.22944827492E+02 -0.61744628218E+03  0.62164293501E+03  0.12699999809E+01 0.  1.
</event>
<event>
 5   0  0.5888774E-04  0.9964644E+03  0.7818609E-02  0.9312431E-01
        1   -1    0    0  501    0  0.00000000000E+00  0.00000000000E+00  0.47703268268E+03  0.47703268271E+03  0.50400001928E-02 0.  1.
       -1   -1    0    0    0  501  0.00000000000E+00  0.00000000000E+00 -0.52037384258E+03  0.52037384260E+03  0.50400001928E-02 0. -1.
    10030    2    1    2    0    0  0.00000000000E+00  0.00000000000E+00 -0.43341159899E+02  0.99740652531E+03  0.99646441010E+03 0.  0.
        2    1    3    3  502    0  0.44016645438E+02  0.68927194666E+02  0.47026830621E+03  0.47732662095E+03  0.25500000920E-02 0.  1.
       -2    1    3    3    0  502 -0.44016645438E+02 -0.68927194666E+02 -0.51360946610E+03  0.52007990436E+03  0.25500000920E-02 0. -1.
</event>
<event>
 5   0  0.3854625E-04  0.1001373E+04  0.7818609E-02  0.9307040E-01
        3   -1    0    0  501    0  0.00000000000E+00  0.00000000000E+00  0.11721515907E+04  0.11721515950E+04  0.10100000352E+00 0.  1.
       -3   -1    0    0    0  501  0.00000000000E+00  0.00000000000E+00 -0.21386923154E+03  0.21386925539E+03  0.10100000352E+00 0. -1.
    10030    2    1    2    0    0  0.00000000000E+00  0.00000000000E+00  0.95828235911E+03  0.13860208504E+04  0.10013734158E+04 0.  0.
        2    1    3    3  502    0  0.16085663362E+03 -0.36071464436E+02 -0.17522873532E+03  0.24058494719E+03  0.25500000920E-02 0. -1.
       -2    1    3    3    0  502 -0.16085663362E+03  0.36071464436E+02  0.11335110944E+04  0.11454359032E+04  0.25500000920E-02 0.  1.
</event>
<event>
 5   0  0.1006749E-03  0.1022418E+04  0.7818609E-02  0.9284293E-01
        2   -1    0    0  501    0  0.00000000000E+00  0.00000000000E+00  0.23309542882E+03  0.23309542883E+03  0.25500000920E-02 0. -1.
       -2   -1    0    0    0  501  0.00000000000E+00  0.00000000000E+00 -0.11211484512E+04  0.11211484512E+04  0.25500000920E-02 0.  1.
    10030    2    1    2    0    0  0.00000000000E+00  0.00000000000E+00 -0.88805302240E+03  0.13542438801E+04  0.10224178774E+04 0.  0.
        1    1    3    3  502    0  0.50433795860E+03 -0.46824274552E+02 -0.53565332181E+03  0.73720673516E+03  0.50400001928E-02 0.  1.
       -1    1    3    3    0  502 -0.50433795860E+03  0.46824274552E+02 -0.35239970059E+03  0.61703714489E+03  0.50400001928E-02 0. -1.
</event>
<event>
 5   0  0.9674819E-04  0.1008860E+04  0.7818609E-02  0.9298881E-01
       -2   -1    0    0    0  501  0.00000000000E+00  0.00000000000E+00  0.29200640939E+03  0.29200640940E+03  0.25500000920E-02 0.  1.
        2   -1    0    0  501    0  0.00000000000E+00  0.00000000000E+00 -0.87138321919E+03  0.87138321919E+03  0.25500000920E-02 0. -1.
    10030    2    1    2    0    0  0.00000000000E+00  0.00000000000E+00 -0.57937680980E+03  0.11633896286E+04  0.10088597228E+04 0.  0.
        4    1    3    3  502    0  0.15058258246E+03 -0.26828823151E+03 -0.75066076577E+03  0.81126252685E+03  0.12699999809E+01 0. -1.
       -4    1    3    3    0  502 -0.15058258246E+03  0.26828823151E+03  0.17128395597E+03  0.35212710174E+03  0.12699999809E+01 0.  1.
</event>
<event>
 5   0  0.9674819E-04  0.1004912E+04  0.7818609E-02  0.9303174E-01
        2   -1    0    0  501    0  0.00000000000E+00  0.00000000000E+00  0.15462778359E+04  0.15462778359E+04  0.25500000920E-02 0. -1.
       -2   -1    0    0    0  501  0.00000000000E+00  0.00000000000E+00 -0.16327076668E+03  0.16327076670E+03  0.25500000920E-02 0.  1.
    10030    2    1    2    0    0  0.00000000000E+00  0.00000000000E+00  0.13830070692E+04  0.17095486026E+04  0.10049118724E+04 0.  0.
        4    1    3    3  502    0 -0.29230831297E+03  0.31386089007E+03  0.11367727631E+04  0.12149924839E+04  0.12699999809E+01 0.  1.
       -4    1    3    3    0  502  0.29230831297E+03 -0.31386089007E+03  0.24623430617E+03  0.49455611875E+03  0.12699999809E+01 0. -1.
</event>
<event>
 5   0  0.1006006E-03  0.1000626E+04  0.7818609E-02  0.9307859E-01
        2   -1    0    0  501    0  0.00000000000E+00  0.00000000000E+00  0.37352452577E+03  0.37352452578E+03  0.25500000920E-02 0.  1.
       -2   -1    0    0    0  501  0.00000000000E+00  0.00000000000E+00 -0.67013765660E+03  0.67013765661E+03  0.25500000920E-02 0. -1.
    10030    2    1    2    0    0  0.00000000000E+00  0.00000000000E+00 -0.29661313083E+03  0.10436621824E+04  0.10006255052E+04 0.  0.
        2    1    3    3  502    0 -0.68988165675E+02 -0.36871557328E+03  0.19699474854E+03  0.42369502232E+03  0.25500000920E-02 0.  1.
       -2    1    3    3    0  502  0.68988165675E+02  0.36871557328E+03 -0.49360787937E+03  0.61996716007E+03  0.25500000920E-02 0. -1.
</event>
<event>
 5   0  0.9741826E-04  0.1000387E+04  0.7818609E-02  0.9308121E-01
        2   -1    0    0  501    0  0.00000000000E+00  0.00000000000E+00  0.62232691813E+03  0.62232691814E+03  0.25500000920E-02 0. -1.
       -2   -1    0    0    0  501  0.00000000000E+00  0.00000000000E+00 -0.40202876033E+03  0.40202876033E+03  0.25500000920E-02 0.  1.
    10030    2    1    2    0    0  0.00000000000E+00  0.00000000000E+00  0.22029815780E+03  0.10243556785E+04  0.10003865641E+04 0.  0.
        3    1    3    3  502    0  0.48092354388E+03 -0.18291138370E+02 -0.29392600829E+02  0.48216797486E+03  0.10100000352E+00 0.  1.
       -3    1    3    3    0  502 -0.48092354388E+03  0.18291138370E+02  0.24969075863E+03  0.54218770361E+03  0.10100000352E+00 0. -1.
</event>
<event>
 5   0  0.5758786E-04  0.1000473E+04  0.7818609E-02  0.9308026E-01
        1   -1    0    0  501    0  0.00000000000E+00  0.00000000000E+00  0.35066249759E+03  0.35066249762E+03  0.50400001928E-02 0.  1.
       -1   -1    0    0    0  501  0.00000000000E+00  0.00000000000E+00 -0.71361088822E+03  0.71361088824E+03  0.50400001928E-02 0. -1.
    10030    2    1    2    0    0  0.00000000000E+00  0.00000000000E+00 -0.36294839063E+03  0.10642733859E+04  0.10004730409E+04 0.  0.
        3    1    3    3  502    0  0.36792321681E+03 -0.31128173215E+03 -0.38862497545E+02  0.48350192777E+03  0.10100000352E+00 0.  1.
       -3    1    3    3    0  502 -0.36792321681E+03  0.31128173215E+03 -0.32408589309E+03  0.58077145810E+03  0.10100000352E+00 0. -1.
</event>
<event>
 5   0  0.5768102E-04  0.9986153E+03  0.7818609E-02  0.9310065E-01
       -1   -1    0    0    0  501  0.00000000000E+00  0.00000000000E+00  0.25512764048E+03  0.25512764053E+03  0.50400001928E-02 0. -1.
        1   -1    0    0  501    0  0.00000000000E+00  0.00000000000E+00 -0.97718986539E+03  0.97718986541E+03  0.50400001928E-02 0.  1.
    10030    2    1    2    0    0  0.00000000000E+00  0.00000000000E+00 -0.72206222491E+03  0.12323175059E+04  0.99861533074E+03 0.  0.
        4    1    3    3  502    0  0.10688540478E+03  0.83345037268E+02  0.23198961936E+03  0.26868509706E+03  0.12699999809E+01 0. -1.
       -4    1    3    3    0  502 -0.10688540478E+03 -0.83345037268E+02 -0.95405184427E+03  0.96363240888E+03  0.12699999809E+01 0.  1.
</event>
<event>
 5   0  0.9741826E-04  0.1001481E+04  0.7818609E-02  0.9306922E-01
       -2   -1    0    0    0  501  0.00000000000E+00  0.00000000000E+00  0.14519106324E+03  0.14519106327E+03  0.25500000920E-02 0. -1.
        2   -1    0    0  501    0  0.00000000000E+00  0.00000000000E+00 -0.17269731613E+04  0.17269731613E+04  0.25500000920E-02 0.  1.
    10030    2    1    2    0    0  0.00000000000E+00  0.00000000000E+00 -0.15817820981E+04  0.18721642246E+04  0.10014810423E+04 0.  0.
        3    1    3    3  502    0 -0.41719791823E+03 -0.18010487704E+03 -0.39765450563E+03  0.60383854279E+03  0.10100000352E+00 0. -1.
       -3    1    3    3    0  502  0.41719791823E+03  0.18010487704E+03 -0.11841275924E+04  0.12683256818E+04  0.10100000352E+00 0.  1.
</event>
<event>
 5   0  0.1006006E-03  0.1001906E+04  0.7818609E-02  0.9306457E-01
        2   -1    0    0  501    0  0.00000000000E+00  0.00000000000E+00  0.14546399836E+04  0.14546399836E+04  0.25500000920E-02 0.  1.
       -2   -1    0    0    0  501  0.00000000000E+00  0.00000000000E+00 -0.17251966442E+03  0.17251966444E+03  0.25500000920E-02 0. -1.
    10030    2    1    2    0    0  0.00000000000E+00  0.00000000000E+00  0.12821203192E+04  0.16271596481E+04  0.10019061869E+04 0.  0.
        2    1    3    3  502    0  0.15367778111E+02 -0.33771058292E+03  0.12414574779E+04  0.12866628447E+04  0.25500000920E-02 0.  1.
       -2    1    3    3    0  502 -0.15367778111E+02  0.33771058292E+03  0.40662841237E+02  0.34049680334E+03  0.25500000920E-02 0. -1.
</event>
<event>
 5   0  0.5826939E-04  0.9989376E+03  0.7818609E-02  0.9309711E-01
       -1   -1    0    0    0  501  0.00000000000E+00  0.00000000000E+00  0.28659837294E+03  0.28659837299E+03  0.50400001928E-02 0. -1.
        1   -1    0    0  501    0  0.00000000000E+00  0.00000000000E+00 -0.87044840585E+03  0.87044840587E+03  0.50400001928E-02 0.  1.
    10030    2    1    2    0    0  0.00000000000E+00  0.00000000000E+00 -0.58385003291E+03  0.11570467789E+04  0.99893762945E+03 0.  0.
        1    1    3    3  502    0  0.32865807566E+03 -0.19458942920E+03 -0.66471746056E+03  0.76663581905E+03  0.50400001928E-02 0.  1.
       -1    1    3    3    0  502 -0.32865807566E+03  0.19458942920E+03  0.80867427652E+02  0.39041095980E+03  0.50400001928E-02 0. -1.
</event>
<event>
 5   0  0.1006749E-03  0.9843859E+03  0.7818609E-02  0.9325838E-01
       -2   -1    0    0    0  501  0.00000000000E+00  0.00000000000E+00  0.28858401496E+03  0.28858401497E+03  0.25500000920E-02 0. -1.
        2   -1    0    0  501    0  0.00000000000E+00  0.00000000000E+00 -0.83945709095E+03  0.83945709096E+03  0.25500000920E-02 0.  1.
    10030    2    1    2    0    0  0.00000000000E+00  0.00000000000E+00 -0.55087307600E+03  0.11280411059E+04  0.98438589526E+03 0.  0.
        1    1    3    3  502    0 -0.17047594287E+03 -0.18702139886E+03 -0.75919824086E+03  0.80026309404E+03  0.50400001928E-02 0.  1.
       -1    1    3    3    0  502  0.17047594287E+03  0.18702139886E+03  0.20832516487E+03  0.32777801188E+03  0.50400001928E-02 0. -1.
</event>
<event>
 5   0  0.5888774E-04  0.1002972E+04  0.7818609E-02  0.9305291E-01
        1   -1    0    0  501    0  0.00000000000E+00  0.00000000000E+00  0.18091373391E+03  0.18091373398E+03  0.50400001928E-02 0. -1.
       -1   -1    0    0    0  501  0.00000000000E+00  0.00000000000E+00 -0.13901012610E+04  0.13901012610E+04  0.50400001928E-02 0.  1.
    10030    2    1    2    0    0  0.00000000000E+00  0.00000000000E+00 -0.12091875271E+04  0.15710149950E+04  0.10029724018E+04 0.  0.
        2    1    3    3  502    0  0.15928780125E+03  0.50710723279E+02  0.13598811036E+03  0.21549233687E+03  0.25500000920E-02 0. -1.
       -2    1    3    3    0  502 -0.15928780125E+03 -0.50710723279E+02 -0.13451756374E+04  0.13555226581E+04  0.25500000920E-02 0.  1.
</event>
<event>
 5   0  0.1020150E-03  0.1000951E+04  0.7818609E-02  0.9307503E-01
       -2   -1    0    0    0  501  0.00000000000E+00  0.00000000000E+00  0.32771663254E+03  0.32771663255E+03  0.25500000920E-02 0. -1.
        2   -1    0    0  501    0  0.00000000000E+00  0.00000000000E+00 -0.76430515686E+03  0.76430515686E+03  0.25500000920E-02 0.  1.
    10030    2    1    2    0    0  0.00000000000E+00  0.00000000000E+00 -0.43658852432E+03  0.10920217894E+04  0.10009505727E+04 0.  0.
        5    1    3    3  502    0 -0.28181915279E+03  0.11762176534E+03  0.21425952461E+03  0.37307659863E+03  0.46999998093E+01 0. -1.
       -5    1    3    3    0  502  0.28181915279E+03 -0.11762176534E+03 -0.65084804893E+03  0.71894519079E+03  0.46999998093E+01 0.  1.
</event>
<event>
 5   0  0.5888774E-04  0.1002971E+04  0.7818609E-02  0.9305293E-01
        1   -1    0    0  501    0  0.00000000000E+00  0.00000000000E+00  0.25769886919E+03  0.25769886924E+03  0.50400001928E-02 0.  1.
       -1   -1    0    0    0  501  0.00000000000E+00  0.00000000000E+00 -0.97589666603E+03  0.97589666604E+03  0.50400001928E-02 0. -1.
    10030    2    1    2    0    0  0.00000000000E+00  0.00000000000E+00 -0.71819779683E+03  0.12335955353E+04  0.10029705226E+04 0.  0.
        2    1    3    3  502    0  0.43691596625E+03  0.24610348200E+03 -0.35295141538E+03  0.61321871061E+03  0.25500000920E-02 0. -1.
       -2    1    3    3    0  502 -0.43691596625E+03 -0.24610348200E+03 -0.36524638145E+03  0.62037682467E+03  0.25500000920E-02 0.  1.
</event>
<event>
 5   0  0.5758786E-04  0.9988362E+03  0.7818609E-02  0.9309822E-01
       -1   -1    0    0    0  501  0.00000000000E+00  0.00000000000E+00  0.41433112594E+03  0.41433112597E+03  0.50400001928E-02 0. -1.
        1   -1    0    0  501    0  0.00000000000E+00  0.00000000000E+00 -0.60197849227E+03  0.60197849229E+03  0.50400001928E-02 0.  1.
    10030    2    1    2    0    0  0.00000000000E+00  0.00000000000E+00 -0.18764736632E+03  0.10163096183E+04  0.99883617580E+03 0.  0.
        3    1    3    3  502    0  0.12940129830E+03  0.11833808515E+03  0.38197824117E+03  0.42030463396E+03  0.10100000352E+00 0. -1.
       -3    1    3    3    0  502 -0.12940129830E+03 -0.11833808515E+03 -0.56962560749E+03  0.59600498430E+03  0.10100000352E+00 0.  1.
</event>
<event>
 5   0  0.5960102E-04  0.1006447E+04  0.7818609E-02  0.9301502E-01
       -1   -1    0    0    0  501  0.00000000000E+00  0.00000000000E+00  0.16289296220E+03  0.16289296228E+03  0.50400001928E-02 0.  1.
        1   -1    0    0  501    0  0.00000000000E+00  0.00000000000E+00 -0.15546017486E+04  0.15546017486E+04  0.50400001928E-02 0. -1.
    10030    2    1    2    0    0  0.00000000000E+00  0.00000000000E+00 -0.13917087864E+04  0.17174947109E+04  0.10064465886E+04 0.  0.
        5    1    3    3  502    0  0.45520472962E+03 -0.99871597019E+02 -0.37195348243E+03  0.59628614343E+03  0.46999998093E+01 0.  1.
       -5    1    3    3    0  502 -0.45520472962E+03  0.99871597019E+02 -0.10197553040E+04  0.11212085675E+04  0.46999998093E+01 0. -1.
</event>
<event>
 5   0  0.1006749E-03  0.9984533E+03  0.7818609E-02  0.9310243E-01
       -2   -1    0    0    0  501  0.00000000000E+00  0.00000000000E+00  0.25095628134E+03  0.25095628135E+03  0.25500000920E-02 0. -1.
        2   -1    0    0  501    0  0.00000000000E+00  0.00000000000E+00 -0.99311015187E+03  0.99311015187E+03  0.25500000920E-02 0.  1.
    10030    2    1    2    0    0  0.00000000000E+00  0.00000000000E+00 -0.74215387053E+03  0.12440664332E+04  0.99845326517E+03 0.  0.
        1    1    3    3  502    0  0.17413662219E+03  0.26728929886E+03  0.10739127706E+03  0.33660068165E+03  0.50400001928E-02 0. -1.
       -1    1    3    3    0  502 -0.17413662219E+03 -0.26728929886E+03 -0.84954514758E+03  0.90746575158E+03  0.50400001928E-02 0.  1.
</event>
<event>
 5   0  0.5758786E-04  0.9848114E+03  0.7818609E-02  0.9325362E-01
       -1   -1    0    0    0  501  0.00000000000E+00  0.00000000000E+00  0.17853703730E+03  0.17853703738E+03  0.50400001928E-02 0. -1.
        1   -1    0    0  501    0  0.00000000000E+00  0.00000000000E+00 -0.13580564240E+04  0.13580564240E+04  0.50400001928E-02 0.  1.
    10030    2    1    2    0    0  0.00000000000E+00  0.00000000000E+00 -0.11795193867E+04  0.15365934613E+04  0.98481139410E+03 0.  0.
        3    1    3    3  502    0  0.92679620428E+02 -0.14631885273E+03  0.12943959445E+03  0.21622520093E+03  0.10100000352E+00 0. -1.
       -3    1    3    3    0  502 -0.92679620428E+02  0.14631885273E+03 -0.13089589811E+04  0.13203682604E+04  0.10100000352E+00 0.  1.
</event>
<event>
 5   0  0.1006006E-03  0.9685605E+03  0.7818609E-02  0.9343715E-01
       -2   -1    0    0    0  501  0.00000000000E+00  0.00000000000E+00  0.21412501414E+03  0.21412501416E+03  0.25500000920E-02 0.  1.
        2   -1    0    0  501    0  0.00000000000E+00  0.00000000000E+00 -0.10952824495E+04  0.10952824495E+04  0.25500000920E-02 0. -1.
    10030    2    1    2    0    0  0.00000000000E+00  0.00000000000E+00 -0.88115743532E+03  0.13094074636E+04  0.96856051952E+03 0.  0.
        2    1    3    3  502    0 -0.24203640188E+03  0.99121807149E+02  0.11043171042E+03  0.28390476424E+03  0.25500000920E-02 0.  1.
       -2    1    3    3    0  502  0.24203640188E+03 -0.99121807149E+02 -0.99158914574E+03  0.10255026994E+04  0.25500000920E-02 0. -1.
</event>
<event>
 5   0  0.5768102E-04  0.1002518E+04  0.7818609E-02  0.9305787E-01
       -1   -1    0    0    0  501  0.00000000000E+00  0.00000000000E+00  0.81197135206E+03  0.81197135207E+03  0.50400001928E-02 0. -1.
        1   -1    0    0  501    0  0.00000000000E+00  0.00000000000E+00 -0.30944541701E+03  0.30944541705E+03  0.50400001928E-02 0.  1.
    10030    2    1    2    0    0  0.00000000000E+00  0.00000000000E+00  0.50252593505E+03  0.11214167691E+04  0.10025184560E+04 0.  0.
        4    1    3    3  502    0 -0.20049090746E+03 -0.18886364332E+03 -0.21720612951E+03  0.35077941122E+03  0.12699999809E+01 0.  1.
       -4    1    3    3    0  502  0.20049090746E+03  0.18886364332E+03  0.71973206456E+03  0.77063735790E+03  0.12699999809E+01 0. -1.
</event>
<event>
 5   0  0.5960102E-04  0.9999719E+03  0.7818609E-02  0.9308576E-01
        1   -1    0    0  501    0  0.00000000000E+00  0.00000000000E+00  0.77994007177E+03  0.77994007179E+03  0.50400001928E-02 0. -1.
       -1   -1    0    0    0  501  0.00000000000E+00  0.00000000000E+00 -0.32051942329E+03  0.32051942333E+03  0.50400001928E-02 0.  1.
    10030    2    1    2    0    0  0.00000000000E+00  0.00000000000E+00  0.45942064849E+03  0.11004594951E+04  0.99997188367E+03 0.  0.
        5    1    3    3  502    0 -0.87275288176E+02  0.30704106437E+03  0.65318136215E+03  0.72702075142E+03  0.46999998093E+01 0. -1.
       -5    1    3    3    0  502  0.87275288176E+02 -0.30704106437E+03 -0.19376071366E+03  0.37343874370E+03  0.46999998093E+01 0.  1.
</event>
<event>
 5   0  0.1020150E-03  0.9996437E+03  0.7818609E-02  0.9308936E-01
        2   -1    0    0  501    0  0.00000000000E+00  0.00000000000E+00  0.26552627875E+03  0.26552627877E+03  0.25500000920E-02 0.  1.
       -2   -1    0    0    0  501  0.00000000000E+00  0.00000000000E+00 -0.94085553242E+03  0.94085553242E+03  0.25500000920E-02 0. -1.
    10030    2    1    2    0    0  0.00000000000E+00  0.00000000000E+00 -0.67532925367E+03  0.12063818112E+04  0.99964367327E+03 0.  0.
        5    1    3    3  502    0  0.10599977553E+03  0.45484805201E+02 -0.92454623872E+03  0.93172563421E+03  0.46999998093E+01 0. -1.
       -5    1    3    3    0  502 -0.10599977553E+03 -0.45484805201E+02  0.24921698505E+03  0.27465617698E+03  0.46999998093E+01 0.  1.
</event>
<event>
 5   0  0.5960102E-04  0.9988322E+03  0.7818609E-02  0.9309827E-01
       -1   -1    0    0    0  501  0.00000000000E+00  0.00000000000E+00  0.40841318745E+03  0.40841318748E+03  0.50400001928E-02 0. -1.
        1   -1    0    0  501    0  0.00000000000E+00  0.00000000000E+00 -0.61069636276E+03  0.61069636278E+03  0.50400001928E-02 0.  1.
    10030    2    1    2    0    0  0.00000000000E+00  0.00000000000E+00 -0.20228317531E+03  0.10191095503E+04  0.99883221434E+03 0.  0.
        5    1    3    3  502    0 -0.10161390397E+02 -0.31230453998E+03 -0.49861004234E+03  0.58844833577E+03  0.46999998093E+01 0.  1.
       -5    1    3    3    0  502  0.10161390397E+02  0.31230453998E+03  0.29632686703E+03  0.43066121449E+03  0.46999998093E+01 0. -1.
</event>
<event>
 5   0  0.5888774E-04  0.9997762E+03  0.7818609E-02  0.9308790E-01
       -1   -1    0    0    0  501  0.00000000000E+00  0.00000000000E+00  0.92472516798E+03  0.92472516799E+03  0.50400001928E-02 0.  1.
        1   -1    0    0  501    0  0.00000000000E+00  0.00000000000E+00 -0.27022958916E+03  0.27022958921E+03  0.50400001928E-02 0. -1.
    10030    2    1    2    0    0  0.00000000000E+00  0.00000000000E+00  0.65449557882E+03  0.11949547572E+04  0.99977617948E+03 0.  0.
        2    1    3    3  502    0 -0.63657282180E+02 -0.13300602186E+03 -0.24364478452E+03  0.28479050626E+03  0.25500000920E-02 0. -1.
       -2    1    3    3    0  502  0.63657282180E+02  0.13300602186E+03  0.89814036334E+03  0.91016425094E+03  0.25500000920E-02 0.  1.
</event>
<event>
 5   0  0.1006749E-03  0.9991788E+03  0.7818609E-02  0.9309446E-01
        2   -1    0    0  501    0  0.00000000000E+00  0.00000000000E+00  0.48441889018E+03  0.48441889019E+03  0.25500000920E-02 0.  1.
       -2   -1    0    0    0  501  0.00000000000E+00  0.00000000000E+00 -0.51523501085E+03  0.51523501086E+03  0.25500000920E-02 0. -1.
    10030    2    1    2    0    0  0.00000000000E+00  0.00000000000E+00 -0.30816120671E+02  0.99965390104E+03  0.99917880711E+03 0.  0.
        1    1    3    3  502    0  0.32709214353E+03  0.30125751232E+03 -0.24320956819E+03  0.50684933972E+03  0.50400001928E-02 0.  1.
       -1    1    3    3    0  502 -0.32709214353E+03 -0.30125751232E+03  0.21239344752E+03  0.49280456132E+03  0.50400001928E-02 0. -1.
</event>
<event>
 5   0  0.5768102E-04  0.1001667E+04  0.7818609E-02  0.9306718E-01
       -1   -1    0    0    0  501  0.00000000000E+00  0.00000000000E+00  0.26811345869E+03  0.26811345874E+03  0.50400001928E-02 0.  1.
        1   -1    0    0  501    0  0.00000000000E+00  0.00000000000E+00 -0.93555321082E+03  0.93555321083E+03  0.50400001928E-02 0. -1.
    10030    2    1    2    0    0  0.00000000000E+00  0.00000000000E+00 -0.66743975213E+03  0.12036666696E+04  0.10016674242E+04 0.  0.
        4    1    3    3  502    0  0.99120746372E+02 -0.14777691447E+03  0.22884562431E+03  0.28988768770E+03  0.12699999809E+01 0.  1.
       -4    1    3    3    0  502 -0.99120746372E+02  0.14777691447E+03 -0.89628537644E+03  0.91377898188E+03  0.12699999809E+01 0. -1.
</event>
<event>
 5   0  0.1006749E-03  0.1000520E+04  0.7818609E-02  0.9307974E-01
        2   -1    0    0  501    0  0.00000000000E+00  0.00000000000E+00  0.29461981891E+04  0.29461981891E+04  0.25500000920E-02 0.  1.
       -2   -1    0    0    0  501  0.00000000000E+00  0.00000000000E+00 -0.84943456283E+02  0.84943456321E+02  0.25500000920E-02 0. -1.
    10030    2    1    2    0    0  0.00000000000E+00  0.00000000000E+00  0.28612547329E+04  0.30311416455E+04  0.10005203789E+04 0.  0.
        1    1    3    3  502    0 -0.44870234603E+03  0.60724700494E+02  0.78625536911E+03  0.90731405261E+03  0.50400001928E-02 0. -1.
       -1    1    3    3    0  502  0.44870234603E+03 -0.60724700494E+02  0.20749993637E+04  0.21238275928E+04  0.50400001928E-02 0.  1.
</event>
<event>
 5   0  0.1006749E-03  0.1000285E+04  0.7818609E-02  0.9308232E-01
       -2   -1    0    0    0  501  0.00000000000E+00  0.00000000000E+00  0.11943228835E+03  0.11943228838E+03  0.25500000920E-02 0.  1.
        2   -1    0    0  501    0  0.00000000000E+00  0.00000000000E+00 -0.20944289706E+04  0.20944289706E+04  0.25500000920E-02 0. -1.
    10030    2    1    2    0    0  0.00000000000E+00  0.00000000000E+00 -0.19749966822E+04  0.22138612590E+04  0.10002848490E+04 0.  0.
        1    1    3    3  502    0  0.12399612415E+03 -0.38496642520E+03 -0.16386858293E+04  0.16878582389E+04  0.50400001928E-02 0. -1.
       -1    1    3    3    0  502 -0.12399612415E+03  0.38496642520E+03 -0.33631085294E+03  0.52600302010E+03  0.50400001928E-02 0.  1.
</event>
<event>
 5   0  0.5768102E-04  0.1005420E+04  0.7818609E-02  0.9302620E-01
        1   -1    0    0  501    0  0.00000000000E+00  0.00000000000E+00  0.16215117588E+04  0.16215117588E+04  0.50400001928E-02 0. -1.
       -1   -1    0    0    0  501  0.00000000000E+00  0.00000000000E+00 -0.15585304982E+03  0.15585304990E+03  0.50400001928E-02 0.  1.
    10030    2    1    2    0    0  0.00000000000E+00  0.00000000000E+00  0.14656587090E+04  0.17773648087E+04  0.10054204156E+04 0.  0.
        4    1    3    3  502    0 -0.19391732333E+03 -0.46157471927E+03  0.65257921744E+03  0.82250616879E+03  0.12699999809E+01 0.  1.
       -4    1    3    3    0  502  0.19391732333E+03  0.46157471927E+03  0.81307949152E+03  0.95485863990E+03  0.12699999809E+01 0. -1.
</event>
<event>
 5   0  0.5758786E-04  0.1000621E+04  0.7818609E-02  0.9307864E-01
        1   -1    0    0  501    0  0.00000000000E+00  0.00000000000E+00  0.28825417553E+03  0.28825417558E+03  0.50400001928E-02 0. -1.
       -1   -1    0    0    0  501  0.00000000000E+00  0.00000000000E+00 -0.86836834150E+03  0.86836834152E+03  0.50400001928E-02 0.  1.
    10030    2    1    2    0    0  0.00000000000E+00  0.00000000000E+00 -0.58011416597E+03  0.11566225171E+04  0.10006214077E+04 0.  0.
        3    1    3    3  502    0  0.27060897646E+03  0.29128699468E+03  0.60990591410E+02  0.40224021909E+03  0.10100000352E+00 0. -1.
       -3    1    3    3    0  502 -0.27060897646E+03 -0.29128699468E+03 -0.64110475738E+03  0.75438229801E+03  0.10100000352E+00 0.  1.
</event>
<event>
 5   0  0.9674819E-04  0.1000293E+04  0.7818609E-02  0.9308223E-01
        2   -1    0    0  501    0  0.00000000000E+00  0.00000000000E+00  0.16603539783E+04  0.16603539783E+04  0.25500000920E-02 0. -1.
       -2   -1    0    0    0  501  0.00000000000E+00  0.00000000000E+00 -0.15065861188E+03  0.15065861190E+03  0.25500000920E-02 0.  1.
    10030    2    1    2    0    0  0.00000000000E+00  0.00000000000E+00  0.15096953664E+04  0.18110125902E+04  0.10002932082E+04 0.  0.
        4    1    3    3  502    0 -0.45851652055E+03  0.56944099513E+02  0.11015205814E+04  0.11944995749E+04  0.12699999809E+01 0. -1.
       -4    1    3    3    0  502  0.45851652055E+03 -0.56944099513E+02  0.40817478492E+03  0.61651301530E+03  0.12699999809E+01 0.  1.
</event>
<event>
 5   0  0.5768102E-04  0.9991001E+03  0.7818609E-02  0.9309532E-01
       -1   -1    0    0    0  501  0.00000000000E+00  0.00000000000E+00  0.40514468010E+03  0.40514468013E+03  0.50400001928E-02 0. -1.
        1   -1    0    0  501    0  0.00000000000E+00  0.00000000000E+00 -0.61595346599E+03  0.61595346601E+03  0.50400001928E-02 0.  1.
    10030    2    1    2    0    0  0.00000000000E+00  0.00000000000E+00 -0.21080878589E+03  0.10210981461E+04  0.99910013504E+03 0.  0.
        4    1    3    3  502    0 -0.14727619671E+03 -0.24379121029E+03  0.31402682207E+03  0.42395623620E+03  0.12699999809E+01 0. -1.
       -4    1    3    3    0  502  0.14727619671E+03  0.24379121029E+03 -0.52483560796E+03  0.59714190994E+03  0.12699999809E+01 0.  1.
</event>
<event>
 5   0  0.5826939E-04  0.9991668E+03  0.7818609E-02  0.9309459E-01
        1   -1    0    0  501    0  0.00000000000E+00  0.00000000000E+00  0.69648537089E+03  0.69648537091E+03  0.50400001928E-02 0.  1.
       -1   -1    0    0    0  501  0.00000000000E+00  0.00000000000E+00 -0.35834719677E+03  0.35834719680E+03  0.50400001928E-02 0. -1.
    10030    2    1    2    0    0  0.00000000000E+00  0.00000000000E+00  0.33813817413E+03  0.10548325677E+04  0.99916681345E+03 0.  0.
        1    1    3    3  502    0 -0.24626861112E+03  0.41581120686E+03  0.35379107539E+02  0.48456049142E+03  0.50400001928E-02 0. -1.
       -1    1    3    3    0  502  0.24626861112E+03 -0.41581120686E+03  0.30275906659E+03  0.57027207629E+03  0.50400001928E-02 0.  1.
</event>
<event>
 5   0  0.5960102E-04  0.9981433E+03  0.7818609E-02  0.9310584E-01
       -1   -1    0    0    0  501  0.00000000000E+00  0.00000000000E+00  0.17663390038E+03  0.17663390045E+03  0.50400001928E-02 0. -1.
        1   -1    0    0  501    0  0.00000000000E+00  0.00000000000E+00 -0.14101059270E+04  0.14101059270E+04  0.50400001928E-02 0.  1.
    10030    2    1    2    0    0  0.00000000000E+00  0.00000000000E+00 -0.12334720266E+04  0.15867398275E+04  0.99814329613E+03 0.  0.
        5    1    3    3  502    0  0.34285989635E+03 -0.29082605553E+03 -0.96107108814E+03  0.10610430856E+04  0.46999998093E+01 0.  1.
       -5    1    3    3    0  502 -0.34285989635E+03  0.29082605553E+03 -0.27240093848E+03  0.52569674184E+03  0.46999998093E+01 0. -1.
</event>
<event>
 5   0  0.9674819E-04  0.9993238E+03  0.7818609E-02  0.9309287E-01
       -2   -1    0    0    0  501  0.00000000000E+00  0.00000000000E+00  0.26094913322E+03  0.26094913323E+03  0.25500000920E-02 0.  1.
        2   -1    0    0  501    0  0.00000000000E+00  0.00000000000E+00 -0.95674598558E+03  0.95674598558E+03  0.25500000920E-02 0. -1.
    10030    2    1    2    0    0  0.00000000000E+00  0.00000000000E+00 -0.69579685236E+03  0.12176951188E+04  0.99932384272E+03 0.  0.
        4    1    3    3  502    0  0.42021696860E+03  0.20309614106E+03 -0.13050261196E+03  0.48462654471E+03  0.12699999809E+01 0.  1.
       -4    1    3    3    0  502 -0.42021696860E+03 -0.20309614106E+03 -0.56529424040E+03  0.73306857410E+03  0.12699999809E+01 0. -1.
</event>
<event>
 5   0  0.1006006E-03  0.9944477E+03  0.7818609E-02  0.9314655E-01
        2   -1    0    0  501    0  0.00000000000E+00  0.00000000000E+00  0.95661173197E+03  0.95661173197E+03  0.25500000920E-02 0. -1.
       -2   -1    0    0    0  501  0.00000000000E+00  0.00000000000E+00 -0.25844505322E+03  0.25844505324E+03  0.25500000920E-02 0.  1.
    10030    2    1    2    0    0  0.00000000000E+00  0.00000000000E+00  0.69816667875E+03  0.12150567852E+04  0.99444772612E+03 0.  0.
        2    1    3    3  502    0 -0.45878135105E+03 -0.16613948116E+03  0.23221431850E+03  0.54037592933E+03  0.25500000920E-02 0.  1.
       -2    1    3    3    0  502  0.45878135105E+03  0.16613948116E+03  0.46595236025E+03  0.67468085589E+03  0.25500000920E-02 0. -1.
</event>
<event>
 5   0  0.5960102E-04  0.1002802E+04  0.7818609E-02  0.9305477E-01
        1   -1    0    0  501    0  0.00000000000E+00  0.00000000000E+00  0.12239303946E+04  0.12239303946E+04  0.50400001928E-02 0.  1.
       -1   -1    0    0    0  501  0.00000000000E+00  0.00000000000E+00 -0.20540615380E+03  0.20540615386E+03  0.50400001928E-02 0. -1.
    10030    2    1    2    0    0  0.00000000000E+00  0.00000000000E+00  0.10185242408E+04  0.14293365485E+04  0.10028017450E+04 0.  0.
        5    1    3    3  502    0 -0.43907706347E+03 -0.24193956916E+03  0.52005358953E+03  0.72235811671E+03  0.46999998093E+01 0.  1.
       -5    1    3    3    0  502  0.43907706347E+03  0.24193956916E+03  0.49847065127E+03  0.70697843176E+03  0.46999998093E+01 0. -1.
</event>
<event>
 5   0  0.5826939E-04  0.1000327E+04  0.7818609E-02  0.9308186E-01
       -1   -1    0    0    0  501  0.00000000000E+00  0.00000000000E+00  0.63971287780E+03  0.63971287782E+03  0.50400001928E-02 0.  1.
        1   -1    0    0  501    0  0.00000000000E+00  0.00000000000E+00 -0.39105579960E+03  0.39105579963E+03  0.50400001928E-02 0. -1.
    10030    2    1    2    0    0  0.00000000000E+00  0.00000000000E+00  0.24865707820E+03  0.10307686775E+04  0.10003268085E+04 0.  0.
        1    1    3    3  502    0 -0.15071073274E+03 -0.30709828116E+02 -0.36608194658E+03  0.39708035729E+03  0.50400001928E-02 0. -1.
       -1    1    3    3    0  502  0.15071073274E+03  0.30709828116E+02  0.61473902478E+03  0.63368832017E+03  0.50400001928E-02 0.  1.
</event>
<event>
 5   0  0.9741826E-04  0.9995950E+03  0.7818609E-02  0.9308989E-01
       -2   -1    0    0    0  501  0.00000000000E+00  0.00000000000E+00  0.12004058100E+03  0.12004058103E+03  0.25500000920E-02 0.  1.
        2   -1    0    0  501    0  0.00000000000E+00  0.00000000000E+00 -0.20809422532E+04  0.20809422532E+04  0.25500000920E-02 0. -1.
    10030    2    1    2    0    0  0.00000000000E+00  0.00000000000E+00 -0.19609016722E+04  0.22009828343E+04  0.99959495226E+03 0.  0.
        3    1    3    3  502    0  0.38211920738E+03  0.75165816907E+02 -0.16702125315E+04  0.17150145478E+04  0.10100000352E+00 0. -1.
       -3    1    3    3    0  502 -0.38211920738E+03 -0.75165816907E+02 -0.29068914072E+03  0.48596828643E+03  0.10100000352E+00 0.  1.
</event>
<event>
 5   0  0.9674819E-04  0.1019979E+04  0.7818609E-02  0.9286900E-01
        2   -1    0    0  501    0  0.00000000000E+00  0.00000000000E+00  0.35343474114E+03  0.35343474115E+03  0.25500000920E-02 0. -1.
       -2   -1    0    0    0  501  0.00000000000E+00  0.00000000000E+00 -0.73589008559E+03  0.73589008559E+03  0.25500000920E-02 0.  1.
    10030    2    1    2    0    0  0.00000000000E+00  0.00000000000E+00 -0.38245534445E+03  0.10893248267E+04  0.10199786702E+04 0.  0.
        4    1    3    3  502    0 -0.33309475227E+02 -0.33956833659E+03  0.21358245791E+03  0.40253603016E+03  0.12699999809E+01 0. -1.
       -4    1    3    3    0  502  0.33309475227E+02  0.33956833659E+03 -0.59603780236E+03  0.68678879657E+03  0.12699999809E+01 0.  1.
</event>
<event>
 5   0  0.9674819E-04  0.9983333E+03  0.7818609E-02  0.9310375E-01
        2   -1    0    0  501    0  0.00000000000E+00  0.00000000000E+00  0.25159106973E+03  0.25159106974E+03  0.25500000920E-02 0. -1.
       -2   -1    0    0    0  501  0.00000000000E+00  0.00000000000E+00 -0.99036637905E+03  0.99036637905E+03  0.25500000920E-02 0.  1.
    10030    2    1    2    0    0  0.00000000000E+00  0.00000000000E+00 -0.73877530932E+03  0.12419574488E+04  0.99833328450E+03 0.  0.
        4    1    3    3  502    0  0.33880101147E+02  0.12317402837E+03 -0.96968383024E+03  0.97806341617E+03  0.12699999809E+01 0.  1.
       -4    1    3    3    0  502 -0.33880101147E+02 -0.12317402837E+03  0.23090852092E+03  0.26389403262E+03  0.12699999809E+01 0. -1.
</event>
<event>
 5   0  0.5758786E-04  0.1001138E+04  0.7818609E-02  0.9307297E-01
       -1   -1    0    0    0  501  0.00000000000E+00  0.00000000000E+00  0.26681873879E+03  0.26681873884E+03  0.50400001928E-02 0. -1.
        1   -1    0    0  501    0  0.00000000000E+00  0.00000000000E+00 -0.93909980093E+03  0.93909980094E+03  0.50400001928E-02 0.  1.
    10030    2    1    2    0    0  0.00000000000E+00  0.00000000000E+00 -0.67228106214E+03  0.12059185398E+04  0.10011382013E+04 0.  0.
        3    1    3    3  502    0 -0.18998158088E+03 -0.42887828937E+03 -0.12563805006E+03  0.48560737020E+03  0.10100000352E+00 0. -1.
       -3    1    3    3    0  502  0.18998158088E+03  0.42887828937E+03 -0.54664301208E+03  0.72031116958E+03  0.10100000352E+00 0.  1.
</event>
<event>
 5   0  0.5758786E-04  0.1001049E+04  0.7818609E-02  0.9307395E-01
        1   -1    0    0  501    0  0.00000000000E+00  0.00000000000E+00  0.32040183790E+03  0.32040183794E+03  0.50400001928E-02 0. -1.
       -1   -1    0    0    0  501  0.00000000000E+00  0.00000000000E+00 -0.78190846659E+03  0.78190846661E+03  0.50400001928E-02 0.  1.
    10030    2    1    2    0    0  0.00000000000E+00  0.00000000000E+00 -0.46150662869E+03  0.11023103045E+04  0.10010492691E+04 0.  0.
        3    1    3    3  502    0 -0.25550284524E+03 -0.41645287040E+03 -0.35042105312E+03  0.60125670213E+03  0.10100000352E+00 0.  1.
       -3    1    3    3    0  502  0.25550284524E+03  0.41645287040E+03 -0.11108557557E+03  0.50105360241E+03  0.10100000352E+00 0. -1.
</event>
<event>
 5   0  0.5826939E-04  0.1001274E+04  0.7818609E-02  0.9307148E-01
       -1   -1    0    0    0  501  0.00000000000E+00  0.00000000000E+00  0.20366018744E+03  0.20366018750E+03  0.50400001928E-02 0.  1.
        1   -1    0    0  501    0  0.00000000000E+00  0.00000000000E+00 -0.12306651488E+04  0.12306651488E+04  0.50400001928E-02 0. -1.
    10030    2    1    2    0    0  0.00000000000E+00  0.00000000000E+00 -0.10270049613E+04  0.14343253363E+04  0.10012741781E+04 0.  0.
        1    1    3    3  502    0  0.43409958233E+03 -0.18658075185E+03 -0.27645652261E+03  0.54743313131E+03  0.50400001928E-02 0.  1.
       -1    1    3    3    0  502 -0.43409958233E+03  0.18658075185E+03 -0.75054843872E+03  0.88689220497E+03  0.50400001928E-02 0. -1.
</event>
<event>
 5   0  0.5888774E-04  0.9996139E+03  0.7818609E-02  0.9308968E-01
        1   -1    0    0  501    0  0.00000000000E+00  0.00000000000E+00  0.63369678669E+03  0.63369678671E+03  0.50400001928E-02 0. -1.
       -1   -1    0    0    0  501  0.00000000000E+00  0.00000000000E+00 -0.39420587693E+03  0.39420587696E+03  0.50400001928E-02 0.  1.
    10030    2    1    2    0    0  0.00000000000E+00  0.00000000000E+00  0.23949090976E+03  0.10279026637E+04  0.99961392053E+03 0.  0.
        2    1    3    3  502    0 -0.44694099607E+03 -0.18176913969E+03  0.25386160789E+03  0.54519903712E+03  0.25500000920E-02 0. -1.
       -2    1    3    3    0  502  0.44694099607E+03  0.18176913969E+03 -0.14370698130E+02  0.48270362655E+03  0.25500000920E-02 0.  1.
</event>
<event>
 5   0  0.9741826E-04  0.1004912E+04  0.7818609E-02  0.9303174E-01
        2   -1    0    0  501    0  0.00000000000E+00  0.00000000000E+00  0.17717296095E+04  0.17717296095E+04  0.25500000920E-02 0. -1.
       -2   -1    0    0    0  501  0.00000000000E+00  0.00000000000E+00 -0.14249456650E+03  0.14249456653E+03  0.25500000920E-02 0.  1.
    10030    2    1    2    0    0  0.00000000000E+00  0.00000000000E+00  0.16292350430E+04  0.19142241761E+04  0.10049116234E+04 0.  0.
        3    1    3    3  502    0 -0.19806151595E+03 -0.13941463129E+02 -0.64596470283E+02  0.20879521706E+03  0.10100000352E+00 0.  1.
       -3    1    3    3    0  502  0.19806151595E+03  0.13941463129E+02  0.16938315133E+04  0.17054289590E+04  0.10100000352E+00 0. -1.
</event>
<event>
 5   0  0.9741826E-04  0.9998799E+03  0.7818609E-02  0.9308677E-01
       -2   -1    0    0    0  501  0.00000000000E+00  0.00000000000E+00  0.23693045842E+03  0.23693045844E+03  0.25500000920E-02 0. -1.
        2   -1    0    0  501    0  0.00000000000E+00  0.00000000000E+00 -0.10549085096E+04  0.10549085096E+04  0.25500000920E-02 0.  1.
    10030    2    1    2    0    0  0.00000000000E+00  0.00000000000E+00 -0.81797805116E+03  0.12918389680E+04  0.99987990635E+03 0.  0.
        3    1    3    3  502    0 -0.17261791018E+03 -0.22947968865E+03 -0.93773211941E+03  0.98071372398E+03  0.10100000352E+00 0.  1.
       -3    1    3    3    0  502  0.17261791018E+03  0.22947968865E+03  0.11975406825E+03  0.31112524405E+03  0.10100000352E+00 0. -1.
</event>
<event>
 5   0  0.5758786E-04  0.1000181E+04  0.7818609E-02  0.9308346E-01
        1   -1    0    0  501    0  0.00000000000E+00  0.00000000000E+00  0.21700426583E+04  0.21700426583E+04  0.50400001928E-02 0. -1.
       -1   -1    0    0    0  501  0.00000000000E+00  0.00000000000E+00 -0.11524685432E+03  0.11524685443E+03  0.50400001928E-02 0.  1.
    10030    2    1    2    0    0  0.00000000000E+00  0.00000000000E+00  0.20547958040E+04  0.22852895127E+04  0.10001811641E+04 0.  0.
        3    1    3    3  502    0  0.28710173403E+03 -0.30603390002E+03  0.16489782454E+04  0.17015326672E+04  0.10100000352E+00 0.  1.
       -3    1    3    3    0  502 -0.28710173403E+03  0.30603390002E+03  0.40581755863E+03  0.58375684556E+03  0.10100000352E+00 0. -1.
</event>
<event>
 5   0  0.1006006E-03  0.9994151E+03  0.7818609E-02  0.9309187E-01
        2   -1    0    0  501    0  0.00000000000E+00  0.00000000000E+00  0.12332599368E+04  0.12332599368E+04  0.25500000920E-02 0. -1.
       -2   -1    0    0    0  501  0.00000000000E+00  0.00000000000E+00 -0.20247768262E+03  0.20247768263E+03  0.25500000920E-02 0.  1.
    10030    2    1    2    0    0  0.00000000000E+00  0.00000000000E+00  0.10307822542E+04  0.14357376194E+04  0.99941505708E+03 0.  0.
        2    1    3    3  502    0  0.31174058875E+03  0.37532213496E+03  0.67050638660E+03  0.82923320854E+03  0.25500000920E-02 0. -1.
       -2    1    3    3    0  502 -0.31174058875E+03 -0.37532213496E+03  0.36027586759E+03  0.60650441090E+03  0.25500000920E-02 0.  1.
</event>
<event>
 5   0  0.1006749E-03  0.9985670E+03  0.7818609E-02  0.9310118E-01
       -2   -1    0    0    0  501  0.00000000000E+00  0.00000000000E+00  0.61499557342E+03  0.61499557342E+03  0.25500000920E-02 0.  1.
        2   -1    0    0  501    0  0.00000000000E+00  0.00000000000E+00 -0.40534278533E+03  0.40534278533E+03  0.25500000920E-02 0. -1.
    10030    2    1    2    0    0  0.00000000000E+00  0.00000000000E+00  0.20965278809E+03  0.10203383588E+04  0.99856701067E+03 0.  0.
        1    1    3    3  502    0 -0.45035391023E+02  0.49707999001E+03  0.11804347130E+03  0.51288494231E+03  0.50400001928E-02 0.  1.
       -1    1    3    3    0  502  0.45035391023E+02 -0.49707999001E+03  0.91609316790E+02  0.50745341644E+03  0.50400001928E-02 0. -1.
</event>
<event>
 5   0  0.9674819E-04  0.9997146E+03  0.7818609E-02  0.9308858E-01
        2   -1    0    0  501    0  0.00000000000E+00  0.00000000000E+00  0.94409474573E+03  0.94409474573E+03  0.25500000920E-02 0. -1.
       -2   -1    0    0    0  501  0.00000000000E+00  0.00000000000E+00 -0.26465279076E+03  0.26465279078E+03  0.25500000920E-02 0.  1.
    10030    2    1    2    0    0  0.00000000000E+00  0.00000000000E+00  0.67944195497E+03  0.12087475365E+04  0.99971457769E+03 0.  0.
        4    1    3    3  502    0 -0.46041509630E+03  0.64636219222E+02  0.56166703141E+03  0.72913055677E+03  0.12699999809E+01 0. -1.
       -4    1    3    3    0  502  0.46041509630E+03 -0.64636219222E+02  0.11777492356E+03  0.47961697974E+03  0.12699999809E+01 0.  1.
</event>
<event>
 5   0  0.5960102E-04  0.9988140E+03  0.7818609E-02  0.9309847E-01
        1   -1    0    0  501    0  0.00000000000E+00  0.00000000000E+00  0.34107643274E+03  0.34107643278E+03  0.50400001928E-02 0. -1.
       -1   -1    0    0    0  501  0.00000000000E+00  0.00000000000E+00 -0.73123590954E+03  0.73123590955E+03  0.50400001928E-02 0.  1.
    10030    2    1    2    0    0  0.00000000000E+00  0.00000000000E+00 -0.39015947679E+03  0.10723123423E+04  0.99881396776E+03 0.  0.
        5    1    3    3  502    0 -0.12092777584E+03  0.19761159613E+03 -0.67002628314E+03  0.70896486513E+03  0.46999998093E+01 0.  1.
       -5    1    3    3    0  502  0.12092777584E+03 -0.19761159613E+03  0.27986680635E+03  0.36334747720E+03  0.46999998093E+01 0. -1.
</event>
<event>
 5   0  0.1006749E-03  0.9996521E+03  0.7818609E-02  0.9308926E-01
        2   -1    0    0  501    0  0.00000000000E+00  0.00000000000E+00  0.81353218507E+03  0.81353218507E+03  0.25500000920E-02 0. -1.
       -2   -1    0    0    0  501  0.00000000000E+00  0.00000000000E+00 -0.30708816002E+03  0.30708816003E+03  0.25500000920E-02 0.  1.
    10030    2    1    2    0    0  0.00000000000E+00  0.00000000000E+00  0.50644402505E+03  0.11206203451E+04  0.99965214318E+03 0.  0.
        1    1    3    3  502    0  0.29671759885E+03 -0.38663894670E+03  0.12892075714E+03  0.50413447633E+03  0.50400001928E-02 0.  1.
       -1    1    3    3    0  502 -0.29671759885E+03  0.38663894670E+03  0.37752326790E+03  0.61648586878E+03  0.50400001928E-02 0. -1.
</event>
<event>
 5   0  0.9741826E-04  0.9998972E+03  0.7818609E-02  0.9308658E-01
       -2   -1    0    0    0  501  0.00000000000E+00  0.00000000000E+00  0.14254076854E+03  0.14254076856E+03  0.25500000920E-02 0.  1.
        2   -1    0    0  501    0  0.00000000000E+00  0.00000000000E+00 -0.17535235412E+04  0.17535235412E+04  0.25500000920E-02 0. -1.
    10030    2    1    2    0    0  0.00000000000E+00  0.00000000000E+00 -0.16109827727E+04  0.18960643098E+04  0.99989718120E+03 0.  0.
        3    1    3    3  502    0 -0.22225236496E+03  0.19404593550E+03 -0.15708349853E+04  0.15983030063E+04  0.10100000352E+00 0. -1.
       -3    1    3    3    0  502  0.22225236496E+03 -0.19404593550E+03 -0.40147787411E+02  0.29776130348E+03  0.10100000352E+00 0.  1.
</event>
<event>
 5   0  0.5768102E-04  0.9996378E+03  0.7818609E-02  0.9308942E-01
       -1   -1    0    0    0  501  0.00000000000E+00  0.00000000000E+00  0.64679060342E+03  0.64679060344E+03  0.50400001928E-02 0.  1.
        1   -1    0    0  501    0  0.00000000000E+00  0.00000000000E+00 -0.38624388043E+03  0.38624388046E+03  0.50400001928E-02 0. -1.
    10030    2    1    2    0    0  0.00000000000E+00  0.00000000000E+00  0.26054672300E+03  0.10330344839E+04  0.99963775943E+03 0.  0.
        4    1    3    3  502    0 -0.23961667232E+03 -0.23418159196E+03  0.51355539188E+03  0.61318669351E+03  0.12699999809E+01 0.  1.
       -4    1    3    3    0  502  0.23961667232E+03  0.23418159196E+03 -0.25300866888E+03  0.41984779039E+03  0.12699999809E+01 0. -1.
</event>
<event>
 5   0  0.1020150E-03  0.1029677E+04  0.7818609E-02  0.9276581E-01
       -2   -1    0    0    0  501  0.00000000000E+00  0.00000000000E+00  0.33924799907E+03  0.33924799908E+03  0.25500000920E-02 0.  1.
        2   -1    0    0  501    0  0.00000000000E+00  0.00000000000E+00 -0.78131262067E+03  0.78131262068E+03  0.25500000920E-02 0. -1.
    10030    2    1    2    0    0  0.00000000000E+00  0.00000000000E+00 -0.44206462160E+03  0.11205606198E+04  0.10296771207E+04 0.  0.
        5    1    3    3  502    0 -0.21956253103E+03  0.30934750741E+03 -0.59979365675E+03  0.70970282939E+03  0.46999998093E+01 0. -1.
       -5    1    3    3    0  502  0.21956253103E+03 -0.30934750741E+03  0.15772903515E+03  0.41085779036E+03  0.46999998093E+01 0.  1.
</event>
<event>
 5   0  0.1006006E-03  0.1000462E+04  0.7818609E-02  0.9308039E-01
       -2   -1    0    0    0  501  0.00000000000E+00  0.00000000000E+00  0.79508285402E+03  0.79508285403E+03  0.25500000920E-02 0.  1.
        2   -1    0    0  501    0  0.00000000000E+00  0.00000000000E+00 -0.31472301573E+03  0.31472301574E+03  0.25500000920E-02 0. -1.
    10030    2    1    2    0    0  0.00000000000E+00  0.00000000000E+00  0.48035983829E+03  0.11098058698E+04  0.10004616406E+04 0.  0.
        2    1    3    3  502    0 -0.20428981951E+02  0.20363470048E+02 -0.31379972530E+03  0.31512264568E+03  0.25500000920E-02 0. -1.
       -2    1    3    3    0  502  0.20428981951E+02 -0.20363470048E+02  0.79415956359E+03  0.79468322410E+03  0.25500000920E-02 0.  1.
</event>
<event>
 5   0  0.1006006E-03  0.9992861E+03  0.7818609E-02  0.9309328E-01
       -2   -1    0    0    0  501  0.00000000000E+00  0.00000000000E+00  0.35996935925E+03  0.35996935926E+03  0.25500000920E-02 0.  1.
        2   -1    0    0  501    0  0.00000000000E+00  0.00000000000E+00 -0.69351223085E+03  0.69351223085E+03  0.25500000920E-02 0. -1.
    10030    2    1    2    0    0  0.00000000000E+00  0.00000000000E+00 -0.33354287160E+03  0.10534815901E+04  0.99928605189E+03 0.  0.
        2    1    3    3  502    0 -0.21328245612E+03  0.17392511120E+03 -0.60640583326E+03  0.66593346891E+03  0.25500000920E-02 0. -1.
       -2    1    3    3    0  502  0.21328245612E+03 -0.17392511120E+03  0.27286296166E+03  0.38754812120E+03  0.25500000920E-02 0.  1.
</event>
<event>
 5   0  0.5758786E-04  0.9872392E+03  0.7818609E-02  0.9322652E-01
       -1   -1    0    0    0  501  0.00000000000E+00  0.00000000000E+00  0.33282661340E+03  0.33282661344E+03  0.50400001928E-02 0. -1.
        1   -1    0    0  501    0  0.00000000000E+00  0.00000000000E+00 -0.73209381677E+03  0.73209381679E+03  0.50400001928E-02 0.  1.
    10030    2    1    2    0    0  0.00000000000E+00  0.00000000000E+00 -0.39926720336E+03  0.10649204302E+04  0.98723919241E+03 0.  0.
        3    1    3    3  502    0  0.18924190288E+03  0.43532139118E+03 -0.34572712058E+03  0.58723458986E+03  0.10100000352E+00 0.  1.
       -3    1    3    3    0  502 -0.18924190288E+03 -0.43532139118E+03 -0.53540082787E+02  0.47768584037E+03  0.10100000352E+00 0. -1.
</event>
<event>
 5   0  0.5888774E-04  0.1014355E+04  0.7818609E-02  0.9292939E-01
       -1   -1    0    0    0  501  0.00000000000E+00  0.00000000000E+00  0.57123139521E+03  0.57123139523E+03  0.50400001928E-02 0. -1.
        1   -1    0    0  501    0  0.00000000000E+00  0.00000000000E+00 -0.45030624081E+03  0.45030624084E+03  0.50400001928E-02 0.  1.
    10030    2    1    2    0    0  0.00000000000E+00  0.00000000000E+00  0.12092515440E+03  0.10215376361E+04  0.10143550902E+04 0.  0.
        2    1    3    3  502    0 -0.10875381008E+03 -0.38756000242E+03  0.37119055557E+03  0.54755143616E+03  0.25500000920E-02 0. -1.
       -2    1    3    3    0  502  0.10875381008E+03  0.38756000242E+03 -0.25026540117E+03  0.47398619992E+03  0.25500000920E-02 0.  1.
</event>
<event>
 5   0  0.1006749E-03  0.9995532E+03  0.7818609E-02  0.9309035E-01
        2   -1    0    0  501    0  0.00000000000E+00  0.00000000000E+00  0.19251019372E+04  0.19251019372E+04  0.25500000920E-02 0.  1.
       -2   -1    0    0    0  501  0.00000000000E+00  0.00000000000E+00 -0.12974722389E+03  0.12974722391E+03  0.25500000920E-02 0. -1.
    10030    2    1    2    0    0  0.00000000000E+00  0.00000000000E+00  0.17953547133E+04  0.20548491611E+04  0.99955316433E+03 0.  0.
        1    1    3    3  502    0  0.19070024430E+02  0.46530280503E+02  0.19198878955E+04  0.19205463453E+04  0.50400001928E-02 0.  1.
       -1    1    3    3    0  502 -0.19070024430E+02 -0.46530280503E+02 -0.12453318225E+03  0.13430281583E+03  0.50400001928E-02 0. -1.
</event>
<event>
 5   0  0.3854625E-04  0.9990701E+03  0.7818609E-02  0.9309565E-01
        4   -1    0    0  501    0  0.00000000000E+00  0.00000000000E+00  0.45291053464E+03  0.45291231523E+03  0.12699999809E+01 0.  1.
       -4   -1    0    0    0  501  0.00000000000E+00  0.00000000000E+00 -0.55095566727E+03  0.55095713100E+03  0.12699999809E+01 0. -1.
    10030    2    1    2    0    0  0.00000000000E+00  0.00000000000E+00 -0.98045132631E+02  0.10038694462E+04  0.99907007614E+03 0.  0.
        3    1    3    3  502    0 -0.47290134793E+03  0.10058980836E+03  0.77204352082E+02  0.48960649159E+03  0.10100000352E+00 0.  1.
       -3    1    3    3    0  502  0.47290134793E+03 -0.10058980836E+03 -0.17524948471E+03  0.51426295464E+03  0.10100000352E+00 0. -1.
</event>
<event>
 5   0  0.5960102E-04  0.9939383E+03  0.7818609E-02  0.9315218E-01
       -1   -1    0    0    0  501  0.00000000000E+00  0.00000000000E+00  0.19025036813E+03  0.19025036820E+03  0.50400001928E-02 0.  1.
        1   -1    0    0  501    0  0.00000000000E+00  0.00000000000E+00 -0.12981753007E+04  0.12981753007E+04  0.50400001928E-02 0. -1.
    10030    2    1    2    0    0  0.00000000000E+00  0.00000000000E+00 -0.11079249325E+04  0.14884256689E+04  0.99393828563E+03 0.  0.
        5    1    3    3  502    0  0.46525811262E+03 -0.12071490805E+03 -0.36502149285E+03  0.60357268048E+03  0.46999998093E+01 0.  1.
       -5    1    3    3    0  502 -0.46525811262E+03  0.12071490805E+03 -0.74290343969E+03  0.88485298840E+03  0.46999998093E+01 0. -1.
</event>
<event>
 5   0  0.1020150E-03  0.9974371E+03  0.7818609E-02  0.9311360E-01
       -2   -1    0    0    0  501  0.00000000000E+00  0.00000000000E+00  0.46054035089E+03  0.46054035090E+03  0.25500000920E-02 0. -1.
        2   -1    0    0  501    0  0.00000000000E+00  0.00000000000E+00 -0.54006172440E+03  0.54006172440E+03  0.25500000920E-02 0.  1.
    10030    2    1    2    0    0  0.00000000000E+00  0.00000000000E+00 -0.79521373503E+02  0.10006020753E+04  0.99743714802E+03 0.  0.
        5    1    3    3  502    0 -0.35844684224E+03  0.10349884612E+03  0.29220014113E+03  0.47391894068E+03  0.46999998093E+01 0. -1.
       -5    1    3    3    0  502  0.35844684224E+03 -0.10349884612E+03 -0.37172151463E+03  0.52668313462E+03  0.46999998093E+01 0.  1.
</event>
<event>
 5   0  0.3854625E-04  0.1000031E+04  0.7818609E-02  0.9308511E-01
       -4   -1    0    0    0  501  0.00000000000E+00  0.00000000000E+00  0.47502091777E+03  0.47502261549E+03  0.12699999809E+01 0. -1.
        4   -1    0    0  501    0  0.00000000000E+00  0.00000000000E+00 -0.52632151294E+03  0.52632304518E+03  0.12699999809E+01 0.  1.
    10030    2    1    2    0    0  0.00000000000E+00  0.00000000000E+00 -0.51300595170E+02  0.10013456607E+04  0.10000306901E+04 0.  0.
        5    1    3    3  502    0 -0.46966979805E+03  0.12090069819E+03  0.96109586605E+02  0.49443486998E+03  0.46999998093E+01 0.  1.
       -5    1    3    3    0  502  0.46966979805E+03 -0.12090069819E+03 -0.14741018178E+03  0.50691079068E+03  0.46999998093E+01 0. -1.
</event>
<event>
 5   0  0.5758786E-04  0.9975887E+03  0.7818609E-02  0.9311193E-01
       -1   -1    0    0    0  501  0.00000000000E+00  0.00000000000E+00  0.58050054678E+03  0.58050054680E+03  0.50400001928E-02 0.  1.
        1   -1    0    0  501    0  0.00000000000E+00  0.00000000000E+00 -0.42858840805E+03  0.42858840808E+03  0.50400001928E-02 0. -1.
    10030    2    1    2    0    0  0.00000000000E+00  0.00000000000E+00  0.15191213872E+03  0.10090889549E+04  0.99758870331E+03 0.  0.
        3    1    3    3  502    0 -0.33236454478E+03  0.18469615041E+03  0.40250410927E+03  0.55370427738E+03  0.10100000352E+00 0.  1.
       -3    1    3    3    0  502  0.33236454478E+03 -0.18469615041E+03 -0.25059197055E+03  0.45538467751E+03  0.10100000352E+00 0. -1.
</event>
<event>
 5   0  0.5758786E-04  0.1011966E+04  0.7818609E-02  0.9295517E-01
        1   -1    0    0  501    0  0.00000000000E+00  0.00000000000E+00  0.29223687519E+03  0.29223687524E+03  0.50400001928E-02 0.  1.
       -1   -1    0    0    0  501  0.00000000000E+00  0.00000000000E+00 -0.87606627680E+03  0.87606627682E+03  0.50400001928E-02 0. -1.
    10030    2    1    2    0    0  0.00000000000E+00  0.00000000000E+00 -0.58382940161E+03  0.11683031521E+04  0.10119661481E+04 0.  0.
        3    1    3    3  502    0  0.43375035615E+03  0.25292096937E+03 -0.36410921512E+03  0.62022892463E+03  0.10100000352E+00 0. -1.
       -3    1    3    3    0  502 -0.43375035615E+03 -0.25292096937E+03 -0.21972018649E+03  0.54807422742E+03  0.10100000352E+00 0.  1.
</event>
<event>
 5   0  0.1006006E-03  0.9978441E+03  0.7818609E-02  0.9310913E-01
       -2   -1    0    0    0  501  0.00000000000E+00  0.00000000000E+00  0.28246221970E+03  0.28246221971E+03  0.25500000920E-02 0. -1.
        2   -1    0    0  501    0  0.00000000000E+00  0.00000000000E+00 -0.88126191769E+03  0.88126191769E+03  0.25500000920E-02 0.  1.
    10030    2    1    2    0    0  0.00000000000E+00  0.00000000000E+00 -0.59879969799E+03  0.11637241374E+04  0.99784407081E+03 0.  0.
        2    1    3    3  502    0 -0.38941343377E+03  0.29894541426E+03 -0.40313618223E+03  0.63524008417E+03  0.25500000920E-02 0.  1.
       -2    1    3    3    0  502  0.38941343377E+03 -0.29894541426E+03 -0.19566351576E+03  0.52848405323E+03  0.25500000920E-02 0. -1.
</event>
<event>
 5   0  0.1006749E-03  0.1000512E+04  0.7818609E-02  0.9307983E-01
        2   -1    0    0  501    0  0.00000000000E+00  0.00000000000E+00  0.16418872896E+04  0.16418872896E+04  0.25500000920E-02 0.  1.
       -2   -1    0    0    0  501  0.00000000000E+00  0.00000000000E+00 -0.15241982778E+03  0.15241982781E+03  0.25500000920E-02 0. -1.
    10030    2    1    2    0    0  0.00000000000E+00  0.00000000000E+00  0.14894674618E+04  0.17943071174E+04  0.10005122247E+04 0.  0.
        1    1    3    3  502    0  0.27620618924E+03 -0.20189492330E+03  0.13992708051E+04  0.14404895713E+04  0.50400001928E-02 0.  1.
       -1    1    3    3    0  502 -0.27620618924E+03  0.20189492330E+03  0.90196656744E+02  0.35381754612E+03  0.50400001928E-02 0. -1.
</event>
<event>
 5   0  0.5758786E-04  0.1000402E+04  0.7818609E-02  0.9308104E-01
       -1   -1    0    0    0  501  0.00000000000E+00  0.00000000000E+00  0.55809013726E+03  0.55809013728E+03  0.50400001928E-02 0.  1.
        1   -1    0    0  501    0  0.00000000000E+00  0.00000000000E+00 -0.44831683711E+03  0.44831683714E+03  0.50400001928E-02 0. -1.
    10030    2    1    2    0    0  0.00000000000E+00  0.00000000000E+00  0.10977330015E+03  0.10064069744E+04  0.10004023294E+04 0.  0.
        3    1    3    3  502    0  0.82747824378E+02 -0.27165337055E+03 -0.35935965949E+03  0.45801979350E+03  0.10100000352E+00 0. -1.
       -3    1    3    3    0  502 -0.82747824378E+02  0.27165337055E+03  0.46913295964E+03  0.54838718092E+03  0.10100000352E+00 0.  1.
</event>
<event>
 5   0  0.1006749E-03  0.9992368E+03  0.7818609E-02  0.9309382E-01
        2   -1    0    0  501    0  0.00000000000E+00  0.00000000000E+00  0.37968864771E+03  0.37968864771E+03  0.25500000920E-02 0. -1.
       -2   -1    0    0    0  501  0.00000000000E+00  0.00000000000E+00 -0.65742958857E+03  0.65742958857E+03  0.25500000920E-02 0.  1.
    10030    2    1    2    0    0  0.00000000000E+00  0.00000000000E+00 -0.27774094086E+03  0.10371182363E+04  0.99923681168E+03 0.  0.
        1    1    3    3  502    0  0.44597238582E+03  0.73430812743E+02  0.82121821721E+02  0.45937723801E+03  0.50400001928E-02 0. -1.
       -1    1    3    3    0  502 -0.44597238582E+03 -0.73430812743E+02 -0.35986276258E+03  0.57774099828E+03  0.50400001928E-02 0.  1.
</event>
<event>
 5   0  0.1006749E-03  0.9997535E+03  0.7818609E-02  0.9308815E-01
        2   -1    0    0  501    0  0.00000000000E+00  0.00000000000E+00  0.92351358038E+03  0.92351358038E+03  0.25500000920E-02 0. -1.
       -2   -1    0    0    0  501  0.00000000000E+00  0.00000000000E+00 -0.27057184964E+03  0.27057184965E+03  0.25500000920E-02 0.  1.
    10030    2    1    2    0    0  0.00000000000E+00  0.00000000000E+00  0.65294173074E+03  0.11940854300E+04  0.99975352486E+03 0.  0.
        1    1    3    3  502    0 -0.23157457926E+03  0.65182393700E+02 -0.19688184819E+03  0.31086651859E+03  0.50400001928E-02 0.  1.
       -1    1    3    3    0  502  0.23157457926E+03 -0.65182393700E+02  0.84982357893E+03  0.88321891145E+03  0.50400001928E-02 0. -1.
</event>
<event>
 5   0  0.1020150E-03  0.1005589E+04  0.7818609E-02  0.9302436E-01
       -2   -1    0    0    0  501  0.00000000000E+00  0.00000000000E+00  0.32118724323E+03  0.32118724324E+03  0.25500000920E-02 0. -1.
        2   -1    0    0  501    0  0.00000000000E+00  0.00000000000E+00 -0.78708676335E+03  0.78708676335E+03  0.25500000920E-02 0.  1.
    10030    2    1    2    0    0  0.00000000000E+00  0.00000000000E+00 -0.46589952012E+03  0.11082740066E+04  0.10055888379E+04 0.  0.
        5    1    3    3  502    0  0.10611906475E+03  0.79036644159E+01 -0.77450913280E+03  0.78179934165E+03  0.46999998093E+01 0.  1.
       -5    1    3    3    0  502 -0.10611906475E+03 -0.79036644159E+01  0.30860961268E+03  0.32647466495E+03  0.46999998093E+01 0. -1.
</event>
<event>
 5   0  0.9741826E-04  0.1004859E+04  0.7818609E-02  0.9303231E-01
        2   -1    0    0  501    0  0.00000000000E+00  0.00000000000E+00  0.19828564313E+04  0.19828564313E+04  0.25500000920E-02 0.  1.
       -2   -1    0    0    0  501  0.00000000000E+00  0.00000000000E+00 -0.12730908665E+03  0.12730908667E+03  0.25500000920E-02 0. -1.
    10030    2    1    2    0    0  0.00000000000E+00  0.00000000000E+00  0.18555473446E+04  0.21101655180E+04  0.10048594752E+04 0.  0.
        3    1    3    3  502    0  0.18485457924E+02 -0.19980681224E+02 -0.12575950744E+03  0.12867168954E+03  0.10100000352E+00 0. -1.
       -3    1    3    3    0  502 -0.18485457924E+02  0.19980681224E+02  0.19813068521E+04  0.19814938284E+04  0.10100000352E+00 0.  1.
</event>
<event>
 5   0  0.5826939E-04  0.9991100E+03  0.7818609E-02  0.9309521E-01
       -1   -1    0    0    0  501  0.00000000000E+00  0.00000000000E+00  0.31781520388E+03  0.31781520392E+03  0.50400001928E-02 0.  1.
        1   -1    0    0  501    0  0.00000000000E+00  0.00000000000E+00 -0.78522113407E+03  0.78522113409E+03  0.50400001928E-02 0. -1.
    10030    2    1    2    0    0  0.00000000000E+00  0.00000000000E+00 -0.46740593019E+03  0.11030363380E+04  0.99911003368E+03 0.  0.
        1    1    3    3  502    0 -0.11609812749E+03  0.63708278257E+02 -0.76548915317E+03  0.77685980947E+03  0.50400001928E-02 0. -1.
       -1    1    3    3    0  502  0.11609812749E+03 -0.63708278257E+02  0.29808322298E+03  0.32617652854E+03  0.50400001928E-02 0.  1.
</event>
<event>
 5   0  0.5826939E-04  0.9948041E+03  0.7818609E-02  0.9314262E-01
        1   -1    0    0  501    0  0.00000000000E+00  0.00000000000E+00  0.18585938140E+03  0.18585938146E+03  0.50400001928E-02 0. -1.
       -1   -1    0    0    0  501  0.00000000000E+00  0.00000000000E+00 -0.13311611335E+04  0.13311611335E+04  0.50400001928E-02 0.  1.
    10030    2    1    2    0    0  0.00000000000E+00  0.00000000000E+00 -0.11453017521E+04  0.15170205150E+04  0.99480407090E+03 0.  0.
        1    1    3    3  502    0  0.26390917920E+03  0.31435754719E+03 -0.14419842362E+03  0.43504242062E+03  0.50400001928E-02 0. -1.
       -1    1    3    3    0  502 -0.26390917920E+03 -0.31435754719E+03 -0.10011033285E+04  0.10819780944E+04  0.50400001928E-02 0.  1.
</event>
<event>
 5   0  0.5826939E-04  0.1000791E+04  0.7818609E-02  0.9307678E-01
       -1   -1    0    0    0  501  0.00000000000E+00  0.00000000000E+00  0.34110911130E+03  0.34110911134E+03  0.50400001928E-02 0. -1.
        1   -1    0    0  501    0  0.00000000000E+00  0.00000000000E+00 -0.73406340068E+03  0.73406340070E+03  0.50400001928E-02 0.  1.
    10030    2    1    2    0    0  0.00000000000E+00  0.00000000000E+00 -0.39295428938E+03  0.10751725120E+04  0.10007911156E+04 0.  0.
        1    1    3    3  502    0 -0.47238821197E+03  0.70781314687E+02 -0.35667408790E+03  0.59613507053E+03  0.50400001928E-02 0.  1.
       -1    1    3    3    0  502  0.47238821197E+03 -0.70781314687E+02 -0.36280201481E+02  0.47903744151E+03  0.50400001928E-02 0. -1.
</event>
<event>
 5   0  0.1020150E-03  0.1000180E+04  0.7818609E-02  0.9308348E-01
        2   -1    0    0  501    0  0.00000000000E+00  0.00000000000E+00  0.31837685875E+03  0.31837685876E+03  0.25500000920E-02 0.  1.
       -2   -1    0    0    0  501  0.00000000000E+00  0.00000000000E+00 -0.78551502742E+03  0.78551502742E+03  0.25500000920E-02 0. -1.
    10030    2    1    2    0    0  0.00000000000E+00  0.00000000000E+00 -0.46713816867E+03  0.11038918862E+04  0.10001795977E+04 0.  0.
        5    1    3    3  502    0 -0.37218475735E+03  0.13536734024E+03  0.10341356491E+03  0.40934370132E+03  0.46999998093E+01 0.  1.
       -5    1    3    3    0  502  0.37218475735E+03 -0.13536734024E+03 -0.57055173358E+03  0.69454818486E+03  0.46999998093E+01 0. -1.
</event>
<event>
 5   0  0.1006749E-03  0.9995879E+03  0.7818609E-02  0.9308997E-01
        2   -1    0    0  501    0  0.00000000000E+00  0.00000000000E+00  0.10590726091E+04  0.10590726091E+04  0.25500000920E-02 0.  1.
       -2   -1    0    0    0  501  0.00000000000E+00  0.00000000000E+00 -0.23586107644E+03  0.23586107646E+03  0.25500000920E-02 0. -1.
    10030    2    1    2    0    0  0.00000000000E+00  0.00000000000E+00  0.82321153268E+03  0.12949336856E+04  0.99958792635E+03 0.  0.
        1    1    3    3  502    0 -0.39933946931E+03 -0.30019738992E+03  0.39312452759E+03  0.63571800264E+03  0.50400001928E-02 0. -1.
       -1    1    3    3    0  502  0.39933946931E+03  0.30019738992E+03  0.43008700510E+03  0.65921568294E+03  0.50400001928E-02 0.  1.
</event>
<event>
 5   0  0.5960102E-04  0.9999238E+03  0.7818609E-02  0.9308628E-01
        1   -1    0    0  501    0  0.00000000000E+00  0.00000000000E+00  0.51777376832E+03  0.51777376835E+03  0.50400001928E-02 0. -1.
       -1   -1    0    0    0  501  0.00000000000E+00  0.00000000000E+00 -0.48276281606E+03  0.48276281609E+03  0.50400001928E-02 0.  1.
    10030    2    1    2    0    0  0.00000000000E+00  0.00000000000E+00  0.35010952262E+02  0.10005365844E+04  0.99992384211E+03 0.  0.
        5    1    3    3  502    0 -0.75838203089E+02  0.29233478738E+03  0.41615741159E+03  0.51421799091E+03  0.46999998093E+01 0. -1.
       -5    1    3    3    0  502  0.75838203089E+02 -0.29233478738E+03 -0.38114645932E+03  0.48631859353E+03  0.46999998093E+01 0.  1.
</event>
<event>
 5   0  0.5758786E-04  0.1000752E+04  0.7818609E-02  0.9307721E-01
        1   -1    0    0  501    0  0.00000000000E+00  0.00000000000E+00  0.34976536227E+03  0.34976536230E+03  0.50400001928E-02 0. -1.
       -1   -1    0    0    0  501  0.00000000000E+00  0.00000000000E+00 -0.71583994770E+03  0.71583994772E+03  0.50400001928E-02 0.  1.
    10030    2    1    2    0    0  0.00000000000E+00  0.00000000000E+00 -0.36607458544E+03  0.10656053100E+04  0.10007517548E+04 0.  0.
        3    1    3    3  502    0 -0.12438373204E+03 -0.22039858040E+03 -0.64266947617E+03  0.69070320170E+03  0.10100000352E+00 0.  1.
       -3    1    3    3    0  502  0.12438373204E+03  0.22039858040E+03  0.27659489073E+03  0.37490210832E+03  0.10100000352E+00 0. -1.
</event>
<event>
 5   0  0.1006749E-03  0.1000113E+04  0.7818609E-02  0.9308421E-01
        2   -1    0    0  501    0  0.00000000000E+00  0.00000000000E+00  0.34648530873E+03  0.34648530873E+03  0.25500000920E-02 0.  1.
       -2   -1    0    0    0  501  0.00000000000E+00  0.00000000000E+00 -0.72169406071E+03  0.72169406071E+03  0.25500000920E-02 0. -1.
    10030    2    1    2    0    0  0.00000000000E+00  0.00000000000E+00 -0.37520875198E+03  0.10681793694E+04  0.10001127725E+04 0.  0.
        1    1    3    3  502    0  0.41851355660E+03  0.24463163839E+02 -0.47874467257E+03  0.63635564347E+03  0.50400001928E-02 0. -1.
       -1    1    3    3    0  502 -0.41851355660E+03 -0.24463163839E+02  0.10353592059E+03  0.43182372598E+03  0.50400001928E-02 0.  1.
</event>
<event>
 5   0  0.5826939E-04  0.1000816E+04  0.7818609E-02  0.9307650E-01
        1   -1    0    0  501    0  0.00000000000E+00  0.00000000000E+00  0.37305377924E+03  0.37305377927E+03  0.50400001928E-02 0. -1.
       -1   -1    0    0    0  501  0.00000000000E+00  0.00000000000E+00 -0.67123865026E+03  0.67123865028E+03  0.50400001928E-02 0.  1.
    10030    2    1    2    0    0  0.00000000000E+00  0.00000000000E+00 -0.29818487102E+03  0.10442924296E+04  0.10008158977E+04 0.  0.
        1    1    3    3  502    0 -0.35956133407E+03  0.20265803883E+03  0.14613590579E+03  0.43784738968E+03  0.50400001928E-02 0.  1.
       -1    1    3    3    0  502  0.35956133407E+03 -0.20265803883E+03 -0.44432077681E+03  0.60644503988E+03  0.50400001928E-02 0. -1.
</event>
<event>
 5   0  0.5888774E-04  0.1002533E+04  0.7818609E-02  0.9305771E-01
       -1   -1    0    0    0  501  0.00000000000E+00  0.00000000000E+00  0.23199956376E+03  0.23199956381E+03  0.50400001928E-02 0. -1.
        1   -1    0    0  501    0  0.00000000000E+00  0.00000000000E+00 -0.10830533012E+04  0.10830533012E+04  0.50400001928E-02 0.  1.
    10030    2    1    2    0    0  0.00000000000E+00  0.00000000000E+00 -0.85105373743E+03  0.13150528650E+04  0.10025325799E+04 0.  0.
        2    1    3    3  502    0  0.10306288814E+03  0.44745941118E+03 -0.68926635480E+03  0.82820890567E+03  0.25500000920E-02 0.  1.
       -2    1    3    3    0  502 -0.10306288814E+03 -0.44745941118E+03 -0.16178738262E+03  0.48684395934E+03  0.25500000920E-02 0. -1.
</event>
<event>
 5   0  0.5768102E-04  0.9981356E+03  0.7818609E-02  0.9310592E-01
        1   -1    0    0  501    0  0.00000000000E+00  0.00000000000E+00  0.26901993742E+03  0.26901993747E+03  0.50400001928E-02 0.  1.
       -1   -1    0    0    0  501  0.00000000000E+00  0.00000000000E+00 -0.92583729540E+03  0.92583729541E+03  0.50400001928E-02 0. -1.
    10030    2    1    2    0    0  0.00000000000E+00  0.00000000000E+00 -0.65681735797E+03  0.11948572329E+04  0.99813564471E+03 0.  0.
        4    1    3    3  502    0  0.11345655126E+02 -0.22273788952E+03 -0.86286058642E+03  0.89121876990E+03  0.12699999809E+01 0. -1.
       -4    1    3    3    0  502 -0.11345655126E+02  0.22273788952E+03  0.20604322845E+03  0.30363846299E+03  0.12699999809E+01 0.  1.
</event>
<event>
 5   0  0.5888774E-04  0.9995285E+03  0.7818609E-02  0.9309062E-01
       -1   -1    0    0    0  501  0.00000000000E+00  0.00000000000E+00  0.16391497865E+03  0.16391497873E+03  0.50400001928E-02 0.  1.
        1   -1    0    0  501    0  0.00000000000E+00  0.00000000000E+00 -0.15237431136E+04  0.15237431136E+04  0.50400001928E-02 0. -1.
    10030    2    1    2    0    0  0.00000000000E+00  0.00000000000E+00 -0.13598281350E+04  0.16876580924E+04  0.99952852888E+03 0.  0.
        2    1    3    3  502    0  0.32174011786E+03 -0.25520165369E+03 -0.11608115757E+04  0.12313115373E+04  0.25500000920E-02 0. -1.
       -2    1    3    3    0  502 -0.32174011786E+03  0.25520165369E+03 -0.19901655926E+03  0.45634655510E+03  0.25500000920E-02 0.  1.
</event>
<event>
 5   0  0.5826939E-04  0.9866840E+03  0.7818609E-02  0.9323271E-01
        1   -1    0    0  501    0  0.00000000000E+00  0.00000000000E+00  0.49275505557E+03  0.49275505559E+03  0.50400001928E-02 0.  1.
       -1   -1    0    0    0  501  0.00000000000E+00  0.00000000000E+00 -0.49392968053E+03  0.49392968055E+03  0.50400001928E-02 0. -1.
    10030    2    1    2    0    0  0.00000000000E+00  0.00000000000E+00 -0.11746249617E+01  0.98668473615E+03  0.98668403697E+03 0.  0.
        1    1    3    3  502    0 -0.15348073935E+03 -0.28279825818E+03 -0.37455970879E+03  0.49378757341E+03  0.50400001928E-02 0. -1.
       -1    1    3    3    0  502  0.15348073935E+03  0.28279825818E+03  0.37338508383E+03  0.49289716274E+03  0.50400001928E-02 0.  1.
</event>
<event>
 5   0  0.5758786E-04  0.1002955E+04  0.7818609E-02  0.9305310E-01
        1   -1    0    0  501    0  0.00000000000E+00  0.00000000000E+00  0.13758713928E+04  0.13758713928E+04  0.50400001928E-02 0.  1.
       -1   -1    0    0    0  501  0.00000000000E+00  0.00000000000E+00 -0.18277855723E+03  0.18277855730E+03  0.50400001928E-02 0. -1.
    10030    2    1    2    0    0  0.00000000000E+00  0.00000000000E+00  0.11930928356E+04  0.15586499501E+04  0.10029552097E+04 0.  0.
        3    1    3    3  502    0  0.38623396173E+03 -0.31953166748E+03  0.61866749856E+03  0.79625790023E+03  0.10100000352E+00 0. -1.
       -3    1    3    3    0  502 -0.38623396173E+03  0.31953166748E+03  0.57442533704E+03  0.76239204989E+03  0.10100000352E+00 0.  1.
</event>
<event>
 5   0  0.5768102E-04  0.1001485E+04  0.7818609E-02  0.9306917E-01
        1   -1    0    0  501    0  0.00000000000E+00  0.00000000000E+00  0.18652804387E+03  0.18652804393E+03  0.50400001928E-02 0.  1.
       -1   -1    0    0    0  501  0.00000000000E+00  0.00000000000E+00 -0.13442650015E+04  0.13442650015E+04  0.50400001928E-02 0. -1.
    10030    2    1    2    0    0  0.00000000000E+00  0.00000000000E+00 -0.11577369576E+04  0.15307930454E+04  0.10014851396E+04 0.  0.
        4    1    3    3  502    0  0.10543324164E+03 -0.15810697452E+03  0.12926426954E+03  0.22983656827E+03  0.12699999809E+01 0.  1.
       -4    1    3    3    0  502 -0.10543324164E+03  0.15810697452E+03 -0.12870012271E+04  0.13009564771E+04  0.12699999809E+01 0. -1.
</event>
<event>
 5   0  0.9741826E-04  0.1000370E+04  0.7818609E-02  0.9308140E-01
        2   -1    0    0  501    0  0.00000000000E+00  0.00000000000E+00  0.95759801084E+03  0.95759801084E+03  0.25500000920E-02 0. -1.
       -2   -1    0    0    0  501  0.00000000000E+00  0.00000000000E+00 -0.26126288749E+03  0.26126288750E+03  0.25500000920E-02 0.  1.
    10030    2    1    2    0    0  0.00000000000E+00  0.00000000000E+00  0.69633512334E+03  0.12188608983E+04  0.10003695745E+04 0.  0.
        3    1    3    3  502    0 -0.22356574102E+03 -0.26697033677E+03  0.78566012831E+03  0.85936991377E+03  0.10100000352E+00 0. -1.
       -3    1    3    3    0  502  0.22356574102E+03  0.26697033677E+03 -0.89325004971E+02  0.35949098457E+03  0.10100000352E+00 0.  1.
</event>
<event>
 5   0  0.5888774E-04  0.1000826E+04  0.7818609E-02  0.9307639E-01
        1   -1    0    0  501    0  0.00000000000E+00  0.00000000000E+00  0.53574783216E+03  0.53574783219E+03  0.50400001928E-02 0.  1.
       -1   -1    0    0    0  501  0.00000000000E+00  0.00000000000E+00 -0.46740893582E+03  0.46740893585E+03  0.50400001928E-02 0. -1.
    10030    2    1    2    0    0  0.00000000000E+00  0.00000000000E+00  0.68338896342E+02  0.10031567680E+04  0.10008263069E+04 0.  0.
        2    1    3    3  502    0  0.42291765381E+02 -0.47176602622E+03 -0.12764235323E+03  0.49055514191E+03  0.25500000920E-02 0. -1.
       -2    1    3    3    0  502 -0.42291765381E+02  0.47176602622E+03  0.19598124957E+03  0.51260162612E+03  0.25500000920E-02 0.  1.
</event>
<event>
 5   0  0.5758786E-04  0.9992722E+03  0.7818609E-02  0.9309343E-01
        1   -1    0    0  501    0  0.00000000000E+00  0.00000000000E+00  0.35491918979E+03  0.35491918983E+03  0.50400001928E-02 0.  1.
       -1   -1    0    0    0  501  0.00000000000E+00  0.00000000000E+00 -0.70336071827E+03  0.70336071829E+03  0.50400001928E-02 0. -1.
    10030    2    1    2    0    0  0.00000000000E+00  0.00000000000E+00 -0.34844152848E+03  0.10582799081E+04  0.99927216771E+03 0.  0.
        3    1    3    3  502    0 -0.48885250549E+03 -0.31624465826E+02 -0.27830625558E+03  0.56341038423E+03  0.10100000352E+00 0.  1.
       -3    1    3    3    0  502  0.48885250549E+03  0.31624465826E+02 -0.70135272893E+02  0.49486952388E+03  0.10100000352E+00 0. -1.
</event>
<event>
 5   0  0.5888774E-04  0.9958623E+03  0.7818609E-02  0.9313095E-01
        1   -1    0    0  501    0  0.00000000000E+00  0.00000000000E+00  0.10107822677E+04  0.10107822677E+04  0.50400001928E-02 0.  1.
       -1   -1    0    0    0  501  0.00000000000E+00  0.00000000000E+00 -0.24529064460E+03  0.24529064465E+03  0.50400001928E-02 0. -1.
    10030    2    1    2    0    0  0.00000000000E+00  0.00000000000E+00  0.76549162310E+03  0.12560729124E+04  0.99586230783E+03 0.  0.
        2    1    3    3  502    0 -0.18051824392E+03  0.15701140585E+03 -0.16804459196E+03  0.29236689766E+03  0.25500000920E-02 0. -1.
       -2    1    3    3    0  502  0.18051824392E+03 -0.15701140585E+03  0.93353621506E+03  0.96370601471E+03  0.25500000920E-02 0.  1.
</event>
<event>
 5   0  0.1006749E-03  0.9991847E+03  0.7818609E-02  0.9309439E-01
       -2   -1    0    0    0  501  0.00000000000E+00  0.00000000000E+00  0.17767173942E+03  0.17767173944E+03  0.25500000920E-02 0.  1.
        2   -1    0    0  501    0  0.00000000000E+00  0.00000000000E+00 -0.14047958389E+04  0.14047958389E+04  0.25500000920E-02 0. -1.
    10030    2    1    2    0    0  0.00000000000E+00  0.00000000000E+00 -0.12271240994E+04  0.15824675783E+04  0.99918470813E+03 0.  0.
        1    1    3    3  502    0 -0.18138506826E+03  0.75204237924E+02  0.11399595611E+03  0.22704911016E+03  0.50400001928E-02 0.  1.
       -1    1    3    3    0  502  0.18138506826E+03 -0.75204237924E+02 -0.13411200555E+04  0.13554184681E+04  0.50400001928E-02 0. -1.
</event>
<event>
 5   0  0.5826939E-04  0.1000682E+04  0.7818609E-02  0.9307797E-01
        1   -1    0    0  501    0  0.00000000000E+00  0.00000000000E+00  0.45428341868E+03  0.45428341871E+03  0.50400001928E-02 0. -1.
       -1   -1    0    0    0  501  0.00000000000E+00  0.00000000000E+00 -0.55106868556E+03  0.55106868559E+03  0.50400001928E-02 0.  1.
    10030    2    1    2    0    0  0.00000000000E+00  0.00000000000E+00 -0.96785266880E+02  0.10053521043E+04  0.10006825000E+04 0.  0.
        1    1    3    3  502    0 -0.24166279304E+03 -0.22542744405E+03 -0.42580895387E+03  0.53900992875E+03  0.50400001928E-02 0.  1.
       -1    1    3    3    0  502  0.24166279304E+03  0.22542744405E+03  0.32902368699E+03  0.46634217555E+03  0.50400001928E-02 0. -1.
</event>
<event>
 5   0  0.1006006E-03  0.9691354E+03  0.7818609E-02  0.9343060E-01
       -2   -1    0    0    0  501  0.00000000000E+00  0.00000000000E+00  0.15433132709E+03  0.15433132711E+03  0.25500000920E-02 0. -1.
        2   -1    0    0  501    0  0.00000000000E+00  0.00000000000E+00 -0.15214399152E+04  0.15214399152E+04  0.25500000920E-02 0.  1.
    10030    2    1    2    0    0  0.00000000000E+00  0.00000000000E+00 -0.13671085881E+04  0.16757712423E+04  0.96913536974E+03 0.  0.
        2    1    3    3  502    0 -0.36565140886E+03 -0.27552135600E+03 -0.40910057570E+03  0.61398391791E+03  0.25500000920E-02 0. -1.
       -2    1    3    3    0  502  0.36565140886E+03  0.27552135600E+03 -0.95800801237E+03  0.10617873244E+04  0.25500000920E-02 0.  1.
</event>
<event>
 5   0  0.5960102E-04  0.9975142E+03  0.7818609E-02  0.9311275E-01
        1   -1    0    0  501    0  0.00000000000E+00  0.00000000000E+00  0.11048976249E+04  0.11048976249E+04  0.50400001928E-02 0. -1.
       -1   -1    0    0    0  501  0.00000000000E+00  0.00000000000E+00 -0.22514181170E+03  0.22514181176E+03  0.50400001928E-02 0.  1.
    10030    2    1    2    0    0  0.00000000000E+00  0.00000000000E+00  0.87975581321E+03  0.13300394367E+04  0.99751421657E+03 0.  0.
        5    1    3    3  502    0 -0.93660457764E+02 -0.13751338451E+03 -0.18701731268E+03  0.25035929683E+03  0.46999998093E+01 0.  1.
       -5    1    3    3    0  502  0.93660457764E+02  0.13751338451E+03  0.10667731259E+04  0.10796801398E+04  0.46999998093E+01 0. -1.
</event>
<event>
 5   0  0.5768102E-04  0.1001175E+04  0.7818609E-02  0.9307257E-01
        1   -1    0    0  501    0  0.00000000000E+00  0.00000000000E+00  0.52007592871E+03  0.52007592873E+03  0.50400001928E-02 0. -1.
       -1   -1    0    0    0  501  0.00000000000E+00  0.00000000000E+00 -0.48182917656E+03  0.48182917658E+03  0.50400001928E-02 0.  1.
    10030    2    1    2    0    0  0.00000000000E+00  0.00000000000E+00  0.38246752149E+02  0.10019051053E+04  0.10011748229E+04 0.  0.
        4    1    3    3  502    0 -0.25897871088E+03  0.13662351471E+02 -0.40935889781E+03  0.48459565893E+03  0.12699999809E+01 0.  1.
       -4    1    3    3    0  502  0.25897871088E+03 -0.13662351471E+02  0.44760564996E+03  0.51730944638E+03  0.12699999809E+01 0. -1.
</event>
<event>
 5   0  0.5758786E-04  0.9970723E+03  0.7818609E-02  0.9311762E-01
        1   -1    0    0  501    0  0.00000000000E+00  0.00000000000E+00  0.29131713450E+03  0.29131713455E+03  0.50400001928E-02 0. -1.
       -1   -1    0    0    0  501  0.00000000000E+00  0.00000000000E+00 -0.85315363086E+03  0.85315363087E+03  0.50400001928E-02 0.  1.
    10030    2    1    2    0    0  0.00000000000E+00  0.00000000000E+00 -0.56183649636E+03  0.11444707654E+04  0.99707225629E+03 0.  0.
        3    1    3    3  502    0  0.14895211806E+03  0.28545135973E+03  0.15596548578E+03  0.35776312722E+03  0.10100000352E+00 0. -1.
       -3    1    3    3    0  502 -0.14895211806E+03 -0.28545135973E+03 -0.71780198213E+03  0.78670763820E+03  0.10100000352E+00 0.  1.
</event>
<event>
 5   0  0.3854625E-04  0.1000032E+04  0.7818609E-02  0.9308510E-01
        3   -1    0    0  501    0  0.00000000000E+00  0.00000000000E+00  0.66731864322E+03  0.66731865086E+03  0.10100000352E+00 0. -1.
       -3   -1    0    0    0  501  0.00000000000E+00  0.00000000000E+00 -0.37465771280E+03  0.37465772642E+03  0.10100000352E+00 0.  1.
    10030    2    1    2    0    0  0.00000000000E+00  0.00000000000E+00  0.29266093041E+03  0.10419763773E+04  0.10000321748E+04 0.  0.
        1    1    3    3  502    0  0.12991434026E+03 -0.47338348467E+03  0.47228453160E+02  0.49315330899E+03  0.50400001928E-02 0.  1.
       -1    1    3    3    0  502 -0.12991434026E+03  0.47338348467E+03  0.24543247725E+03  0.54882306828E+03  0.50400001928E-02 0. -1.
</event>
<event>
 5   0  0.9741826E-04  0.1000691E+04  0.7818609E-02  0.9307787E-01
       -2   -1    0    0    0  501  0.00000000000E+00  0.00000000000E+00  0.18845996635E+03  0.18845996636E+03  0.25500000920E-02 0.  1.
        2   -1    0    0  501    0  0.00000000000E+00  0.00000000000E+00 -0.13283764653E+04  0.13283764653E+04  0.25500000920E-02 0. -1.
    10030    2    1    2    0    0  0.00000000000E+00  0.00000000000E+00 -0.11399164990E+04  0.15168364317E+04  0.10006913290E+04 0.  0.
        3    1    3    3  502    0  0.34972961594E+03  0.57709989268E+02 -0.11052366555E+04  0.11606848504E+04  0.10100000352E+00 0. -1.
       -3    1    3    3    0  502 -0.34972961594E+03 -0.57709989268E+02 -0.34679843528E+02  0.35615158132E+03  0.10100000352E+00 0.  1.
</event>
<event>
 5   0  0.9674819E-04  0.9992335E+03  0.7818609E-02  0.9309386E-01
       -2   -1    0    0    0  501  0.00000000000E+00  0.00000000000E+00  0.24856316507E+03  0.24856316508E+03  0.25500000920E-02 0.  1.
        2   -1    0    0  501    0  0.00000000000E+00  0.00000000000E+00 -0.10042393468E+04  0.10042393468E+04  0.25500000920E-02 0. -1.
    10030    2    1    2    0    0  0.00000000000E+00  0.00000000000E+00 -0.75567618170E+03  0.12528025119E+04  0.99923352732E+03 0.  0.
        4    1    3    3  502    0  0.41318105291E+03  0.27874136509E+03 -0.33440705527E+03  0.60020415078E+03  0.12699999809E+01 0.  1.
       -4    1    3    3    0  502 -0.41318105291E+03 -0.27874136509E+03 -0.42126912643E+03  0.65259836107E+03  0.12699999809E+01 0. -1.
</event>
<event>
 5   0  0.5768102E-04  0.9985628E+03  0.7818609E-02  0.9310122E-01
        1   -1    0    0  501    0  0.00000000000E+00  0.00000000000E+00  0.63915277315E+03  0.63915277317E+03  0.50400001928E-02 0. -1.
       -1   -1    0    0    0  501  0.00000000000E+00  0.00000000000E+00 -0.39001932039E+03  0.39001932042E+03  0.50400001928E-02 0.  1.
    10030    2    1    2    0    0  0.00000000000E+00  0.00000000000E+00  0.24913345276E+03  0.10291720936E+04  0.99856282774E+03 0.  0.
        4    1    3    3  502    0 -0.47033893526E+03  0.35743822973E+02  0.29324151800E+03  0.55541744272E+03  0.12699999809E+01 0. -1.
       -4    1    3    3    0  502  0.47033893526E+03 -0.35743822973E+02 -0.44108065244E+02  0.47375465087E+03  0.12699999809E+01 0.  1.
</event>
<event>
 5   0  0.5960102E-04  0.9991506E+03  0.7818609E-02  0.9309477E-01
       -1   -1    0    0    0  501  0.00000000000E+00  0.00000000000E+00  0.34489348997E+03  0.34489349001E+03  0.50400001928E-02 0.  1.
        1   -1    0    0  501    0  0.00000000000E+00  0.00000000000E+00 -0.72363061049E+03  0.72363061051E+03  0.50400001928E-02 0. -1.
    10030    2    1    2    0    0  0.00000000000E+00  0.00000000000E+00 -0.37873712052E+03  0.10685241005E+04  0.99915061273E+03 0.  0.
        5    1    3    3  502    0  0.25347013297E+03 -0.35707989634E+03  0.67740966562E+02  0.44312987851E+03  0.46999998093E+01 0.  1.
       -5    1    3    3    0  502 -0.25347013297E+03  0.35707989634E+03 -0.44647808708E+03  0.62539422201E+03  0.46999998093E+01 0. -1.
</event>
<event>
 5   0  0.9741826E-04  0.1001248E+04  0.7818609E-02  0.9307177E-01
       -2   -1    0    0    0  501  0.00000000000E+00  0.00000000000E+00  0.11506748917E+04  0.11506748917E+04  0.25500000920E-02 0.  1.
        2   -1    0    0  501    0  0.00000000000E+00  0.00000000000E+00 -0.21780646670E+03  0.21780646672E+03  0.25500000920E-02 0. -1.
    10030    2    1    2    0    0  0.00000000000E+00  0.00000000000E+00  0.93286842503E+03  0.13684813585E+04  0.10012480861E+04 0.  0.
        3    1    3    3  502    0  0.42908142099E+03  0.44061952855E+02  0.81374609726E+03  0.92099676575E+03  0.10100000352E+00 0.  1.
       -3    1    3    3    0  502 -0.42908142099E+03 -0.44061952855E+02  0.11912232778E+03  0.44748459270E+03  0.10100000352E+00 0. -1.
</event>
<event>
 5   0  0.5768102E-04  0.1000135E+04  0.7818609E-02  0.9308396E-01
       -1   -1    0    0    0  501  0.00000000000E+00  0.00000000000E+00  0.48104381114E+03  0.48104381117E+03  0.50400001928E-02 0.  1.
        1   -1    0    0  501    0  0.00000000000E+00  0.00000000000E+00 -0.51984377243E+03  0.51984377245E+03  0.50400001928E-02 0. -1.
    10030    2    1    2    0    0  0.00000000000E+00  0.00000000000E+00 -0.38799961285E+02  0.10008875836E+04  0.10001352499E+04 0.  0.
        4    1    3    3  502    0  0.26024992808E+03  0.20121691296E+03 -0.39631009005E+03  0.51505492086E+03  0.12699999809E+01 0. -1.
       -4    1    3    3    0  502 -0.26024992808E+03 -0.20121691296E+03  0.35751012877E+03  0.48583266276E+03  0.12699999809E+01 0.  1.
</event>
<event>
 5   0  0.9741826E-04  0.1000524E+04  0.7818609E-02  0.9307971E-01
       -2   -1    0    0    0  501  0.00000000000E+00  0.00000000000E+00  0.24827031771E+03  0.24827031772E+03  0.25500000920E-02 0.  1.
        2   -1    0    0  501    0  0.00000000000E+00  0.00000000000E+00 -0.10080217137E+04  0.10080217137E+04  0.25500000920E-02 0. -1.
    10030    2    1    2    0    0  0.00000000000E+00  0.00000000000E+00 -0.75975139599E+03  0.12562920314E+04  0.10005236052E+04 0.  0.
        3    1    3    3  502    0 -0.20850863296E+02 -0.46060739701E+03 -0.13617928714E+03  0.48076890616E+03  0.10100000352E+00 0.  1.
       -3    1    3    3    0  502  0.20850863296E+02  0.46060739701E+03 -0.62357210885E+03  0.77552312527E+03  0.10100000352E+00 0. -1.
</event>
<event>
 5   0  0.5960102E-04  0.9980937E+03  0.7818609E-02  0.9310638E-01
       -1   -1    0    0    0  501  0.00000000000E+00  0.00000000000E+00  0.30185482239E+03  0.30185482243E+03  0.50400001928E-02 0. -1.
        1   -1    0    0  501    0  0.00000000000E+00  0.00000000000E+00 -0.82505809839E+03  0.82505809841E+03  0.50400001928E-02 0.  1.
    10030    2    1    2    0    0  0.00000000000E+00  0.00000000000E+00 -0.52320327600E+03  0.11269129208E+04  0.99809371461E+03 0.  0.
        5    1    3    3  502    0  0.50028173136E+01  0.48704674180E+03 -0.38417735627E+03  0.62036593068E+03  0.46999998093E+01 0.  1.
       -5    1    3    3    0  502 -0.50028173136E+01 -0.48704674180E+03 -0.13902591973E+03  0.50654699016E+03  0.46999998093E+01 0. -1.
</event>
<event>
 5   0  0.5888774E-04  0.9992215E+03  0.7818609E-02  0.9309399E-01
        1   -1    0    0  501    0  0.00000000000E+00  0.00000000000E+00  0.37047998935E+03  0.37047998938E+03  0.50400001928E-02 0.  1.
       -1   -1    0    0    0  501  0.00000000000E+00  0.00000000000E+00 -0.67375004132E+03  0.67375004134E+03  0.50400001928E-02 0. -1.
    10030    2    1    2    0    0  0.00000000000E+00  0.00000000000E+00 -0.30327005197E+03  0.10442300307E+04  0.99922151330E+03 0.  0.
        2    1    3    3  502    0  0.33716657024E+03 -0.32204374290E+03 -0.33921216833E+03  0.57659202525E+03  0.25500000920E-02 0. -1.
       -2    1    3    3    0  502 -0.33716657024E+03  0.32204374290E+03  0.35942116364E+02  0.46763800547E+03  0.25500000920E-02 0.  1.
</event>
<event>
 5   0  0.1020150E-03  0.9993993E+03  0.7818609E-02  0.9309204E-01
       -2   -1    0    0    0  501  0.00000000000E+00  0.00000000000E+00  0.11880483235E+04  0.11880483235E+04  0.25500000920E-02 0.  1.
        2   -1    0    0  501    0  0.00000000000E+00  0.00000000000E+00 -0.21017640184E+03  0.21017640186E+03  0.25500000920E-02 0. -1.
    10030    2    1    2    0    0  0.00000000000E+00  0.00000000000E+00  0.97787192163E+03  0.13982247253E+04  0.99939926327E+03 0.  0.
        5    1    3    3  502    0 -0.55902285351E+02 -0.48870105852E+03  0.36597857067E+03  0.61312004885E+03  0.46999998093E+01 0.  1.
       -5    1    3    3    0  502  0.55902285351E+02  0.48870105852E+03  0.61189335096E+03  0.78510467649E+03  0.46999998093E+01 0. -1.
</event>
<event>
 5   0  0.5826939E-04  0.9983826E+03  0.7818609E-02  0.9310321E-01
       -1   -1    0    0    0  501  0.00000000000E+00  0.00000000000E+00  0.11659044738E+03  0.11659044749E+03  0.50400001928E-02 0.  1.
        1   -1    0    0  501    0  0.00000000000E+00  0.00000000000E+00 -0.21373272423E+04  0.21373272423E+04  0.50400001928E-02 0. -1.
    10030    2    1    2    0    0  0.00000000000E+00  0.00000000000E+00 -0.20207367950E+04  0.22539176898E+04  0.99838257099E+03 0.  0.
        1    1    3    3  502    0  0.89599020032E+01 -0.48139289696E+03 -0.13079271309E+04  0.13937333966E+04  0.50400001928E-02 0. -1.
       -1    1    3    3    0  502 -0.89599020032E+01  0.48139289696E+03 -0.71280966404E+03  0.86018429320E+03  0.50400001928E-02 0.  1.
</event>
<event>
 5   0  0.5826939E-04  0.9984123E+03  0.7818609E-02  0.9310288E-01
        1   -1    0    0  501    0  0.00000000000E+00  0.00000000000E+00  0.31381192322E+03  0.31381192326E+03  0.50400001928E-02 0.  1.
       -1   -1    0    0    0  501  0.00000000000E+00  0.00000000000E+00 -0.79412788177E+03  0.79412788179E+03  0.50400001928E-02 0. -1.
    10030    2    1    2    0    0  0.00000000000E+00  0.00000000000E+00 -0.48031595856E+03  0.11079398050E+04  0.99841233544E+03 0.  0.
        1    1    3    3  502    0  0.38061532465E+03  0.32126234308E+03 -0.20286672984E+03  0.53780333631E+03  0.50400001928E-02 0. -1.
       -1    1    3    3    0  502 -0.38061532465E+03 -0.32126234308E+03 -0.27744922872E+03  0.57013646874E+03  0.50400001928E-02 0.  1.
</event>
<event>
 5   0  0.9741826E-04  0.1000246E+04  0.7818609E-02  0.9308275E-01
        2   -1    0    0  501    0  0.00000000000E+00  0.00000000000E+00  0.41736080584E+03  0.41736080585E+03  0.25500000920E-02 0. -1.
       -2   -1    0    0    0  501  0.00000000000E+00  0.00000000000E+00 -0.59929707475E+03  0.59929707476E+03  0.25500000920E-02 0.  1.
    10030    2    1    2    0    0  0.00000000000E+00  0.00000000000E+00 -0.18193626891E+03  0.10166578806E+04  0.10002461898E+04 0.  0.
        3    1    3    3  502    0  0.38998088596E+03 -0.28298394983E+03  0.45238426880E+02  0.48395406057E+03  0.10100000352E+00 0. -1.
       -3    1    3    3    0  502 -0.38998088596E+03  0.28298394983E+03 -0.22717469579E+03  0.53270382004E+03  0.10100000352E+00 0.  1.
</event>
<event>
 5   0  0.5768102E-04  0.9981233E+03  0.7818609E-02  0.9310606E-01
       -1   -1    0    0    0  501  0.00000000000E+00  0.00000000000E+00  0.26008139146E+03  0.26008139151E+03  0.50400001928E-02 0. -1.
        1   -1    0    0  501    0  0.00000000000E+00  0.00000000000E+00 -0.95763300807E+03  0.95763300809E+03  0.50400001928E-02 0.  1.
    10030    2    1    2    0    0  0.00000000000E+00  0.00000000000E+00 -0.69755161661E+03  0.12177143996E+04  0.99812328955E+03 0.  0.
        4    1    3    3  502    0 -0.20734329526E+03  0.32084134954E+03  0.43015512814E+02  0.38442471422E+03  0.12699999809E+01 0.  1.
       -4    1    3    3    0  502  0.20734329526E+03 -0.32084134954E+03 -0.74056712943E+03  0.83328968537E+03  0.12699999809E+01 0. -1.
</event>
<event>
 5   0  0.5826939E-04  0.9888162E+03  0.7818609E-02  0.9320897E-01
       -1   -1    0    0    0  501  0.00000000000E+00  0.00000000000E+00  0.15687899548E+03  0.15687899556E+03  0.50400001928E-02 0.  1.
        1   -1    0    0  501    0  0.00000000000E+00  0.00000000000E+00 -0.15581395372E+04  0.15581395372E+04  0.50400001928E-02 0. -1.
    10030    2    1    2    0    0  0.00000000000E+00  0.00000000000E+00 -0.14012605417E+04  0.17150185328E+04  0.98881619221E+03 0.  0.
        1    1    3    3  502    0  0.10925956742E+03  0.39405656758E+03 -0.11826017454E+04  0.12513053663E+04  0.50400001928E-02 0. -1.
       -1    1    3    3    0  502 -0.10925956742E+03 -0.39405656758E+03 -0.21865879635E+03  0.46371316648E+03  0.50400001928E-02 0.  1.
</event>
<event>
 5   0  0.1020150E-03  0.9980602E+03  0.7818609E-02  0.9310675E-01
        2   -1    0    0  501    0  0.00000000000E+00  0.00000000000E+00  0.14285719564E+04  0.14285719564E+04  0.25500000920E-02 0. -1.
       -2   -1    0    0    0  501  0.00000000000E+00  0.00000000000E+00 -0.17432168126E+03  0.17432168128E+03  0.25500000920E-02 0.  1.
    10030    2    1    2    0    0  0.00000000000E+00  0.00000000000E+00  0.12542502752E+04  0.16028936377E+04  0.99806024922E+03 0.  0.
        5    1    3    3  502    0  0.89416448653E+02 -0.22769961780E+03 -0.71380840165E+02  0.25487199057E+03  0.46999998093E+01 0. -1.
       -5    1    3    3    0  502 -0.89416448653E+02  0.22769961780E+03  0.13256311153E+04  0.13480216471E+04  0.46999998093E+01 0.  1.
</event>
<event>
 5   0  0.5960102E-04  0.1000674E+04  0.7818609E-02  0.9307806E-01
        1   -1    0    0  501    0  0.00000000000E+00  0.00000000000E+00  0.14669933101E+04  0.14669933101E+04  0.50400001928E-02 0.  1.
       -1   -1    0    0    0  501  0.00000000000E+00  0.00000000000E+00 -0.17064645377E+03  0.17064645384E+03  0.50400001928E-02 0. -1.
    10030    2    1    2    0    0  0.00000000000E+00  0.00000000000E+00  0.12963468563E+04  0.16376397640E+04  0.10006741850E+04 0.  0.
        5    1    3    3  502    0 -0.30726517558E+03  0.25553017730E+03  0.11407887188E+04  0.12087715047E+04  0.46999998093E+01 0.  1.
       -5    1    3    3    0  502  0.30726517558E+03 -0.25553017730E+03  0.15555813752E+03  0.42886825924E+03  0.46999998093E+01 0. -1.
</event>
<event>
 5   0  0.9741826E-04  0.1000029E+04  0.7818609E-02  0.9308513E-01
        2   -1    0    0  501    0  0.00000000000E+00  0.00000000000E+00  0.17111714648E+04  0.17111714648E+04  0.25500000920E-02 0. -1.
       -2   -1    0    0    0  501  0.00000000000E+00  0.00000000000E+00 -0.14610715546E+03  0.14610715548E+03  0.25500000920E-02 0.  1.
    10030    2    1    2    0    0  0.00000000000E+00  0.00000000000E+00  0.15650643093E+04  0.18572786202E+04  0.10000287901E+04 0.  0.
        3    1    3    3  502    0  0.26468697576E+03 -0.38443076373E+03  0.11156345737E+04  0.12093331714E+04  0.10100000352E+00 0. -1.
       -3    1    3    3    0  502 -0.26468697576E+03  0.38443076373E+03  0.44942973563E+03  0.64794544886E+03  0.10100000352E+00 0.  1.
</event>
<event>
 5   0  0.5888774E-04  0.1002482E+04  0.7818609E-02  0.9305826E-01
        1   -1    0    0  501    0  0.00000000000E+00  0.00000000000E+00  0.80309225730E+03  0.80309225731E+03  0.50400001928E-02 0. -1.
       -1   -1    0    0    0  501  0.00000000000E+00  0.00000000000E+00 -0.31284418522E+03  0.31284418526E+03  0.50400001928E-02 0.  1.
    10030    2    1    2    0    0  0.00000000000E+00  0.00000000000E+00  0.49024807208E+03  0.11159364426E+04  0.10024824047E+04 0.  0.
        2    1    3    3  502    0  0.19579661988E+03 -0.64941558721E+02  0.75364926259E+03  0.78137118799E+03  0.25500000920E-02 0. -1.
       -2    1    3    3    0  502 -0.19579661988E+03  0.64941558721E+02 -0.26340119051E+03  0.33456525458E+03  0.25500000920E-02 0.  1.
</event>
<event>
 5   0  0.5768102E-04  0.1001115E+04  0.7818609E-02  0.9307323E-01
       -1   -1    0    0    0  501  0.00000000000E+00  0.00000000000E+00  0.72435620637E+03  0.72435620639E+03  0.50400001928E-02 0.  1.
        1   -1    0    0  501    0  0.00000000000E+00  0.00000000000E+00 -0.34590394293E+03  0.34590394296E+03  0.50400001928E-02 0. -1.
    10030    2    1    2    0    0  0.00000000000E+00  0.00000000000E+00  0.37845226344E+03  0.10702601494E+04  0.10011147145E+04 0.  0.
        4    1    3    3  502    0  0.43926675130E+03 -0.22652980799E+03  0.27397988138E+03  0.56509965582E+03  0.12699999809E+01 0.  1.
       -4    1    3    3    0  502 -0.43926675130E+03  0.22652980799E+03  0.10447238206E+03  0.50516049353E+03  0.12699999809E+01 0. -1.
</event>
<event>
 5   0  0.5826939E-04  0.1002232E+04  0.7818609E-02  0.9306100E-01
        1   -1    0    0  501    0  0.00000000000E+00  0.00000000000E+00  0.34795250069E+03  0.34795250073E+03  0.50400001928E-02 0. -1.
       -1   -1    0    0    0  501  0.00000000000E+00  0.00000000000E+00 -0.72169972566E+03  0.72169972568E+03  0.50400001928E-02 0.  1.
    10030    2    1    2    0    0  0.00000000000E+00  0.00000000000E+00 -0.37374722498E+03  0.10696522264E+04  0.10022319578E+04 0.  0.
        1    1    3    3  502    0  0.21838272056E+03  0.43218309210E+03 -0.49183412482E+02  0.48671577520E+03  0.50400001928E-02 0.  1.
       -1    1    3    3    0  502 -0.21838272056E+03 -0.43218309210E+03 -0.32456381249E+03  0.58293645121E+03  0.50400001928E-02 0. -1.
</event>
<event>
 5   0  0.5768102E-04  0.9994703E+03  0.7818609E-02  0.9309126E-01
       -1   -1    0    0    0  501  0.00000000000E+00  0.00000000000E+00  0.19332897541E+03  0.19332897547E+03  0.50400001928E-02 0. -1.
        1   -1    0    0  501    0  0.00000000000E+00  0.00000000000E+00 -0.12917630244E+04  0.12917630244E+04  0.50400001928E-02 0.  1.
    10030    2    1    2    0    0  0.00000000000E+00  0.00000000000E+00 -0.10984340490E+04  0.14850919999E+04  0.99947030377E+03 0.  0.
        4    1    3    3  502    0 -0.31698488423E+03 -0.37934338483E+03 -0.65792803012E+03  0.82295305222E+03  0.12699999809E+01 0.  1.
       -4    1    3    3    0  502  0.31698488423E+03  0.37934338483E+03 -0.44050601885E+03  0.66213894765E+03  0.12699999809E+01 0. -1.
</event>
<event>
 5   0  0.1006006E-03  0.9983279E+03  0.7818609E-02  0.9310381E-01
        2   -1    0    0  501    0  0.00000000000E+00  0.00000000000E+00  0.11077304319E+04  0.11077304319E+04  0.25500000920E-02 0.  1.
       -2   -1    0    0    0  501  0.00000000000E+00  0.00000000000E+00 -0.22493255403E+03  0.22493255404E+03  0.25500000920E-02 0. -1.
    10030    2    1    2    0    0  0.00000000000E+00  0.00000000000E+00  0.88279787785E+03  0.13326629859E+04  0.99832787245E+03 0.  0.
        2    1    3    3  502    0  0.37608149151E+03  0.76641354603E+00  0.87953493730E+03  0.95656655888E+03  0.25500000920E-02 0.  1.
       -2    1    3    3    0  502 -0.37608149151E+03 -0.76641354603E+00  0.32629405529E+01  0.37609642704E+03  0.25500000920E-02 0. -1.
</event>
<event>
 5   0  0.1006749E-03  0.1001895E+04  0.7818609E-02  0.9306468E-01
       -2   -1    0    0    0  501  0.00000000000E+00  0.00000000000E+00  0.35606141494E+03  0.35606141495E+03  0.25500000920E-02 0.  1.
        2   -1    0    0  501    0  0.00000000000E+00  0.00000000000E+00 -0.70479033035E+03  0.70479033036E+03  0.25500000920E-02 0. -1.
    10030    2    1    2    0    0  0.00000000000E+00  0.00000000000E+00 -0.34872891541E+03  0.10608517453E+04  0.10018954881E+04 0.  0.
        1    1    3    3  502    0 -0.22502018138E+03  0.15359738373E+02 -0.64798729621E+03  0.68611773018E+03  0.50400001928E-02 0. -1.
       -1    1    3    3    0  502  0.22502018138E+03 -0.15359738373E+02  0.29925838080E+03  0.37473401513E+03  0.50400001928E-02 0.  1.
</event>
<event>
 5   0  0.9741826E-04  0.9903125E+03  0.7818609E-02  0.9319234E-01
       -2   -1    0    0    0  501  0.00000000000E+00  0.00000000000E+00  0.16092401336E+03  0.16092401338E+03  0.25500000920E-02 0. -1.
        2   -1    0    0  501    0  0.00000000000E+00  0.00000000000E+00 -0.15235744192E+04  0.15235744192E+04  0.25500000920E-02 0.  1.
    10030    2    1    2    0    0  0.00000000000E+00  0.00000000000E+00 -0.13626504058E+04  0.16844984325E+04  0.99031249655E+03 0.  0.
        3    1    3    3  502    0 -0.32100305168E+03  0.85684741478E+02 -0.56821486292E+02  0.33706605527E+03  0.10100000352E+00 0. -1.
       -3    1    3    3    0  502  0.32100305168E+03 -0.85684741478E+02 -0.13058289195E+04  0.13474323773E+04  0.10100000352E+00 0.  1.
</event>
<event>
 5   0  0.1006749E-03  0.9991779E+03  0.7818609E-02  0.9309447E-01
        2   -1    0    0  501    0  0.00000000000E+00  0.00000000000E+00  0.85743130190E+03  0.85743130191E+03  0.25500000920E-02 0. -1.
       -2   -1    0    0    0  501  0.00000000000E+00  0.00000000000E+00 -0.29108933413E+03  0.29108933414E+03  0.25500000920E-02 0.  1.
    10030    2    1    2    0    0  0.00000000000E+00  0.00000000000E+00  0.56634196778E+03  0.11485206360E+04  0.99917787553E+03 0.  0.
        1    1    3    3  502    0  0.38774477606E+03 -0.17120106774E+03 -0.20804090216E+02  0.42436850396E+03  0.50400001928E-02 0.  1.
       -1    1    3    3    0  502 -0.38774477606E+03  0.17120106774E+03  0.58714605799E+03  0.72415213208E+03  0.50400001928E-02 0. -1.
</event>
<event>
 5   0  0.9674819E-04  0.1000620E+04  0.7818609E-02  0.9307865E-01
        2   -1    0    0  501    0  0.00000000000E+00  0.00000000000E+00  0.56643557417E+03  0.56643557418E+03  0.25500000920E-02 0. -1.
       -2   -1    0    0    0  501  0.00000000000E+00  0.00000000000E+00 -0.44190393011E+03  0.44190393012E+03  0.25500000920E-02 0.  1.
    10030    2    1    2    0    0  0.00000000000E+00  0.00000000000E+00  0.12453164406E+03  0.10083395043E+04  0.10006200206E+04 0.  0.
        4    1    3    3  502    0 -0.14075098928E+03  0.32933792820E+03  0.41429473977E+03  0.54764592232E+03  0.12699999809E+01 0. -1.
       -4    1    3    3    0  502  0.14075098928E+03 -0.32933792820E+03 -0.28976309571E+03  0.46069358197E+03  0.12699999809E+01 0.  1.
</event>
<event>
 5   0  0.5758786E-04  0.1000631E+04  0.7818609E-02  0.9307853E-01
       -1   -1    0    0    0  501  0.00000000000E+00  0.00000000000E+00  0.25880373510E+03  0.25880373515E+03  0.50400001928E-02 0.  1.
        1   -1    0    0  501    0  0.00000000000E+00  0.00000000000E+00 -0.96720221984E+03  0.96720221985E+03  0.50400001928E-02 0. -1.
    10030    2    1    2    0    0  0.00000000000E+00  0.00000000000E+00 -0.70839848474E+03  0.12260059550E+04  0.10006308952E+04 0.  0.
        3    1    3    3  502    0 -0.31131502827E+03  0.19399772867E+03  0.62674225256E+02  0.37212932465E+03  0.10100000352E+00 0.  1.
       -3    1    3    3    0  502  0.31131502827E+03 -0.19399772867E+03 -0.77107270999E+03  0.85387663035E+03  0.10100000352E+00 0. -1.
</event>
<event>
 5   0  0.5826939E-04  0.1000362E+04  0.7818609E-02  0.9308148E-01
        1   -1    0    0  501    0  0.00000000000E+00  0.00000000000E+00  0.11292477962E+04  0.11292477962E+04  0.50400001928E-02 0. -1.
       -1   -1    0    0    0  501  0.00000000000E+00  0.00000000000E+00 -0.22154674607E+03  0.22154674612E+03  0.50400001928E-02 0.  1.
    10030    2    1    2    0    0  0.00000000000E+00  0.00000000000E+00  0.90770105017E+03  0.13507945424E+04  0.10003622840E+04 0.  0.
        1    1    3    3  502    0  0.46136050148E+03  0.19034669710E+03  0.40915159660E+03  0.64536067935E+03  0.50400001928E-02 0. -1.
       -1    1    3    3    0  502 -0.46136050148E+03 -0.19034669710E+03  0.49854945357E+03  0.70543386302E+03  0.50400001928E-02 0.  1.
</event>
<event>
 5   0  0.5960102E-04  0.9972018E+03  0.7818609E-02  0.9311619E-01
       -1   -1    0    0    0  501  0.00000000000E+00  0.00000000000E+00  0.29106748271E+03  0.29106748275E+03  0.50400001928E-02 0. -1.
        1   -1    0    0  501    0  0.00000000000E+00  0.00000000000E+00 -0.85410732162E+03  0.85410732164E+03  0.50400001928E-02 0.  1.
    10030    2    1    2    0    0  0.00000000000E+00  0.00000000000E+00 -0.56303983891E+03  0.11451748044E+04  0.99720182130E+03 0.  0.
        5    1    3    3  502    0  0.19790126161E+02 -0.10929601220E+03  0.27665287528E+03  0.29815460885E+03  0.46999998093E+01 0. -1.
       -5    1    3    3    0  502 -0.19790126161E+02  0.10929601220E+03 -0.83969271420E+03  0.84702019554E+03  0.46999998093E+01 0.  1.
</event>
<event>
 5   0  0.5826939E-04  0.9993206E+03  0.7818609E-02  0.9309290E-01
       -1   -1    0    0    0  501  0.00000000000E+00  0.00000000000E+00  0.15268154330E+03  0.15268154338E+03  0.50400001928E-02 0.  1.
        1   -1    0    0  501    0  0.00000000000E+00  0.00000000000E+00 -0.16351710412E+04  0.16351710412E+04  0.50400001928E-02 0. -1.
    10030    2    1    2    0    0  0.00000000000E+00  0.00000000000E+00 -0.14824894979E+04  0.17878525846E+04  0.99932064567E+03 0.  0.
        1    1    3    3  502    0  0.36654900832E+03  0.33046012989E+03 -0.88095670165E+03  0.10097756103E+04  0.50400001928E-02 0.  1.
       -1    1    3    3    0  502 -0.36654900832E+03 -0.33046012989E+03 -0.60153279628E+03  0.77807697432E+03  0.50400001928E-02 0. -1.
</event>
<event>
 5   0  0.5768102E-04  0.1000801E+04  0.7818609E-02  0.9307666E-01
       -1   -1    0    0    0  501  0.00000000000E+00  0.00000000000E+00  0.27392475653E+03  0.27392475658E+03  0.50400001928E-02 0. -1.
        1   -1    0    0  501    0  0.00000000000E+00  0.00000000000E+00 -0.91412265712E+03  0.91412265713E+03  0.50400001928E-02 0.  1.
    10030    2    1    2    0    0  0.00000000000E+00  0.00000000000E+00 -0.64019790058E+03  0.11880474137E+04  0.10008013316E+04 0.  0.
        4    1    3    3  502    0  0.19404005677E+03 -0.34722934422E+03 -0.68051403572E+03  0.78823900362E+03  0.12699999809E+01 0.  1.
       -4    1    3    3    0  502 -0.19404005677E+03  0.34722934422E+03  0.40316135139E+02  0.39980841009E+03  0.12699999809E+01 0. -1.
</event>
<event>
 5   0  0.5758786E-04  0.1000009E+04  0.7818609E-02  0.9308535E-01
       -1   -1    0    0    0  501  0.00000000000E+00  0.00000000000E+00  0.16964749147E+03  0.16964749155E+03  0.50400001928E-02 0.  1.
        1   -1    0    0  501    0  0.00000000000E+00  0.00000000000E+00 -0.14736715441E+04  0.14736715441E+04  0.50400001928E-02 0. -1.
    10030    2    1    2    0    0  0.00000000000E+00  0.00000000000E+00 -0.13040240526E+04  0.16433190356E+04  0.10000093615E+04 0.  0.
        3    1    3    3  502    0  0.10027144400E+03  0.29646527517E+03 -0.11210726889E+02  0.31316403443E+03  0.10100000352E+00 0.  1.
       -3    1    3    3    0  502 -0.10027144400E+03 -0.29646527517E+03 -0.12928133257E+04  0.13301550012E+04  0.10100000352E+00 0. -1.
</event>
<event>
 5   0  0.9674819E-04  0.1001733E+04  0.7818609E-02  0.9306646E-01
        2   -1    0    0  501    0  0.00000000000E+00  0.00000000000E+00  0.61062696356E+03  0.61062696356E+03  0.25500000920E-02 0.  1.
       -2   -1    0    0    0  501  0.00000000000E+00  0.00000000000E+00 -0.41083585480E+03  0.41083585480E+03  0.25500000920E-02 0. -1.
    10030    2    1    2    0    0  0.00000000000E+00  0.00000000000E+00  0.19979110876E+03  0.10214628184E+04  0.10017333987E+04 0.  0.
        4    1    3    3  502    0 -0.73144323689E+02  0.48699657668E+03  0.67170525442E+01  0.49250633446E+03  0.12699999809E+01 0. -1.
       -4    1    3    3    0  502  0.73144323689E+02 -0.48699657668E+03  0.19307405622E+03  0.52895648391E+03  0.12699999809E+01 0.  1.
</event>
<event>
 5   0  0.5888774E-04  0.1001495E+04  0.7818609E-02  0.9306907E-01
       -1   -1    0    0    0  501  0.00000000000E+00  0.00000000000E+00  0.27864186602E+03  0.27864186606E+03  0.50400001928E-02 0.  1.
        1   -1    0    0  501    0  0.00000000000E+00  0.00000000000E+00 -0.89989382156E+03  0.89989382157E+03  0.50400001928E-02 0. -1.
    10030    2    1    2    0    0  0.00000000000E+00  0.00000000000E+00 -0.62125195554E+03  0.11785356876E+04  0.10014950698E+04 0.  0.
        2    1    3    3  502    0  0.31121538953E+03 -0.37148581345E+03 -0.16228042560E+03  0.51106913898E+03  0.25500000920E-02 0.  1.
       -2    1    3    3    0  502 -0.31121538953E+03  0.37148581345E+03 -0.45897152994E+03  0.66746654866E+03  0.25500000920E-02 0. -1.
</event>
<event>
 5   0  0.5758786E-04  0.1010084E+04  0.7818609E-02  0.9297553E-01
        1   -1    0    0  501    0  0.00000000000E+00  0.00000000000E+00  0.31485390116E+03  0.31485390120E+03  0.50400001928E-02 0.  1.
       -1   -1    0    0    0  501  0.00000000000E+00  0.00000000000E+00 -0.81011412708E+03  0.81011412709E+03  0.50400001928E-02 0. -1.
    10030    2    1    2    0    0  0.00000000000E+00  0.00000000000E+00 -0.49526022592E+03  0.11249680283E+04  0.10100843397E+04 0.  0.
        3    1    3    3  502    0  0.43938975313E+03  0.23300650159E+03 -0.34543749459E+03  0.60554310978E+03  0.10100000352E+00 0.  1.
       -3    1    3    3    0  502 -0.43938975313E+03 -0.23300650159E+03 -0.14982273133E+03  0.51942491851E+03  0.10100000352E+00 0. -1.
</event>
<event>
 5   0  0.1020150E-03  0.9816754E+03  0.7818609E-02  0.9328874E-01
        2   -1    0    0  501    0  0.00000000000E+00  0.00000000000E+00  0.13129378251E+04  0.13129378251E+04  0.25500000920E-02 0.  1.
       -2   -1    0    0    0  501  0.00000000000E+00  0.00000000000E+00 -0.18349812756E+03  0.18349812758E+03  0.25500000920E-02 0. -1.
    10030    2    1    2    0    0  0.00000000000E+00  0.00000000000E+00  0.11294396975E+04  0.14964359527E+04  0.98167536900E+03 0.  0.
        5    1    3    3  502    0 -0.20757210397E+02 -0.41355560609E+03  0.16302480259E+03  0.44503738873E+03  0.46999998093E+01 0. -1.
       -5    1    3    3    0  502  0.20757210397E+02  0.41355560609E+03  0.96641489495E+03  0.10513985640E+04  0.46999998093E+01 0.  1.
</event>
<event>
 5   0  0.5888774E-04  0.9992320E+03  0.7818609E-02  0.9309388E-01
       -1   -1    0    0    0  501  0.00000000000E+00  0.00000000000E+00  0.28908810007E+03  0.28908810011E+03  0.50400001928E-02 0. -1.
        1   -1    0    0  501    0  0.00000000000E+00  0.00000000000E+00 -0.86346045124E+03  0.86346045125E+03  0.50400001928E-02 0.  1.
    10030    2    1    2    0    0  0.00000000000E+00  0.00000000000E+00 -0.57437235117E+03  0.11525485514E+04  0.99923198781E+03 0.  0.
        2    1    3    3  502    0 -0.97717509973E+02 -0.12840170653E+03 -0.83257947208E+03  0.84807092117E+03  0.25500000920E-02 0.  1.
       -2    1    3    3    0  502  0.97717509973E+02  0.12840170653E+03  0.25820712091E+03  0.30447763020E+03  0.25500000920E-02 0. -1.
</event>
<event>
 5   0  0.5758786E-04  0.9998438E+03  0.7818609E-02  0.9308716E-01
        1   -1    0    0  501    0  0.00000000000E+00  0.00000000000E+00  0.12948396710E+04  0.12948396710E+04  0.50400001928E-02 0. -1.
       -1   -1    0    0    0  501  0.00000000000E+00  0.00000000000E+00 -0.19301377497E+03  0.19301377504E+03  0.50400001928E-02 0.  1.
    10030    2    1    2    0    0  0.00000000000E+00  0.00000000000E+00  0.11018258961E+04  0.14878534461E+04  0.99984377369E+03 0.  0.
        3    1    3    3  502    0 -0.17076098192E+03 -0.64503248358E+02  0.12434757163E+04  0.12568022315E+04  0.10100000352E+00 0. -1.
       -3    1    3    3    0  502  0.17076098192E+03  0.64503248358E+02 -0.14164982020E+03  0.23105121458E+03  0.10100000352E+00 0.  1.
</event>
<event>
 5   0  0.5960102E-04  0.9965218E+03  0.7818609E-02  0.9312368E-01
        1   -1    0    0  501    0  0.00000000000E+00  0.00000000000E+00  0.11581766614E+04  0.11581766614E+04  0.50400001928E-02 0.  1.
       -1   -1    0    0    0  501  0.00000000000E+00  0.00000000000E+00 -0.21435755995E+03  0.21435756001E+03  0.50400001928E-02 0. -1.
    10030    2    1    2    0    0  0.00000000000E+00  0.00000000000E+00  0.94381910144E+03  0.13725342214E+04  0.99652179740E+03 0.  0.
        5    1    3    3  502    0  0.42103874880E+02 -0.18094822211E+03 -0.16483598528E+03  0.24841092449E+03  0.46999998093E+01 0. -1.
       -5    1    3    3    0  502 -0.42103874880E+02  0.18094822211E+03  0.11086550867E+04  0.11241232969E+04  0.46999998093E+01 0.  1.
</event>
<event>
 5   0  0.1006006E-03  0.1000748E+04  0.7818609E-02  0.9307724E-01
        2   -1    0    0  501    0  0.00000000000E+00  0.00000000000E+00  0.76189418543E+03  0.76189418543E+03  0.25500000920E-02 0.  1.
       -2   -1    0    0    0  501  0.00000000000E+00  0.00000000000E+00 -0.32862093106E+03  0.32862093107E+03  0.25500000920E-02 0. -1.
    10030    2    1    2    0    0  0.00000000000E+00  0.00000000000E+00  0.43327325436E+03  0.10905151165E+04  0.10007484731E+04 0.  0.
        2    1    3    3  502    0 -0.14778703351E+03  0.17881898496E+02  0.73720469143E+03  0.75208478687E+03  0.25500000920E-02 0.  1.
       -2    1    3    3    0  502  0.14778703351E+03 -0.17881898496E+02 -0.30393143707E+03  0.33843032963E+03  0.25500000920E-02 0. -1.
</event>
<event>
 5   0  0.1006006E-03  0.1003109E+04  0.7818609E-02  0.9305141E-01
        2   -1    0    0  501    0  0.00000000000E+00  0.00000000000E+00  0.11805963301E+04  0.11805963301E+04  0.25500000920E-02 0. -1.
       -2   -1    0    0    0  501  0.00000000000E+00  0.00000000000E+00 -0.21307631981E+03  0.21307631982E+03  0.25500000920E-02 0.  1.
    10030    2    1    2    0    0  0.00000000000E+00  0.00000000000E+00  0.96752001024E+03  0.13936726499E+04  0.10031094082E+04 0.  0.
        2    1    3    3  502    0 -0.10750199519E+03  0.28143378549E+03 -0.73360795781E+02  0.31007009038E+03  0.25500000920E-02 0.  1.
       -2    1    3    3    0  502  0.10750199519E+03 -0.28143378549E+03  0.10408808060E+04  0.10836025595E+04  0.25500000920E-02 0. -1.
</event>
<event>
 5   0  0.1020150E-03  0.9977530E+03  0.7818609E-02  0.9311013E-01
       -2   -1    0    0    0  501  0.00000000000E+00  0.00000000000E+00  0.94509477677E+03  0.94509477677E+03  0.25500000920E-02 0.  1.
        2   -1    0    0  501    0  0.00000000000E+00  0.00000000000E+00 -0.26333627856E+03  0.26333627857E+03  0.25500000920E-02 0. -1.
    10030    2    1    2    0    0  0.00000000000E+00  0.00000000000E+00  0.68175849821E+03  0.12084310553E+04  0.99775295821E+03 0.  0.
        5    1    3    3  502    0 -0.48603291217E+03  0.75493313964E+02  0.44169210857E+03  0.66109094755E+03  0.46999998093E+01 0.  1.
       -5    1    3    3    0  502  0.48603291217E+03 -0.75493313964E+02  0.24006638964E+03  0.54734010779E+03  0.46999998093E+01 0. -1.
</event>
<event>
 5   0  0.9674819E-04  0.1001755E+04  0.7818609E-02  0.9306622E-01
       -2   -1    0    0    0  501  0.00000000000E+00  0.00000000000E+00  0.24235938574E+03  0.24235938575E+03  0.25500000920E-02 0. -1.
        2   -1    0    0  501    0  0.00000000000E+00  0.00000000000E+00 -0.10351506438E+04  0.10351506438E+04  0.25500000920E-02 0.  1.
    10030    2    1    2    0    0  0.00000000000E+00  0.00000000000E+00 -0.79279125806E+03  0.12775100295E+04  0.10017554076E+04 0.  0.
        4    1    3    3  502    0  0.28831768006E+03 -0.21988639414E+03 -0.83705634142E+03  0.91221819899E+03  0.12699999809E+01 0.  1.
       -4    1    3    3    0  502 -0.28831768006E+03  0.21988639414E+03  0.44265083359E+02  0.36529183055E+03  0.12699999809E+01 0. -1.
</event>
<event>
 5   0  0.5826939E-04  0.1000108E+04  0.7818609E-02  0.9308427E-01
       -1   -1    0    0    0  501  0.00000000000E+00  0.00000000000E+00  0.42479322134E+03  0.42479322137E+03  0.50400001928E-02 0. -1.
        1   -1    0    0  501    0  0.00000000000E+00  0.00000000000E+00 -0.58864858287E+03  0.58864858289E+03  0.50400001928E-02 0.  1.
    10030    2    1    2    0    0  0.00000000000E+00  0.00000000000E+00 -0.16385536153E+03  0.10134418043E+04  0.10001078497E+04 0.  0.
        1    1    3    3  502    0 -0.11001538434E+03 -0.48201508720E+03 -0.15783973763E+03  0.51899452008E+03  0.50400001928E-02 0.  1.
       -1    1    3    3    0  502  0.11001538434E+03  0.48201508720E+03 -0.60156239031E+01  0.49444728418E+03  0.50400001928E-02 0. -1.
</event>
<event>
 5   0  0.9674819E-04  0.9996375E+03  0.7818609E-02  0.9308942E-01
        2   -1    0    0  501    0  0.00000000000E+00  0.00000000000E+00  0.75277202477E+03  0.75277202478E+03  0.25500000920E-02 0. -1.
       -2   -1    0    0    0  501  0.00000000000E+00  0.00000000000E+00 -0.33186512845E+03  0.33186512846E+03  0.25500000920E-02 0.  1.
    10030    2    1    2    0    0  0.00000000000E+00  0.00000000000E+00  0.42090689632E+03  0.10846371532E+04  0.99963750371E+03 0.  0.
        4    1    3    3  502    0 -0.14036317063E+03 -0.28500679722E+03 -0.20821435460E+03  0.37984934447E+03  0.12699999809E+01 0.  1.
       -4    1    3    3    0  502  0.14036317063E+03  0.28500679722E+03  0.62912125092E+03  0.70478780877E+03  0.12699999809E+01 0. -1.
</event>
<event>
 5   0  0.5768102E-04  0.1002449E+04  0.7818609E-02  0.9305863E-01
       -1   -1    0    0    0  501  0.00000000000E+00  0.00000000000E+00  0.24026017390E+03  0.24026017395E+03  0.50400001928E-02 0. -1.
        1   -1    0    0  501    0  0.00000000000E+00  0.00000000000E+00 -0.10456419076E+04  0.10456419076E+04  0.50400001928E-02 0.  1.
    10030    2    1    2    0    0  0.00000000000E+00  0.00000000000E+00 -0.80538173366E+03  0.12859020815E+04  0.10024492138E+04 0.  0.
        4    1    3    3  502    0  0.28027895383E+03  0.41331063432E+03 -0.34762889291E+03  0.60846481615E+03  0.12699999809E+01 0. -1.
       -4    1    3    3    0  502 -0.28027895383E+03 -0.41331063432E+03 -0.45775284075E+03  0.67743726538E+03  0.12699999809E+01 0.  1.
</event>
<event>
 5   0  0.1006749E-03  0.9994731E+03  0.7818609E-02  0.9309123E-01
        2   -1    0    0  501    0  0.00000000000E+00  0.00000000000E+00  0.94249464059E+03  0.94249464059E+03  0.25500000920E-02 0.  1.
       -2   -1    0    0    0  501  0.00000000000E+00  0.00000000000E+00 -0.26497402884E+03  0.26497402885E+03  0.25500000920E-02 0. -1.
    10030    2    1    2    0    0  0.00000000000E+00  0.00000000000E+00  0.67752061175E+03  0.12074686694E+04  0.99947306535E+03 0.  0.
        1    1    3    3  502    0 -0.25123946313E+03 -0.27439728327E+03  0.74184307438E+03  0.82990739479E+03  0.50400001928E-02 0.  1.
       -1    1    3    3    0  502  0.25123946313E+03  0.27439728327E+03 -0.64322462631E+02  0.37756127466E+03  0.50400001928E-02 0. -1.
</event>
<event>
 5   0  0.5758786E-04  0.9994760E+03  0.7818609E-02  0.9309120E-01
        1   -1    0    0  501    0  0.00000000000E+00  0.00000000000E+00  0.22142154918E+03  0.22142154923E+03  0.50400001928E-02 0. -1.
       -1   -1    0    0    0  501  0.00000000000E+00  0.00000000000E+00 -0.11278851143E+04  0.11278851143E+04  0.50400001928E-02 0.  1.
    10030    2    1    2    0    0  0.00000000000E+00  0.00000000000E+00 -0.90646356512E+03  0.13493066635E+04  0.99947600140E+03 0.  0.
        3    1    3    3  502    0  0.83231689292E+02 -0.47379495374E+03 -0.27046118170E+03  0.55186813035E+03  0.10100000352E+00 0. -1.
       -3    1    3    3    0  502 -0.83231689292E+02  0.47379495374E+03 -0.63600238342E+03  0.79743853318E+03  0.10100000352E+00 0.  1.
</event>
<event>
 5   0  0.9741826E-04  0.1000774E+04  0.7818609E-02  0.9307696E-01
       -2   -1    0    0    0  501  0.00000000000E+00  0.00000000000E+00  0.19022352812E+03  0.19022352813E+03  0.25500000920E-02 0.  1.
        2   -1    0    0  501    0  0.00000000000E+00  0.00000000000E+00 -0.13162788963E+04  0.13162788963E+04  0.25500000920E-02 0. -1.
    10030    2    1    2    0    0  0.00000000000E+00  0.00000000000E+00 -0.11260553681E+04  0.15065024244E+04  0.10007741317E+04 0.  0.
        3    1    3    3  502    0  0.79220548541E+02  0.18697637686E+01  0.18071825042E+03  0.19732837496E+03  0.10100000352E+00 0.  1.
       -3    1    3    3    0  502 -0.79220548541E+02 -0.18697637686E+01 -0.13067736186E+04  0.13091740494E+04  0.10100000352E+00 0. -1.
</event>
<event>
 5   0  0.5960102E-04  0.1000548E+04  0.7818609E-02  0.9307943E-01
        1   -1    0    0  501    0  0.00000000000E+00  0.00000000000E+00  0.70273659770E+03  0.70273659772E+03  0.50400001928E-02 0. -1.
       -1   -1    0    0    0  501  0.00000000000E+00  0.00000000000E+00 -0.35614242654E+03  0.35614242658E+03  0.50400001928E-02 0.  1.
    10030    2    1    2    0    0  0.00000000000E+00  0.00000000000E+00  0.34659417116E+03  0.10588790243E+04  0.10005484839E+04 0.  0.
        5    1    3    3  502    0 -0.16008616396E+03  0.27407077297E+02  0.67403393327E+03  0.69334159039E+03  0.46999998093E+01 0. -1.
       -5    1    3    3    0  502  0.16008616396E+03 -0.27407077297E+02 -0.32743976211E+03  0.36553743390E+03  0.46999998093E+01 0.  1.
</event>
<event>
 5   0  0.1006749E-03  0.9994134E+03  0.7818609E-02  0.9309188E-01
        2   -1    0    0  501    0  0.00000000000E+00  0.00000000000E+00  0.57128227495E+03  0.57128227495E+03  0.25500000920E-02 0. -1.
       -2   -1    0    0    0  501  0.00000000000E+00  0.00000000000E+00 -0.43709875928E+03  0.43709875928E+03  0.25500000920E-02 0.  1.
    10030    2    1    2    0    0  0.00000000000E+00  0.00000000000E+00  0.13418351567E+03  0.10083810342E+04  0.99941337510E+03 0.  0.
        1    1    3    3  502    0 -0.67220088995E+01  0.17625082768E+03  0.53883082356E+03  0.56696401659E+03  0.50400001928E-02 0. -1.
       -1    1    3    3    0  502  0.67220088995E+01 -0.17625082768E+03 -0.40464730789E+03  0.44141701765E+03  0.50400001928E-02 0.  1.
</event>
<event>
 5   0  0.9741826E-04  0.9904844E+03  0.7818609E-02  0.9319043E-01
       -2   -1    0    0    0  501  0.00000000000E+00  0.00000000000E+00  0.29877137124E+03  0.29877137125E+03  0.25500000920E-02 0. -1.
        2   -1    0    0  501    0  0.00000000000E+00  0.00000000000E+00 -0.82091139150E+03  0.82091139150E+03  0.25500000920E-02 0.  1.
    10030    2    1    2    0    0  0.00000000000E+00  0.00000000000E+00 -0.52214002026E+03  0.11196827628E+04  0.99048437062E+03 0.  0.
        3    1    3    3  502    0 -0.38694983926E+03  0.17276772810E+03  0.28653404234E+02  0.42473508656E+03  0.10100000352E+00 0. -1.
       -3    1    3    3    0  502  0.38694983926E+03 -0.17276772810E+03 -0.55079342449E+03  0.69494767619E+03  0.10100000352E+00 0.  1.
</event>
<event>
 5   0  0.5960102E-04  0.1000423E+04  0.7818609E-02  0.9308081E-01
        1   -1    0    0  501    0  0.00000000000E+00  0.00000000000E+00  0.11908906804E+04  0.11908906804E+04  0.50400001928E-02 0.  1.
       -1   -1    0    0    0  501  0.00000000000E+00  0.00000000000E+00 -0.21010462820E+03  0.21010462826E+03  0.50400001928E-02 0. -1.
    10030    2    1    2    0    0  0.00000000000E+00  0.00000000000E+00  0.98078605216E+03  0.14009953086E+04  0.10004231978E+04 0.  0.
        5    1    3    3  502    0 -0.54706860340E+02  0.38552321711E+03  0.93005827277E+03  0.10082913628E+04  0.46999998093E+01 0.  1.
       -5    1    3    3    0  502  0.54706860340E+02 -0.38552321711E+03  0.50727779394E+02  0.39270394586E+03  0.46999998093E+01 0. -1.
</event>
<event>
 5   0  0.5768102E-04  0.9932768E+03  0.7818609E-02  0.9315950E-01
        1   -1    0    0  501    0  0.00000000000E+00  0.00000000000E+00  0.12541983340E+04  0.12541983340E+04  0.50400001928E-02 0. -1.
       -1   -1    0    0    0  501  0.00000000000E+00  0.00000000000E+00 -0.19665925806E+03  0.19665925813E+03  0.50400001928E-02 0.  1.
    10030    2    1    2    0    0  0.00000000000E+00  0.00000000000E+00  0.10575390759E+04  0.14508575921E+04  0.99327682722E+03 0.  0.
        4    1    3    3  502    0  0.43198584754E+03 -0.11629004129E+03  0.84379194657E+03  0.95505057885E+03  0.12699999809E+01 0.  1.
       -4    1    3    3    0  502 -0.43198584754E+03  0.11629004129E+03  0.21374712932E+03  0.49580701324E+03  0.12699999809E+01 0. -1.
</event>
<event>
 5   0  0.5888774E-04  0.9999959E+03  0.7818609E-02  0.9308549E-01
       -1   -1    0    0    0  501  0.00000000000E+00  0.00000000000E+00  0.48659927358E+03  0.48659927361E+03  0.50400001928E-02 0. -1.
        1   -1    0    0  501    0  0.00000000000E+00  0.00000000000E+00 -0.51376556372E+03  0.51376556374E+03  0.50400001928E-02 0.  1.
    10030    2    1    2    0    0  0.00000000000E+00  0.00000000000E+00 -0.27166290132E+02  0.10003648374E+04  0.99999590024E+03 0.  0.
        2    1    3    3  502    0 -0.40001173049E+03  0.16557980314E+02  0.28605098066E+03  0.49204543976E+03  0.25500000920E-02 0. -1.
       -2    1    3    3    0  502  0.40001173049E+03 -0.16557980314E+02 -0.31321727079E+03  0.50831939759E+03  0.25500000920E-02 0.  1.
</event>
<event>
 5   0  0.9674819E-04  0.9987115E+03  0.7818609E-02  0.9309959E-01
        2   -1    0    0  501    0  0.00000000000E+00  0.00000000000E+00  0.87346345019E+03  0.87346345020E+03  0.25500000920E-02 0. -1.
       -2   -1    0    0    0  501  0.00000000000E+00  0.00000000000E+00 -0.28547976518E+03  0.28547976519E+03  0.25500000920E-02 0.  1.
    10030    2    1    2    0    0  0.00000000000E+00  0.00000000000E+00  0.58798368501E+03  0.11589432154E+04  0.99871145115E+03 0.  0.
        4    1    3    3  502    0  0.25208288732E+03 -0.39821584155E+03  0.48549193481E+03  0.67662816244E+03  0.12699999809E+01 0. -1.
       -4    1    3    3    0  502 -0.25208288732E+03  0.39821584155E+03  0.10249175020E+03  0.48231505295E+03  0.12699999809E+01 0.  1.
</event>
<event>
 5   0  0.1006749E-03  0.9987765E+03  0.7818609E-02  0.9309888E-01
        2   -1    0    0  501    0  0.00000000000E+00  0.00000000000E+00  0.42224751262E+03  0.42224751263E+03  0.25500000920E-02 0.  1.
       -2   -1    0    0    0  501  0.00000000000E+00  0.00000000000E+00 -0.59062191742E+03  0.59062191742E+03  0.25500000920E-02 0. -1.
    10030    2    1    2    0    0  0.00000000000E+00  0.00000000000E+00 -0.16837440480E+03  0.10128694300E+04  0.99877652262E+03 0.  0.
        1    1    3    3  502    0  0.48825005973E+03 -0.30012784799E+01  0.22132501648E+02  0.48876065324E+03  0.50400001928E-02 0.  1.
       -1    1    3    3    0  502 -0.48825005973E+03  0.30012784799E+01 -0.19050690644E+03  0.52410877681E+03  0.50400001928E-02 0. -1.
</event>
<event>
 5   0  0.5826939E-04  0.9997345E+03  0.7818609E-02  0.9308836E-01
       -1   -1    0    0    0  501  0.00000000000E+00  0.00000000000E+00  0.25485184860E+03  0.25485184865E+03  0.50400001928E-02 0. -1.
        1   -1    0    0  501    0  0.00000000000E+00  0.00000000000E+00 -0.98044121311E+03  0.98044121312E+03  0.50400001928E-02 0.  1.
    10030    2    1    2    0    0  0.00000000000E+00  0.00000000000E+00 -0.72558936450E+03  0.12352930618E+04  0.99973447604E+03 0.  0.
        1    1    3    3  502    0 -0.12865026374E+02 -0.31355140530E+02  0.25343053544E+03  0.25568670294E+03  0.50400001928E-02 0. -1.
       -1    1    3    3    0  502  0.12865026374E+02  0.31355140530E+02 -0.97901989995E+03  0.97960635883E+03  0.50400001928E-02 0.  1.
</event>
<event>
 5   0  0.1020150E-03  0.9999854E+03  0.7818609E-02  0.9308561E-01
       -2   -1    0    0    0  501  0.00000000000E+00  0.00000000000E+00  0.59822489932E+03  0.59822489933E+03  0.25500000920E-02 0. -1.
        2   -1    0    0  501    0  0.00000000000E+00  0.00000000000E+00 -0.41789082220E+03  0.41789082221E+03  0.25500000920E-02 0.  1.
    10030    2    1    2    0    0  0.00000000000E+00  0.00000000000E+00  0.18033407712E+03  0.10161157215E+04  0.99998538999E+03 0.  0.
        5    1    3    3  502    0 -0.33145611633E+03 -0.34938743433E+03 -0.46296946294E+02  0.48383905749E+03  0.46999998093E+01 0.  1.
       -5    1    3    3    0  502  0.33145611633E+03  0.34938743433E+03  0.22663102342E+03  0.53227666405E+03  0.46999998093E+01 0. -1.
</event>
<event>
 5   0  0.5768102E-04  0.1000059E+04  0.7818609E-02  0.9308480E-01
        1   -1    0    0  501    0  0.00000000000E+00  0.00000000000E+00  0.58257383668E+03  0.58257383670E+03  0.50400001928E-02 0.  1.
       -1   -1    0    0    0  501  0.00000000000E+00  0.00000000000E+00 -0.42918096805E+03  0.42918096808E+03  0.50400001928E-02 0. -1.
    10030    2    1    2    0    0  0.00000000000E+00  0.00000000000E+00  0.15339286864E+03  0.10117548048E+04  0.10000592047E+04 0.  0.
        4    1    3    3  502    0  0.16512670195E+02 -0.12561697009E+03  0.56606372821E+03  0.58007072737E+03  0.12699999809E+01 0.  1.
       -4    1    3    3    0  502 -0.16512670195E+02  0.12561697009E+03 -0.41267085957E+03  0.43168407741E+03  0.12699999809E+01 0. -1.
</event>
<event>
 5   0  0.5758786E-04  0.1000177E+04  0.7818609E-02  0.9308350E-01
       -1   -1    0    0    0  501  0.00000000000E+00  0.00000000000E+00  0.20659847383E+03  0.20659847389E+03  0.50400001928E-02 0. -1.
        1   -1    0    0  501    0  0.00000000000E+00  0.00000000000E+00 -0.12105056208E+04  0.12105056208E+04  0.50400001928E-02 0.  1.
    10030    2    1    2    0    0  0.00000000000E+00  0.00000000000E+00 -0.10039071469E+04  0.14171040947E+04  0.10001772120E+04 0.  0.
        3    1    3    3  502    0 -0.10707905380E+03  0.11016441161E+02  0.18998921777E+03  0.21836482961E+03  0.10100000352E+00 0. -1.
       -3    1    3    3    0  502  0.10707905380E+03 -0.11016441161E+02 -0.11938963647E+04  0.11987392651E+04  0.10100000352E+00 0.  1.
</event>
<event>
 5   0  0.3854625E-04  0.1001521E+04  0.7818609E-02  0.9306879E-01
       -3   -1    0    0    0  501  0.00000000000E+00  0.00000000000E+00  0.24351159356E+03  0.24351161450E+03  0.10100000352E+00 0. -1.
        3   -1    0    0  501    0  0.00000000000E+00  0.00000000000E+00 -0.10297698084E+04  0.10297698134E+04  0.10100000352E+00 0.  1.
    10030    2    1    2    0    0  0.00000000000E+00  0.00000000000E+00 -0.78625821486E+03  0.12732814279E+04  0.10015206509E+04 0.  0.
        3    1    3    3  502    0 -0.10141127213E+03  0.20257294216E+03  0.17463973292E+03  0.28604036346E+03  0.10100000352E+00 0. -1.
       -3    1    3    3    0  502  0.10141127213E+03 -0.20257294216E+03 -0.96089794779E+03  0.98724106442E+03  0.10100000352E+00 0.  1.
</event>
<event>
 5   0  0.5888774E-04  0.1000389E+04  0.7818609E-02  0.9308119E-01
        1   -1    0    0  501    0  0.00000000000E+00  0.00000000000E+00  0.52928458418E+03  0.52928458420E+03  0.50400001928E-02 0.  1.
       -1   -1    0    0    0  501  0.00000000000E+00  0.00000000000E+00 -0.47270288312E+03  0.47270288315E+03  0.50400001928E-02 0. -1.
    10030    2    1    2    0    0  0.00000000000E+00  0.00000000000E+00  0.56581701060E+02  0.10019874674E+04  0.10003886224E+04 0.  0.
        2    1    3    3  502    0  0.40606942596E+03 -0.13430018952E+03  0.28806115597E+03  0.51566282510E+03  0.25500000920E-02 0.  1.
       -2    1    3    3    0  502 -0.40606942596E+03  0.13430018952E+03 -0.23147945491E+03  0.48632464225E+03  0.25500000920E-02 0. -1.
</event>
<event>
 5   0  0.3854625E-04  0.9985505E+03  0.7818609E-02  0.9310136E-01
        3   -1    0    0  501    0  0.00000000000E+00  0.00000000000E+00  0.26578849786E+03  0.26578851705E+03  0.10100000352E+00 0. -1.
       -3   -1    0    0    0  501  0.00000000000E+00  0.00000000000E+00 -0.93787266491E+03  0.93787267035E+03  0.10100000352E+00 0.  1.
    10030    2    1    2    0    0  0.00000000000E+00  0.00000000000E+00 -0.67208416705E+03  0.12036611874E+04  0.99855051272E+03 0.  0.
        5    1    3    3  502    0 -0.37685903502E+03 -0.20055065674E+03 -0.24005652755E+02  0.42759988255E+03  0.46999998093E+01 0. -1.
       -5    1    3    3    0  502  0.37685903502E+03  0.20055065674E+03 -0.64807851429E+03  0.77606130485E+03  0.46999998093E+01 0.  1.
</event>
<event>
 5   0  0.9674819E-04  0.1018038E+04  0.7818609E-02  0.9288979E-01
        2   -1    0    0  501    0  0.00000000000E+00  0.00000000000E+00  0.67901810316E+03  0.67901810317E+03  0.25500000920E-02 0. -1.
       -2   -1    0    0    0  501  0.00000000000E+00  0.00000000000E+00 -0.38158116583E+03  0.38158116584E+03  0.25500000920E-02 0.  1.
    10030    2    1    2    0    0  0.00000000000E+00  0.00000000000E+00  0.29743693733E+03  0.10605992690E+04  0.10180383479E+04 0.  0.
        4    1    3    3  502    0  0.31253338440E+03 -0.68015651992E+02 -0.26381026769E+03  0.41460911172E+03  0.12699999809E+01 0.  1.
       -4    1    3    3    0  502 -0.31253338440E+03  0.68015651992E+02  0.56124720502E+03  0.64599015730E+03  0.12699999809E+01 0. -1.
</event>
<event>
 5   0  0.5826939E-04  0.9854009E+03  0.7818609E-02  0.9324703E-01
        1   -1    0    0  501    0  0.00000000000E+00  0.00000000000E+00  0.73566557349E+03  0.73566557351E+03  0.50400001928E-02 0. -1.
       -1   -1    0    0    0  501  0.00000000000E+00  0.00000000000E+00 -0.32997838628E+03  0.32997838631E+03  0.50400001928E-02 0.  1.
    10030    2    1    2    0    0  0.00000000000E+00  0.00000000000E+00  0.40568718722E+03  0.10656439598E+04  0.98540091092E+03 0.  0.
        1    1    3    3  502    0 -0.37295599326E+03 -0.25464050753E+03 -0.10217089361E+02  0.45171047134E+03  0.50400001928E-02 0.  1.
       -1    1    3    3    0  502  0.37295599326E+03  0.25464050753E+03  0.41590427658E+03  0.61393348848E+03  0.50400001928E-02 0. -1.
</event>
<event>
 5   0  0.5758786E-04  0.1002287E+04  0.7818609E-02  0.9306040E-01
       -1   -1    0    0    0  501  0.00000000000E+00  0.00000000000E+00  0.15506280754E+03  0.15506280763E+03  0.50400001928E-02 0.  1.
        1   -1    0    0  501    0  0.00000000000E+00  0.00000000000E+00 -0.16196324110E+04  0.16196324110E+04  0.50400001928E-02 0. -1.
    10030    2    1    2    0    0  0.00000000000E+00  0.00000000000E+00 -0.14645696034E+04  0.17746952186E+04  0.10022868829E+04 0.  0.
        3    1    3    3  502    0 -0.43447411286E+03  0.18942625171E+03 -0.44407346172E+03  0.64950081539E+03  0.10100000352E+00 0.  1.
       -3    1    3    3    0  502  0.43447411286E+03 -0.18942625171E+03 -0.10204961417E+04  0.11251944032E+04  0.10100000352E+00 0. -1.
</event>
<event>
 5   0  0.1006006E-03  0.1000191E+04  0.7818609E-02  0.9308336E-01
        2   -1    0    0  501    0  0.00000000000E+00  0.00000000000E+00  0.15171717967E+04  0.15171717967E+04  0.25500000920E-02 0.  1.
       -2   -1    0    0    0  501  0.00000000000E+00  0.00000000000E+00 -0.16484312208E+03  0.16484312210E+03  0.25500000920E-02 0. -1.
    10030    2    1    2    0    0  0.00000000000E+00  0.00000000000E+00  0.13523286746E+04  0.16820149188E+04  0.10001906533E+04 0.  0.
        2    1    3    3  502    0  0.39809500423E+03  0.14295478383E+03  0.11248321601E+04  0.12017333693E+04  0.25500000920E-02 0.  1.
       -2    1    3    3    0  502 -0.39809500423E+03 -0.14295478383E+03  0.22749651450E+03  0.48028154944E+03  0.25500000920E-02 0. -1.
</event>
<event>
 5   0  0.9674819E-04  0.9990833E+03  0.7818609E-02  0.9309551E-01
       -2   -1    0    0    0  501  0.00000000000E+00  0.00000000000E+00  0.24258889126E+03  0.24258889128E+03  0.25500000920E-02 0. -1.
        2   -1    0    0  501    0  0.00000000000E+00  0.00000000000E+00 -0.10286616190E+04  0.10286616190E+04  0.25500000920E-02 0.  1.
    10030    2    1    2    0    0  0.00000000000E+00  0.00000000000E+00 -0.78607272776E+03  0.12712505103E+04  0.99908334319E+03 0.  0.
        4    1    3    3  502    0  0.21028155984E+02 -0.47471025386E+03 -0.58912179260E+03  0.75687390487E+03  0.12699999809E+01 0.  1.
       -4    1    3    3    0  502 -0.21028155984E+02  0.47471025386E+03 -0.19695093517E+03  0.51437660544E+03  0.12699999809E+01 0. -1.
</event>
<event>
 5   0  0.5960102E-04  0.9986778E+03  0.7818609E-02  0.9309996E-01
       -1   -1    0    0    0  501  0.00000000000E+00  0.00000000000E+00  0.20666624167E+03  0.20666624174E+03  0.50400001928E-02 0.  1.
        1   -1    0    0  501    0  0.00000000000E+00  0.00000000000E+00 -0.12064830352E+04  0.12064830352E+04  0.50400001928E-02 0. -1.
    10030    2    1    2    0    0  0.00000000000E+00  0.00000000000E+00 -0.99981679348E+03  0.14131492769E+04  0.99867775497E+03 0.  0.
        5    1    3    3  502    0 -0.43430857262E+03  0.24333070731E+03 -0.44540797269E+03  0.66801506084E+03  0.46999998093E+01 0.  1.
       -5    1    3    3    0  502  0.43430857262E+03 -0.24333070731E+03 -0.55440882079E+03  0.74513421606E+03  0.46999998093E+01 0. -1.
</event>
<event>
 5   0  0.9674819E-04  0.1001598E+04  0.7818609E-02  0.9306794E-01
       -2   -1    0    0    0  501  0.00000000000E+00  0.00000000000E+00  0.90014662006E+03  0.90014662006E+03  0.25500000920E-02 0.  1.
        2   -1    0    0  501    0  0.00000000000E+00  0.00000000000E+00 -0.27862066069E+03  0.27862066070E+03  0.25500000920E-02 0. -1.
    10030    2    1    2    0    0  0.00000000000E+00  0.00000000000E+00  0.62152595937E+03  0.11787672808E+04  0.10015976158E+04 0.  0.
        4    1    3    3  502    0 -0.42087226233E+03  0.20783565058E+03  0.10533393128E+03  0.48106753043E+03  0.12699999809E+01 0. -1.
       -4    1    3    3    0  502  0.42087226233E+03 -0.20783565058E+03  0.51619202808E+03  0.69769975033E+03  0.12699999809E+01 0.  1.
</event>
<event>
 5   0  0.5888774E-04  0.1001270E+04  0.7818609E-02  0.9307153E-01
       -1   -1    0    0    0  501  0.00000000000E+00  0.00000000000E+00  0.16348310842E+03  0.16348310850E+03  0.50400001928E-02 0.  1.
        1   -1    0    0  501    0  0.00000000000E+00  0.00000000000E+00 -0.15330960384E+04  0.15330960384E+04  0.50400001928E-02 0. -1.
    10030    2    1    2    0    0  0.00000000000E+00  0.00000000000E+00 -0.13696129299E+04  0.16965791469E+04  0.10012698057E+04 0.  0.
        2    1    3    3  502    0 -0.98542467463E+02  0.48930673709E+03 -0.61910275440E+03  0.79524833943E+03  0.25500000920E-02 0.  1.
       -2    1    3    3    0  502  0.98542467463E+02 -0.48930673709E+03 -0.75051017553E+03  0.90133080744E+03  0.25500000920E-02 0. -1.
</event>
<event>
 5   0  0.1020150E-03  0.9998059E+03  0.7818609E-02  0.9308758E-01
        2   -1    0    0  501    0  0.00000000000E+00  0.00000000000E+00  0.97538266215E+03  0.97538266215E+03  0.25500000920E-02 0.  1.
       -2   -1    0    0    0  501  0.00000000000E+00  0.00000000000E+00 -0.25621017603E+03  0.25621017604E+03  0.25500000920E-02 0. -1.
    10030    2    1    2    0    0  0.00000000000E+00  0.00000000000E+00  0.71917248612E+03  0.12315928382E+04  0.99980590832E+03 0.  0.
        5    1    3    3  502    0  0.44558895888E+03 -0.13008217615E+03  0.58809017143E+03  0.74922829135E+03  0.46999998093E+01 0.  1.
       -5    1    3    3    0  502 -0.44558895888E+03  0.13008217615E+03  0.13108231469E+03  0.48236454684E+03  0.46999998093E+01 0. -1.
</event>
<event>
 5   0  0.5888774E-04  0.9997034E+03  0.7818609E-02  0.9308870E-01
       -1   -1    0    0    0  501  0.00000000000E+00  0.00000000000E+00  0.14919163221E+03  0.14919163230E+03  0.50400001928E-02 0. -1.
        1   -1    0    0  501    0  0.00000000000E+00  0.00000000000E+00 -0.16747033801E+04  0.16747033801E+04  0.50400001928E-02 0.  1.
    10030    2    1    2    0    0  0.00000000000E+00  0.00000000000E+00 -0.15255117479E+04  0.18238950124E+04  0.99970341768E+03 0.  0.
        2    1    3    3  502    0  0.21833003014E+02  0.47676844269E+03 -0.49173711610E+03  0.68526653160E+03  0.25500000920E-02 0.  1.
       -2    1    3    3    0  502 -0.21833003014E+02 -0.47676844269E+03 -0.10337746318E+04  0.11386284808E+04  0.25500000920E-02 0. -1.
</event>
<event>
 5   0  0.9741826E-04  0.1001277E+04  0.7818609E-02  0.9307145E-01
        2   -1    0    0  501    0  0.00000000000E+00  0.00000000000E+00  0.14366046084E+04  0.14366046084E+04  0.25500000920E-02 0.  1.
       -2   -1    0    0    0  501  0.00000000000E+00  0.00000000000E+00 -0.17446620095E+03  0.17446620097E+03  0.25500000920E-02 0. -1.
    10030    2    1    2    0    0  0.00000000000E+00  0.00000000000E+00  0.12621384074E+04  0.16110708094E+04  0.10012770812E+04 0.  0.
        3    1    3    3  502    0  0.14251144219E+03 -0.46925261349E+03  0.79302456716E+03  0.93241380338E+03  0.10100000352E+00 0.  1.
       -3    1    3    3    0  502 -0.14251144219E+03  0.46925261349E+03  0.46911384027E+03  0.67865700597E+03  0.10100000352E+00 0. -1.
</event>
<event>
 5   0  0.3854625E-04  0.1000967E+04  0.7818609E-02  0.9307485E-01
        4   -1    0    0  501    0  0.00000000000E+00  0.00000000000E+00  0.23098245411E+03  0.23098594547E+03  0.12699999809E+01 0. -1.
       -4   -1    0    0    0  501  0.00000000000E+00  0.00000000000E+00 -0.10844156527E+04  0.10844163964E+04  0.12699999809E+01 0.  1.
    10030    2    1    2    0    0  0.00000000000E+00  0.00000000000E+00 -0.85343319862E+03  0.13154023419E+04  0.10009670806E+04 0.  0.
        4    1    3    3  502    0  0.12616701436E+03  0.37823361664E+03 -0.29198070039E+02  0.39979110103E+03  0.12699999809E+01 0. -1.
       -4    1    3    3    0  502 -0.12616701436E+03 -0.37823361664E+03 -0.82423512858E+03  0.91561124084E+03  0.12699999809E+01 0.  1.
</event>
<event>
 5   0  0.1006006E-03  0.1000449E+04  0.7818609E-02  0.9308053E-01
       -2   -1    0    0    0  501  0.00000000000E+00  0.00000000000E+00  0.80565221002E+03  0.80565221002E+03  0.25500000920E-02 0. -1.
        2   -1    0    0  501    0  0.00000000000E+00  0.00000000000E+00 -0.31058621503E+03  0.31058621504E+03  0.25500000920E-02 0.  1.
    10030    2    1    2    0    0  0.00000000000E+00  0.00000000000E+00  0.49506599499E+03  0.11162384251E+04  0.10004488404E+04 0.  0.
        2    1    3    3  502    0 -0.22936537319E+03  0.15649440651E+03  0.71177304254E+03  0.76401560048E+03  0.25500000920E-02 0. -1.
       -2    1    3    3    0  502  0.22936537319E+03 -0.15649440651E+03 -0.21670704756E+03  0.35222282458E+03  0.25500000920E-02 0.  1.
</event>
<event>
 5   0  0.3854625E-04  0.1000186E+04  0.7818609E-02  0.9308340E-01
       -3   -1    0    0    0  501  0.00000000000E+00  0.00000000000E+00  0.12863477024E+04  0.12863477064E+04  0.10100000352E+00 0. -1.
        3   -1    0    0  501    0  0.00000000000E+00  0.00000000000E+00 -0.19442112421E+03  0.19442115045E+03  0.10100000352E+00 0.  1.
    10030    2    1    2    0    0  0.00000000000E+00  0.00000000000E+00  0.10919265782E+04  0.14807688568E+04  0.10001863602E+04 0.  0.
        2    1    3    3  502    0 -0.44741804367E+02  0.22302275783E+03 -0.11340015423E+03  0.25416643082E+03  0.25500000920E-02 0.  1.
       -2    1    3    3    0  502  0.44741804367E+02 -0.22302275783E+03  0.12053267324E+04  0.12266024260E+04  0.25500000920E-02 0. -1.
</event>
<event>
 5   0  0.9674819E-04  0.9992438E+03  0.7818609E-02  0.9309375E-01
       -2   -1    0    0    0  501  0.00000000000E+00  0.00000000000E+00  0.21926203560E+03  0.21926203561E+03  0.25500000920E-02 0.  1.
        2   -1    0    0  501    0  0.00000000000E+00  0.00000000000E+00 -0.11384645773E+04  0.11384645773E+04  0.25500000920E-02 0. -1.
    10030    2    1    2    0    0  0.00000000000E+00  0.00000000000E+00 -0.91920254171E+03  0.13577266129E+04  0.99924383548E+03 0.  0.
        4    1    3    3  502    0 -0.39375935780E+03  0.30503972252E+03 -0.40654399342E+03  0.64294268459E+03  0.12699999809E+01 0. -1.
       -4    1    3    3    0  502  0.39375935780E+03 -0.30503972252E+03 -0.51265854829E+03  0.71478392833E+03  0.12699999809E+01 0.  1.
</event>
<event>
 5   0  0.1020150E-03  0.9919539E+03  0.7818609E-02  0.9317414E-01
        2   -1    0    0  501    0  0.00000000000E+00  0.00000000000E+00  0.61660352294E+03  0.61660352295E+03  0.25500000920E-02 0.  1.
       -2   -1    0    0    0  501  0.00000000000E+00  0.00000000000E+00 -0.39894862986E+03  0.39894862987E+03  0.25500000920E-02 0. -1.
    10030    2    1    2    0    0  0.00000000000E+00  0.00000000000E+00  0.21765489309E+03  0.10155521528E+04  0.99195389137E+03 0.  0.
        5    1    3    3  502    0  0.44989599644E+03 -0.20045090934E+03  0.49270810853E+02  0.49501179528E+03  0.46999998093E+01 0. -1.
       -5    1    3    3    0  502 -0.44989599644E+03  0.20045090934E+03  0.16838408223E+03  0.52054035753E+03  0.46999998093E+01 0.  1.
</event>
<event>
 5   0  0.5768102E-04  0.1003224E+04  0.7818609E-02  0.9305016E-01
       -1   -1    0    0    0  501  0.00000000000E+00  0.00000000000E+00  0.41501895667E+03  0.41501895670E+03  0.50400001928E-02 0. -1.
        1   -1    0    0  501    0  0.00000000000E+00  0.00000000000E+00 -0.60627210501E+03  0.60627210504E+03  0.50400001928E-02 0.  1.
    10030    2    1    2    0    0  0.00000000000E+00  0.00000000000E+00 -0.19125314835E+03  0.10212910617E+04  0.10032236371E+04 0.  0.
        4    1    3    3  502    0  0.20812841617E+03  0.19375926541E+03 -0.51629080104E+03  0.58942166120E+03  0.12699999809E+01 0.  1.
       -4    1    3    3    0  502 -0.20812841617E+03 -0.19375926541E+03  0.32503765269E+03  0.43186940054E+03  0.12699999809E+01 0. -1.
</event>
<event>
 5   0  0.3854625E-04  0.9996426E+03  0.7818609E-02  0.9308937E-01
       -4   -1    0    0    0  501  0.00000000000E+00  0.00000000000E+00  0.55334120962E+03  0.55334266704E+03  0.12699999809E+01 0. -1.
        4   -1    0    0  501    0  0.00000000000E+00  0.00000000000E+00 -0.45147496628E+03  0.45147675253E+03  0.12699999809E+01 0.  1.
    10030    2    1    2    0    0  0.00000000000E+00  0.00000000000E+00  0.10186624334E+03  0.10048194196E+04  0.99964260334E+03 0.  0.
        3    1    3    3  502    0 -0.32617287251E+03  0.17195808446E+03  0.39011650656E+03  0.53679532828E+03  0.10100000352E+00 0. -1.
       -3    1    3    3    0  502  0.32617287251E+03 -0.17195808446E+03 -0.28825026322E+03  0.46802409129E+03  0.10100000352E+00 0.  1.
</event>
<event>
 5   0  0.1020150E-03  0.9991044E+03  0.7818609E-02  0.9309528E-01
       -2   -1    0    0    0  501  0.00000000000E+00  0.00000000000E+00  0.21326730120E+03  0.21326730121E+03  0.25500000920E-02 0. -1.
        2   -1    0    0  501    0  0.00000000000E+00  0.00000000000E+00 -0.11701391339E+04  0.11701391339E+04  0.25500000920E-02 0.  1.
    10030    2    1    2    0    0  0.00000000000E+00  0.00000000000E+00 -0.95687183271E+03  0.13834064351E+04  0.99910442923E+03 0.  0.
        5    1    3    3  502    0  0.83296282914E+02  0.48532683926E+03 -0.59469604544E+03  0.77211779420E+03  0.46999998093E+01 0.  1.
       -5    1    3    3    0  502 -0.83296282914E+02 -0.48532683926E+03 -0.36217578727E+03  0.61128864093E+03  0.46999998093E+01 0. -1.
</event>
<event>
 5   0  0.5758786E-04  0.1018985E+04  0.7818609E-02  0.9287964E-01
        1   -1    0    0  501    0  0.00000000000E+00  0.00000000000E+00  0.30686269637E+03  0.30686269641E+03  0.50400001928E-02 0. -1.
       -1   -1    0    0    0  501  0.00000000000E+00  0.00000000000E+00 -0.84592483380E+03  0.84592483382E+03  0.50400001928E-02 0.  1.
    10030    2    1    2    0    0  0.00000000000E+00  0.00000000000E+00 -0.53906213743E+03  0.11527875302E+04  0.10189853296E+04 0.  0.
        3    1    3    3  502    0  0.25068306409E+03 -0.40088640973E+03 -0.48427386859E+03  0.67681097962E+03  0.10100000352E+00 0.  1.
       -3    1    3    3    0  502 -0.25068306409E+03  0.40088640973E+03 -0.54788268837E+02  0.47597655061E+03  0.10100000352E+00 0. -1.
</event>
<event>
 5   0  0.1006749E-03  0.9998998E+03  0.7818609E-02  0.9308655E-01
       -2   -1    0    0    0  501  0.00000000000E+00  0.00000000000E+00  0.12337845622E+03  0.12337845625E+03  0.25500000920E-02 0.  1.
        2   -1    0    0  501    0  0.00000000000E+00  0.00000000000E+00 -0.20258796553E+04  0.20258796553E+04  0.25500000920E-02 0. -1.
    10030    2    1    2    0    0  0.00000000000E+00  0.00000000000E+00 -0.19025011991E+04  0.21492581115E+04  0.99989980375E+03 0.  0.
        1    1    3    3  502    0  0.12433429490E+02 -0.47499181022E+03 -0.12854788271E+04  0.13704844490E+04  0.50400001928E-02 0. -1.
       -1    1    3    3    0  502 -0.12433429490E+02  0.47499181022E+03 -0.61702237193E+03  0.77877366252E+03  0.50400001928E-02 0.  1.
</event>
<event>
 5   0  0.5826939E-04  0.9990465E+03  0.7818609E-02  0.9309591E-01
       -1   -1    0    0    0  501  0.00000000000E+00  0.00000000000E+00  0.27666113578E+03  0.27666113582E+03  0.50400001928E-02 0.  1.
        1   -1    0    0  501    0  0.00000000000E+00  0.00000000000E+00 -0.90191004168E+03  0.90191004170E+03  0.50400001928E-02 0. -1.
    10030    2    1    2    0    0  0.00000000000E+00  0.00000000000E+00 -0.62524890591E+03  0.11785711775E+04  0.99904645845E+03 0.  0.
        1    1    3    3  502    0 -0.17623489158E+03 -0.88896304300E+01 -0.86391713041E+03  0.88175425760E+03  0.50400001928E-02 0. -1.
       -1    1    3    3    0  502  0.17623489158E+03  0.88896304300E+01  0.23866822451E+03  0.29681691993E+03  0.50400001928E-02 0.  1.
</event>
<event>
 5   0  0.1006749E-03  0.9998416E+03  0.7818609E-02  0.9308719E-01
        2   -1    0    0  501    0  0.00000000000E+00  0.00000000000E+00  0.10020579597E+04  0.10020579597E+04  0.25500000920E-02 0.  1.
       -2   -1    0    0    0  501  0.00000000000E+00  0.00000000000E+00 -0.24940754916E+03  0.24940754918E+03  0.25500000920E-02 0. -1.
    10030    2    1    2    0    0  0.00000000000E+00  0.00000000000E+00  0.75265041049E+03  0.12514655088E+04  0.99984162715E+03 0.  0.
        1    1    3    3  502    0 -0.23105465350E+03 -0.42907341939E+03  0.51587626920E+03  0.70966088894E+03  0.50400001928E-02 0. -1.
       -1    1    3    3    0  502  0.23105465350E+03  0.42907341939E+03  0.23677414129E+03  0.54180461990E+03  0.50400001928E-02 0.  1.
</event>
<event>
 5   0  0.1006749E-03  0.9974510E+03  0.7818609E-02  0.9311345E-01
        2   -1    0    0  501    0  0.00000000000E+00  0.00000000000E+00  0.78181298614E+03  0.78181298614E+03  0.25500000920E-02 0.  1.
       -2   -1    0    0    0  501  0.00000000000E+00  0.00000000000E+00 -0.31814145823E+03  0.31814145824E+03  0.25500000920E-02 0. -1.
    10030    2    1    2    0    0  0.00000000000E+00  0.00000000000E+00  0.46367152791E+03  0.10999544444E+04  0.99745099825E+03 0.  0.
        1    1    3    3  502    0  0.71802271824E+02 -0.12660521371E+03 -0.29419913922E+03  0.32823403224E+03  0.50400001928E-02 0. -1.
       -1    1    3    3    0  502 -0.71802271824E+02  0.12660521371E+03  0.75787066714E+03  0.77172041214E+03  0.50400001928E-02 0.  1.
</event>
<event>
 5   0  0.1020150E-03  0.9998665E+03  0.7818609E-02  0.9308691E-01
       -2   -1    0    0    0  501  0.00000000000E+00  0.00000000000E+00  0.15546688926E+03  0.15546688928E+03  0.25500000920E-02 0.  1.
        2   -1    0    0  501    0  0.00000000000E+00  0.00000000000E+00 -0.16076302061E+04  0.16076302061E+04  0.25500000920E-02 0. -1.
    10030    2    1    2    0    0  0.00000000000E+00  0.00000000000E+00 -0.14521633168E+04  0.17630970954E+04  0.99986652557E+03 0.  0.
        5    1    3    3  502    0  0.32798307397E+03 -0.25334858753E+03 -0.23312765400E+03  0.47553022687E+03  0.46999998093E+01 0.  1.
       -5    1    3    3    0  502 -0.32798307397E+03  0.25334858753E+03 -0.12190356628E+04  0.12875668685E+04  0.46999998093E+01 0. -1.
</event>
<event>
 5   0  0.9741826E-04  0.1000676E+04  0.7818609E-02  0.9307803E-01
       -2   -1    0    0    0  501  0.00000000000E+00  0.00000000000E+00  0.25382379370E+03  0.25382379372E+03  0.25500000920E-02 0. -1.
        2   -1    0    0  501    0  0.00000000000E+00  0.00000000000E+00 -0.98626811798E+03  0.98626811798E+03  0.25500000920E-02 0.  1.
    10030    2    1    2    0    0  0.00000000000E+00  0.00000000000E+00 -0.73244432427E+03  0.12400919117E+04  0.10006764019E+04 0.  0.
        3    1    3    3  502    0  0.17493788945E+03 -0.15564814789E+03 -0.91417509264E+03  0.94368730060E+03  0.10100000352E+00 0.  1.
       -3    1    3    3    0  502 -0.17493788945E+03  0.15564814789E+03  0.18173076837E+03  0.29640461110E+03  0.10100000352E+00 0. -1.
</event>
<event>
 5   0  0.5888774E-04  0.1000161E+04  0.7818609E-02  0.9308368E-01
       -1   -1    0    0    0  501  0.00000000000E+00  0.00000000000E+00  0.39321904108E+03  0.39321904111E+03  0.50400001928E-02 0. -1.
        1   -1    0    0  501    0  0.00000000000E+00  0.00000000000E+00 -0.63598303585E+03  0.63598303587E+03  0.50400001928E-02 0.  1.
    10030    2    1    2    0    0  0.00000000000E+00  0.00000000000E+00 -0.24276399477E+03  0.10292020770E+04  0.10001612661E+04 0.  0.
        2    1    3    3  502    0 -0.29154317879E+03 -0.28038776692E+03  0.18120697219E+03  0.44322758456E+03  0.25500000920E-02 0. -1.
       -2    1    3    3    0  502  0.29154317879E+03  0.28038776692E+03 -0.42397096696E+03  0.58597449242E+03  0.25500000920E-02 0.  1.
</event>
<event>
 5   0  0.5758786E-04  0.9940233E+03  0.7818609E-02  0.9315124E-01
        1   -1    0    0  501    0  0.00000000000E+00  0.00000000000E+00  0.35659056866E+03  0.35659056870E+03  0.50400001928E-02 0.  1.
       -1   -1    0    0    0  501  0.00000000000E+00  0.00000000000E+00 -0.69272888050E+03  0.69272888052E+03  0.50400001928E-02 0. -1.
    10030    2    1    2    0    0  0.00000000000E+00  0.00000000000E+00 -0.33613831184E+03  0.10493194492E+04  0.99402331050E+03 0.  0.
        3    1    3    3  502    0 -0.29156918192E+02  0.62838778510E+02  0.35146931396E+03  0.35823110811E+03  0.10100000352E+00 0.  1.
       -3    1    3    3    0  502  0.29156918192E+02 -0.62838778510E+02 -0.68760762579E+03  0.69108834111E+03  0.10100000352E+00 0. -1.
</event>
<event>
 5   0  0.3854625E-04  0.1000308E+04  0.7818609E-02  0.9308207E-01
        3   -1    0    0  501    0  0.00000000000E+00  0.00000000000E+00  0.15863383176E+04  0.15863383208E+04  0.10100000352E+00 0. -1.
       -3   -1    0    0    0  501  0.00000000000E+00  0.00000000000E+00 -0.15769285344E+03  0.15769288578E+03  0.10100000352E+00 0.  1.
    10030    2    1    2    0    0  0.00000000000E+00  0.00000000000E+00  0.14286454641E+04  0.17440312066E+04  0.10003084461E+04 0.  0.
        4    1    3    3  502    0 -0.22879562093E+03 -0.35739577418E+03  0.25279575451E+03  0.49394987798E+03  0.12699999809E+01 0.  1.
       -4    1    3    3    0  502  0.22879562093E+03  0.35739577418E+03  0.11758497096E+04  0.12500813286E+04  0.12699999809E+01 0. -1.
</event>
<event>
 5   0  0.5888774E-04  0.1000196E+04  0.7818609E-02  0.9308330E-01
        1   -1    0    0  501    0  0.00000000000E+00  0.00000000000E+00  0.53161441962E+03  0.53161441964E+03  0.50400001928E-02 0. -1.
       -1   -1    0    0    0  501  0.00000000000E+00  0.00000000000E+00 -0.47044954773E+03  0.47044954776E+03  0.50400001928E-02 0.  1.
    10030    2    1    2    0    0  0.00000000000E+00  0.00000000000E+00  0.61164871883E+02  0.10020639674E+04  0.10001955075E+04 0.  0.
        2    1    3    3  502    0 -0.15077219546E+02 -0.27310385099E+03 -0.38886986881E+03  0.47542908078E+03  0.25500000920E-02 0.  1.
       -2    1    3    3    0  502  0.15077219546E+02  0.27310385099E+03  0.45003474069E+03  0.52663488662E+03  0.25500000920E-02 0. -1.
</event>
<event>
 5   0  0.5826939E-04  0.1022755E+04  0.7818609E-02  0.9283934E-01
        1   -1    0    0  501    0  0.00000000000E+00  0.00000000000E+00  0.43712455800E+03  0.43712455803E+03  0.50400001928E-02 0.  1.
       -1   -1    0    0    0  501  0.00000000000E+00  0.00000000000E+00 -0.59824368220E+03  0.59824368222E+03  0.50400001928E-02 0. -1.
    10030    2    1    2    0    0  0.00000000000E+00  0.00000000000E+00 -0.16111912420E+03  0.10353682402E+04  0.10227551128E+04 0.  0.
        1    1    3    3  502    0  0.41386968429E+03 -0.25325287855E+03  0.82930942805E+02  0.49224249854E+03  0.50400001928E-02 0.  1.
       -1    1    3    3    0  502 -0.41386968429E+03  0.25325287855E+03 -0.24405006701E+03  0.54312574171E+03  0.50400001928E-02 0. -1.
</event>
<event>
 5   0  0.1006749E-03  0.1000054E+04  0.7818609E-02  0.9308486E-01
        2   -1    0    0  501    0  0.00000000000E+00  0.00000000000E+00  0.14519744627E+04  0.14519744627E+04  0.25500000920E-02 0.  1.
       -2   -1    0    0    0  501  0.00000000000E+00  0.00000000000E+00 -0.17219778605E+03  0.17219778607E+03  0.25500000920E-02 0. -1.
    10030    2    1    2    0    0  0.00000000000E+00  0.00000000000E+00  0.12797766767E+04  0.16241722488E+04  0.10000535744E+04 0.  0.
        1    1    3    3  502    0 -0.84803602420E+02  0.45973098332E+03  0.92805506825E+03  0.10391489007E+04  0.50400001928E-02 0.  1.
       -1    1    3    3    0  502  0.84803602420E+02 -0.45973098332E+03  0.35172160844E+03  0.58502334815E+03  0.50400001928E-02 0. -1.
</event>
<event>
 5   0  0.5758786E-04  0.1003225E+04  0.7818609E-02  0.9305015E-01
        1   -1    0    0  501    0  0.00000000000E+00  0.00000000000E+00  0.52960259755E+03  0.52960259758E+03  0.50400001928E-02 0.  1.
       -1   -1    0    0    0  501  0.00000000000E+00  0.00000000000E+00 -0.47510133334E+03  0.47510133336E+03  0.50400001928E-02 0. -1.
    10030    2    1    2    0    0  0.00000000000E+00  0.00000000000E+00  0.54501264218E+02  0.10047039309E+04  0.10032246015E+04 0.  0.
        3    1    3    3  502    0  0.34649272765E+03  0.14193327651E+03  0.36152812082E+03  0.52048521366E+03  0.10100000352E+00 0.  1.
       -3    1    3    3    0  502 -0.34649272765E+03 -0.14193327651E+03 -0.30702685660E+03  0.48421871728E+03  0.10100000352E+00 0. -1.
</event>
<event>
 5   0  0.1006006E-03  0.1000500E+04  0.7818609E-02  0.9307997E-01
        2   -1    0    0  501    0  0.00000000000E+00  0.00000000000E+00  0.16405140120E+04  0.16405140120E+04  0.25500000920E-02 0.  1.
       -2   -1    0    0    0  501  0.00000000000E+00  0.00000000000E+00 -0.15254356716E+03  0.15254356718E+03  0.25500000920E-02 0. -1.
    10030    2    1    2    0    0  0.00000000000E+00  0.00000000000E+00  0.14879704448E+04  0.17930575791E+04  0.10004995940E+04 0.  0.
        2    1    3    3  502    0 -0.14410550812E+02  0.47662798880E+02  0.16360616768E+04  0.16368192376E+04  0.25500000920E-02 0.  1.
       -2    1    3    3    0  502  0.14410550812E+02 -0.47662798880E+02 -0.14809123198E+03  0.15623834154E+03  0.25500000920E-02 0. -1.
</event>
<event>
 5   0  0.5960102E-04  0.1000803E+04  0.7818609E-02  0.9307665E-01
        1   -1    0    0  501    0  0.00000000000E+00  0.00000000000E+00  0.23688548504E+03  0.23688548509E+03  0.50400001928E-02 0.  1.
       -1   -1    0    0    0  501  0.00000000000E+00  0.00000000000E+00 -0.10570571681E+04  0.10570571681E+04  0.50400001928E-02 0. -1.
    10030    2    1    2    0    0  0.00000000000E+00  0.00000000000E+00 -0.82017168304E+03  0.12939426532E+04  0.10008026779E+04 0.  0.
        5    1    3    3  502    0  0.10563256659E+03 -0.48557968404E+03 -0.33432623487E+03  0.59895074088E+03  0.46999998093E+01 0.  1.
       -5    1    3    3    0  502 -0.10563256659E+03  0.48557968404E+03 -0.48584544816E+03  0.69499191231E+03  0.46999998093E+01 0. -1.
</event>
<event>
 5   0  0.9674819E-04  0.9994737E+03  0.7818609E-02  0.9309122E-01
       -2   -1    0    0    0  501  0.00000000000E+00  0.00000000000E+00  0.65932020478E+03  0.65932020478E+03  0.25500000920E-02 0.  1.
        2   -1    0    0  501    0  0.00000000000E+00  0.00000000000E+00 -0.37877941798E+03  0.37877941799E+03  0.25500000920E-02 0. -1.
    10030    2    1    2    0    0  0.00000000000E+00  0.00000000000E+00  0.28054078680E+03  0.10380996228E+04  0.99947370838E+03 0.  0.
        4    1    3    3  502    0 -0.23469246911E+03 -0.43968991880E+03  0.17811377690E+03  0.52927678031E+03  0.12699999809E+01 0.  1.
       -4    1    3    3    0  502  0.23469246911E+03  0.43968991880E+03  0.10242700990E+03  0.50882284246E+03  0.12699999809E+01 0. -1.
</event>
<event>
 5   0  0.1006749E-03  0.9993558E+03  0.7818609E-02  0.9309252E-01
       -2   -1    0    0    0  501  0.00000000000E+00  0.00000000000E+00  0.52872451726E+03  0.52872451727E+03  0.25500000920E-02 0.  1.
        2   -1    0    0  501    0  0.00000000000E+00  0.00000000000E+00 -0.47222704198E+03  0.47222704199E+03  0.25500000920E-02 0. -1.
    10030    2    1    2    0    0  0.00000000000E+00  0.00000000000E+00  0.56497475281E+02  0.10009515593E+04  0.99935582215E+03 0.  0.
        1    1    3    3  502    0 -0.43503173239E+03 -0.18172172224E+03  0.19405043627E+03  0.50983425186E+03  0.50400001928E-02 0.  1.
       -1    1    3    3    0  502  0.43503173239E+03  0.18172172224E+03 -0.13755296099E+03  0.49111730740E+03  0.50400001928E-02 0. -1.
</event>
<event>
 5   0  0.1006749E-03  0.9995491E+03  0.7818609E-02  0.9309040E-01
       -2   -1    0    0    0  501  0.00000000000E+00  0.00000000000E+00  0.27519064302E+03  0.27519064303E+03  0.25500000920E-02 0. -1.
        2   -1    0    0  501    0  0.00000000000E+00  0.00000000000E+00 -0.90764199480E+03  0.90764199480E+03  0.25500000920E-02 0.  1.
    10030    2    1    2    0    0  0.00000000000E+00  0.00000000000E+00 -0.63245135178E+03  0.11828326378E+04  0.99954906671E+03 0.  0.
        1    1    3    3  502    0 -0.13080429645E+03 -0.46242057018E+03 -0.47861887029E+03  0.67824668868E+03  0.50400001928E-02 0.  1.
       -1    1    3    3    0  502  0.13080429645E+03  0.46242057018E+03 -0.15383248149E+03  0.50458594915E+03  0.50400001928E-02 0. -1.
</event>
<event>
 5   0  0.5768102E-04  0.9990772E+03  0.7818609E-02  0.9309557E-01
       -1   -1    0    0    0  501  0.00000000000E+00  0.00000000000E+00  0.11910449043E+04  0.11910449043E+04  0.50400001928E-02 0.  1.
        1   -1    0    0  501    0  0.00000000000E+00  0.00000000000E+00 -0.20951251202E+03  0.20951251208E+03  0.50400001928E-02 0. -1.
    10030    2    1    2    0    0  0.00000000000E+00  0.00000000000E+00  0.98153239229E+03  0.14005574164E+04  0.99907719397E+03 0.  0.
        4    1    3    3  502    0  0.22028153214E+03 -0.16014840720E+01  0.11192751040E+04  0.11407475134E+04  0.12699999809E+01 0.  1.
       -4    1    3    3    0  502 -0.22028153214E+03  0.16014840720E+01 -0.13774271168E+03  0.25980990296E+03  0.12699999809E+01 0. -1.
</event>
<event>
 5   0  0.9674819E-04  0.1000279E+04  0.7818609E-02  0.9308239E-01
       -2   -1    0    0    0  501  0.00000000000E+00  0.00000000000E+00  0.12499573552E+03  0.12499573555E+03  0.25500000920E-02 0.  1.
        2   -1    0    0  501    0  0.00000000000E+00  0.00000000000E+00 -0.20011855100E+04  0.20011855100E+04  0.25500000920E-02 0. -1.
    10030    2    1    2    0    0  0.00000000000E+00  0.00000000000E+00 -0.18761897745E+04  0.21261812456E+04  0.10002792705E+04 0.  0.
        4    1    3    3  502    0 -0.11033432168E+03 -0.13079980518E+03  0.60831324790E+02  0.18161584333E+03  0.12699999809E+01 0.  1.
       -4    1    3    3    0  502  0.11033432168E+03  0.13079980518E+03 -0.19370210993E+04  0.19445654023E+04  0.12699999809E+01 0. -1.
</event>
<event>
 5   0  0.9674819E-04  0.9977666E+03  0.7818609E-02  0.9310998E-01
        2   -1    0    0  501    0  0.00000000000E+00  0.00000000000E+00  0.52280588357E+03  0.52280588357E+03  0.25500000920E-02 0.  1.
       -2   -1    0    0    0  501  0.00000000000E+00  0.00000000000E+00 -0.47605540585E+03  0.47605540586E+03  0.25500000920E-02 0. -1.
    10030    2    1    2    0    0  0.00000000000E+00  0.00000000000E+00  0.46750477713E+02  0.99886128943E+03  0.99776664023E+03 0.  0.
        4    1    3    3  502    0  0.85620023402E+02  0.33110660284E+03 -0.34023196970E+03  0.48241245522E+03  0.12699999809E+01 0. -1.
       -4    1    3    3    0  502 -0.85620023402E+02 -0.33110660284E+03  0.38698244741E+03  0.51644883421E+03  0.12699999809E+01 0.  1.
</event>
<event>
 5   0  0.3854625E-04  0.9993148E+03  0.7818609E-02  0.9309297E-01
        4   -1    0    0  501    0  0.00000000000E+00  0.00000000000E+00  0.79634008494E+03  0.79634109763E+03  0.12699999809E+01 0. -1.
       -4   -1    0    0    0  501  0.00000000000E+00  0.00000000000E+00 -0.31350365185E+03  0.31350622422E+03  0.12699999809E+01 0.  1.
    10030    2    1    2    0    0  0.00000000000E+00  0.00000000000E+00  0.48283643308E+03  0.11098473219E+04  0.99931479360E+03 0.  0.
        3    1    3    3  502    0  0.54095904225E+02  0.35711605701E+03 -0.14202203375E+03  0.38810889361E+03  0.10100000352E+00 0.  1.
       -3    1    3    3    0  502 -0.54095904225E+02 -0.35711605701E+03  0.62485846683E+03  0.72173842824E+03  0.10100000352E+00 0. -1.
</event>
<event>
 5   0  0.1006749E-03  0.9957392E+03  0.7818609E-02  0.9313230E-01
        2   -1    0    0  501    0  0.00000000000E+00  0.00000000000E+00  0.12170616072E+04  0.12170616072E+04  0.25500000920E-02 0. -1.
       -2   -1    0    0    0  501  0.00000000000E+00  0.00000000000E+00 -0.20366604217E+03  0.20366604218E+03  0.25500000920E-02 0.  1.
    10030    2    1    2    0    0  0.00000000000E+00  0.00000000000E+00  0.10133955650E+04  0.14207276494E+04  0.99573916388E+03 0.  0.
        1    1    3    3  502    0  0.29554018430E+03 -0.43309057592E+02 -0.61620158740E+02  0.30498642428E+03  0.50400001928E-02 0.  1.
       -1    1    3    3    0  502 -0.29554018430E+03  0.43309057592E+02  0.10750157238E+04  0.11157412251E+04  0.50400001928E-02 0. -1.
</event>
<event>
 5   0  0.5758786E-04  0.1001239E+04  0.7818609E-02  0.9307187E-01
       -1   -1    0    0    0  501  0.00000000000E+00  0.00000000000E+00  0.27209780366E+03  0.27209780371E+03  0.50400001928E-02 0.  1.
        1   -1    0    0  501    0  0.00000000000E+00  0.00000000000E+00 -0.92106492064E+03  0.92106492066E+03  0.50400001928E-02 0. -1.
    10030    2    1    2    0    0  0.00000000000E+00  0.00000000000E+00 -0.64896711698E+03  0.11931627244E+04  0.10012387167E+04 0.  0.
        3    1    3    3  502    0 -0.42457625943E+02 -0.38836976618E+03  0.48546708537E+02  0.39368835187E+03  0.10100000352E+00 0. -1.
       -3    1    3    3    0  502  0.42457625943E+02  0.38836976618E+03 -0.69751382552E+03  0.79947437250E+03  0.10100000352E+00 0.  1.
</event>
<event>
 5   0  0.5960102E-04  0.9997609E+03  0.7818609E-02  0.9308807E-01
       -1   -1    0    0    0  501  0.00000000000E+00  0.00000000000E+00  0.30889232803E+03  0.30889232807E+03  0.50400001928E-02 0. -1.
        1   -1    0    0  501    0  0.00000000000E+00  0.00000000000E+00 -0.80895648194E+03  0.80895648196E+03  0.50400001928E-02 0.  1.
    10030    2    1    2    0    0  0.00000000000E+00  0.00000000000E+00 -0.50006415392E+03  0.11178488100E+04  0.99976087343E+03 0.  0.
        5    1    3    3  502    0  0.97180267726E+02  0.38238539580E+03  0.93132635351E+02  0.40541136284E+03  0.46999998093E+01 0.  1.
       -5    1    3    3    0  502 -0.97180267726E+02 -0.38238539580E+03 -0.59319678927E+03  0.71243744718E+03  0.46999998093E+01 0. -1.
</event>
<event>
 5   0  0.5960102E-04  0.1002285E+04  0.7818609E-02  0.9306042E-01
        1   -1    0    0  501    0  0.00000000000E+00  0.00000000000E+00  0.67613225947E+03  0.67613225949E+03  0.50400001928E-02 0.  1.
       -1   -1    0    0    0  501  0.00000000000E+00  0.00000000000E+00 -0.37144199247E+03  0.37144199250E+03  0.50400001928E-02 0. -1.
    10030    2    1    2    0    0  0.00000000000E+00  0.00000000000E+00  0.30469026701E+03  0.10475742520E+04  0.10022852162E+04 0.  0.
        5    1    3    3  502    0  0.13587463304E+03  0.16989060995E+03 -0.31949239297E+03  0.38655169696E+03  0.46999998093E+01 0. -1.
       -5    1    3    3    0  502 -0.13587463304E+03 -0.16989060995E+03  0.62418265998E+03  0.66102255504E+03  0.46999998093E+01 0.  1.
</event>
<event>
 5   0  0.5888774E-04  0.1001822E+04  0.7818609E-02  0.9306549E-01
        1   -1    0    0  501    0  0.00000000000E+00  0.00000000000E+00  0.85800203887E+03  0.85800203888E+03  0.50400001928E-02 0.  1.
       -1   -1    0    0    0  501  0.00000000000E+00  0.00000000000E+00 -0.29243737970E+03  0.29243737975E+03  0.50400001928E-02 0. -1.
    10030    2    1    2    0    0  0.00000000000E+00  0.00000000000E+00  0.56556465916E+03  0.11504394186E+04  0.10018220761E+04 0.  0.
        2    1    3    3  502    0  0.97526321820E+01 -0.36596451818E+03 -0.10982260407E+03  0.38221217507E+03  0.25500000920E-02 0. -1.
       -2    1    3    3    0  502 -0.97526321820E+01  0.36596451818E+03  0.67538726323E+03  0.76822724356E+03  0.25500000920E-02 0.  1.
</event>
<event>
 5   0  0.9741826E-04  0.9987037E+03  0.7818609E-02  0.9309968E-01
        2   -1    0    0  501    0  0.00000000000E+00  0.00000000000E+00  0.72395536104E+03  0.72395536104E+03  0.25500000920E-02 0.  1.
       -2   -1    0    0    0  501  0.00000000000E+00  0.00000000000E+00 -0.34443046543E+03  0.34443046544E+03  0.25500000920E-02 0. -1.
    10030    2    1    2    0    0  0.00000000000E+00  0.00000000000E+00  0.37952489561E+03  0.10683858265E+04  0.99870372375E+03 0.  0.
        3    1    3    3  502    0 -0.19634066591E+03 -0.41037158986E+03  0.41003631215E+03  0.61244125134E+03  0.10100000352E+00 0.  1.
       -3    1    3    3    0  502  0.19634066591E+03  0.41037158986E+03 -0.30511416540E+02  0.45594457514E+03  0.10100000352E+00 0. -1.
</event>
<event>
 5   0  0.1020150E-03  0.1000966E+04  0.7818609E-02  0.9307486E-01
        2   -1    0    0  501    0  0.00000000000E+00  0.00000000000E+00  0.15035355282E+04  0.15035355282E+04  0.25500000920E-02 0.  1.
       -2   -1    0    0    0  501  0.00000000000E+00  0.00000000000E+00 -0.16659624674E+03  0.16659624676E+03  0.25500000920E-02 0. -1.
    10030    2    1    2    0    0  0.00000000000E+00  0.00000000000E+00  0.13369392814E+04  0.16701317749E+04  0.10009662849E+04 0.  0.
        5    1    3    3  502    0  0.29106744824E+03 -0.40128494819E+03  0.78299642112E+03  0.92674449260E+03  0.46999998093E+01 0. -1.
       -5    1    3    3    0  502 -0.29106744824E+03  0.40128494819E+03  0.55394286032E+03  0.74338728235E+03  0.46999998093E+01 0.  1.
</event>
<event>
 5   0  0.1006006E-03  0.9838726E+03  0.7818609E-02  0.9326412E-01
       -2   -1    0    0    0  501  0.00000000000E+00  0.00000000000E+00  0.44308993680E+03  0.44308993681E+03  0.25500000920E-02 0. -1.
        2   -1    0    0  501    0  0.00000000000E+00  0.00000000000E+00 -0.54616754280E+03  0.54616754280E+03  0.25500000920E-02 0.  1.
    10030    2    1    2    0    0  0.00000000000E+00  0.00000000000E+00 -0.10307760600E+03  0.98925747961E+03  0.98387263816E+03 0.  0.
        2    1    3    3  502    0  0.29033488146E+03 -0.23246231501E+03 -0.37527658492E+03  0.52836122727E+03  0.25500000920E-02 0.  1.
       -2    1    3    3    0  502 -0.29033488146E+03  0.23246231501E+03  0.27219897893E+03  0.46089625234E+03  0.25500000920E-02 0. -1.
</event>
<event>
 5   0  0.5888774E-04  0.9992205E+03  0.7818609E-02  0.9309400E-01
        1   -1    0    0  501    0  0.00000000000E+00  0.00000000000E+00  0.37242556285E+03  0.37242556288E+03  0.50400001928E-02 0.  1.
       -1   -1    0    0    0  501  0.00000000000E+00  0.00000000000E+00 -0.67022900529E+03  0.67022900531E+03  0.50400001928E-02 0. -1.
    10030    2    1    2    0    0  0.00000000000E+00  0.00000000000E+00 -0.29780344244E+03  0.10426545682E+04  0.99922052533E+03 0.  0.
        2    1    3    3  502    0  0.25074921077E+02  0.18838224571E+03 -0.63104012955E+03  0.65903586191E+03  0.25500000920E-02 0. -1.
       -2    1    3    3    0  502 -0.25074921077E+02 -0.18838224571E+03  0.33323668711E+03  0.38361870628E+03  0.25500000920E-02 0.  1.
</event>
<event>
 5   0  0.1006749E-03  0.9969533E+03  0.7818609E-02  0.9311893E-01
       -2   -1    0    0    0  501  0.00000000000E+00  0.00000000000E+00  0.79809242597E+03  0.79809242597E+03  0.25500000920E-02 0.  1.
        2   -1    0    0  501    0  0.00000000000E+00  0.00000000000E+00 -0.31134109574E+03  0.31134109575E+03  0.25500000920E-02 0. -1.
    10030    2    1    2    0    0  0.00000000000E+00  0.00000000000E+00  0.48675133023E+03  0.11094335217E+04  0.99695329963E+03 0.  0.
        1    1    3    3  502    0  0.88719743188E+02 -0.44960931092E+03  0.46161189305E+03  0.65046542193E+03  0.50400001928E-02 0.  1.
       -1    1    3    3    0  502 -0.88719743188E+02  0.44960931092E+03  0.25139437173E+02  0.45896809979E+03  0.50400001928E-02 0. -1.
</event>
<event>
 5   0  0.3854625E-04  0.9998204E+03  0.7818609E-02  0.9308742E-01
        3   -1    0    0  501    0  0.00000000000E+00  0.00000000000E+00  0.98372525444E+03  0.98372525962E+03  0.10100000352E+00 0.  1.
       -3   -1    0    0    0  501  0.00000000000E+00  0.00000000000E+00 -0.25404471797E+03  0.25404473804E+03  0.10100000352E+00 0. -1.
    10030    2    1    2    0    0  0.00000000000E+00  0.00000000000E+00  0.72968053647E+03  0.12377699977E+04  0.99982042479E+03 0.  0.
        1    1    3    3  502    0 -0.94143274788E+02  0.12918536246E+03  0.95123373147E+03  0.96457110986E+03  0.50400001928E-02 0.  1.
       -1    1    3    3    0  502  0.94143274788E+02 -0.12918536246E+03 -0.22155319500E+03  0.27319888781E+03  0.50400001928E-02 0. -1.
</event>
<event>
 5   0  0.3854625E-04  0.9985315E+03  0.7818609E-02  0.9310157E-01
        4   -1    0    0  501    0  0.00000000000E+00  0.00000000000E+00  0.34048252050E+03  0.34048488904E+03  0.12699999809E+01 0. -1.
       -4   -1    0    0    0  501  0.00000000000E+00  0.00000000000E+00 -0.73209173932E+03  0.73209284089E+03  0.12699999809E+01 0.  1.
    10030    2    1    2    0    0  0.00000000000E+00  0.00000000000E+00 -0.39160921883E+03  0.10725777299E+04  0.99853152503E+03 0.  0.
        1    1    3    3  502    0  0.17510945662E+03 -0.28892234206E+02  0.30545676891E+03  0.35327315308E+03  0.50400001928E-02 0. -1.
       -1    1    3    3    0  502 -0.17510945662E+03  0.28892234206E+02 -0.69706598773E+03  0.71930457685E+03  0.50400001928E-02 0.  1.
</event>
<event>
 5   0  0.5826939E-04  0.1004449E+04  0.7818609E-02  0.9303678E-01
        1   -1    0    0  501    0  0.00000000000E+00  0.00000000000E+00  0.13784817586E+04  0.13784817586E+04  0.50400001928E-02 0.  1.
       -1   -1    0    0    0  501  0.00000000000E+00  0.00000000000E+00 -0.18297643154E+03  0.18297643161E+03  0.50400001928E-02 0. -1.
    10030    2    1    2    0    0  0.00000000000E+00  0.00000000000E+00  0.11955053271E+04  0.15614581902E+04  0.10044494476E+04 0.  0.
        1    1    3    3  502    0 -0.47696247868E+03 -0.12631237283E+03  0.45207586909E+03  0.66919400254E+03  0.50400001928E-02 0. -1.
       -1    1    3    3    0  502  0.47696247868E+03  0.12631237283E+03  0.74342945797E+03  0.89226418767E+03  0.50400001928E-02 0.  1.
</event>
<event>
 5   0  0.5758786E-04  0.9996932E+03  0.7818609E-02  0.9308881E-01
        1   -1    0    0  501    0  0.00000000000E+00  0.00000000000E+00  0.96023529627E+03  0.96023529628E+03  0.50400001928E-02 0. -1.
       -1   -1    0    0    0  501  0.00000000000E+00  0.00000000000E+00 -0.26019311883E+03  0.26019311888E+03  0.50400001928E-02 0.  1.
    10030    2    1    2    0    0  0.00000000000E+00  0.00000000000E+00  0.70004217744E+03  0.12204284152E+04  0.99969318611E+03 0.  0.
        3    1    3    3  502    0  0.68651938199E+02  0.22775281691E+03  0.88670553237E+03  0.91805835629E+03  0.10100000352E+00 0. -1.
       -3    1    3    3    0  502 -0.68651938199E+02 -0.22775281691E+03 -0.18666335493E+03  0.30237005887E+03  0.10100000352E+00 0.  1.
</event>
<event>
 5   0  0.5888774E-04  0.1007409E+04  0.7818609E-02  0.9300456E-01
       -1   -1    0    0    0  501  0.00000000000E+00  0.00000000000E+00  0.28200370000E+03  0.28200370005E+03  0.50400001928E-02 0.  1.
        1   -1    0    0  501    0  0.00000000000E+00  0.00000000000E+00 -0.89969784539E+03  0.89969784541E+03  0.50400001928E-02 0. -1.
    10030    2    1    2    0    0  0.00000000000E+00  0.00000000000E+00 -0.61769414539E+03  0.11817015455E+04  0.10074087975E+04 0.  0.
        2    1    3    3  502    0 -0.39937375050E+03  0.26825997727E+03 -0.13385478017E+03  0.49937952519E+03  0.25500000920E-02 0.  1.
       -2    1    3    3    0  502  0.39937375050E+03 -0.26825997727E+03 -0.48383936522E+03  0.68232202027E+03  0.25500000920E-02 0. -1.
</event>
<event>
 5   0  0.5758786E-04  0.9938640E+03  0.7818609E-02  0.9315300E-01
       -1   -1    0    0    0  501  0.00000000000E+00  0.00000000000E+00  0.80274587533E+03  0.80274587535E+03  0.50400001928E-02 0.  1.
        1   -1    0    0  501    0  0.00000000000E+00  0.00000000000E+00 -0.30762091130E+03  0.30762091135E+03  0.50400001928E-02 0. -1.
    10030    2    1    2    0    0  0.00000000000E+00  0.00000000000E+00  0.49512496403E+03  0.11103667867E+04  0.99386401031E+03 0.  0.
        3    1    3    3  502    0 -0.33362417176E+02 -0.41275060164E+03  0.55447396852E+03  0.69203865643E+03  0.10100000352E+00 0.  1.
       -3    1    3    3    0  502  0.33362417176E+02  0.41275060164E+03 -0.59349004490E+02  0.41832813026E+03  0.10100000352E+00 0. -1.
</event>
<event>
 5   0  0.5768102E-04  0.9995774E+03  0.7818609E-02  0.9309008E-01
        1   -1    0    0  501    0  0.00000000000E+00  0.00000000000E+00  0.20217328338E+03  0.20217328344E+03  0.50400001928E-02 0. -1.
       -1   -1    0    0    0  501  0.00000000000E+00  0.00000000000E+00 -0.12355180360E+04  0.12355180360E+04  0.50400001928E-02 0.  1.
    10030    2    1    2    0    0  0.00000000000E+00  0.00000000000E+00 -0.10333447526E+04  0.14376913195E+04  0.99957738682E+03 0.  0.
        4    1    3    3  502    0 -0.45671638107E+03 -0.12378644173E+03 -0.74802935452E+03  0.88513415030E+03  0.12699999809E+01 0.  1.
       -4    1    3    3    0  502  0.45671638107E+03  0.12378644173E+03 -0.28531539811E+03  0.55255716916E+03  0.12699999809E+01 0. -1.
</event>
<event>
 5   0  0.5888774E-04  0.1000456E+04  0.7818609E-02  0.9308045E-01
        1   -1    0    0  501    0  0.00000000000E+00  0.00000000000E+00  0.41754113317E+03  0.41754113320E+03  0.50400001928E-02 0. -1.
       -1   -1    0    0    0  501  0.00000000000E+00  0.00000000000E+00 -0.59928981851E+03  0.59928981853E+03  0.50400001928E-02 0.  1.
    10030    2    1    2    0    0  0.00000000000E+00  0.00000000000E+00 -0.18174868534E+03  0.10168309517E+04  0.10004561958E+04 0.  0.
        2    1    3    3  502    0  0.21187464998E+03  0.33973593594E+03 -0.39564352070E+03  0.56289001497E+03  0.25500000920E-02 0.  1.
       -2    1    3    3    0  502 -0.21187464998E+03 -0.33973593594E+03  0.21389483536E+03  0.45394093677E+03  0.25500000920E-02 0. -1.
</event>
<event>
 5   0  0.1006006E-03  0.1000779E+04  0.7818609E-02  0.9307690E-01
        2   -1    0    0  501    0  0.00000000000E+00  0.00000000000E+00  0.13543281396E+03  0.13543281399E+03  0.25500000920E-02 0. -1.
       -2   -1    0    0    0  501  0.00000000000E+00  0.00000000000E+00 -0.18488124641E+04  0.18488124641E+04  0.25500000920E-02 0.  1.
    10030    2    1    2    0    0  0.00000000000E+00  0.00000000000E+00 -0.17133796501E+04  0.19842452780E+04  0.10007794453E+04 0.  0.
        2    1    3    3  502    0 -0.25552961934E+03  0.23309751749E+03 -0.13973054007E+03  0.37303413095E+03  0.25500000920E-02 0. -1.
       -2    1    3    3    0  502  0.25552961934E+03 -0.23309751749E+03 -0.15736491100E+04  0.16112111471E+04  0.25500000920E-02 0.  1.
</event>
<event>
 5   0  0.5888774E-04  0.1000313E+04  0.7818609E-02  0.9308201E-01
        1   -1    0    0  501    0  0.00000000000E+00  0.00000000000E+00  0.17005486853E+03  0.17005486861E+03  0.50400001928E-02 0. -1.
       -1   -1    0    0    0  501  0.00000000000E+00  0.00000000000E+00 -0.14710354225E+04  0.14710354225E+04  0.50400001928E-02 0.  1.
    10030    2    1    2    0    0  0.00000000000E+00  0.00000000000E+00 -0.13009805540E+04  0.16410902911E+04  0.10003134218E+04 0.  0.
        2    1    3    3  502    0  0.35460256827E+03 -0.36013686984E+02 -0.12261356045E+04  0.12768901627E+04  0.25500000920E-02 0.  1.
       -2    1    3    3    0  502 -0.35460256827E+03  0.36013686984E+02 -0.74844949524E+02  0.36420012843E+03  0.25500000920E-02 0. -1.
</event>
<event>
 5   0  0.5960102E-04  0.9990859E+03  0.7818609E-02  0.9309548E-01
       -1   -1    0    0    0  501  0.00000000000E+00  0.00000000000E+00  0.83180044874E+03  0.83180044876E+03  0.50400001928E-02 0. -1.
        1   -1    0    0  501    0  0.00000000000E+00  0.00000000000E+00 -0.30000365086E+03  0.30000365090E+03  0.50400001928E-02 0.  1.
    10030    2    1    2    0    0  0.00000000000E+00  0.00000000000E+00  0.53179679788E+03  0.11318040997E+04  0.99908592512E+03 0.  0.
        5    1    3    3  502    0  0.27003214506E+03  0.37239036406E+02  0.74009289911E+03  0.78871014607E+03  0.46999998093E+01 0. -1.
       -5    1    3    3    0  502 -0.27003214506E+03 -0.37239036406E+02 -0.20829610124E+03  0.34309395359E+03  0.46999998093E+01 0.  1.
</event>
<event>
 5   0  0.3854625E-04  0.9994976E+03  0.7818609E-02  0.9309096E-01
       -3   -1    0    0    0  501  0.00000000000E+00  0.00000000000E+00  0.10338066420E+04  0.10338066470E+04  0.10100000352E+00 0. -1.
        3   -1    0    0  501    0  0.00000000000E+00  0.00000000000E+00 -0.24158180057E+03  0.24158182169E+03  0.10100000352E+00 0.  1.
    10030    2    1    2    0    0  0.00000000000E+00  0.00000000000E+00  0.79222484145E+03  0.12753884686E+04  0.99949764709E+03 0.  0.
        4    1    3    3  502    0 -0.39820096631E+03  0.17925502299E+03  0.70619257667E+03  0.83030472785E+03  0.12699999809E+01 0. -1.
       -4    1    3    3    0  502  0.39820096631E+03 -0.17925502299E+03  0.86032264777E+02  0.44508374080E+03  0.12699999809E+01 0.  1.
</event>
<event>
 5   0  0.9741826E-04  0.9968688E+03  0.7818609E-02  0.9311986E-01
        2   -1    0    0  501    0  0.00000000000E+00  0.00000000000E+00  0.32399168670E+03  0.32399168671E+03  0.25500000920E-02 0. -1.
       -2   -1    0    0    0  501  0.00000000000E+00  0.00000000000E+00 -0.76680011914E+03  0.76680011914E+03  0.25500000920E-02 0.  1.
    10030    2    1    2    0    0  0.00000000000E+00  0.00000000000E+00 -0.44280843244E+03  0.10907918058E+04  0.99686882581E+03 0.  0.
        3    1    3    3  502    0  0.14025521691E+03 -0.43364134997E+03 -0.59843358900E+00  0.45575949206E+03  0.10100000352E+00 0. -1.
       -3    1    3    3    0  502 -0.14025521691E+03  0.43364134997E+03 -0.44220999885E+03  0.63503231379E+03  0.10100000352E+00 0.  1.
</event>
<event>
 5   0  0.9741826E-04  0.1000798E+04  0.7818609E-02  0.9307670E-01
       -2   -1    0    0    0  501  0.00000000000E+00  0.00000000000E+00  0.12566837081E+03  0.12566837084E+03  0.25500000920E-02 0.  1.
        2   -1    0    0  501    0  0.00000000000E+00  0.00000000000E+00 -0.19925401259E+04  0.19925401259E+04  0.25500000920E-02 0. -1.
    10030    2    1    2    0    0  0.00000000000E+00  0.00000000000E+00 -0.18668717551E+04  0.21182084967E+04  0.10007982243E+04 0.  0.
        3    1    3    3  502    0  0.42139972177E+03 -0.45365421732E+02 -0.37041191898E+03  0.56288608699E+03  0.10100000352E+00 0.  1.
       -3    1    3    3    0  502 -0.42139972177E+03  0.45365421732E+02 -0.14964598361E+04  0.15553224097E+04  0.10100000352E+00 0. -1.
</event>
<event>
 5   0  0.9674819E-04  0.1000171E+04  0.7818609E-02  0.9308357E-01
        2   -1    0    0  501    0  0.00000000000E+00  0.00000000000E+00  0.11803541611E+04  0.11803541611E+04  0.25500000920E-02 0. -1.
       -2   -1    0    0    0  501  0.00000000000E+00  0.00000000000E+00 -0.21187330667E+03  0.21187330669E+03  0.25500000920E-02 0.  1.
    10030    2    1    2    0    0  0.00000000000E+00  0.00000000000E+00  0.96848085447E+03  0.13922274678E+04  0.10001710637E+04 0.  0.
        4    1    3    3  502    0 -0.10617084121E+03  0.12084457628E+03  0.11433562285E+04  0.11546171388E+04  0.12699999809E+01 0. -1.
       -4    1    3    3    0  502  0.10617084121E+03 -0.12084457628E+03 -0.17487537399E+03  0.23761032904E+03  0.12699999809E+01 0.  1.
</event>
<event>
 5   0  0.9741826E-04  0.1003416E+04  0.7818609E-02  0.9304806E-01
       -2   -1    0    0    0  501  0.00000000000E+00  0.00000000000E+00  0.58334697743E+03  0.58334697743E+03  0.25500000920E-02 0.  1.
        2   -1    0    0  501    0  0.00000000000E+00  0.00000000000E+00 -0.43149445650E+03  0.43149445651E+03  0.25500000920E-02 0. -1.
    10030    2    1    2    0    0  0.00000000000E+00  0.00000000000E+00  0.15185252093E+03  0.10148414339E+04  0.10034161390E+04 0.  0.
        3    1    3    3  502    0 -0.28866005827E+03  0.40914582011E+03  0.44167351761E+02  0.50266857522E+03  0.10100000352E+00 0. -1.
       -3    1    3    3    0  502  0.28866005827E+03 -0.40914582011E+03  0.10768516916E+03  0.51217285872E+03  0.10100000352E+00 0.  1.
</event>
<event>
 5   0  0.1006749E-03  0.1000632E+04  0.7818609E-02  0.9307852E-01
       -2   -1    0    0    0  501  0.00000000000E+00  0.00000000000E+00  0.37877881474E+03  0.37877881475E+03  0.25500000920E-02 0. -1.
        2   -1    0    0  501    0  0.00000000000E+00  0.00000000000E+00 -0.66085065209E+03  0.66085065209E+03  0.25500000920E-02 0.  1.
    10030    2    1    2    0    0  0.00000000000E+00  0.00000000000E+00 -0.28207183735E+03  0.10396294668E+04  0.10006322536E+04 0.  0.
        1    1    3    3  502    0 -0.42216987495E+03  0.51841901004E+02 -0.41474405035E+03  0.59407711061E+03  0.50400001928E-02 0.  1.
       -1    1    3    3    0  502  0.42216987495E+03 -0.51841901004E+02  0.13267221301E+03  0.44555235624E+03  0.50400001928E-02 0. -1.
</event>
<event>
 5   0  0.9741826E-04  0.9997232E+03  0.7818609E-02  0.9308848E-01
       -2   -1    0    0    0  501  0.00000000000E+00  0.00000000000E+00  0.28509089880E+03  0.28509089881E+03  0.25500000920E-02 0.  1.
        2   -1    0    0  501    0  0.00000000000E+00  0.00000000000E+00 -0.87642795546E+03  0.87642795546E+03  0.25500000920E-02 0. -1.
    10030    2    1    2    0    0  0.00000000000E+00  0.00000000000E+00 -0.59133705666E+03  0.11615188543E+04  0.99972322882E+03 0.  0.
        3    1    3    3  502    0  0.46833343724E+03  0.12572632137E+03 -0.15471517580E+03  0.50899912785E+03  0.10100000352E+00 0.  1.
       -3    1    3    3    0  502 -0.46833343724E+03 -0.12572632137E+03 -0.43662188086E+03  0.65251972643E+03  0.10100000352E+00 0. -1.
</event>
<event>
 5   0  0.1020150E-03  0.1000085E+04  0.7818609E-02  0.9308451E-01
       -2   -1    0    0    0  501  0.00000000000E+00  0.00000000000E+00  0.37834624919E+03  0.37834624920E+03  0.25500000920E-02 0. -1.
        2   -1    0    0  501    0  0.00000000000E+00  0.00000000000E+00 -0.66088289469E+03  0.66088289469E+03  0.25500000920E-02 0.  1.
    10030    2    1    2    0    0  0.00000000000E+00  0.00000000000E+00 -0.28253664550E+03  0.10392291439E+04  0.10000851251E+04 0.  0.
        5    1    3    3  502    0  0.78421722803E+02  0.46005407657E+03  0.45258890520E+02  0.46890316394E+03  0.46999998093E+01 0.  1.
       -5    1    3    3    0  502 -0.78421722803E+02 -0.46005407657E+03 -0.32779553602E+03  0.57032597996E+03  0.46999998093E+01 0. -1.
</event>
<event>
 5   0  0.5758786E-04  0.9972658E+03  0.7818609E-02  0.9311549E-01
       -1   -1    0    0    0  501  0.00000000000E+00  0.00000000000E+00  0.16940658789E+03  0.16940658797E+03  0.50400001928E-02 0.  1.
        1   -1    0    0  501    0  0.00000000000E+00  0.00000000000E+00 -0.14676806578E+04  0.14676806578E+04  0.50400001928E-02 0. -1.
    10030    2    1    2    0    0  0.00000000000E+00  0.00000000000E+00 -0.12982740699E+04  0.16370872458E+04  0.99726580694E+03 0.  0.
        3    1    3    3  502    0  0.89229726712E+02 -0.49036884986E+03 -0.62527995486E+03  0.79962402740E+03  0.10100000352E+00 0.  1.
       -3    1    3    3    0  502 -0.89229726712E+02  0.49036884986E+03 -0.67299411504E+03  0.83746321837E+03  0.10100000352E+00 0. -1.
</event>
<event>
 5   0  0.5826939E-04  0.1002538E+04  0.7818609E-02  0.9305766E-01
        1   -1    0    0  501    0  0.00000000000E+00  0.00000000000E+00  0.75628819225E+03  0.75628819227E+03  0.50400001928E-02 0.  1.
       -1   -1    0    0    0  501  0.00000000000E+00  0.00000000000E+00 -0.33224174510E+03  0.33224174514E+03  0.50400001928E-02 0. -1.
    10030    2    1    2    0    0  0.00000000000E+00  0.00000000000E+00  0.42404644715E+03  0.10885299374E+04  0.10025377974E+04 0.  0.
        1    1    3    3  502    0 -0.29279286125E+03 -0.37664496775E+03  0.37911053443E+03  0.60935530577E+03  0.50400001928E-02 0.  1.
       -1    1    3    3    0  502  0.29279286125E+03  0.37664496775E+03  0.44935912718E+02  0.47917463164E+03  0.50400001928E-02 0. -1.
</event>
<event>
 5   0  0.5758786E-04  0.9995123E+03  0.7818609E-02  0.9309080E-01
        1   -1    0    0  501    0  0.00000000000E+00  0.00000000000E+00  0.50925917072E+03  0.50925917074E+03  0.50400001928E-02 0. -1.
       -1   -1    0    0    0  501  0.00000000000E+00  0.00000000000E+00 -0.49043047740E+03  0.49043047743E+03  0.50400001928E-02 0.  1.
    10030    2    1    2    0    0  0.00000000000E+00  0.00000000000E+00  0.18828693316E+02  0.99968964817E+03  0.99951231756E+03 0.  0.
        3    1    3    3  502    0 -0.34211604440E+03  0.23667604736E+03 -0.26757750529E+03  0.49462781034E+03  0.10100000352E+00 0.  1.
       -3    1    3    3    0  502  0.34211604440E+03 -0.23667604736E+03  0.28640619860E+03  0.50506183783E+03  0.10100000352E+00 0. -1.
</event>
<event>
 5   0  0.5826939E-04  0.1003313E+04  0.7818609E-02  0.9304918E-01
        1   -1    0    0  501    0  0.00000000000E+00  0.00000000000E+00  0.19855560227E+03  0.19855560233E+03  0.50400001928E-02 0.  1.
       -1   -1    0    0    0  501  0.00000000000E+00  0.00000000000E+00 -0.12674502624E+04  0.12674502624E+04  0.50400001928E-02 0. -1.
    10030    2    1    2    0    0  0.00000000000E+00  0.00000000000E+00 -0.10688946601E+04  0.14660058647E+04  0.10033132118E+04 0.  0.
        1    1    3    3  502    0  0.43243923330E+03  0.25225671434E+03 -0.58116371128E+03  0.76706479502E+03  0.50400001928E-02 0.  1.
       -1    1    3    3    0  502 -0.43243923330E+03 -0.25225671434E+03 -0.48773094882E+03  0.69894106968E+03  0.50400001928E-02 0. -1.
</event>
<event>
 5   0  0.5768102E-04  0.9989690E+03  0.7818609E-02  0.9309676E-01
       -1   -1    0    0    0  501  0.00000000000E+00  0.00000000000E+00  0.42784470185E+03  0.42784470188E+03  0.50400001928E-02 0. -1.
        1   -1    0    0  501    0  0.00000000000E+00  0.00000000000E+00 -0.58311990073E+03  0.58311990075E+03  0.50400001928E-02 0.  1.
    10030    2    1    2    0    0  0.00000000000E+00  0.00000000000E+00 -0.15527519888E+03  0.10109646026E+04  0.99896898870E+03 0.  0.
        4    1    3    3  502    0 -0.14374782586E+03  0.31825581186E+02 -0.56066005914E+03  0.57967026823E+03  0.12699999809E+01 0.  1.
       -4    1    3    3    0  502  0.14374782586E+03 -0.31825581186E+02  0.40538486026E+03  0.43129433440E+03  0.12699999809E+01 0. -1.
</event>
<event>
 5   0  0.9674819E-04  0.9992361E+03  0.7818609E-02  0.9309383E-01
       -2   -1    0    0    0  501  0.00000000000E+00  0.00000000000E+00  0.34512719181E+03  0.34512719182E+03  0.25500000920E-02 0. -1.
        2   -1    0    0  501    0  0.00000000000E+00  0.00000000000E+00 -0.72326434744E+03  0.72326434744E+03  0.25500000920E-02 0.  1.
    10030    2    1    2    0    0  0.00000000000E+00  0.00000000000E+00 -0.37813715562E+03  0.10683915393E+04  0.99923609458E+03 0.  0.
        4    1    3    3  502    0 -0.16990422158E+03 -0.12163159635E+03 -0.67429940177E+03  0.70593412289E+03  0.12699999809E+01 0.  1.
       -4    1    3    3    0  502  0.16990422158E+03  0.12163159635E+03  0.29616224615E+03  0.36245741637E+03  0.12699999809E+01 0. -1.
</event>
<event>
 5   0  0.1020150E-03  0.9993037E+03  0.7818609E-02  0.9309309E-01
        2   -1    0    0  501    0  0.00000000000E+00  0.00000000000E+00  0.25093835306E+04  0.25093835306E+04  0.25500000920E-02 0. -1.
       -2   -1    0    0    0  501  0.00000000000E+00  0.00000000000E+00 -0.99487375980E+02  0.99487376012E+02  0.25500000920E-02 0.  1.
    10030    2    1    2    0    0  0.00000000000E+00  0.00000000000E+00  0.24098961546E+04  0.26088709066E+04  0.99930372326E+03 0.  0.
        5    1    3    3  502    0  0.12451693339E+03 -0.29459895568E+03  0.20284863422E+03  0.37876466281E+03  0.46999998093E+01 0.  1.
       -5    1    3    3    0  502 -0.12451693339E+03  0.29459895568E+03  0.22070475204E+04  0.22301062438E+04  0.46999998093E+01 0. -1.
</event>
<event>
 5   0  0.5768102E-04  0.1000973E+04  0.7818609E-02  0.9307479E-01
        1   -1    0    0  501    0  0.00000000000E+00  0.00000000000E+00  0.54835799979E+03  0.54835799981E+03  0.50400001928E-02 0. -1.
       -1   -1    0    0    0  501  0.00000000000E+00  0.00000000000E+00 -0.45679390664E+03  0.45679390667E+03  0.50400001928E-02 0.  1.
    10030    2    1    2    0    0  0.00000000000E+00  0.00000000000E+00  0.91564093146E+02  0.10051519065E+04  0.10009727129E+04 0.  0.
        4    1    3    3  502    0  0.48192292159E+03 -0.13503208580E+03  0.44506491757E+02  0.50245975685E+03  0.12699999809E+01 0. -1.
       -4    1    3    3    0  502 -0.48192292159E+03  0.13503208580E+03  0.47057601390E+02  0.50269214963E+03  0.12699999809E+01 0.  1.
</event>
<event>
 5   0  0.9741826E-04  0.1003474E+04  0.7818609E-02  0.9304743E-01
        2   -1    0    0  501    0  0.00000000000E+00  0.00000000000E+00  0.58563390732E+03  0.58563390732E+03  0.25500000920E-02 0. -1.
       -2   -1    0    0    0  501  0.00000000000E+00  0.00000000000E+00 -0.42985913739E+03  0.42985913740E+03  0.25500000920E-02 0.  1.
    10030    2    1    2    0    0  0.00000000000E+00  0.00000000000E+00  0.15577476993E+03  0.10154930447E+04  0.10034741376E+04 0.  0.
        3    1    3    3  502    0 -0.17768693376E+03  0.13910799207E+03  0.53138014052E+03  0.57731147904E+03  0.10100000352E+00 0. -1.
       -3    1    3    3    0  502  0.17768693376E+03 -0.13910799207E+03 -0.37560537059E+03  0.43818156568E+03  0.10100000352E+00 0.  1.
</event>
<event>
 5   0  0.1006749E-03  0.9996479E+03  0.7818609E-02  0.9308931E-01
       -2   -1    0    0    0  501  0.00000000000E+00  0.00000000000E+00  0.16706102021E+03  0.16706102023E+03  0.25500000920E-02 0.  1.
        2   -1    0    0  501    0  0.00000000000E+00  0.00000000000E+00 -0.14954056341E+04  0.14954056341E+04  0.25500000920E-02 0. -1.
    10030    2    1    2    0    0  0.00000000000E+00  0.00000000000E+00 -0.13283446139E+04  0.16624666543E+04  0.99964791977E+03 0.  0.
        1    1    3    3  502    0 -0.23875346306E+03  0.41615278633E+03 -0.43112158755E+03  0.64502107017E+03  0.50400001928E-02 0.  1.
       -1    1    3    3    0  502  0.23875346306E+03 -0.41615278633E+03 -0.89722302630E+03  0.10174455841E+04  0.50400001928E-02 0. -1.
</event>
<event>
 5   0  0.1006006E-03  0.9997179E+03  0.7818609E-02  0.9308854E-01
       -2   -1    0    0    0  501  0.00000000000E+00  0.00000000000E+00  0.89232832221E+03  0.89232832221E+03  0.25500000920E-02 0. -1.
        2   -1    0    0  501    0  0.00000000000E+00  0.00000000000E+00 -0.28000790284E+03  0.28000790285E+03  0.25500000920E-02 0.  1.
    10030    2    1    2    0    0  0.00000000000E+00  0.00000000000E+00  0.61232041937E+03  0.11723362251E+04  0.99971792452E+03 0.  0.
        2    1    3    3  502    0 -0.14750476353E+03 -0.41865474055E+03  0.36626492743E+02  0.44538853491E+03  0.25500000920E-02 0.  1.
       -2    1    3    3    0  502  0.14750476353E+03  0.41865474055E+03  0.57569392663E+03  0.72694769015E+03  0.25500000920E-02 0. -1.
</event>
<event>
 5   0  0.3854625E-04  0.9990019E+03  0.7818609E-02  0.9309640E-01
        4   -1    0    0  501    0  0.00000000000E+00  0.00000000000E+00  0.13669338716E+04  0.13669344616E+04  0.12699999809E+01 0.  1.
       -4   -1    0    0    0  501  0.00000000000E+00  0.00000000000E+00 -0.18252333444E+03  0.18252775272E+03  0.12699999809E+01 0. -1.
    10030    2    1    2    0    0  0.00000000000E+00  0.00000000000E+00  0.11844105372E+04  0.15494622143E+04  0.99900191841E+03 0.  0.
        3    1    3    3  502    0 -0.38693223859E+03  0.23502172683E+03  0.26483763641E+03  0.52449094673E+03  0.10100000352E+00 0. -1.
       -3    1    3    3    0  502  0.38693223859E+03 -0.23502172683E+03  0.91957290075E+03  0.10249712676E+04  0.10100000352E+00 0.  1.
</event>
<event>
 5   0  0.5768102E-04  0.1002157E+04  0.7818609E-02  0.9306182E-01
        1   -1    0    0  501    0  0.00000000000E+00  0.00000000000E+00  0.17887125438E+04  0.17887125438E+04  0.50400001928E-02 0.  1.
       -1   -1    0    0    0  501  0.00000000000E+00  0.00000000000E+00 -0.14036890646E+03  0.14036890655E+03  0.50400001928E-02 0. -1.
    10030    2    1    2    0    0  0.00000000000E+00  0.00000000000E+00  0.16483436373E+04  0.19290814503E+04  0.10021569215E+04 0.  0.
        4    1    3    3  502    0  0.43161927654E+03 -0.21271131551E+03  0.10932264795E+04  0.11944400579E+04  0.12699999809E+01 0. -1.
       -4    1    3    3    0  502 -0.43161927654E+03  0.21271131551E+03  0.55511715784E+03  0.73464139242E+03  0.12699999809E+01 0.  1.
</event>
<event>
 5   0  0.1020150E-03  0.9974037E+03  0.7818609E-02  0.9311397E-01
        2   -1    0    0  501    0  0.00000000000E+00  0.00000000000E+00  0.16319489964E+04  0.16319489964E+04  0.25500000920E-02 0.  1.
       -2   -1    0    0    0  501  0.00000000000E+00  0.00000000000E+00 -0.15239662912E+03  0.15239662914E+03  0.25500000920E-02 0. -1.
    10030    2    1    2    0    0  0.00000000000E+00  0.00000000000E+00  0.14795523673E+04  0.17843456256E+04  0.99740368152E+03 0.  0.
        5    1    3    3  502    0  0.36378157594E+03  0.33693594222E+03  0.83475408449E+03  0.97092704964E+03  0.46999998093E+01 0.  1.
       -5    1    3    3    0  502 -0.36378157594E+03 -0.33693594222E+03  0.64479828282E+03  0.81341857593E+03  0.46999998093E+01 0. -1.
</event>
<event>
 5   0  0.3854625E-04  0.1000212E+04  0.7818609E-02  0.9308313E-01
        4   -1    0    0  501    0  0.00000000000E+00  0.00000000000E+00  0.46796308673E+03  0.46796481005E+03  0.12699999809E+01 0.  1.
       -4   -1    0    0    0  501  0.00000000000E+00  0.00000000000E+00 -0.53445298356E+03  0.53445449248E+03  0.12699999809E+01 0. -1.
    10030    2    1    2    0    0  0.00000000000E+00  0.00000000000E+00 -0.66489896821E+02  0.10024193025E+04  0.10002117534E+04 0.  0.
        4    1    3    3  502    0  0.36498717927E+03 -0.24303586046E+03  0.20774825244E+03  0.48522471061E+03  0.12699999809E+01 0.  1.
       -4    1    3    3    0  502 -0.36498717927E+03  0.24303586046E+03 -0.27423814926E+03  0.51719459192E+03  0.12699999809E+01 0. -1.
</event>
<event>
 5   0  0.5960102E-04  0.9993452E+03  0.7818609E-02  0.9309263E-01
        1   -1    0    0  501    0  0.00000000000E+00  0.00000000000E+00  0.28376526629E+03  0.28376526634E+03  0.50400001928E-02 0. -1.
       -1   -1    0    0    0  501  0.00000000000E+00  0.00000000000E+00 -0.87985639609E+03  0.87985639611E+03  0.50400001928E-02 0.  1.
    10030    2    1    2    0    0  0.00000000000E+00  0.00000000000E+00 -0.59609112980E+03  0.11636216624E+04  0.99934515473E+03 0.  0.
        5    1    3    3  502    0 -0.33558289563E+03 -0.38061477181E+02 -0.72679520918E+03  0.80144739189E+03  0.46999998093E+01 0.  1.
       -5    1    3    3    0  502  0.33558289563E+03  0.38061477181E+02  0.13070407938E+03  0.36217427055E+03  0.46999998093E+01 0. -1.
</event>
<event>
 5   0  0.5768102E-04  0.1000741E+04  0.7818609E-02  0.9307733E-01
       -1   -1    0    0    0  501  0.00000000000E+00  0.00000000000E+00  0.23913486529E+03  0.23913486534E+03  0.50400001928E-02 0.  1.
        1   -1    0    0  501    0  0.00000000000E+00  0.00000000000E+00 -0.10469843958E+04  0.10469843958E+04  0.50400001928E-02 0. -1.
    10030    2    1    2    0    0  0.00000000000E+00  0.00000000000E+00 -0.80784953050E+03  0.12861192611E+04  0.10007406707E+04 0.  0.
        4    1    3    3  502    0  0.20459324957E+03 -0.34759183551E+03 -0.78449573998E+03  0.88210751093E+03  0.12699999809E+01 0. -1.
       -4    1    3    3    0  502 -0.20459324957E+03  0.34759183551E+03 -0.23353790514E+02  0.40401175021E+03  0.12699999809E+01 0.  1.
</event>
<event>
 5   0  0.5758786E-04  0.1005648E+04  0.7818609E-02  0.9302371E-01
       -1   -1    0    0    0  501  0.00000000000E+00  0.00000000000E+00  0.49626302464E+03  0.49626302466E+03  0.50400001928E-02 0.  1.
        1   -1    0    0  501    0  0.00000000000E+00  0.00000000000E+00 -0.50947207006E+03  0.50947207009E+03  0.50400001928E-02 0. -1.
    10030    2    1    2    0    0  0.00000000000E+00  0.00000000000E+00 -0.13209045422E+02  0.10057350948E+04  0.10056483490E+04 0.  0.
        3    1    3    3  502    0 -0.83544728299E+02  0.46673064156E+03  0.16078651691E+03  0.50066907995E+03  0.10100000352E+00 0.  1.
       -3    1    3    3    0  502  0.83544728299E+02 -0.46673064156E+03 -0.17399556233E+03  0.50506601480E+03  0.10100000352E+00 0. -1.
</event>
<event>
 5   0  0.3854625E-04  0.9970088E+03  0.7818609E-02  0.9311832E-01
       -3   -1    0    0    0  501  0.00000000000E+00  0.00000000000E+00  0.34243498716E+03  0.34243500205E+03  0.10100000352E+00 0.  1.
        3   -1    0    0  501    0  0.00000000000E+00  0.00000000000E+00 -0.72570452541E+03  0.72570453244E+03  0.10100000352E+00 0. -1.
    10030    2    1    2    0    0  0.00000000000E+00  0.00000000000E+00 -0.38326953825E+03  0.10681395345E+04  0.99700878943E+03 0.  0.
        3    1    3    3  502    0 -0.17345257833E+03  0.29422871224E+03  0.19738309606E+03  0.39448248230E+03  0.10100000352E+00 0.  1.
       -3    1    3    3    0  502  0.17345257833E+03 -0.29422871224E+03 -0.58065263431E+03  0.67365705219E+03  0.10100000352E+00 0. -1.
</event>
<event>
 5   0  0.5960102E-04  0.9932678E+03  0.7818609E-02  0.9315960E-01
       -1   -1    0    0    0  501  0.00000000000E+00  0.00000000000E+00  0.21276957119E+03  0.21276957125E+03  0.50400001928E-02 0. -1.
        1   -1    0    0  501    0  0.00000000000E+00  0.00000000000E+00 -0.11592128338E+04  0.11592128338E+04  0.50400001928E-02 0.  1.
    10030    2    1    2    0    0  0.00000000000E+00  0.00000000000E+00 -0.94644326262E+03  0.13719824051E+04  0.99326777380E+03 0.  0.
        5    1    3    3  502    0  0.11218533284E+03  0.19206959519E+03  0.14008423259E+03  0.26291055612E+03  0.46999998093E+01 0. -1.
       -5    1    3    3    0  502 -0.11218533284E+03 -0.19206959519E+03 -0.10865274952E+04  0.11090718490E+04  0.46999998093E+01 0.  1.
</event>
<event>
 5   0  0.5826939E-04  0.9996514E+03  0.7818609E-02  0.9308927E-01
       -1   -1    0    0    0  501  0.00000000000E+00  0.00000000000E+00  0.32881030899E+03  0.32881030903E+03  0.50400001928E-02 0. -1.
        1   -1    0    0  501    0  0.00000000000E+00  0.00000000000E+00 -0.75978685819E+03  0.75978685821E+03  0.50400001928E-02 0.  1.
    10030    2    1    2    0    0  0.00000000000E+00  0.00000000000E+00 -0.43097654920E+03  0.10885971672E+04  0.99965144253E+03 0.  0.
        1    1    3    3  502    0 -0.25614898821E+03 -0.36519037676E+03 -0.46105056401E+03  0.64151690394E+03  0.50400001928E-02 0.  1.
       -1    1    3    3    0  502  0.25614898821E+03  0.36519037676E+03  0.30074014803E+02  0.44708026330E+03  0.50400001928E-02 0. -1.
</event>
<event>
 5   0  0.3854625E-04  0.1001057E+04  0.7818609E-02  0.9307387E-01
        3   -1    0    0  501    0  0.00000000000E+00  0.00000000000E+00  0.20370900599E+03  0.20370903103E+03  0.10100000352E+00 0. -1.
       -3   -1    0    0    0  501  0.00000000000E+00  0.00000000000E+00 -0.12298354743E+04  0.12298354784E+04  0.10100000352E+00 0.  1.
    10030    2    1    2    0    0  0.00000000000E+00  0.00000000000E+00 -0.10261264683E+04  0.14335445095E+04  0.10010566076E+04 0.  0.
        4    1    3    3  502    0 -0.38200685518E+02 -0.46210288977E+03 -0.24313918918E+03  0.52356150673E+03  0.12699999809E+01 0. -1.
       -4    1    3    3    0  502  0.38200685518E+02  0.46210288977E+03 -0.78298727912E+03  0.90998300274E+03  0.12699999809E+01 0.  1.
</event>
<event>
 5   0  0.1006749E-03  0.9999402E+03  0.7818609E-02  0.9308610E-01
        2   -1    0    0  501    0  0.00000000000E+00  0.00000000000E+00  0.78081615222E+03  0.78081615223E+03  0.25500000920E-02 0.  1.
       -2   -1    0    0    0  501  0.00000000000E+00  0.00000000000E+00 -0.32013953017E+03  0.32013953019E+03  0.25500000920E-02 0. -1.
    10030    2    1    2    0    0  0.00000000000E+00  0.00000000000E+00  0.46067662205E+03  0.11009556824E+04  0.99994023048E+03 0.  0.
        1    1    3    3  502    0  0.14974775609E+03  0.11201901265E+03  0.74085796569E+03  0.76409631265E+03  0.50400001928E-02 0.  1.
       -1    1    3    3    0  502 -0.14974775609E+03 -0.11201901265E+03 -0.28018134364E+03  0.33685936977E+03  0.50400001928E-02 0. -1.
</event>
<event>
 5   0  0.5826939E-04  0.9994529E+03  0.7818609E-02  0.9309145E-01
       -1   -1    0    0    0  501  0.00000000000E+00  0.00000000000E+00  0.27817295647E+03  0.27817295652E+03  0.50400001928E-02 0. -1.
        1   -1    0    0  501    0  0.00000000000E+00  0.00000000000E+00 -0.89773824933E+03  0.89773824935E+03  0.50400001928E-02 0.  1.
    10030    2    1    2    0    0  0.00000000000E+00  0.00000000000E+00 -0.61956529286E+03  0.11759112059E+04  0.99945285630E+03 0.  0.
        1    1    3    3  502    0 -0.13363085311E+03  0.34825676434E+03 -0.70104072652E+03  0.79410205835E+03  0.50400001928E-02 0.  1.
       -1    1    3    3    0  502  0.13363085311E+03 -0.34825676434E+03  0.81475433664E+02  0.38180914752E+03  0.50400001928E-02 0. -1.
</event>
<event>
 5   0  0.9674819E-04  0.9943439E+03  0.7818609E-02  0.9314770E-01
        2   -1    0    0  501    0  0.00000000000E+00  0.00000000000E+00  0.12442831286E+04  0.12442831286E+04  0.25500000920E-02 0. -1.
       -2   -1    0    0    0  501  0.00000000000E+00  0.00000000000E+00 -0.19865247616E+03  0.19865247617E+03  0.25500000920E-02 0.  1.
    10030    2    1    2    0    0  0.00000000000E+00  0.00000000000E+00  0.10456306525E+04  0.14429356048E+04  0.99434385312E+03 0.  0.
        4    1    3    3  502    0  0.18610000646E+03 -0.32603568949E+03  0.49809706986E+02  0.37870186564E+03  0.12699999809E+01 0.  1.
       -4    1    3    3    0  502 -0.18610000646E+03  0.32603568949E+03  0.99582094549E+03  0.10642337392E+04  0.12699999809E+01 0. -1.
</event>
<event>
 5   0  0.1020150E-03  0.9979313E+03  0.7818609E-02  0.9310817E-01
       -2   -1    0    0    0  501  0.00000000000E+00  0.00000000000E+00  0.15961383042E+03  0.15961383044E+03  0.25500000920E-02 0. -1.
        2   -1    0    0  501    0  0.00000000000E+00  0.00000000000E+00 -0.15598065359E+04  0.15598065359E+04  0.25500000920E-02 0.  1.
    10030    2    1    2    0    0  0.00000000000E+00  0.00000000000E+00 -0.14001927055E+04  0.17194203664E+04  0.99793125201E+03 0.  0.
        5    1    3    3  502    0 -0.33508039337E+02  0.91439372211E+02 -0.15432340925E+04  0.15463109331E+04  0.46999998093E+01 0.  1.
       -5    1    3    3    0  502  0.33508039337E+02 -0.91439372211E+02  0.14304138702E+03  0.17310943327E+03  0.46999998093E+01 0. -1.
</event>
<event>
 5   0  0.5888774E-04  0.1000619E+04  0.7818609E-02  0.9307866E-01
       -1   -1    0    0    0  501  0.00000000000E+00  0.00000000000E+00  0.81269803798E+03  0.81269803800E+03  0.50400001928E-02 0.  1.
        1   -1    0    0  501    0  0.00000000000E+00  0.00000000000E+00 -0.30799833319E+03  0.30799833324E+03  0.50400001928E-02 0. -1.
    10030    2    1    2    0    0  0.00000000000E+00  0.00000000000E+00  0.50469970479E+03  0.11206963712E+04  0.10006190906E+04 0.  0.
        2    1    3    3  502    0  0.19551067744E+03 -0.45697132622E+03  0.31632176351E+03  0.58915759866E+03  0.25500000920E-02 0.  1.
       -2    1    3    3    0  502 -0.19551067744E+03  0.45697132622E+03  0.18837794128E+03  0.53153877258E+03  0.25500000920E-02 0. -1.
</event>
<event>
 5   0  0.5826939E-04  0.1001086E+04  0.7818609E-02  0.9307355E-01
       -1   -1    0    0    0  501  0.00000000000E+00  0.00000000000E+00  0.34750022884E+03  0.34750022888E+03  0.50400001928E-02 0. -1.
        1   -1    0    0  501    0  0.00000000000E+00  0.00000000000E+00 -0.72098733863E+03  0.72098733865E+03  0.50400001928E-02 0.  1.
    10030    2    1    2    0    0  0.00000000000E+00  0.00000000000E+00 -0.37348710979E+03  0.10684875675E+04  0.10010859408E+04 0.  0.
        1    1    3    3  502    0  0.25384928338E+02 -0.44533414543E+03 -0.42913846457E+03  0.61897230751E+03  0.50400001928E-02 0. -1.
       -1    1    3    3    0  502 -0.25384928338E+02  0.44533414543E+03  0.55651354777E+02  0.44951526001E+03  0.50400001928E-02 0.  1.
</event>
<event>
 5   0  0.1006006E-03  0.1000018E+04  0.7818609E-02  0.9308526E-01
       -2   -1    0    0    0  501  0.00000000000E+00  0.00000000000E+00  0.18161051266E+03  0.18161051268E+03  0.25500000920E-02 0. -1.
        2   -1    0    0  501    0  0.00000000000E+00  0.00000000000E+00 -0.13766205521E+04  0.13766205521E+04  0.25500000920E-02 0.  1.
    10030    2    1    2    0    0  0.00000000000E+00  0.00000000000E+00 -0.11950100395E+04  0.15582310648E+04  0.10000175283E+04 0.  0.
        2    1    3    3  502    0 -0.49304375288E+03  0.56763658373E+02 -0.50279354174E+03  0.70648113973E+03  0.25500000920E-02 0. -1.
       -2    1    3    3    0  502  0.49304375288E+03 -0.56763658373E+02 -0.69221649773E+03  0.85174992510E+03  0.25500000920E-02 0.  1.
</event>
<event>
 5   0  0.5758786E-04  0.1000914E+04  0.7818609E-02  0.9307543E-01
        1   -1    0    0  501    0  0.00000000000E+00  0.00000000000E+00  0.30380985832E+03  0.30380985836E+03  0.50400001928E-02 0.  1.
       -1   -1    0    0    0  501  0.00000000000E+00  0.00000000000E+00 -0.82438754109E+03  0.82438754111E+03  0.50400001928E-02 0. -1.
    10030    2    1    2    0    0  0.00000000000E+00  0.00000000000E+00 -0.52057768277E+03  0.11281973995E+04  0.10009137068E+04 0.  0.
        3    1    3    3  502    0  0.30613506624E+03 -0.33707569319E+03 -0.26232977966E+02  0.45609963940E+03  0.10100000352E+00 0.  1.
       -3    1    3    3    0  502 -0.30613506624E+03  0.33707569319E+03 -0.49434470480E+03  0.67209776007E+03  0.10100000352E+00 0. -1.
</event>
<event>
 5   0  0.5758786E-04  0.1001415E+04  0.7818609E-02  0.9306994E-01
        1   -1    0    0  501    0  0.00000000000E+00  0.00000000000E+00  0.12974182666E+04  0.12974182666E+04  0.50400001928E-02 0. -1.
       -1   -1    0    0    0  501  0.00000000000E+00  0.00000000000E+00 -0.19323601320E+03  0.19323601327E+03  0.50400001928E-02 0.  1.
    10030    2    1    2    0    0  0.00000000000E+00  0.00000000000E+00  0.11041822534E+04  0.14906542799E+04  0.10014148658E+04 0.  0.
        3    1    3    3  502    0 -0.34913775481E+03 -0.32714760242E+03  0.77179800244E+03  0.90807207444E+03  0.10100000352E+00 0. -1.
       -3    1    3    3    0  502  0.34913775481E+03  0.32714760242E+03  0.33238425094E+03  0.58258220542E+03  0.10100000352E+00 0.  1.
</event>
<event>
 5   0  0.1006006E-03  0.9993856E+03  0.7818609E-02  0.9309219E-01
        2   -1    0    0  501    0  0.00000000000E+00  0.00000000000E+00  0.56349977157E+03  0.56349977158E+03  0.25500000920E-02 0.  1.
       -2   -1    0    0    0  501  0.00000000000E+00  0.00000000000E+00 -0.44311089586E+03  0.44311089587E+03  0.25500000920E-02 0. -1.
    10030    2    1    2    0    0  0.00000000000E+00  0.00000000000E+00  0.12038887571E+03  0.10066106674E+04  0.99938558846E+03 0.  0.
        2    1    3    3  502    0  0.43755252009E+03 -0.23612726285E+03  0.99883500964E+01  0.49730077342E+03  0.25500000920E-02 0.  1.
       -2    1    3    3    0  502 -0.43755252009E+03  0.23612726285E+03  0.11040052561E+03  0.50930989403E+03  0.25500000920E-02 0. -1.
</event>
<event>
 5   0  0.5960102E-04  0.1000678E+04  0.7818609E-02  0.9307802E-01
       -1   -1    0    0    0  501  0.00000000000E+00  0.00000000000E+00  0.20910929902E+03  0.20910929908E+03  0.50400001928E-02 0. -1.
        1   -1    0    0  501    0  0.00000000000E+00  0.00000000000E+00 -0.11971683704E+04  0.11971683704E+04  0.50400001928E-02 0.  1.
    10030    2    1    2    0    0  0.00000000000E+00  0.00000000000E+00 -0.98805907139E+03  0.14062776695E+04  0.10006778478E+04 0.  0.
        5    1    3    3  502    0 -0.45016138584E+03  0.19884643357E+03 -0.62075659994E+03  0.79217802533E+03  0.46999998093E+01 0. -1.
       -5    1    3    3    0  502  0.45016138584E+03 -0.19884643357E+03 -0.36730247145E+03  0.61409964417E+03  0.46999998093E+01 0.  1.
</event>
<event>
 5   0  0.9741826E-04  0.9955051E+03  0.7818609E-02  0.9313488E-01
        2   -1    0    0  501    0  0.00000000000E+00  0.00000000000E+00  0.14782465683E+03  0.14782465685E+03  0.25500000920E-02 0.  1.
       -2   -1    0    0    0  501  0.00000000000E+00  0.00000000000E+00 -0.16760236533E+04  0.16760236533E+04  0.25500000920E-02 0. -1.
    10030    2    1    2    0    0  0.00000000000E+00  0.00000000000E+00 -0.15281989965E+04  0.18238483102E+04  0.99550514095E+03 0.  0.
        3    1    3    3  502    0  0.21469505880E+02  0.37631415465E+03 -0.13596937591E+04  0.14109714425E+04  0.10100000352E+00 0. -1.
       -3    1    3    3    0  502 -0.21469505880E+02 -0.37631415465E+03 -0.16850523739E+03  0.41287686772E+03  0.10100000352E+00 0.  1.
</event>
<event>
 5   0  0.9741826E-04  0.1000376E+04  0.7818609E-02  0.9308132E-01
       -2   -1    0    0    0  501  0.00000000000E+00  0.00000000000E+00  0.14344577903E+03  0.14344577906E+03  0.25500000920E-02 0.  1.
        2   -1    0    0  501    0  0.00000000000E+00  0.00000000000E+00 -0.17441310211E+04  0.17441310211E+04  0.25500000920E-02 0. -1.
    10030    2    1    2    0    0  0.00000000000E+00  0.00000000000E+00 -0.16006852421E+04  0.18875768002E+04  0.10003763953E+04 0.  0.
        3    1    3    3  502    0  0.18102802614E+03 -0.23587543662E+03 -0.15592755842E+04  0.15873716407E+04  0.10100000352E+00 0. -1.
       -3    1    3    3    0  502 -0.18102802614E+03  0.23587543662E+03 -0.41409657908E+02  0.30020515955E+03  0.10100000352E+00 0.  1.
</event>
<event>
 5   0  0.1006006E-03  0.1001001E+04  0.7818609E-02  0.9307448E-01
       -2   -1    0    0    0  501  0.00000000000E+00  0.00000000000E+00  0.30422157500E+03  0.30422157501E+03  0.25500000920E-02 0. -1.
        2   -1    0    0  501    0  0.00000000000E+00  0.00000000000E+00 -0.82341482113E+03  0.82341482113E+03  0.25500000920E-02 0.  1.
    10030    2    1    2    0    0  0.00000000000E+00  0.00000000000E+00 -0.51919324612E+03  0.11276363961E+04  0.10010006069E+04 0.  0.
        2    1    3    3  502    0 -0.28095954979E+03  0.42634094172E+02 -0.72371926126E+03  0.77751238172E+03  0.25500000920E-02 0.  1.
       -2    1    3    3    0  502  0.28095954979E+03 -0.42634094172E+02  0.20452601514E+03  0.35012401442E+03  0.25500000920E-02 0. -1.
</event>
<event>
 5   0  0.5768102E-04  0.1010382E+04  0.7818609E-02  0.9297231E-01
       -1   -1    0    0    0  501  0.00000000000E+00  0.00000000000E+00  0.49614976971E+03  0.49614976973E+03  0.50400001928E-02 0.  1.
        1   -1    0    0  501    0  0.00000000000E+00  0.00000000000E+00 -0.51439670376E+03  0.51439670378E+03  0.50400001928E-02 0. -1.
    10030    2    1    2    0    0  0.00000000000E+00  0.00000000000E+00 -0.18246934048E+02  0.10105464735E+04  0.10103817222E+04 0.  0.
        4    1    3    3  502    0  0.22609497676E+03 -0.44972713034E+03  0.33810947622E+02  0.50449799143E+03  0.12699999809E+01 0.  1.
       -4    1    3    3    0  502 -0.22609497676E+03  0.44972713034E+03 -0.52057881670E+02  0.50604848208E+03  0.12699999809E+01 0. -1.
</event>
<event>
 5   0  0.1006749E-03  0.9992559E+03  0.7818609E-02  0.9309361E-01
        2   -1    0    0  501    0  0.00000000000E+00  0.00000000000E+00  0.60475914359E+03  0.60475914360E+03  0.25500000920E-02 0.  1.
       -2   -1    0    0    0  501  0.00000000000E+00  0.00000000000E+00 -0.41277270305E+03  0.41277270306E+03  0.25500000920E-02 0. -1.
    10030    2    1    2    0    0  0.00000000000E+00  0.00000000000E+00  0.19198644054E+03  0.10175318467E+04  0.99925585593E+03 0.  0.
        1    1    3    3  502    0  0.14021965359E+02 -0.49880848374E+03  0.70606392202E+02  0.50397597324E+03  0.50400001928E-02 0. -1.
       -1    1    3    3    0  502 -0.14021965359E+02  0.49880848374E+03  0.12138004834E+03  0.51355587342E+03  0.50400001928E-02 0.  1.
</event>
<event>
 5   0  0.1006006E-03  0.9998887E+03  0.7818609E-02  0.9308667E-01
        2   -1    0    0  501    0  0.00000000000E+00  0.00000000000E+00  0.17136608304E+04  0.17136608304E+04  0.25500000920E-02 0. -1.
       -2   -1    0    0    0  501  0.00000000000E+00  0.00000000000E+00 -0.14585405295E+03  0.14585405297E+03  0.25500000920E-02 0.  1.
    10030    2    1    2    0    0  0.00000000000E+00  0.00000000000E+00  0.15678067775E+04  0.18595148834E+04  0.99988874886E+03 0.  0.
        2    1    3    3  502    0  0.20630718452E+03  0.32900700906E+03  0.13694532959E+04  0.14234502437E+04  0.25500000920E-02 0. -1.
       -2    1    3    3    0  502 -0.20630718452E+03 -0.32900700906E+03  0.19835348155E+03  0.43606463976E+03  0.25500000920E-02 0.  1.
</event>
<event>
 5   0  0.1006749E-03  0.1001924E+04  0.7818609E-02  0.9306437E-01
        2   -1    0    0  501    0  0.00000000000E+00  0.00000000000E+00  0.26470900109E+03  0.26470900110E+03  0.25500000920E-02 0. -1.
       -2   -1    0    0    0  501  0.00000000000E+00  0.00000000000E+00 -0.94807130577E+03  0.94807130577E+03  0.25500000920E-02 0.  1.
    10030    2    1    2    0    0  0.00000000000E+00  0.00000000000E+00 -0.68336230468E+03  0.12127803069E+04  0.10019241654E+04 0.  0.
        1    1    3    3  502    0  0.41098397072E+03  0.28579156213E+03 -0.31813586587E+03  0.59312314940E+03  0.50400001928E-02 0.  1.
       -1    1    3    3    0  502 -0.41098397072E+03 -0.28579156213E+03 -0.36522643880E+03  0.61965715747E+03  0.50400001928E-02 0. -1.
</event>
<event>
 5   0  0.9741826E-04  0.9995048E+03  0.7818609E-02  0.9309088E-01
        2   -1    0    0  501    0  0.00000000000E+00  0.00000000000E+00  0.15909074495E+04  0.15909074495E+04  0.25500000920E-02 0.  1.
       -2   -1    0    0    0  501  0.00000000000E+00  0.00000000000E+00 -0.15698741947E+03  0.15698741949E+03  0.25500000920E-02 0. -1.
    10030    2    1    2    0    0  0.00000000000E+00  0.00000000000E+00  0.14339200301E+04  0.17478948690E+04  0.99950478766E+03 0.  0.
        3    1    3    3  502    0  0.28711517653E+03  0.21312114429E+03  0.13275172752E+04  0.13748301251E+04  0.10100000352E+00 0.  1.
       -3    1    3    3    0  502 -0.28711517653E+03 -0.21312114429E+03  0.10640275491E+03  0.37306474397E+03  0.10100000352E+00 0. -1.
</event>
<event>
 5   0  0.5888774E-04  0.9969420E+03  0.7818609E-02  0.9311905E-01
       -1   -1    0    0    0  501  0.00000000000E+00  0.00000000000E+00  0.29642804954E+03  0.29642804958E+03  0.50400001928E-02 0.  1.
        1   -1    0    0  501    0  0.00000000000E+00  0.00000000000E+00 -0.83822481039E+03  0.83822481041E+03  0.50400001928E-02 0. -1.
    10030    2    1    2    0    0  0.00000000000E+00  0.00000000000E+00 -0.54179676086E+03  0.11346528600E+04  0.99694201567E+03 0.  0.
        2    1    3    3  502    0  0.36813609625E+03  0.12942113991E+03 -0.62390197977E+03  0.73588565497E+03  0.25500000920E-02 0. -1.
       -2    1    3    3    0  502 -0.36813609625E+03 -0.12942113991E+03  0.82105218915E+02  0.39876720502E+03  0.25500000920E-02 0.  1.
</event>
<event>
 5   0  0.1006749E-03  0.1006590E+04  0.7818609E-02  0.9301347E-01
       -2   -1    0    0    0  501  0.00000000000E+00  0.00000000000E+00  0.16363423360E+03  0.16363423362E+03  0.25500000920E-02 0. -1.
        2   -1    0    0  501    0  0.00000000000E+00  0.00000000000E+00 -0.15479990822E+04  0.15479990822E+04  0.25500000920E-02 0.  1.
    10030    2    1    2    0    0  0.00000000000E+00  0.00000000000E+00 -0.13843648486E+04  0.17116333158E+04  0.10065895756E+04 0.  0.
        1    1    3    3  502    0  0.11286499596E+03  0.40904764700E+03 -0.23197492253E+03  0.48360195361E+03  0.50400001928E-02 0. -1.
       -1    1    3    3    0  502 -0.11286499596E+03 -0.40904764700E+03 -0.11523899260E+04  0.12280313622E+04  0.50400001928E-02 0.  1.
</event>
<event>
 5   0  0.9674819E-04  0.1000214E+04  0.7818609E-02  0.9308310E-01
        2   -1    0    0  501    0  0.00000000000E+00  0.00000000000E+00  0.15159499258E+04  0.15159499258E+04  0.25500000920E-02 0.  1.
       -2   -1    0    0    0  501  0.00000000000E+00  0.00000000000E+00 -0.16498371644E+03  0.16498371646E+03  0.25500000920E-02 0. -1.
    10030    2    1    2    0    0  0.00000000000E+00  0.00000000000E+00  0.13509662093E+04  0.16809336422E+04  0.10002140825E+04 0.  0.
        4    1    3    3  502    0 -0.57742650663E+02  0.45947653536E+03  0.35815916353E+03  0.58543359963E+03  0.12699999809E+01 0. -1.
       -4    1    3    3    0  502  0.57742650663E+02 -0.45947653536E+03  0.99280704580E+03  0.10955000426E+04  0.12699999809E+01 0.  1.
</event>
<event>
 5   0  0.5826939E-04  0.1001634E+04  0.7818609E-02  0.9306754E-01
        1   -1    0    0  501    0  0.00000000000E+00  0.00000000000E+00  0.29582194681E+03  0.29582194685E+03  0.50400001928E-02 0.  1.
       -1   -1    0    0    0  501  0.00000000000E+00  0.00000000000E+00 -0.84786718037E+03  0.84786718039E+03  0.50400001928E-02 0. -1.
    10030    2    1    2    0    0  0.00000000000E+00  0.00000000000E+00 -0.55204523357E+03  0.11436891272E+04  0.10016341048E+04 0.  0.
        1    1    3    3  502    0  0.18406756610E+03  0.32101480161E+03 -0.66135430270E+03  0.75783961724E+03  0.50400001928E-02 0. -1.
       -1    1    3    3    0  502 -0.18406756610E+03 -0.32101480161E+03  0.10930906913E+03  0.38584951000E+03  0.50400001928E-02 0.  1.
</event>
<event>
 5   0  0.5888774E-04  0.9990626E+03  0.7818609E-02  0.9309574E-01
       -1   -1    0    0    0  501  0.00000000000E+00  0.00000000000E+00  0.29313087479E+03  0.29313087483E+03  0.50400001928E-02 0.  1.
        1   -1    0    0  501    0  0.00000000000E+00  0.00000000000E+00 -0.85126317035E+03  0.85126317037E+03  0.50400001928E-02 0. -1.
    10030    2    1    2    0    0  0.00000000000E+00  0.00000000000E+00 -0.55813229557E+03  0.11443940452E+04  0.99906259630E+03 0.  0.
        2    1    3    3  502    0 -0.32790006050E+03 -0.32782365273E+03 -0.49196520259E+03  0.67602999751E+03  0.25500000920E-02 0. -1.
       -2    1    3    3    0  502  0.32790006050E+03  0.32782365273E+03 -0.66167092979E+02  0.46836404769E+03  0.25500000920E-02 0.  1.
</event>
<event>
 5   0  0.5960102E-04  0.1000515E+04  0.7818609E-02  0.9307980E-01
        1   -1    0    0  501    0  0.00000000000E+00  0.00000000000E+00  0.23069526625E+03  0.23069526630E+03  0.50400001928E-02 0. -1.
       -1   -1    0    0    0  501  0.00000000000E+00  0.00000000000E+00 -0.10847973246E+04  0.10847973247E+04  0.50400001928E-02 0.  1.
    10030    2    1    2    0    0  0.00000000000E+00  0.00000000000E+00 -0.85410205839E+03  0.13154925910E+04  0.10005150827E+04 0.  0.
        5    1    3    3  502    0 -0.35604119965E+03 -0.29064041378E+03 -0.68670070275E+03  0.82632749629E+03  0.46999998093E+01 0.  1.
       -5    1    3    3    0  502  0.35604119965E+03  0.29064041378E+03 -0.16740135565E+03  0.48916509467E+03  0.46999998093E+01 0. -1.
</event>
<event>
 5   0  0.3854625E-04  0.1001697E+04  0.7818609E-02  0.9306685E-01
        3   -1    0    0  501    0  0.00000000000E+00  0.00000000000E+00  0.46255538446E+03  0.46255539549E+03  0.10100000352E+00 0. -1.
       -3   -1    0    0    0  501  0.00000000000E+00  0.00000000000E+00 -0.54231194308E+03  0.54231195248E+03  0.10100000352E+00 0.  1.
    10030    2    1    2    0    0  0.00000000000E+00  0.00000000000E+00 -0.79756558617E+02  0.10048673480E+04  0.10016971989E+04 0.  0.
        2    1    3    3  502    0  0.13744727478E+03  0.27999706549E+03  0.35322820643E+03  0.47123271942E+03  0.25500000920E-02 0. -1.
       -2    1    3    3    0  502 -0.13744727478E+03 -0.27999706549E+03 -0.43298476504E+03  0.53363462855E+03  0.25500000920E-02 0.  1.
</event>
<event>
 5   0  0.5758786E-04  0.1000926E+04  0.7818609E-02  0.9307529E-01
        1   -1    0    0  501    0  0.00000000000E+00  0.00000000000E+00  0.22764931950E+04  0.22764931950E+04  0.50400001928E-02 0. -1.
       -1   -1    0    0    0  501  0.00000000000E+00  0.00000000000E+00 -0.11002157500E+03  0.11002157512E+03  0.50400001928E-02 0.  1.
    10030    2    1    2    0    0  0.00000000000E+00  0.00000000000E+00  0.21664716200E+04  0.23865147702E+04  0.10009263049E+04 0.  0.
        3    1    3    3  502    0 -0.47297502702E+03 -0.13690979793E+03  0.86979462033E+03  0.99949605338E+03  0.10100000352E+00 0.  1.
       -3    1    3    3    0  502  0.47297502702E+03  0.13690979793E+03  0.12966769997E+04  0.13870187168E+04  0.10100000352E+00 0. -1.
</event>
<event>
 5   0  0.9674819E-04  0.9987842E+03  0.7818609E-02  0.9309879E-01
       -2   -1    0    0    0  501  0.00000000000E+00  0.00000000000E+00  0.20995742094E+03  0.20995742096E+03  0.25500000920E-02 0.  1.
        2   -1    0    0  501    0  0.00000000000E+00  0.00000000000E+00 -0.11878239722E+04  0.11878239722E+04  0.25500000920E-02 0. -1.
    10030    2    1    2    0    0  0.00000000000E+00  0.00000000000E+00 -0.97786655130E+03  0.13977813932E+04  0.99878417640E+03 0.  0.
        4    1    3    3  502    0 -0.32334100451E+03  0.21582566303E+03 -0.92762311840E+03  0.10057914221E+04  0.12699999809E+01 0. -1.
       -4    1    3    3    0  502  0.32334100451E+03 -0.21582566303E+03 -0.50243432905E+02  0.39198997113E+03  0.12699999809E+01 0.  1.
</event>
<event>
 5   0  0.5826939E-04  0.1000098E+04  0.7818609E-02  0.9308437E-01
        1   -1    0    0  501    0  0.00000000000E+00  0.00000000000E+00  0.16071801201E+04  0.16071801202E+04  0.50400001928E-02 0.  1.
       -1   -1    0    0    0  501  0.00000000000E+00  0.00000000000E+00 -0.15558254001E+03  0.15558254009E+03  0.50400001928E-02 0. -1.
    10030    2    1    2    0    0  0.00000000000E+00  0.00000000000E+00  0.14515975801E+04  0.17627626602E+04  0.10000983260E+04 0.  0.
        1    1    3    3  502    0 -0.45963739591E+02 -0.38864782402E+03  0.12744409856E+04  0.13331765158E+04  0.50400001928E-02 0.  1.
       -1    1    3    3    0  502  0.45963739591E+02  0.38864782402E+03  0.17715659451E+03  0.42958614442E+03  0.50400001928E-02 0. -1.
</event>
<event>
 5   0  0.1020150E-03  0.9960699E+03  0.7818609E-02  0.9312866E-01
        2   -1    0    0  501    0  0.00000000000E+00  0.00000000000E+00  0.34194504288E+03  0.34194504289E+03  0.25500000920E-02 0.  1.
       -2   -1    0    0    0  501  0.00000000000E+00  0.00000000000E+00 -0.72537619320E+03  0.72537619320E+03  0.25500000920E-02 0. -1.
    10030    2    1    2    0    0  0.00000000000E+00  0.00000000000E+00 -0.38343115032E+03  0.10673212361E+04  0.99606986400E+03 0.  0.
        5    1    3    3  502    0  0.47636816726E+03 -0.13808315361E+03 -0.14351905546E+03  0.51634619914E+03  0.46999998093E+01 0.  1.
       -5    1    3    3    0  502 -0.47636816726E+03  0.13808315361E+03 -0.23991209486E+03  0.55097503695E+03  0.46999998093E+01 0. -1.
</event>
<event>
 5   0  0.1020150E-03  0.9980641E+03  0.7818609E-02  0.9310671E-01
        2   -1    0    0  501    0  0.00000000000E+00  0.00000000000E+00  0.57855186323E+03  0.57855186324E+03  0.25500000920E-02 0.  1.
       -2   -1    0    0    0  501  0.00000000000E+00  0.00000000000E+00 -0.43044197485E+03  0.43044197486E+03  0.25500000920E-02 0. -1.
    10030    2    1    2    0    0  0.00000000000E+00  0.00000000000E+00  0.14810988839E+03  0.10089938381E+04  0.99806413936E+03 0.  0.
        5    1    3    3  502    0  0.13894523102E+02  0.35753289218E+02 -0.42892697162E+03  0.43066436170E+03  0.46999998093E+01 0. -1.
       -5    1    3    3    0  502 -0.13894523102E+02 -0.35753289218E+02  0.57703686000E+03  0.57832947639E+03  0.46999998093E+01 0.  1.
</event>
<event>
 5   0  0.1020150E-03  0.1000550E+04  0.7818609E-02  0.9307942E-01
       -2   -1    0    0    0  501  0.00000000000E+00  0.00000000000E+00  0.28877759438E+03  0.28877759439E+03  0.25500000920E-02 0.  1.
        2   -1    0    0  501    0  0.00000000000E+00  0.00000000000E+00 -0.86667033819E+03  0.86667033820E+03  0.25500000920E-02 0. -1.
    10030    2    1    2    0    0  0.00000000000E+00  0.00000000000E+00 -0.57789274382E+03  0.11554479326E+04  0.10005497996E+04 0.  0.
        5    1    3    3  502    0 -0.32427393686E+03  0.33545393357E+03 -0.49735719457E+03  0.68195982042E+03  0.46999998093E+01 0. -1.
       -5    1    3    3    0  502  0.32427393686E+03 -0.33545393357E+03 -0.80535549243E+02  0.47348811217E+03  0.46999998093E+01 0.  1.
</event>
<event>
 5   0  0.1006006E-03  0.9983703E+03  0.7818609E-02  0.9310334E-01
       -2   -1    0    0    0  501  0.00000000000E+00  0.00000000000E+00  0.17199962204E+03  0.17199962206E+03  0.25500000920E-02 0.  1.
        2   -1    0    0  501    0  0.00000000000E+00  0.00000000000E+00 -0.14487578699E+04  0.14487578699E+04  0.25500000920E-02 0. -1.
    10030    2    1    2    0    0  0.00000000000E+00  0.00000000000E+00 -0.12767582478E+04  0.16207574919E+04  0.99837028414E+03 0.  0.
        2    1    3    3  502    0 -0.60465830253E+02  0.38537467317E+03 -0.11440270002E+04  0.12087048989E+04  0.25500000920E-02 0. -1.
       -2    1    3    3    0  502  0.60465830253E+02 -0.38537467317E+03 -0.13273124763E+03  0.41205259306E+03  0.25500000920E-02 0.  1.
</event>
<event>
 5   0  0.5768102E-04  0.9996539E+03  0.7818609E-02  0.9308924E-01
       -1   -1    0    0    0  501  0.00000000000E+00  0.00000000000E+00  0.37871776300E+03  0.37871776303E+03  0.50400001928E-02 0. -1.
        1   -1    0    0  501    0  0.00000000000E+00  0.00000000000E+00 -0.65966531146E+03  0.65966531148E+03  0.50400001928E-02 0.  1.
    10030    2    1    2    0    0  0.00000000000E+00  0.00000000000E+00 -0.28094754847E+03  0.10383830745E+04  0.99965388232E+03 0.  0.
        4    1    3    3  502    0 -0.77458629242E+02 -0.46285326019E+03  0.38215251166E+02  0.47084498302E+03  0.12699999809E+01 0. -1.
       -4    1    3    3    0  502  0.77458629242E+02  0.46285326019E+03 -0.31916279963E+03  0.56753809148E+03  0.12699999809E+01 0.  1.
</event>
<event>
 5   0  0.1006749E-03  0.9989199E+03  0.7818609E-02  0.9309730E-01
        2   -1    0    0  501    0  0.00000000000E+00  0.00000000000E+00  0.15214598331E+04  0.15214598331E+04  0.25500000920E-02 0. -1.
       -2   -1    0    0    0  501  0.00000000000E+00  0.00000000000E+00 -0.16396110065E+03  0.16396110067E+03  0.25500000920E-02 0.  1.
    10030    2    1    2    0    0  0.00000000000E+00  0.00000000000E+00  0.13574987324E+04  0.16854209338E+04  0.99891987436E+03 0.  0.
        1    1    3    3  502    0  0.78285821915E+02 -0.47615412674E+03  0.46130560954E+03  0.66757343247E+03  0.50400001928E-02 0. -1.
       -1    1    3    3    0  502 -0.78285821915E+02  0.47615412674E+03  0.89619312289E+03  0.10178475013E+04  0.50400001928E-02 0.  1.
</event>
<event>
 5   0  0.1020150E-03  0.9993966E+03  0.7818609E-02  0.9309207E-01
        2   -1    0    0  501    0  0.00000000000E+00  0.00000000000E+00  0.12118921180E+04  0.12118921180E+04  0.25500000920E-02 0.  1.
       -2   -1    0    0    0  501  0.00000000000E+00  0.00000000000E+00 -0.20604012430E+03  0.20604012432E+03  0.25500000920E-02 0. -1.
    10030    2    1    2    0    0  0.00000000000E+00  0.00000000000E+00  0.10058519937E+04  0.14179322423E+04  0.99939662325E+03 0.  0.
        5    1    3    3  502    0 -0.12784956833E+03  0.18998084494E+03 -0.12717908527E+03  0.26198252479E+03  0.46999998093E+01 0. -1.
       -5    1    3    3    0  502  0.12784956833E+03 -0.18998084494E+03  0.11330310789E+04  0.11559497175E+04  0.46999998093E+01 0.  1.
</event>
<event>
 5   0  0.9674819E-04  0.9994799E+03  0.7818609E-02  0.9309115E-01
        2   -1    0    0  501    0  0.00000000000E+00  0.00000000000E+00  0.10903996464E+04  0.10903996464E+04  0.25500000920E-02 0. -1.
       -2   -1    0    0    0  501  0.00000000000E+00  0.00000000000E+00 -0.22903530782E+03  0.22903530783E+03  0.25500000920E-02 0.  1.
    10030    2    1    2    0    0  0.00000000000E+00  0.00000000000E+00  0.86136433854E+03  0.13194349542E+04  0.99947990207E+03 0.  0.
        4    1    3    3  502    0 -0.10523525712E+03  0.27935356425E+02 -0.21318478537E+03  0.23938297578E+03  0.12699999809E+01 0.  1.
       -4    1    3    3    0  502  0.10523525712E+03 -0.27935356425E+02  0.10745491239E+04  0.10800519784E+04  0.12699999809E+01 0. -1.
</event>
<event>
 5   0  0.9741826E-04  0.1017539E+04  0.7818609E-02  0.9289515E-01
        2   -1    0    0  501    0  0.00000000000E+00  0.00000000000E+00  0.14363456094E+04  0.14363456094E+04  0.25500000920E-02 0. -1.
       -2   -1    0    0    0  501  0.00000000000E+00  0.00000000000E+00 -0.18021169852E+03  0.18021169854E+03  0.25500000920E-02 0.  1.
    10030    2    1    2    0    0  0.00000000000E+00  0.00000000000E+00  0.12561339109E+04  0.16165573079E+04  0.10175387599E+04 0.  0.
        3    1    3    3  502    0  0.14449410340E+03 -0.11127593864E+03 -0.12649626015E+03  0.22195088301E+03  0.10100000352E+00 0.  1.
       -3    1    3    3    0  502 -0.14449410340E+03  0.11127593864E+03  0.13826301710E+04  0.13946064249E+04  0.10100000352E+00 0. -1.
</event>
<event>
 5   0  0.1020150E-03  0.9985377E+03  0.7818609E-02  0.9310150E-01
       -2   -1    0    0    0  501  0.00000000000E+00  0.00000000000E+00  0.20706203649E+03  0.20706203650E+03  0.25500000920E-02 0.  1.
        2   -1    0    0  501    0  0.00000000000E+00  0.00000000000E+00 -0.12038392383E+04  0.12038392383E+04  0.25500000920E-02 0. -1.
    10030    2    1    2    0    0  0.00000000000E+00  0.00000000000E+00 -0.99677720178E+03  0.14109012748E+04  0.99853773948E+03 0.  0.
        5    1    3    3  502    0 -0.84931284170E+02  0.29346022606E+03 -0.10563141030E+04  0.10996152971E+04  0.46999998093E+01 0. -1.
       -5    1    3    3    0  502  0.84931284170E+02 -0.29346022606E+03  0.59536901233E+02  0.31128597771E+03  0.46999998093E+01 0.  1.
</event>
<event>
 5   0  0.5768102E-04  0.1000008E+04  0.7818609E-02  0.9308535E-01
        1   -1    0    0  501    0  0.00000000000E+00  0.00000000000E+00  0.84938043647E+03  0.84938043648E+03  0.50400001928E-02 0.  1.
       -1   -1    0    0    0  501  0.00000000000E+00  0.00000000000E+00 -0.29433718554E+03  0.29433718559E+03  0.50400001928E-02 0. -1.
    10030    2    1    2    0    0  0.00000000000E+00  0.00000000000E+00  0.55504325092E+03  0.11437176221E+04  0.10000084943E+04 0.  0.
        4    1    3    3  502    0 -0.21452060963E+03 -0.30718864908E+02  0.79287581655E+03  0.82195888825E+03  0.12699999809E+01 0.  1.
       -4    1    3    3    0  502  0.21452060963E+03  0.30718864908E+02 -0.23783256562E+03  0.32175873382E+03  0.12699999809E+01 0. -1.
</event>
<event>
 5   0  0.5758786E-04  0.1000700E+04  0.7818609E-02  0.9307777E-01
       -1   -1    0    0    0  501  0.00000000000E+00  0.00000000000E+00  0.24261734762E+03  0.24261734767E+03  0.50400001928E-02 0.  1.
        1   -1    0    0  501    0  0.00000000000E+00  0.00000000000E+00 -0.10318726303E+04  0.10318726303E+04  0.50400001928E-02 0. -1.
    10030    2    1    2    0    0  0.00000000000E+00  0.00000000000E+00 -0.78925528272E+03  0.12744899780E+04  0.10007001563E+04 0.  0.
        3    1    3    3  502    0  0.23975474489E+03  0.27717160728E+03 -0.82848137572E+03  0.90591822903E+03  0.10100000352E+00 0. -1.
       -3    1    3    3    0  502 -0.23975474489E+03 -0.27717160728E+03  0.39226093003E+02  0.36857174898E+03  0.10100000352E+00 0.  1.
</event>
<event>
 5   0  0.5960102E-04  0.9988277E+03  0.7818609E-02  0.9309831E-01
       -1   -1    0    0    0  501  0.00000000000E+00  0.00000000000E+00  0.13096140532E+04  0.13096140532E+04  0.50400001928E-02 0.  1.
        1   -1    0    0  501    0  0.00000000000E+00  0.00000000000E+00 -0.19044862353E+03  0.19044862359E+03  0.50400001928E-02 0. -1.
    10030    2    1    2    0    0  0.00000000000E+00  0.00000000000E+00  0.11191654297E+04  0.15000626768E+04  0.99882770055E+03 0.  0.
        5    1    3    3  502    0  0.38127373605E+03  0.29406816120E+02  0.77224573497E+02  0.39015400470E+03  0.46999998093E+01 0. -1.
       -5    1    3    3    0  502 -0.38127373605E+03 -0.29406816120E+02  0.10419408562E+04  0.11099086721E+04  0.46999998093E+01 0.  1.
</event>
<event>
 5   0  0.1006749E-03  0.9996900E+03  0.7818609E-02  0.9308885E-01
       -2   -1    0    0    0  501  0.00000000000E+00  0.00000000000E+00  0.37343529361E+03  0.37343529362E+03  0.25500000920E-02 0.  1.
        2   -1    0    0  501    0  0.00000000000E+00  0.00000000000E+00 -0.66904501610E+03  0.66904501610E+03  0.25500000920E-02 0. -1.
    10030    2    1    2    0    0  0.00000000000E+00  0.00000000000E+00 -0.29560972249E+03  0.10424803097E+04  0.99968999601E+03 0.  0.
        1    1    3    3  502    0 -0.12954362224E+03 -0.42250163804E+03  0.95764764856E+02  0.45217261573E+03  0.50400001928E-02 0.  1.
       -1    1    3    3    0  502  0.12954362224E+03  0.42250163804E+03 -0.39137448735E+03  0.59030769398E+03  0.50400001928E-02 0. -1.
</event>
<event>
 5   0  0.1020150E-03  0.1000143E+04  0.7818609E-02  0.9308388E-01
        2   -1    0    0  501    0  0.00000000000E+00  0.00000000000E+00  0.17025462825E+04  0.17025462825E+04  0.25500000920E-02 0. -1.
       -2   -1    0    0    0  501  0.00000000000E+00  0.00000000000E+00 -0.14688094331E+03  0.14688094334E+03  0.25500000920E-02 0.  1.
    10030    2    1    2    0    0  0.00000000000E+00  0.00000000000E+00  0.15556653392E+04  0.18494272259E+04  0.10001431978E+04 0.  0.
        5    1    3    3  502    0  0.70648232236E+02  0.46349274637E+03  0.45630795816E+03  0.65425968952E+03  0.46999998093E+01 0.  1.
       -5    1    3    3    0  502 -0.70648232236E+02 -0.46349274637E+03  0.10993573811E+04  0.11951675363E+04  0.46999998093E+01 0. -1.
</event>
<event>
 5   0  0.5960102E-04  0.1004463E+04  0.7818609E-02  0.9303664E-01
       -1   -1    0    0    0  501  0.00000000000E+00  0.00000000000E+00  0.12974432579E+04  0.12974432579E+04  0.50400001928E-02 0. -1.
        1   -1    0    0  501    0  0.00000000000E+00  0.00000000000E+00 -0.19441023611E+03  0.19441023618E+03  0.50400001928E-02 0.  1.
    10030    2    1    2    0    0  0.00000000000E+00  0.00000000000E+00  0.11030330218E+04  0.14918534941E+04  0.10044625432E+04 0.  0.
        5    1    3    3  502    0 -0.38616408287E+03 -0.26216705070E+03  0.27620880505E+03  0.54237224796E+03  0.46999998093E+01 0.  1.
       -5    1    3    3    0  502  0.38616408287E+03  0.26216705070E+03  0.82682421672E+03  0.94948124611E+03  0.46999998093E+01 0. -1.
</event>
<event>
 5   0  0.5826939E-04  0.9958980E+03  0.7818609E-02  0.9313055E-01
       -1   -1    0    0    0  501  0.00000000000E+00  0.00000000000E+00  0.32525305625E+03  0.32525305629E+03  0.50400001928E-02 0. -1.
        1   -1    0    0  501    0  0.00000000000E+00  0.00000000000E+00 -0.76233929888E+03  0.76233929890E+03  0.50400001928E-02 0.  1.
    10030    2    1    2    0    0  0.00000000000E+00  0.00000000000E+00 -0.43708624264E+03  0.10875923552E+04  0.99589796041E+03 0.  0.
        1    1    3    3  502    0  0.40725003459E+03 -0.27576977703E+03 -0.30349781002E+03  0.57793812931E+03  0.50400001928E-02 0.  1.
       -1    1    3    3    0  502 -0.40725003459E+03  0.27576977703E+03 -0.13358843262E+03  0.50965422588E+03  0.50400001928E-02 0. -1.
</event>
<event>
 5   0  0.9674819E-04  0.1000769E+04  0.7818609E-02  0.9307702E-01
       -2   -1    0    0    0  501  0.00000000000E+00  0.00000000000E+00  0.15309556035E+03  0.15309556037E+03  0.25500000920E-02 0. -1.
        2   -1    0    0  501    0  0.00000000000E+00  0.00000000000E+00 -0.16354799015E+04  0.16354799015E+04  0.25500000920E-02 0.  1.
    10030    2    1    2    0    0  0.00000000000E+00  0.00000000000E+00 -0.14823843411E+04  0.17885754618E+04  0.10007691282E+04 0.  0.
        4    1    3    3  502    0  0.41154666922E+03  0.19517216281E+03 -0.11114502685E+04  0.12011603333E+04  0.12699999809E+01 0.  1.
       -4    1    3    3    0  502 -0.41154666922E+03 -0.19517216281E+03 -0.37093407257E+03  0.58741512848E+03  0.12699999809E+01 0. -1.
</event>
<event>
 5   0  0.5826939E-04  0.1002220E+04  0.7818609E-02  0.9306113E-01
       -1   -1    0    0    0  501  0.00000000000E+00  0.00000000000E+00  0.56438740642E+03  0.56438740644E+03  0.50400001928E-02 0.  1.
        1   -1    0    0  501    0  0.00000000000E+00  0.00000000000E+00 -0.44492740238E+03  0.44492740241E+03  0.50400001928E-02 0. -1.
    10030    2    1    2    0    0  0.00000000000E+00  0.00000000000E+00  0.11946000403E+03  0.10093148089E+04  0.10022203804E+04 0.  0.
        1    1    3    3  502    0  0.28710543586E+03 -0.23409876471E+03 -0.28011938882E+03  0.46443367121E+03  0.50400001928E-02 0. -1.
       -1    1    3    3    0  502 -0.28710543586E+03  0.23409876471E+03  0.39957939285E+03  0.54488113764E+03  0.50400001928E-02 0.  1.
</event>
<event>
 5   0  0.9674819E-04  0.1000145E+04  0.7818609E-02  0.9308386E-01
       -2   -1    0    0    0  501  0.00000000000E+00  0.00000000000E+00  0.40476601186E+03  0.40476601187E+03  0.25500000920E-02 0.  1.
        2   -1    0    0  501    0  0.00000000000E+00  0.00000000000E+00 -0.61781936414E+03  0.61781936414E+03  0.25500000920E-02 0. -1.
    10030    2    1    2    0    0  0.00000000000E+00  0.00000000000E+00 -0.21305335227E+03  0.10225853760E+04  0.10001445497E+04 0.  0.
        4    1    3    3  502    0 -0.30664130666E+02 -0.40744685110E+03  0.18824305749E+03  0.44987808012E+03  0.12699999809E+01 0.  1.
       -4    1    3    3    0  502  0.30664130666E+02  0.40744685110E+03 -0.40129640976E+03  0.57270729589E+03  0.12699999809E+01 0. -1.
</event>
<event>
 5   0  0.1006749E-03  0.1002429E+04  0.7818609E-02  0.9305885E-01
       -2   -1    0    0    0  501  0.00000000000E+00  0.00000000000E+00  0.34535149900E+03  0.34535149901E+03  0.25500000920E-02 0. -1.
        2   -1    0    0  501    0  0.00000000000E+00  0.00000000000E+00 -0.72742092785E+03  0.72742092786E+03  0.25500000920E-02 0.  1.
    10030    2    1    2    0    0  0.00000000000E+00  0.00000000000E+00 -0.38206942885E+03  0.10727724269E+04  0.10024288660E+04 0.  0.
        1    1    3    3  502    0  0.34120260032E+03  0.16456070204E+03  0.16019810671E+03  0.41129414357E+03  0.50400001928E-02 0. -1.
       -1    1    3    3    0  502 -0.34120260032E+03 -0.16456070204E+03 -0.54226753556E+03  0.66147828329E+03  0.50400001928E-02 0.  1.
</event>
<event>
 5   0  0.3854625E-04  0.1000407E+04  0.7818609E-02  0.9308099E-01
        4   -1    0    0  501    0  0.00000000000E+00  0.00000000000E+00  0.25437026493E+03  0.25437343529E+03  0.12699999809E+01 0. -1.
       -4   -1    0    0    0  501  0.00000000000E+00  0.00000000000E+00 -0.98360959355E+03  0.98361041344E+03  0.12699999809E+01 0.  1.
    10030    2    1    2    0    0  0.00000000000E+00  0.00000000000E+00 -0.72923932863E+03  0.12379838487E+04  0.10004069229E+04 0.  0.
        4    1    3    3  502    0  0.21702487072E+03 -0.45064082382E+03 -0.35843928045E+03  0.61535134457E+03  0.12699999809E+01 0.  1.
       -4    1    3    3    0  502 -0.21702487072E+03  0.45064082382E+03 -0.37080004818E+03  0.62263250416E+03  0.12699999809E+01 0. -1.
</event>
<event>
 5   0  0.5826939E-04  0.9976782E+03  0.7818609E-02  0.9311095E-01
       -1   -1    0    0    0  501  0.00000000000E+00  0.00000000000E+00  0.14478918563E+03  0.14478918572E+03  0.50400001928E-02 0. -1.
        1   -1    0    0  501    0  0.00000000000E+00  0.00000000000E+00 -0.17186396401E+04  0.17186396401E+04  0.50400001928E-02 0.  1.
    10030    2    1    2    0    0  0.00000000000E+00  0.00000000000E+00 -0.15738504544E+04  0.18634288258E+04  0.99767817248E+03 0.  0.
        1    1    3    3  502    0  0.48343187363E+03  0.43455469332E+02 -0.10018861228E+04  0.11132702086E+04  0.50400001928E-02 0.  1.
       -1    1    3    3    0  502 -0.48343187363E+03 -0.43455469332E+02 -0.57196433162E+03  0.75015861718E+03  0.50400001928E-02 0. -1.
</event>
<event>
 5   0  0.3854625E-04  0.9984823E+03  0.7818609E-02  0.9310211E-01
       -3   -1    0    0    0  501  0.00000000000E+00  0.00000000000E+00  0.27976996915E+03  0.27976998738E+03  0.10100000352E+00 0. -1.
        3   -1    0    0  501    0  0.00000000000E+00  0.00000000000E+00 -0.89088091623E+03  0.89088092195E+03  0.10100000352E+00 0.  1.
    10030    2    1    2    0    0  0.00000000000E+00  0.00000000000E+00 -0.61111094708E+03  0.11706509093E+04  0.99848232928E+03 0.  0.
        2    1    3    3  502    0 -0.14068826284E+00  0.34559881778E+03  0.11685014473E+03  0.36481847400E+03  0.25500000920E-02 0. -1.
       -2    1    3    3    0  502  0.14068826284E+00 -0.34559881778E+03 -0.72796109181E+03  0.80583243533E+03  0.25500000920E-02 0.  1.
</event>
<event>
 5   0  0.9674819E-04  0.9994319E+03  0.7818609E-02  0.9309168E-01
       -2   -1    0    0    0  501  0.00000000000E+00  0.00000000000E+00  0.21624301000E+03  0.21624301001E+03  0.25500000920E-02 0. -1.
        2   -1    0    0  501    0  0.00000000000E+00  0.00000000000E+00 -0.11547935250E+04  0.11547935250E+04  0.25500000920E-02 0.  1.
    10030    2    1    2    0    0  0.00000000000E+00  0.00000000000E+00 -0.93855051496E+03  0.13710365350E+04  0.99943189418E+03 0.  0.
        4    1    3    3  502    0  0.32886136161E+03  0.30038007869E+03 -0.15845547876E+03  0.47274489790E+03  0.12699999809E+01 0. -1.
       -4    1    3    3    0  502 -0.32886136161E+03 -0.30038007869E+03 -0.78009503620E+03  0.89829163708E+03  0.12699999809E+01 0.  1.
</event>
<event>
 5   0  0.5768102E-04  0.1000106E+04  0.7818609E-02  0.9308428E-01
       -1   -1    0    0    0  501  0.00000000000E+00  0.00000000000E+00  0.24342977217E+03  0.24342977222E+03  0.50400001928E-02 0.  1.
        1   -1    0    0  501    0  0.00000000000E+00  0.00000000000E+00 -0.10272088288E+04  0.10272088288E+04  0.50400001928E-02 0. -1.
    10030    2    1    2    0    0  0.00000000000E+00  0.00000000000E+00 -0.78377905662E+03  0.12706386010E+04  0.10001064167E+04 0.  0.
        4    1    3    3  502    0 -0.15518766683E+03  0.32087300186E+03 -0.83748842187E+03  0.91018194056E+03  0.12699999809E+01 0. -1.
       -4    1    3    3    0  502  0.15518766683E+03 -0.32087300186E+03  0.53709365250E+02  0.36045666047E+03  0.12699999809E+01 0.  1.
</event>
<event>
 5   0  0.9674819E-04  0.1000197E+04  0.7818609E-02  0.9308329E-01
       -2   -1    0    0    0  501  0.00000000000E+00  0.00000000000E+00  0.18315297587E+03  0.18315297589E+03  0.25500000920E-02 0. -1.
        2   -1    0    0  501    0  0.00000000000E+00  0.00000000000E+00 -0.13655158283E+04  0.13655158283E+04  0.25500000920E-02 0.  1.
    10030    2    1    2    0    0  0.00000000000E+00  0.00000000000E+00 -0.11823628524E+04  0.15486688042E+04  0.10001965558E+04 0.  0.
        4    1    3    3  502    0 -0.35273244577E+03 -0.15164220091E+03 -0.95025098192E+02  0.39553371232E+03  0.12699999809E+01 0. -1.
       -4    1    3    3    0  502  0.35273244577E+03  0.15164220091E+03 -0.10873377542E+04  0.11531350918E+04  0.12699999809E+01 0.  1.
</event>
<event>
 5   0  0.5888774E-04  0.1024030E+04  0.7818609E-02  0.9282575E-01
        1   -1    0    0  501    0  0.00000000000E+00  0.00000000000E+00  0.45869968013E+03  0.45869968016E+03  0.50400001928E-02 0.  1.
       -1   -1    0    0    0  501  0.00000000000E+00  0.00000000000E+00 -0.57152752332E+03  0.57152752335E+03  0.50400001928E-02 0. -1.
    10030    2    1    2    0    0  0.00000000000E+00  0.00000000000E+00 -0.11282784319E+03  0.10302272035E+04  0.10240302577E+04 0.  0.
        2    1    3    3  502    0 -0.33325742682E+03 -0.18746466898E+03  0.28616985674E+03  0.47759470428E+03  0.25500000920E-02 0.  1.
       -2    1    3    3    0  502  0.33325742682E+03  0.18746466898E+03 -0.39899769993E+03  0.55263249923E+03  0.25500000920E-02 0. -1.
</event>
<event>
 5   0  0.1006749E-03  0.9986701E+03  0.7818609E-02  0.9310005E-01
        2   -1    0    0  501    0  0.00000000000E+00  0.00000000000E+00  0.10212227983E+04  0.10212227983E+04  0.25500000920E-02 0.  1.
       -2   -1    0    0    0  501  0.00000000000E+00  0.00000000000E+00 -0.24415386351E+03  0.24415386353E+03  0.25500000920E-02 0. -1.
    10030    2    1    2    0    0  0.00000000000E+00  0.00000000000E+00  0.77706893477E+03  0.12653766618E+04  0.99867009912E+03 0.  0.
        1    1    3    3  502    0 -0.18307083631E+03 -0.35964780689E+03  0.15936409744E+02  0.40387553193E+03  0.50400001928E-02 0. -1.
       -1    1    3    3    0  502  0.18307083631E+03  0.35964780689E+03  0.76113252503E+03  0.86150112988E+03  0.50400001928E-02 0.  1.
</event>
<event>
 5   0  0.5826939E-04  0.9997295E+03  0.7818609E-02  0.9308841E-01
        1   -1    0    0  501    0  0.00000000000E+00  0.00000000000E+00  0.73094850392E+03  0.73094850393E+03  0.50400001928E-02 0.  1.
       -1   -1    0    0    0  501  0.00000000000E+00  0.00000000000E+00 -0.34183638288E+03  0.34183638292E+03  0.50400001928E-02 0. -1.
    10030    2    1    2    0    0  0.00000000000E+00  0.00000000000E+00  0.38911212103E+03  0.10727848869E+04  0.99972954879E+03 0.  0.
        1    1    3    3  502    0  0.15395566737E+03 -0.44450440543E+02 -0.31352727008E+03  0.35210444230E+03  0.50400001928E-02 0. -1.
       -1    1    3    3    0  502 -0.15395566737E+03  0.44450440543E+02  0.70263939112E+03  0.72068044455E+03  0.50400001928E-02 0.  1.
</event>
<event>
 5   0  0.5826939E-04  0.1000058E+04  0.7818609E-02  0.9308482E-01
        1   -1    0    0  501    0  0.00000000000E+00  0.00000000000E+00  0.66760538582E+03  0.66760538584E+03  0.50400001928E-02 0.  1.
       -1   -1    0    0    0  501  0.00000000000E+00  0.00000000000E+00 -0.37451581651E+03  0.37451581654E+03  0.50400001928E-02 0. -1.
    10030    2    1    2    0    0  0.00000000000E+00  0.00000000000E+00  0.29308956932E+03  0.10421212024E+04  0.10000575508E+04 0.  0.
        1    1    3    3  502    0 -0.18284688393E+01 -0.26528653051E+03 -0.29513245887E+03  0.39684185122E+03  0.50400001928E-02 0. -1.
       -1    1    3    3    0  502  0.18284688393E+01  0.26528653051E+03  0.58822202819E+03  0.64527935117E+03  0.50400001928E-02 0.  1.
</event>
<event>
 5   0  0.5758786E-04  0.9998319E+03  0.7818609E-02  0.9308729E-01
       -1   -1    0    0    0  501  0.00000000000E+00  0.00000000000E+00  0.17149630138E+03  0.17149630145E+03  0.50400001928E-02 0. -1.
        1   -1    0    0  501    0  0.00000000000E+00  0.00000000000E+00 -0.14572673054E+04  0.14572673054E+04  0.50400001928E-02 0.  1.
    10030    2    1    2    0    0  0.00000000000E+00  0.00000000000E+00 -0.12857710040E+04  0.16287636069E+04  0.99983189199E+03 0.  0.
        3    1    3    3  502    0  0.37925385243E+03 -0.25886022520E+03 -0.32087196452E+03  0.56017937180E+03  0.10100000352E+00 0. -1.
       -3    1    3    3    0  502 -0.37925385243E+03  0.25886022520E+03 -0.96489903950E+03  0.10685842351E+04  0.10100000352E+00 0.  1.
</event>
<event>
 5   0  0.9741826E-04  0.1000353E+04  0.7818609E-02  0.9308158E-01
        2   -1    0    0  501    0  0.00000000000E+00  0.00000000000E+00  0.21112678909E+04  0.21112678909E+04  0.25500000920E-02 0. -1.
       -2   -1    0    0    0  501  0.00000000000E+00  0.00000000000E+00 -0.11849580269E+03  0.11849580271E+03  0.25500000920E-02 0.  1.
    10030    2    1    2    0    0  0.00000000000E+00  0.00000000000E+00  0.19927720882E+04  0.22297636936E+04  0.10003527047E+04 0.  0.
        3    1    3    3  502    0  0.47826102052E+03 -0.12133782110E+02  0.67111153803E+03  0.82417931247E+03  0.10100000352E+00 0.  1.
       -3    1    3    3    0  502 -0.47826102052E+03  0.12133782110E+02  0.13216605502E+04  0.14055843811E+04  0.10100000352E+00 0. -1.
</event>
<event>
 5   0  0.1006006E-03  0.1001547E+04  0.7818609E-02  0.9306850E-01
       -2   -1    0    0    0  501  0.00000000000E+00  0.00000000000E+00  0.36639361150E+03  0.36639361151E+03  0.25500000920E-02 0. -1.
        2   -1    0    0  501    0  0.00000000000E+00  0.00000000000E+00 -0.68443863485E+03  0.68443863486E+03  0.25500000920E-02 0.  1.
    10030    2    1    2    0    0  0.00000000000E+00  0.00000000000E+00 -0.31804502336E+03  0.10508322464E+04  0.10015466904E+04 0.  0.
        2    1    3    3  502    0  0.28974239675E+03 -0.17894176708E+03  0.22620046298E+03  0.40882448794E+03  0.25500000920E-02 0. -1.
       -2    1    3    3    0  502 -0.28974239675E+03  0.17894176708E+03 -0.54424548633E+03  0.64200775843E+03  0.25500000920E-02 0.  1.
</event>
<event>
 5   0  0.5888774E-04  0.9998027E+03  0.7818609E-02  0.9308761E-01
        1   -1    0    0  501    0  0.00000000000E+00  0.00000000000E+00  0.37237875493E+03  0.37237875497E+03  0.50400001928E-02 0. -1.
       -1   -1    0    0    0  501  0.00000000000E+00  0.00000000000E+00 -0.67109456735E+03  0.67109456737E+03  0.50400001928E-02 0.  1.
    10030    2    1    2    0    0  0.00000000000E+00  0.00000000000E+00 -0.29871581242E+03  0.10434733223E+04  0.99980269946E+03 0.  0.
        2    1    3    3  502    0  0.26337967746E+03  0.15808707996E+03  0.26225545227E+03  0.40390382717E+03  0.25500000920E-02 0. -1.
       -2    1    3    3    0  502 -0.26337967746E+03 -0.15808707996E+03 -0.56097126469E+03  0.63956949518E+03  0.25500000920E-02 0.  1.
</event>
<event>
 5   0  0.1006749E-03  0.1001551E+04  0.7818609E-02  0.9306846E-01
       -2   -1    0    0    0  501  0.00000000000E+00  0.00000000000E+00  0.19271498398E+03  0.19271498399E+03  0.25500000920E-02 0.  1.
        2   -1    0    0  501    0  0.00000000000E+00  0.00000000000E+00 -0.13012788139E+04  0.13012788139E+04  0.25500000920E-02 0. -1.
    10030    2    1    2    0    0  0.00000000000E+00  0.00000000000E+00 -0.11085638299E+04  0.14939937979E+04  0.10015506493E+04 0.  0.
        1    1    3    3  502    0  0.26851598913E+03 -0.22455095230E+02 -0.11839246743E+04  0.12142004374E+04  0.50400001928E-02 0. -1.
       -1    1    3    3    0  502 -0.26851598913E+03  0.22455095230E+02  0.75360844334E+02  0.27979336055E+03  0.50400001928E-02 0.  1.
</event>
<event>
 5   0  0.1020150E-03  0.1001189E+04  0.7818609E-02  0.9307241E-01
        2   -1    0    0  501    0  0.00000000000E+00  0.00000000000E+00  0.15103695614E+04  0.15103695614E+04  0.25500000920E-02 0. -1.
       -2   -1    0    0    0  501  0.00000000000E+00  0.00000000000E+00 -0.16591637672E+03  0.16591637674E+03  0.25500000920E-02 0.  1.
    10030    2    1    2    0    0  0.00000000000E+00  0.00000000000E+00  0.13444531847E+04  0.16762859382E+04  0.10011893830E+04 0.  0.
        5    1    3    3  502    0 -0.17227591524E+03  0.58770360129E+02  0.14529578998E+04  0.14643229476E+04  0.46999998093E+01 0. -1.
       -5    1    3    3    0  502  0.17227591524E+03 -0.58770360129E+02 -0.10850471507E+03  0.21196299062E+03  0.46999998093E+01 0.  1.
</event>
<event>
 5   0  0.5768102E-04  0.9983349E+03  0.7818609E-02  0.9310373E-01
        1   -1    0    0  501    0  0.00000000000E+00  0.00000000000E+00  0.59733086191E+03  0.59733086193E+03  0.50400001928E-02 0.  1.
       -1   -1    0    0    0  501  0.00000000000E+00  0.00000000000E+00 -0.41713592267E+03  0.41713592270E+03  0.50400001928E-02 0. -1.
    10030    2    1    2    0    0  0.00000000000E+00  0.00000000000E+00  0.18019493924E+03  0.10144667846E+04  0.99833493428E+03 0.  0.
        4    1    3    3  502    0  0.28381671534E+03  0.30073995700E+03  0.37420444133E+03  0.55769797064E+03  0.12699999809E+01 0.  1.
       -4    1    3    3    0  502 -0.28381671534E+03 -0.30073995700E+03 -0.19400950210E+03  0.45676881400E+03  0.12699999809E+01 0. -1.
</event>
<event>
 5   0  0.1006749E-03  0.1000376E+04  0.7818609E-02  0.9308133E-01
        2   -1    0    0  501    0  0.00000000000E+00  0.00000000000E+00  0.26824642345E+03  0.26824642346E+03  0.25500000920E-02 0. -1.
       -2   -1    0    0    0  501  0.00000000000E+00  0.00000000000E+00 -0.93267960027E+03  0.93267960027E+03  0.25500000920E-02 0.  1.
    10030    2    1    2    0    0  0.00000000000E+00  0.00000000000E+00 -0.66443317682E+03  0.12009260237E+04  0.10003758634E+04 0.  0.
        1    1    3    3  502    0  0.21613696720E+03 -0.23642451508E+03  0.12895362915E+03  0.34531258074E+03  0.50400001928E-02 0. -1.
       -1    1    3    3    0  502 -0.21613696720E+03  0.23642451508E+03 -0.79338680597E+03  0.85561344299E+03  0.50400001928E-02 0.  1.
</event>
<event>
 5   0  0.5826939E-04  0.1000548E+04  0.7818609E-02  0.9307944E-01
       -1   -1    0    0    0  501  0.00000000000E+00  0.00000000000E+00  0.64714349499E+03  0.64714349501E+03  0.50400001928E-02 0. -1.
        1   -1    0    0  501    0  0.00000000000E+00  0.00000000000E+00 -0.38673673730E+03  0.38673673733E+03  0.50400001928E-02 0.  1.
    10030    2    1    2    0    0  0.00000000000E+00  0.00000000000E+00  0.26040675769E+03  0.10338802323E+04  0.10005481774E+04 0.  0.
        1    1    3    3  502    0 -0.55943338398E+02 -0.48583659410E+03  0.21301171228E+02  0.48951056495E+03  0.50400001928E-02 0.  1.
       -1    1    3    3    0  502  0.55943338398E+02  0.48583659410E+03  0.23910558646E+03  0.54436966739E+03  0.50400001928E-02 0. -1.
</event>
<event>
 5   0  0.1006749E-03  0.9973546E+03  0.7818609E-02  0.9311451E-01
       -2   -1    0    0    0  501  0.00000000000E+00  0.00000000000E+00  0.34592490137E+03  0.34592490138E+03  0.25500000920E-02 0. -1.
        2   -1    0    0  501    0  0.00000000000E+00  0.00000000000E+00 -0.71888159826E+03  0.71888159827E+03  0.25500000920E-02 0.  1.
    10030    2    1    2    0    0  0.00000000000E+00  0.00000000000E+00 -0.37295669689E+03  0.10648064996E+04  0.99735459288E+03 0.  0.
        1    1    3    3  502    0 -0.27406202204E+03  0.19730566549E+03 -0.57822689366E+03  0.66961620211E+03  0.50400001928E-02 0.  1.
       -1    1    3    3    0  502  0.27406202204E+03 -0.19730566549E+03  0.20527019677E+03  0.39519029753E+03  0.50400001928E-02 0. -1.
</event>
<event>
 5   0  0.5768102E-04  0.9999025E+03  0.7818609E-02  0.9308652E-01
       -1   -1    0    0    0  501  0.00000000000E+00  0.00000000000E+00  0.35729971323E+03  0.35729971326E+03  0.50400001928E-02 0. -1.
        1   -1    0    0  501    0  0.00000000000E+00  0.00000000000E+00 -0.69955630043E+03  0.69955630045E+03  0.50400001928E-02 0.  1.
    10030    2    1    2    0    0  0.00000000000E+00  0.00000000000E+00 -0.34225658720E+03  0.10568560137E+04  0.99990252636E+03 0.  0.
        4    1    3    3  502    0  0.17218374269E+03 -0.20985384830E+02  0.32447395614E+03  0.36793014110E+03  0.12699999809E+01 0. -1.
       -4    1    3    3    0  502 -0.17218374269E+03  0.20985384830E+02 -0.66673054334E+03  0.68892587261E+03  0.12699999809E+01 0.  1.
</event>
<event>
 5   0  0.1006006E-03  0.1011158E+04  0.7818609E-02  0.9296391E-01
       -2   -1    0    0    0  501  0.00000000000E+00  0.00000000000E+00  0.16268832832E+03  0.16268832834E+03  0.25500000920E-02 0.  1.
        2   -1    0    0  501    0  0.00000000000E+00  0.00000000000E+00 -0.15711649862E+04  0.15711649862E+04  0.25500000920E-02 0. -1.
    10030    2    1    2    0    0  0.00000000000E+00  0.00000000000E+00 -0.14084766578E+04  0.17338533145E+04  0.10111581580E+04 0.  0.
        2    1    3    3  502    0 -0.48520300973E+03 -0.10637451512E+03 -0.86575647954E+03  0.99813414930E+03  0.25500000920E-02 0. -1.
       -2    1    3    3    0  502  0.48520300973E+03  0.10637451512E+03 -0.54272017829E+03  0.73571916521E+03  0.25500000920E-02 0.  1.
</event>
<event>
 5   0  0.1006006E-03  0.9992297E+03  0.7818609E-02  0.9309390E-01
       -2   -1    0    0    0  501  0.00000000000E+00  0.00000000000E+00  0.30609114460E+03  0.30609114461E+03  0.25500000920E-02 0.  1.
        2   -1    0    0  501    0  0.00000000000E+00  0.00000000000E+00 -0.81549235393E+03  0.81549235393E+03  0.25500000920E-02 0. -1.
    10030    2    1    2    0    0  0.00000000000E+00  0.00000000000E+00 -0.50940120933E+03  0.11215834985E+04  0.99922967937E+03 0.  0.
        2    1    3    3  502    0 -0.39397132015E+03 -0.23210437855E+03 -0.28731011523E+02  0.45816079565E+03  0.25500000920E-02 0.  1.
       -2    1    3    3    0  502  0.39397132015E+03  0.23210437855E+03 -0.48067019781E+03  0.66342270289E+03  0.25500000920E-02 0. -1.
</event>
<event>
 5   0  0.5768102E-04  0.1000840E+04  0.7818609E-02  0.9307624E-01
        1   -1    0    0  501    0  0.00000000000E+00  0.00000000000E+00  0.13916709339E+04  0.13916709339E+04  0.50400001928E-02 0.  1.
       -1   -1    0    0    0  501  0.00000000000E+00  0.00000000000E+00 -0.17994219370E+03  0.17994219377E+03  0.50400001928E-02 0. -1.
    10030    2    1    2    0    0  0.00000000000E+00  0.00000000000E+00  0.12117287402E+04  0.15716131277E+04  0.10008402886E+04 0.  0.
        4    1    3    3  502    0  0.31484550547E+03 -0.10919296041E+03  0.19642162397E+02  0.33382363961E+03  0.12699999809E+01 0. -1.
       -4    1    3    3    0  502 -0.31484550547E+03  0.10919296041E+03  0.11920865778E+04  0.12377894881E+04  0.12699999809E+01 0.  1.
</event>
<event>
 5   0  0.5960102E-04  0.1015586E+04  0.7818609E-02  0.9291614E-01
        1   -1    0    0  501    0  0.00000000000E+00  0.00000000000E+00  0.11629730104E+04  0.11629730104E+04  0.50400001928E-02 0.  1.
       -1   -1    0    0    0  501  0.00000000000E+00  0.00000000000E+00 -0.22171937112E+03  0.22171937118E+03  0.50400001928E-02 0. -1.
    10030    2    1    2    0    0  0.00000000000E+00  0.00000000000E+00  0.94125363929E+03  0.13846923816E+04  0.10155858300E+04 0.  0.
        5    1    3    3  502    0 -0.46184197255E+03  0.16867971110E+03  0.64352450209E+03  0.80987451332E+03  0.46999998093E+01 0.  1.
       -5    1    3    3    0  502  0.46184197255E+03 -0.16867971110E+03  0.29772913720E+03  0.57481786827E+03  0.46999998093E+01 0. -1.
</event>
<event>
 5   0  0.3854625E-04  0.1000568E+04  0.7818609E-02  0.9307922E-01
        4   -1    0    0  501    0  0.00000000000E+00  0.00000000000E+00  0.49146044568E+03  0.49146208660E+03  0.12699999809E+01 0. -1.
       -4   -1    0    0    0  501  0.00000000000E+00  0.00000000000E+00 -0.50926246597E+03  0.50926404954E+03  0.12699999809E+01 0.  1.
    10030    2    1    2    0    0  0.00000000000E+00  0.00000000000E+00 -0.17802020296E+02  0.10007261361E+04  0.10005677826E+04 0.  0.
        5    1    3    3  502    0  0.14968366036E+03  0.38753803335E+03  0.26983819298E+03  0.49540454768E+03  0.46999998093E+01 0. -1.
       -5    1    3    3    0  502 -0.14968366036E+03 -0.38753803335E+03 -0.28764021328E+03  0.50532158846E+03  0.46999998093E+01 0.  1.
</event>
<event>
 5   0  0.9741826E-04  0.1001199E+04  0.7818609E-02  0.9307231E-01
        2   -1    0    0  501    0  0.00000000000E+00  0.00000000000E+00  0.93782821687E+03  0.93782821687E+03  0.25500000920E-02 0. -1.
       -2   -1    0    0    0  501  0.00000000000E+00  0.00000000000E+00 -0.26721295759E+03  0.26721295760E+03  0.25500000920E-02 0.  1.
    10030    2    1    2    0    0  0.00000000000E+00  0.00000000000E+00  0.67061525928E+03  0.12050411745E+04  0.10011989843E+04 0.  0.
        3    1    3    3  502    0  0.47155547344E+03 -0.61617960045E+02  0.52346394203E+03  0.70723111240E+03  0.10100000352E+00 0. -1.
       -3    1    3    3    0  502 -0.47155547344E+03  0.61617960045E+02  0.14715131725E+03  0.49781006207E+03  0.10100000352E+00 0.  1.
</event>
<event>
 5   0  0.5888774E-04  0.9973772E+03  0.7818609E-02  0.9311426E-01
        1   -1    0    0  501    0  0.00000000000E+00  0.00000000000E+00  0.67696201360E+03  0.67696201362E+03  0.50400001928E-02 0. -1.
       -1   -1    0    0    0  501  0.00000000000E+00  0.00000000000E+00 -0.36736232424E+03  0.36736232428E+03  0.50400001928E-02 0.  1.
    10030    2    1    2    0    0  0.00000000000E+00  0.00000000000E+00  0.30959968936E+03  0.10443243379E+04  0.99737723809E+03 0.  0.
        2    1    3    3  502    0  0.22132831141E+03 -0.43956000440E+03  0.70440002046E+02  0.49715290686E+03  0.25500000920E-02 0.  1.
       -2    1    3    3    0  502 -0.22132831141E+03  0.43956000440E+03  0.23915968731E+03  0.54717143104E+03  0.25500000920E-02 0. -1.
</event>
<event>
 5   0  0.5826939E-04  0.9962202E+03  0.7818609E-02  0.9312700E-01
        1   -1    0    0  501    0  0.00000000000E+00  0.00000000000E+00  0.46564493884E+03  0.46564493887E+03  0.50400001928E-02 0. -1.
       -1   -1    0    0    0  501  0.00000000000E+00  0.00000000000E+00 -0.53283872326E+03  0.53283872328E+03  0.50400001928E-02 0.  1.
    10030    2    1    2    0    0  0.00000000000E+00  0.00000000000E+00 -0.67193784416E+02  0.99848366215E+03  0.99622016589E+03 0.  0.
        1    1    3    3  502    0 -0.27066805167E+03 -0.37913053877E+03 -0.21038500301E+03  0.51113893331E+03  0.50400001928E-02 0. -1.
       -1    1    3    3    0  502  0.27066805167E+03  0.37913053877E+03  0.14319121860E+03  0.48734472884E+03  0.50400001928E-02 0.  1.
</event>
<event>
 5   0  0.1006749E-03  0.9958480E+03  0.7818609E-02  0.9313110E-01
        2   -1    0    0  501    0  0.00000000000E+00  0.00000000000E+00  0.10585225258E+04  0.10585225258E+04  0.25500000920E-02 0.  1.
       -2   -1    0    0    0  501  0.00000000000E+00  0.00000000000E+00 -0.23422111426E+03  0.23422111427E+03  0.25500000920E-02 0. -1.
    10030    2    1    2    0    0  0.00000000000E+00  0.00000000000E+00  0.82430141156E+03  0.12927436401E+04  0.99584803153E+03 0.  0.
        1    1    3    3  502    0 -0.19609534039E+03  0.43724277293E+03  0.58772871574E+03  0.75832688752E+03  0.50400001928E-02 0. -1.
       -1    1    3    3    0  502  0.19609534039E+03 -0.43724277293E+03  0.23657269582E+03  0.53441675257E+03  0.50400001928E-02 0.  1.
</event>
<event>
 5   0  0.5960102E-04  0.1000608E+04  0.7818609E-02  0.9307878E-01
       -1   -1    0    0    0  501  0.00000000000E+00  0.00000000000E+00  0.32630186713E+03  0.32630186717E+03  0.50400001928E-02 0.  1.
        1   -1    0    0  501    0  0.00000000000E+00  0.00000000000E+00 -0.76709410335E+03  0.76709410336E+03  0.50400001928E-02 0. -1.
    10030    2    1    2    0    0  0.00000000000E+00  0.00000000000E+00 -0.44079223622E+03  0.10933959705E+04  0.10006082914E+04 0.  0.
        5    1    3    3  502    0 -0.32548359253E+03  0.26810938377E+03  0.73749477214E+02  0.42811597268E+03  0.46999998093E+01 0.  1.
       -5    1    3    3    0  502  0.32548359253E+03 -0.26810938377E+03 -0.51454171343E+03  0.66527999785E+03  0.46999998093E+01 0. -1.
</event>
<event>
 5   0  0.5960102E-04  0.9987737E+03  0.7818609E-02  0.9309891E-01
        1   -1    0    0  501    0  0.00000000000E+00  0.00000000000E+00  0.14880647399E+03  0.14880647408E+03  0.50400001928E-02 0. -1.
       -1   -1    0    0    0  501  0.00000000000E+00  0.00000000000E+00 -0.16759164082E+04  0.16759164082E+04  0.50400001928E-02 0.  1.
    10030    2    1    2    0    0  0.00000000000E+00  0.00000000000E+00 -0.15271099342E+04  0.18247228823E+04  0.99877367104E+03 0.  0.
        5    1    3    3  502    0  0.75167844653E+02  0.23938949145E+03 -0.15523453854E+04  0.15724998630E+04  0.46999998093E+01 0.  1.
       -5    1    3    3    0  502 -0.75167844653E+02 -0.23938949145E+03  0.25235451163E+02  0.25222301933E+03  0.46999998093E+01 0. -1.
</event>
<event>
 5   0  0.1006006E-03  0.1000431E+04  0.7818609E-02  0.9308072E-01
       -2   -1    0    0    0  501  0.00000000000E+00  0.00000000000E+00  0.19517242876E+03  0.19517242878E+03  0.25500000920E-02 0. -1.
        2   -1    0    0  501    0  0.00000000000E+00  0.00000000000E+00 -0.12820228494E+04  0.12820228494E+04  0.25500000920E-02 0.  1.
    10030    2    1    2    0    0  0.00000000000E+00  0.00000000000E+00 -0.10868504206E+04  0.14771952782E+04  0.10004309337E+04 0.  0.
        2    1    3    3  502    0 -0.45636532964E+03 -0.15244598157E+03 -0.34147413917E+03  0.59001159237E+03  0.25500000920E-02 0. -1.
       -2    1    3    3    0  502  0.45636532964E+03  0.15244598157E+03 -0.74537628143E+03  0.88718368579E+03  0.25500000920E-02 0.  1.
</event>
<event>
 5   0  0.1006006E-03  0.1000297E+04  0.7818609E-02  0.9308219E-01
        2   -1    0    0  501    0  0.00000000000E+00  0.00000000000E+00  0.46482320924E+03  0.46482320924E+03  0.25500000920E-02 0. -1.
       -2   -1    0    0    0  501  0.00000000000E+00  0.00000000000E+00 -0.53815883639E+03  0.53815883639E+03  0.25500000920E-02 0.  1.
    10030    2    1    2    0    0  0.00000000000E+00  0.00000000000E+00 -0.73335627151E+02  0.10029820456E+04  0.10002973906E+04 0.  0.
        2    1    3    3  502    0 -0.34723951848E+03 -0.32649758192E+03 -0.18864228481E+03  0.51260302947E+03  0.25500000920E-02 0.  1.
       -2    1    3    3    0  502  0.34723951848E+03  0.32649758192E+03  0.11530665765E+03  0.49037901617E+03  0.25500000920E-02 0. -1.
</event>
<event>
 5   0  0.5758786E-04  0.1002932E+04  0.7818609E-02  0.9305335E-01
        1   -1    0    0  501    0  0.00000000000E+00  0.00000000000E+00  0.10945983250E+04  0.10945983250E+04  0.50400001928E-02 0.  1.
       -1   -1    0    0    0  501  0.00000000000E+00  0.00000000000E+00 -0.22973567860E+03  0.22973567866E+03  0.50400001928E-02 0. -1.
    10030    2    1    2    0    0  0.00000000000E+00  0.00000000000E+00  0.86486264639E+03  0.13243340037E+04  0.10029322789E+04 0.  0.
        3    1    3    3  502    0 -0.49088528284E+03 -0.10103600799E+03  0.40988105533E+03  0.64744044169E+03  0.10100000352E+00 0. -1.
       -3    1    3    3    0  502  0.49088528284E+03  0.10103600799E+03  0.45498159106E+03  0.67689356196E+03  0.10100000352E+00 0.  1.
</event>
<event>
 5   0  0.1020150E-03  0.9982407E+03  0.7818609E-02  0.9310476E-01
       -2   -1    0    0    0  501  0.00000000000E+00  0.00000000000E+00  0.31615098315E+03  0.31615098316E+03  0.25500000920E-02 0.  1.
        2   -1    0    0  501    0  0.00000000000E+00  0.00000000000E+00 -0.78798150585E+03  0.78798150586E+03  0.25500000920E-02 0. -1.
    10030    2    1    2    0    0  0.00000000000E+00  0.00000000000E+00 -0.47183052270E+03  0.11041324890E+04  0.99824070802E+03 0.  0.
        5    1    3    3  502    0 -0.26117588629E+01 -0.34651500048E+03  0.16138029673E+03  0.38228936293E+03  0.46999998093E+01 0.  1.
       -5    1    3    3    0  502  0.26117588629E+01  0.34651500048E+03 -0.63321081943E+03  0.72184312609E+03  0.46999998093E+01 0. -1.
</event>
<event>
 5   0  0.5768102E-04  0.1000093E+04  0.7818609E-02  0.9308443E-01
       -1   -1    0    0    0  501  0.00000000000E+00  0.00000000000E+00  0.19157067963E+03  0.19157067969E+03  0.50400001928E-02 0.  1.
        1   -1    0    0  501    0  0.00000000000E+00  0.00000000000E+00 -0.13052448118E+04  0.13052448118E+04  0.50400001928E-02 0. -1.
    10030    2    1    2    0    0  0.00000000000E+00  0.00000000000E+00 -0.11136741322E+04  0.14968154915E+04  0.10000932671E+04 0.  0.
        4    1    3    3  502    0  0.29656894277E+03 -0.31740035702E+03 -0.18612975596E+03  0.47259075679E+03  0.12699999809E+01 0.  1.
       -4    1    3    3    0  502 -0.29656894277E+03  0.31740035702E+03 -0.92754437621E+03  0.10242247347E+04  0.12699999809E+01 0. -1.
</event>
<event>
 5   0  0.1006006E-03  0.1002086E+04  0.7818609E-02  0.9306259E-01
        2   -1    0    0  501    0  0.00000000000E+00  0.00000000000E+00  0.12134353309E+04  0.12134353309E+04  0.25500000920E-02 0. -1.
       -2   -1    0    0    0  501  0.00000000000E+00  0.00000000000E+00 -0.20688726369E+03  0.20688726371E+03  0.25500000920E-02 0.  1.
    10030    2    1    2    0    0  0.00000000000E+00  0.00000000000E+00  0.10065480672E+04  0.14203225946E+04  0.10020864539E+04 0.  0.
        2    1    3    3  502    0 -0.34385966432E+03 -0.24671993781E+03  0.88341902121E+03  0.97956080133E+03  0.25500000920E-02 0.  1.
       -2    1    3    3    0  502  0.34385966432E+03  0.24671993781E+03  0.12312904601E+03  0.44076179330E+03  0.25500000920E-02 0. -1.
</event>
<event>
 5   0  0.5758786E-04  0.1005236E+04  0.7818609E-02  0.9302821E-01
        1   -1    0    0  501    0  0.00000000000E+00  0.00000000000E+00  0.56742003617E+03  0.56742003619E+03  0.50400001928E-02 0. -1.
       -1   -1    0    0    0  501  0.00000000000E+00  0.00000000000E+00 -0.44521659556E+03  0.44521659559E+03  0.50400001928E-02 0.  1.
    10030    2    1    2    0    0  0.00000000000E+00  0.00000000000E+00  0.12220344060E+03  0.10126366318E+04  0.10052359261E+04 0.  0.
        3    1    3    3  502    0  0.33812409570E+03 -0.24466168388E+03 -0.22102724632E+03  0.47227142352E+03  0.10100000352E+00 0.  1.
       -3    1    3    3    0  502 -0.33812409570E+03  0.24466168388E+03  0.34323068693E+03  0.54036520826E+03  0.10100000352E+00 0. -1.
</event>
<event>
 5   0  0.5960102E-04  0.1000594E+04  0.7818609E-02  0.9307894E-01
       -1   -1    0    0    0  501  0.00000000000E+00  0.00000000000E+00  0.98332263012E+02  0.98332263141E+02  0.50400001928E-02 0.  1.
        1   -1    0    0  501    0  0.00000000000E+00  0.00000000000E+00 -0.25454218069E+04  0.25454218069E+04  0.50400001928E-02 0. -1.
    10030    2    1    2    0    0  0.00000000000E+00  0.00000000000E+00 -0.24470895439E+04  0.26437540701E+04  0.10005939971E+04 0.  0.
        5    1    3    3  502    0  0.17648316782E+03  0.45797536766E+03 -0.14795402963E+04  0.15588294724E+04  0.46999998093E+01 0.  1.
       -5    1    3    3    0  502 -0.17648316782E+03 -0.45797536766E+03 -0.96754924764E+03  0.10849245976E+04  0.46999998093E+01 0. -1.
</event>
<event>
 5   0  0.5888774E-04  0.1000193E+04  0.7818609E-02  0.9308333E-01
        1   -1    0    0  501    0  0.00000000000E+00  0.00000000000E+00  0.95974736203E+03  0.95974736204E+03  0.50400001928E-02 0. -1.
       -1   -1    0    0    0  501  0.00000000000E+00  0.00000000000E+00 -0.26058569277E+03  0.26058569282E+03  0.50400001928E-02 0.  1.
    10030    2    1    2    0    0  0.00000000000E+00  0.00000000000E+00  0.69916166925E+03  0.12203330549E+04  0.10001928439E+04 0.  0.
        2    1    3    3  502    0  0.11896842787E+03  0.12878559470E+03  0.92102077776E+03  0.93755985905E+03  0.25500000920E-02 0. -1.
       -2    1    3    3    0  502 -0.11896842787E+03 -0.12878559470E+03 -0.22185910851E+03  0.28277319581E+03  0.25500000920E-02 0.  1.
</event>
<event>
 5   0  0.5960102E-04  0.9985440E+03  0.7818609E-02  0.9310143E-01
        1   -1    0    0  501    0  0.00000000000E+00  0.00000000000E+00  0.14493011496E+04  0.14493011496E+04  0.50400001928E-02 0. -1.
       -1   -1    0    0    0  501  0.00000000000E+00  0.00000000000E+00 -0.17199496841E+03  0.17199496848E+03  0.50400001928E-02 0.  1.
    10030    2    1    2    0    0  0.00000000000E+00  0.00000000000E+00  0.12773061812E+04  0.16212961181E+04  0.99854395098E+03 0.  0.
        5    1    3    3  502    0 -0.10439826257E+03  0.46077823761E+03  0.90063576090E+03  0.10170459406E+04  0.46999998093E+01 0. -1.
       -5    1    3    3    0  502  0.10439826257E+03 -0.46077823761E+03  0.37667042031E+03  0.60425017751E+03  0.46999998093E+01 0.  1.
</event>
<event>
 5   0  0.1006006E-03  0.1000539E+04  0.7818609E-02  0.9307954E-01
        2   -1    0    0  501    0  0.00000000000E+00  0.00000000000E+00  0.24104481204E+04  0.24104481204E+04  0.25500000920E-02 0.  1.
       -2   -1    0    0    0  501  0.00000000000E+00  0.00000000000E+00 -0.10382700932E+03  0.10382700935E+03  0.25500000920E-02 0. -1.
    10030    2    1    2    0    0  0.00000000000E+00  0.00000000000E+00  0.23066211111E+04  0.25142751298E+04  0.10005390937E+04 0.  0.
        2    1    3    3  502    0 -0.40564550701E+03  0.50823812094E+02  0.18778787407E+04  0.19218636533E+04  0.25500000920E-02 0.  1.
       -2    1    3    3    0  502  0.40564550701E+03 -0.50823812094E+02  0.42874237041E+03  0.59241147644E+03  0.25500000920E-02 0. -1.
</event>
<event>
 5   0  0.1006006E-03  0.9997095E+03  0.7818609E-02  0.9308863E-01
       -2   -1    0    0    0  501  0.00000000000E+00  0.00000000000E+00  0.32799140284E+03  0.32799140285E+03  0.25500000920E-02 0.  1.
        2   -1    0    0  501    0  0.00000000000E+00  0.00000000000E+00 -0.76177229875E+03  0.76177229876E+03  0.25500000920E-02 0. -1.
    10030    2    1    2    0    0  0.00000000000E+00  0.00000000000E+00 -0.43378089592E+03  0.10897637016E+04  0.99970948764E+03 0.  0.
        2    1    3    3  502    0 -0.32759174821E+03 -0.32516164827E+03 -0.77531530320E+01  0.46163466333E+03  0.25500000920E-02 0.  1.
       -2    1    3    3    0  502  0.32759174821E+03  0.32516164827E+03 -0.42602774289E+03  0.62812903827E+03  0.25500000920E-02 0. -1.
</event>
<event>
 5   0  0.5768102E-04  0.9997950E+03  0.7818609E-02  0.9308770E-01
       -1   -1    0    0    0  501  0.00000000000E+00  0.00000000000E+00  0.17236725382E+03  0.17236725389E+03  0.50400001928E-02 0. -1.
        1   -1    0    0  501    0  0.00000000000E+00  0.00000000000E+00 -0.14497969108E+04  0.14497969108E+04  0.50400001928E-02 0.  1.
    10030    2    1    2    0    0  0.00000000000E+00  0.00000000000E+00 -0.12774296570E+04  0.16221641647E+04  0.99979500333E+03 0.  0.
        4    1    3    3  502    0  0.48050123649E+03  0.10582727888E+03 -0.49528163514E+03  0.69813061975E+03  0.12699999809E+01 0. -1.
       -4    1    3    3    0  502 -0.48050123649E+03 -0.10582727888E+03 -0.78214802184E+03  0.92403354495E+03  0.12699999809E+01 0.  1.
</event>
<event>
 5   0  0.9674819E-04  0.1005860E+04  0.7818609E-02  0.9302141E-01
       -2   -1    0    0    0  501  0.00000000000E+00  0.00000000000E+00  0.17051984575E+03  0.17051984577E+03  0.25500000920E-02 0. -1.
        2   -1    0    0  501    0  0.00000000000E+00  0.00000000000E+00 -0.14833380679E+04  0.14833380679E+04  0.25500000920E-02 0.  1.
    10030    2    1    2    0    0  0.00000000000E+00  0.00000000000E+00 -0.13128182221E+04  0.16538579137E+04  0.10058599874E+04 0.  0.
        4    1    3    3  502    0 -0.28388374903E+03  0.20190505092E+03 -0.12528368097E+04  0.13003681468E+04  0.12699999809E+01 0.  1.
       -4    1    3    3    0  502  0.28388374903E+03 -0.20190505092E+03 -0.59981412457E+02  0.35348976688E+03  0.12699999809E+01 0. -1.
</event>
<event>
 5   0  0.3854625E-04  0.9998217E+03  0.7818609E-02  0.9308740E-01
       -3   -1    0    0    0  501  0.00000000000E+00  0.00000000000E+00  0.80601620618E+03  0.80601621251E+03  0.10100000352E+00 0.  1.
        3   -1    0    0  501    0  0.00000000000E+00  0.00000000000E+00 -0.31005685213E+03  0.31005686858E+03  0.10100000352E+00 0. -1.
    10030    2    1    2    0    0  0.00000000000E+00  0.00000000000E+00  0.49595935405E+03  0.11160730811E+04  0.99982170484E+03 0.  0.
        2    1    3    3  502    0  0.16007638902E+03  0.45401652255E+03  0.97570937773E+02  0.49119806695E+03  0.25500000920E-02 0. -1.
       -2    1    3    3    0  502 -0.16007638902E+03 -0.45401652255E+03  0.39838841627E+03  0.62487501414E+03  0.25500000920E-02 0.  1.
</event>
<event>
 5   0  0.5960102E-04  0.1000220E+04  0.7818609E-02  0.9308303E-01
       -1   -1    0    0    0  501  0.00000000000E+00  0.00000000000E+00  0.23304231078E+03  0.23304231083E+03  0.50400001928E-02 0.  1.
        1   -1    0    0  501    0  0.00000000000E+00  0.00000000000E+00 -0.10732396934E+04  0.10732396934E+04  0.50400001928E-02 0. -1.
    10030    2    1    2    0    0  0.00000000000E+00  0.00000000000E+00 -0.84019738258E+03  0.13062820042E+04  0.10002204921E+04 0.  0.
        5    1    3    3  502    0  0.27312725703E+03 -0.41825056772E+03 -0.45089723963E+03  0.67295055289E+03  0.46999998093E+01 0. -1.
       -5    1    3    3    0  502 -0.27312725703E+03  0.41825056772E+03 -0.38930014295E+03  0.63333145132E+03  0.46999998093E+01 0.  1.
</event>
<event>
 5   0  0.5758786E-04  0.9998507E+03  0.7818609E-02  0.9308709E-01
        1   -1    0    0  501    0  0.00000000000E+00  0.00000000000E+00  0.39460652787E+03  0.39460652791E+03  0.50400001928E-02 0.  1.
       -1   -1    0    0    0  501  0.00000000000E+00  0.00000000000E+00 -0.63335338196E+03  0.63335338198E+03  0.50400001928E-02 0. -1.
    10030    2    1    2    0    0  0.00000000000E+00  0.00000000000E+00 -0.23874685408E+03  0.10279599099E+04  0.99985074686E+03 0.  0.
        3    1    3    3  502    0 -0.97603061684E+02 -0.38425709800E+03  0.19372970442E+03  0.44126078864E+03  0.10100000352E+00 0.  1.
       -3    1    3    3    0  502  0.97603061684E+02  0.38425709800E+03 -0.43247655851E+03  0.58669912125E+03  0.10100000352E+00 0. -1.
</event>
<event>
 5   0  0.1006006E-03  0.9849465E+03  0.7818609E-02  0.9325211E-01
        2   -1    0    0  501    0  0.00000000000E+00  0.00000000000E+00  0.19809296887E+04  0.19809296887E+04  0.25500000920E-02 0. -1.
       -2   -1    0    0    0  501  0.00000000000E+00  0.00000000000E+00 -0.12243235432E+03  0.12243235434E+03  0.25500000920E-02 0.  1.
    10030    2    1    2    0    0  0.00000000000E+00  0.00000000000E+00  0.18584973344E+04  0.21033620431E+04  0.98494646669E+03 0.  0.
        2    1    3    3  502    0  0.12342889440E+03  0.45596123665E+03  0.63184850897E+03  0.78890295955E+03  0.25500000920E-02 0.  1.
       -2    1    3    3    0  502 -0.12342889440E+03 -0.45596123665E+03  0.12266488254E+04  0.13144590835E+04  0.25500000920E-02 0. -1.
</event>
<event>
 5   0  0.5826939E-04  0.9989057E+03  0.7818609E-02  0.9309746E-01
        1   -1    0    0  501    0  0.00000000000E+00  0.00000000000E+00  0.84684638095E+03  0.84684638097E+03  0.50400001928E-02 0.  1.
       -1   -1    0    0    0  501  0.00000000000E+00  0.00000000000E+00 -0.29456719910E+03  0.29456719914E+03  0.50400001928E-02 0. -1.
    10030    2    1    2    0    0  0.00000000000E+00  0.00000000000E+00  0.55227918185E+03  0.11414135801E+04  0.99890573437E+03 0.  0.
        1    1    3    3  502    0  0.58835036421E+02 -0.23991103703E+03  0.77215881380E+03  0.81070839453E+03  0.50400001928E-02 0.  1.
       -1    1    3    3    0  502 -0.58835036421E+02  0.23991103703E+03 -0.21987963195E+03  0.33070518558E+03  0.50400001928E-02 0. -1.
</event>
<event>
 5   0  0.1006006E-03  0.1000225E+04  0.7818609E-02  0.9308298E-01
        2   -1    0    0  501    0  0.00000000000E+00  0.00000000000E+00  0.14906646682E+04  0.14906646682E+04  0.25500000920E-02 0.  1.
       -2   -1    0    0    0  501  0.00000000000E+00  0.00000000000E+00 -0.16778580890E+03  0.16778580892E+03  0.25500000920E-02 0. -1.
    10030    2    1    2    0    0  0.00000000000E+00  0.00000000000E+00  0.13228788593E+04  0.16584504772E+04  0.10002247291E+04 0.  0.
        2    1    3    3  502    0  0.45333694008E+03 -0.71194398495E+01  0.10113972152E+04  0.11083724079E+04  0.25500000920E-02 0.  1.
       -2    1    3    3    0  502 -0.45333694008E+03  0.71194398495E+01  0.31148164417E+03  0.55007806929E+03  0.25500000920E-02 0. -1.
</event>
<event>
 5   0  0.1006006E-03  0.1004819E+04  0.7818609E-02  0.9303275E-01
       -2   -1    0    0    0  501  0.00000000000E+00  0.00000000000E+00  0.41227327242E+03  0.41227327243E+03  0.25500000920E-02 0.  1.
        2   -1    0    0  501    0  0.00000000000E+00  0.00000000000E+00 -0.61225285006E+03  0.61225285006E+03  0.25500000920E-02 0. -1.
    10030    2    1    2    0    0  0.00000000000E+00  0.00000000000E+00 -0.19997957763E+03  0.10245261225E+04  0.10048193590E+04 0.  0.
        2    1    3    3  502    0 -0.18535993832E+03  0.46692986781E+03 -0.94072711301E+02  0.51110809347E+03  0.25500000920E-02 0.  1.
       -2    1    3    3    0  502  0.18535993832E+03 -0.46692986781E+03 -0.10590686633E+03  0.51341802903E+03  0.25500000920E-02 0. -1.
</event>
<event>
 5   0  0.5758786E-04  0.9984167E+03  0.7818609E-02  0.9310283E-01
        1   -1    0    0  501    0  0.00000000000E+00  0.00000000000E+00  0.73488778022E+03  0.73488778024E+03  0.50400001928E-02 0.  1.
       -1   -1    0    0    0  501  0.00000000000E+00  0.00000000000E+00 -0.33911162942E+03  0.33911162946E+03  0.50400001928E-02 0. -1.
    10030    2    1    2    0    0  0.00000000000E+00  0.00000000000E+00  0.39577615080E+03  0.10739994097E+04  0.99841673188E+03 0.  0.
        3    1    3    3  502    0 -0.27707059836E+03 -0.41522533459E+03  0.20365964386E+03  0.53912656742E+03  0.10100000352E+00 0. -1.
       -3    1    3    3    0  502  0.27707059836E+03  0.41522533459E+03  0.19211650694E+03  0.53487284228E+03  0.10100000352E+00 0.  1.
</event>
<event>
 5   0  0.5826939E-04  0.1001685E+04  0.7818609E-02  0.9306699E-01
       -1   -1    0    0    0  501  0.00000000000E+00  0.00000000000E+00  0.22806330533E+03  0.22806330539E+03  0.50400001928E-02 0.  1.
        1   -1    0    0  501    0  0.00000000000E+00  0.00000000000E+00 -0.10998841262E+04  0.10998841262E+04  0.50400001928E-02 0. -1.
    10030    2    1    2    0    0  0.00000000000E+00  0.00000000000E+00 -0.87182082089E+03  0.13279474316E+04  0.10016849991E+04 0.  0.
        1    1    3    3  502    0  0.29068708818E+03  0.73479207457E+02  0.95938778562E+02  0.31480537864E+03  0.50400001928E-02 0.  1.
       -1    1    3    3    0  502 -0.29068708818E+03 -0.73479207457E+02 -0.96775959946E+03  0.10131420530E+04  0.50400001928E-02 0. -1.
</event>
<event>
 5   0  0.5758786E-04  0.9940155E+03  0.7818609E-02  0.9315133E-01
        1   -1    0    0  501    0  0.00000000000E+00  0.00000000000E+00  0.64781705304E+03  0.64781705306E+03  0.50400001928E-02 0.  1.
       -1   -1    0    0    0  501  0.00000000000E+00  0.00000000000E+00 -0.38130625344E+03  0.38130625347E+03  0.50400001928E-02 0. -1.
    10030    2    1    2    0    0  0.00000000000E+00  0.00000000000E+00  0.26651079960E+03  0.10291233065E+04  0.99401547963E+03 0.  0.
        3    1    3    3  502    0  0.23083151137E+03 -0.23113107528E+03 -0.25455687763E+03  0.41413038376E+03  0.10100000352E+00 0. -1.
       -3    1    3    3    0  502 -0.23083151137E+03  0.23113107528E+03  0.52106767723E+03  0.61499292277E+03  0.10100000352E+00 0.  1.
</event>
<event>
 5   0  0.5960102E-04  0.1000298E+04  0.7818609E-02  0.9308218E-01
       -1   -1    0    0    0  501  0.00000000000E+00  0.00000000000E+00  0.18975027271E+03  0.18975027278E+03  0.50400001928E-02 0. -1.
        1   -1    0    0  501    0  0.00000000000E+00  0.00000000000E+00 -0.13183062284E+04  0.13183062284E+04  0.50400001928E-02 0.  1.
    10030    2    1    2    0    0  0.00000000000E+00  0.00000000000E+00 -0.11285559557E+04  0.15080565012E+04  0.10002978885E+04 0.  0.
        5    1    3    3  502    0 -0.31875427627E+03  0.31407909198E+03 -0.90097404135E+03  0.10059951679E+04  0.46999998093E+01 0.  1.
       -5    1    3    3    0  502  0.31875427627E+03 -0.31407909198E+03 -0.22758191437E+03  0.50206133331E+03  0.46999998093E+01 0. -1.
</event>
<event>
 5   0  0.5768102E-04  0.1000810E+04  0.7818609E-02  0.9307657E-01
       -1   -1    0    0    0  501  0.00000000000E+00  0.00000000000E+00  0.19443382222E+03  0.19443382228E+03  0.50400001928E-02 0.  1.
        1   -1    0    0  501    0  0.00000000000E+00  0.00000000000E+00 -0.12878674376E+04  0.12878674376E+04  0.50400001928E-02 0. -1.
    10030    2    1    2    0    0  0.00000000000E+00  0.00000000000E+00 -0.10934336154E+04  0.14823012599E+04  0.10008096492E+04 0.  0.
        4    1    3    3  502    0 -0.43555869238E+03  0.20352874658E+03 -0.34112591118E+03  0.58949455075E+03  0.12699999809E+01 0.  1.
       -4    1    3    3    0  502  0.43555869238E+03 -0.20352874658E+03 -0.75230770423E+03  0.89280670916E+03  0.12699999809E+01 0. -1.
</event>
<event>
 5   0  0.5768102E-04  0.9998015E+03  0.7818609E-02  0.9308763E-01
       -1   -1    0    0    0  501  0.00000000000E+00  0.00000000000E+00  0.32706065343E+03  0.32706065347E+03  0.50400001928E-02 0. -1.
        1   -1    0    0  501    0  0.00000000000E+00  0.00000000000E+00 -0.76408073081E+03  0.76408073083E+03  0.50400001928E-02 0.  1.
    10030    2    1    2    0    0  0.00000000000E+00  0.00000000000E+00 -0.43702007738E+03  0.10911413843E+04  0.99980146654E+03 0.  0.
        4    1    3    3  502    0 -0.36223999257E+03 -0.29741990952E+03 -0.28780915662E+02  0.46958105669E+03  0.12699999809E+01 0. -1.
       -4    1    3    3    0  502  0.36223999257E+03  0.29741990952E+03 -0.40823916172E+03  0.62156032761E+03  0.12699999809E+01 0.  1.
</event>
<event>
 5   0  0.1006749E-03  0.1012394E+04  0.7818609E-02  0.9295055E-01
       -2   -1    0    0    0  501  0.00000000000E+00  0.00000000000E+00  0.10178378994E+03  0.10178378998E+03  0.25500000920E-02 0. -1.
        2   -1    0    0  501    0  0.00000000000E+00  0.00000000000E+00 -0.25174464820E+04  0.25174464820E+04  0.25500000920E-02 0.  1.
    10030    2    1    2    0    0  0.00000000000E+00  0.00000000000E+00 -0.24156626920E+04  0.26192302720E+04  0.10123936862E+04 0.  0.
        1    1    3    3  502    0  0.26084800977E+03  0.11497533187E+03 -0.12562194455E+03  0.31151546369E+03  0.50400001928E-02 0. -1.
       -1    1    3    3    0  502 -0.26084800977E+03 -0.11497533187E+03 -0.22900407475E+04  0.23077148083E+04  0.50400001928E-02 0.  1.
</event>
<event>
 5   0  0.9741826E-04  0.1000308E+04  0.7818609E-02  0.9308207E-01
       -2   -1    0    0    0  501  0.00000000000E+00  0.00000000000E+00  0.38867766548E+03  0.38867766549E+03  0.25500000920E-02 0.  1.
        2   -1    0    0  501    0  0.00000000000E+00  0.00000000000E+00 -0.64360288857E+03  0.64360288857E+03  0.25500000920E-02 0. -1.
    10030    2    1    2    0    0  0.00000000000E+00  0.00000000000E+00 -0.25492522309E+03  0.10322805541E+04  0.10003080890E+04 0.  0.
        3    1    3    3  502    0  0.27806191967E+03 -0.14489779379E+03 -0.52958423706E+03  0.61544559155E+03  0.10100000352E+00 0. -1.
       -3    1    3    3    0  502 -0.27806191967E+03  0.14489779379E+03  0.27465901397E+03  0.41683496251E+03  0.10100000352E+00 0.  1.
</event>
<event>
 5   0  0.5960102E-04  0.1001689E+04  0.7818609E-02  0.9306694E-01
       -1   -1    0    0    0  501  0.00000000000E+00  0.00000000000E+00  0.29265440626E+03  0.29265440630E+03  0.50400001928E-02 0. -1.
        1   -1    0    0  501    0  0.00000000000E+00  0.00000000000E+00 -0.85713879472E+03  0.85713879473E+03  0.50400001928E-02 0.  1.
    10030    2    1    2    0    0  0.00000000000E+00  0.00000000000E+00 -0.56448438846E+03  0.11497932010E+04  0.10016894630E+04 0.  0.
        5    1    3    3  502    0  0.82400375398E+01  0.10355982172E+03 -0.84460959217E+03  0.85098765448E+03  0.46999998093E+01 0.  1.
       -5    1    3    3    0  502 -0.82400375398E+01 -0.10355982172E+03  0.28012520372E+03  0.29880554655E+03  0.46999998093E+01 0. -1.
</event>
<event>
 5   0  0.1006006E-03  0.1000114E+04  0.7818609E-02  0.9308420E-01
        2   -1    0    0  501    0  0.00000000000E+00  0.00000000000E+00  0.93326087509E+03  0.93326087510E+03  0.25500000920E-02 0.  1.
       -2   -1    0    0    0  501  0.00000000000E+00  0.00000000000E+00 -0.26793914949E+03  0.26793914951E+03  0.25500000920E-02 0. -1.
    10030    2    1    2    0    0  0.00000000000E+00  0.00000000000E+00  0.66532172560E+03  0.12012000246E+04  0.10001142437E+04 0.  0.
        2    1    3    3  502    0 -0.37605638986E+02  0.41223616186E+03 -0.42887151722E+01  0.41397008384E+03  0.25500000920E-02 0. -1.
       -2    1    3    3    0  502  0.37605638986E+02 -0.41223616186E+03  0.66961044077E+03  0.78722994076E+03  0.25500000920E-02 0.  1.
</event>
<event>
 5   0  0.9674819E-04  0.1002159E+04  0.7818609E-02  0.9306180E-01
        2   -1    0    0  501    0  0.00000000000E+00  0.00000000000E+00  0.17994251275E+03  0.17994251276E+03  0.25500000920E-02 0.  1.
       -2   -1    0    0    0  501  0.00000000000E+00  0.00000000000E+00 -0.13953393679E+04  0.13953393679E+04  0.25500000920E-02 0. -1.
    10030    2    1    2    0    0  0.00000000000E+00  0.00000000000E+00 -0.12153968552E+04  0.15752818807E+04  0.10021594125E+04 0.  0.
        4    1    3    3  502    0  0.36589560246E+03 -0.86101679588E+02 -0.86869279852E+02  0.38579913920E+03  0.12699999809E+01 0.  1.
       -4    1    3    3    0  502 -0.36589560246E+03  0.86101679588E+02 -0.11285275753E+04  0.11894827415E+04  0.12699999809E+01 0. -1.
</event>
<event>
 5   0  0.5768102E-04  0.1001196E+04  0.7818609E-02  0.9307234E-01
        1   -1    0    0  501    0  0.00000000000E+00  0.00000000000E+00  0.14718641863E+04  0.14718641863E+04  0.50400001928E-02 0.  1.
       -1   -1    0    0    0  501  0.00000000000E+00  0.00000000000E+00 -0.17025910471E+03  0.17025910478E+03  0.50400001928E-02 0. -1.
    10030    2    1    2    0    0  0.00000000000E+00  0.00000000000E+00  0.13016050816E+04  0.16421232911E+04  0.10011958423E+04 0.  0.
        4    1    3    3  502    0 -0.38077400167E+03  0.31750429891E+03  0.76442262643E+03  0.91112094964E+03  0.12699999809E+01 0.  1.
       -4    1    3    3    0  502  0.38077400167E+03 -0.31750429891E+03  0.53718245518E+03  0.73100234147E+03  0.12699999809E+01 0. -1.
</event>
<event>
 5   0  0.1020150E-03  0.9998071E+03  0.7818609E-02  0.9308756E-01
        2   -1    0    0  501    0  0.00000000000E+00  0.00000000000E+00  0.31782790589E+03  0.31782790590E+03  0.25500000920E-02 0.  1.
       -2   -1    0    0    0  501  0.00000000000E+00  0.00000000000E+00 -0.78628581119E+03  0.78628581120E+03  0.25500000920E-02 0. -1.
    10030    2    1    2    0    0  0.00000000000E+00  0.00000000000E+00 -0.46845790530E+03  0.11041137171E+04  0.99980712702E+03 0.  0.
        5    1    3    3  502    0  0.24651061388E+03  0.11869530897E+03 -0.69623551677E+03  0.74807890221E+03  0.46999998093E+01 0. -1.
       -5    1    3    3    0  502 -0.24651061388E+03 -0.11869530897E+03  0.22777761146E+03  0.35603481488E+03  0.46999998093E+01 0.  1.
</event>
<event>
 5   0  0.9741826E-04  0.1000676E+04  0.7818609E-02  0.9307803E-01
        2   -1    0    0  501    0  0.00000000000E+00  0.00000000000E+00  0.12300709770E+04  0.12300709770E+04  0.25500000920E-02 0.  1.
       -2   -1    0    0    0  501  0.00000000000E+00  0.00000000000E+00 -0.20351531450E+03  0.20351531452E+03  0.25500000920E-02 0. -1.
    10030    2    1    2    0    0  0.00000000000E+00  0.00000000000E+00  0.10265556625E+04  0.14335862915E+04  0.10006763348E+04 0.  0.
        3    1    3    3  502    0 -0.23527260805E+01  0.35187636253E+03  0.10228462775E+04  0.10816824985E+04  0.10100000352E+00 0.  1.
       -3    1    3    3    0  502  0.23527260805E+01 -0.35187636253E+03  0.37093849658E+01  0.35190379306E+03  0.10100000352E+00 0. -1.
</event>
<event>
 5   0  0.5768102E-04  0.1000611E+04  0.7818609E-02  0.9307875E-01
       -1   -1    0    0    0  501  0.00000000000E+00  0.00000000000E+00  0.25521319081E+03  0.25521319086E+03  0.50400001928E-02 0.  1.
        1   -1    0    0  501    0  0.00000000000E+00  0.00000000000E+00 -0.98077081579E+03  0.98077081580E+03  0.50400001928E-02 0. -1.
    10030    2    1    2    0    0  0.00000000000E+00  0.00000000000E+00 -0.72555762497E+03  0.12359840067E+04  0.10006111121E+04 0.  0.
        4    1    3    3  502    0 -0.39430946581E+03  0.24780352743E+03 -0.58858428622E+03  0.75054621305E+03  0.12699999809E+01 0. -1.
       -4    1    3    3    0  502  0.39430946581E+03 -0.24780352743E+03 -0.13697333875E+03  0.48543779361E+03  0.12699999809E+01 0.  1.
</event>
<event>
 5   0  0.3854625E-04  0.9998115E+03  0.7818609E-02  0.9308752E-01
       -3   -1    0    0    0  501  0.00000000000E+00  0.00000000000E+00  0.14761384962E+03  0.14761388418E+03  0.10100000352E+00 0. -1.
        3   -1    0    0  501    0  0.00000000000E+00  0.00000000000E+00 -0.16929693900E+04  0.16929693930E+04  0.10100000352E+00 0.  1.
    10030    2    1    2    0    0  0.00000000000E+00  0.00000000000E+00 -0.15453555404E+04  0.18405832772E+04  0.99981150929E+03 0.  0.
        5    1    3    3  502    0 -0.13964135685E+03 -0.47442395954E+03 -0.63858180582E+03  0.80770453425E+03  0.46999998093E+01 0. -1.
       -5    1    3    3    0  502  0.13964135685E+03  0.47442395954E+03 -0.90677373457E+03  0.10328787429E+04  0.46999998093E+01 0.  1.
</event>
<event>
 5   0  0.5826939E-04  0.1000333E+04  0.7818609E-02  0.9308180E-01
        1   -1    0    0  501    0  0.00000000000E+00  0.00000000000E+00  0.45600763105E+03  0.45600763108E+03  0.50400001928E-02 0.  1.
       -1   -1    0    0    0  501  0.00000000000E+00  0.00000000000E+00 -0.54860138603E+03  0.54860138606E+03  0.50400001928E-02 0. -1.
    10030    2    1    2    0    0  0.00000000000E+00  0.00000000000E+00 -0.92593754980E+02  0.10046090171E+04  0.10003327816E+04 0.  0.
        1    1    3    3  502    0 -0.16075156739E+03  0.38326490763E+03 -0.32575493142E+03  0.52806186305E+03  0.50400001928E-02 0.  1.
       -1    1    3    3    0  502  0.16075156739E+03 -0.38326490763E+03  0.23316117644E+03  0.47654715408E+03  0.50400001928E-02 0. -1.
</event>
<event>
 5   0  0.9674819E-04  0.9842221E+03  0.7818609E-02  0.9326021E-01
       -2   -1    0    0    0  501  0.00000000000E+00  0.00000000000E+00  0.76106081047E+03  0.76106081048E+03  0.25500000920E-02 0.  1.
        2   -1    0    0  501    0  0.00000000000E+00  0.00000000000E+00 -0.31820493941E+03  0.31820493942E+03  0.25500000920E-02 0. -1.
    10030    2    1    2    0    0  0.00000000000E+00  0.00000000000E+00  0.44285587106E+03  0.10792657499E+04  0.98422214787E+03 0.  0.
        4    1    3    3  502    0 -0.63778475627E+02  0.58473903305E+02  0.75265200816E+03  0.75761042073E+03  0.12699999809E+01 0.  1.
       -4    1    3    3    0  502  0.63778475627E+02 -0.58473903305E+02 -0.30979613709E+03  0.32165532916E+03  0.12699999809E+01 0. -1.
</event>
<event>
 5   0  0.9741826E-04  0.1000956E+04  0.7818609E-02  0.9307497E-01
        2   -1    0    0  501    0  0.00000000000E+00  0.00000000000E+00  0.14688805973E+04  0.14688805973E+04  0.25500000920E-02 0.  1.
       -2   -1    0    0    0  501  0.00000000000E+00  0.00000000000E+00 -0.17052317691E+03  0.17052317693E+03  0.25500000920E-02 0. -1.
    10030    2    1    2    0    0  0.00000000000E+00  0.00000000000E+00  0.12983574204E+04  0.16394037742E+04  0.10009559150E+04 0.  0.
        3    1    3    3  502    0 -0.19479492950E+03  0.44771615330E+03  0.82921696260E+03  0.96228665155E+03  0.10100000352E+00 0. -1.
       -3    1    3    3    0  502  0.19479492950E+03 -0.44771615330E+03  0.46914045778E+03  0.67711712267E+03  0.10100000352E+00 0.  1.
</event>
<event>
 5   0  0.1006006E-03  0.9958950E+03  0.7818609E-02  0.9313059E-01
        2   -1    0    0  501    0  0.00000000000E+00  0.00000000000E+00  0.62069738927E+03  0.62069738927E+03  0.25500000920E-02 0. -1.
       -2   -1    0    0    0  501  0.00000000000E+00  0.00000000000E+00 -0.39947280525E+03  0.39947280526E+03  0.25500000920E-02 0.  1.
    10030    2    1    2    0    0  0.00000000000E+00  0.00000000000E+00  0.22122458402E+03  0.10201701945E+04  0.99589502922E+03 0.  0.
        2    1    3    3  502    0  0.89146953258E+02  0.10177612084E+03 -0.38028277614E+03  0.40363417581E+03  0.25500000920E-02 0.  1.
       -2    1    3    3    0  502 -0.89146953258E+02 -0.10177612084E+03  0.60150736016E+03  0.61653601872E+03  0.25500000920E-02 0. -1.
</event>
<event>
 5   0  0.1006006E-03  0.1002069E+04  0.7818609E-02  0.9306279E-01
        2   -1    0    0  501    0  0.00000000000E+00  0.00000000000E+00  0.12495514514E+04  0.12495514514E+04  0.25500000920E-02 0.  1.
       -2   -1    0    0    0  501  0.00000000000E+00  0.00000000000E+00 -0.20090042966E+03  0.20090042968E+03  0.25500000920E-02 0. -1.
    10030    2    1    2    0    0  0.00000000000E+00  0.00000000000E+00  0.10486510217E+04  0.14504518811E+04  0.10020687072E+04 0.  0.
        2    1    3    3  502    0 -0.51611622920E+02  0.48866867061E+03  0.38269200218E+03  0.62282742216E+03  0.25500000920E-02 0. -1.
       -2    1    3    3    0  502  0.51611622920E+02 -0.48866867061E+03  0.66595901957E+03  0.82762445893E+03  0.25500000920E-02 0.  1.
</event>
<event>
 5   0  0.9674819E-04  0.1000586E+04  0.7818609E-02  0.9307903E-01
       -2   -1    0    0    0  501  0.00000000000E+00  0.00000000000E+00  0.52407929353E+03  0.52407929353E+03  0.25500000920E-02 0. -1.
        2   -1    0    0  501    0  0.00000000000E+00  0.00000000000E+00 -0.47758581862E+03  0.47758581862E+03  0.25500000920E-02 0.  1.
    10030    2    1    2    0    0  0.00000000000E+00  0.00000000000E+00  0.46493474910E+02  0.10016651122E+04  0.10005855054E+04 0.  0.
        4    1    3    3  502    0 -0.91986859297E+02 -0.30979076022E+03 -0.35908068121E+03  0.48308637521E+03  0.12699999809E+01 0.  1.
       -4    1    3    3    0  502  0.91986859297E+02  0.30979076022E+03  0.40557415612E+03  0.51857873694E+03  0.12699999809E+01 0. -1.
</event>
<event>
 5   0  0.1020150E-03  0.1001254E+04  0.7818609E-02  0.9307170E-01
       -2   -1    0    0    0  501  0.00000000000E+00  0.00000000000E+00  0.12873409052E+04  0.12873409052E+04  0.25500000920E-02 0.  1.
        2   -1    0    0  501    0  0.00000000000E+00  0.00000000000E+00 -0.19468624255E+03  0.19468624257E+03  0.25500000920E-02 0. -1.
    10030    2    1    2    0    0  0.00000000000E+00  0.00000000000E+00  0.10926546627E+04  0.14820271478E+04  0.10012543408E+04 0.  0.
        5    1    3    3  502    0  0.38000164150E+03  0.18230507920E+03  0.94616268803E+03  0.10358003242E+04  0.46999998093E+01 0. -1.
       -5    1    3    3    0  502 -0.38000164150E+03 -0.18230507920E+03  0.14649197466E+03  0.44622682358E+03  0.46999998093E+01 0.  1.
</event>
<event>
 5   0  0.1020150E-03  0.1015861E+04  0.7818609E-02  0.9291317E-01
        2   -1    0    0  501    0  0.00000000000E+00  0.00000000000E+00  0.26585020002E+04  0.26585020002E+04  0.25500000920E-02 0. -1.
       -2   -1    0    0    0  501  0.00000000000E+00  0.00000000000E+00 -0.97044728068E+02  0.97044728102E+02  0.25500000920E-02 0.  1.
    10030    2    1    2    0    0  0.00000000000E+00  0.00000000000E+00  0.25614572722E+04  0.27555467283E+04  0.10158614152E+04 0.  0.
        5    1    3    3  502    0 -0.48780482887E+03 -0.79562667181E+01  0.16639021542E+04  0.17339577048E+04  0.46999998093E+01 0. -1.
       -5    1    3    3    0  502  0.48780482887E+03  0.79562667181E+01  0.89755511801E+03  0.10215890236E+04  0.46999998093E+01 0.  1.
</event>
<event>
 5   0  0.9741826E-04  0.9998784E+03  0.7818609E-02  0.9308678E-01
       -2   -1    0    0    0  501  0.00000000000E+00  0.00000000000E+00  0.16478698164E+03  0.16478698166E+03  0.25500000920E-02 0.  1.
        2   -1    0    0  501    0  0.00000000000E+00  0.00000000000E+00 -0.15167412829E+04  0.15167412829E+04  0.25500000920E-02 0. -1.
    10030    2    1    2    0    0  0.00000000000E+00  0.00000000000E+00 -0.13519543013E+04  0.16815282646E+04  0.99987842853E+03 0.  0.
        3    1    3    3  502    0 -0.35269623637E+03  0.92780554458E+02 -0.12510617316E+04  0.13031340426E+04  0.10100000352E+00 0. -1.
       -3    1    3    3    0  502  0.35269623637E+03 -0.92780554458E+02 -0.10089256968E+03  0.37839422201E+03  0.10100000352E+00 0.  1.
</event>
<event>
 5   0  0.5826939E-04  0.9999741E+03  0.7818609E-02  0.9308573E-01
        1   -1    0    0  501    0  0.00000000000E+00  0.00000000000E+00  0.30686794372E+03  0.30686794376E+03  0.50400001928E-02 0. -1.
       -1   -1    0    0    0  501  0.00000000000E+00  0.00000000000E+00 -0.81464049460E+03  0.81464049462E+03  0.50400001928E-02 0.  1.
    10030    2    1    2    0    0  0.00000000000E+00  0.00000000000E+00 -0.50777255088E+03  0.11215084384E+04  0.99997410663E+03 0.  0.
        1    1    3    3  502    0  0.38135686062E+03  0.17277339888E+03 -0.56042393188E+03  0.69954176855E+03  0.50400001928E-02 0.  1.
       -1    1    3    3    0  502 -0.38135686062E+03 -0.17277339888E+03  0.52651380999E+02  0.42196666983E+03  0.50400001928E-02 0. -1.
</event>
<event>
 5   0  0.5826939E-04  0.9995982E+03  0.7818609E-02  0.9308986E-01
       -1   -1    0    0    0  501  0.00000000000E+00  0.00000000000E+00  0.10751770166E+04  0.10751770166E+04  0.50400001928E-02 0. -1.
        1   -1    0    0  501    0  0.00000000000E+00  0.00000000000E+00 -0.23233304234E+03  0.23233304239E+03  0.50400001928E-02 0.  1.
    10030    2    1    2    0    0  0.00000000000E+00  0.00000000000E+00  0.84284397425E+03  0.13075100590E+04  0.99959821400E+03 0.  0.
        1    1    3    3  502    0 -0.24517529915E+03  0.28125211524E+03 -0.13557319549E+02  0.37335972008E+03  0.50400001928E-02 0.  1.
       -1    1    3    3    0  502  0.24517529915E+03 -0.28125211524E+03  0.85640129380E+03  0.93415033891E+03  0.50400001928E-02 0. -1.
</event>
<event>
 5   0  0.1006006E-03  0.9996872E+03  0.7818609E-02  0.9308888E-01
       -2   -1    0    0    0  501  0.00000000000E+00  0.00000000000E+00  0.13025721937E+03  0.13025721939E+03  0.25500000920E-02 0. -1.
        2   -1    0    0  501    0  0.00000000000E+00  0.00000000000E+00 -0.19180788182E+04  0.19180788182E+04  0.25500000920E-02 0.  1.
    10030    2    1    2    0    0  0.00000000000E+00  0.00000000000E+00 -0.17878215989E+04  0.20483360376E+04  0.99968717790E+03 0.  0.
        2    1    3    3  502    0 -0.40388148336E+03 -0.67725413776E+01 -0.14971509728E+04  0.15506860273E+04  0.25500000920E-02 0.  1.
       -2    1    3    3    0  502  0.40388148336E+03  0.67725413776E+01 -0.29067062608E+03  0.49765001034E+03  0.25500000920E-02 0. -1.
</event>
<event>
 5   0  0.9674819E-04  0.9986481E+03  0.7818609E-02  0.9310029E-01
       -2   -1    0    0    0  501  0.00000000000E+00  0.00000000000E+00  0.43012369528E+03  0.43012369529E+03  0.25500000920E-02 0. -1.
        2   -1    0    0  501    0  0.00000000000E+00  0.00000000000E+00 -0.57965774450E+03  0.57965774451E+03  0.25500000920E-02 0.  1.
    10030    2    1    2    0    0  0.00000000000E+00  0.00000000000E+00 -0.14953404922E+03  0.10097814398E+04  0.99864814839E+03 0.  0.
        4    1    3    3  502    0 -0.39106495194E+03 -0.10343859120E+03 -0.37076173943E+03  0.54872326277E+03  0.12699999809E+01 0.  1.
       -4    1    3    3    0  502  0.39106495194E+03  0.10343859120E+03  0.22122769021E+03  0.46105817702E+03  0.12699999809E+01 0. -1.
</event>
<event>
 5   0  0.5960102E-04  0.9991209E+03  0.7818609E-02  0.9309509E-01
        1   -1    0    0  501    0  0.00000000000E+00  0.00000000000E+00  0.68788175497E+03  0.68788175499E+03  0.50400001928E-02 0.  1.
       -1   -1    0    0    0  501  0.00000000000E+00  0.00000000000E+00 -0.36279585635E+03  0.36279585639E+03  0.50400001928E-02 0. -1.
    10030    2    1    2    0    0  0.00000000000E+00  0.00000000000E+00  0.32508589862E+03  0.10506776114E+04  0.99912091438E+03 0.  0.
        5    1    3    3  502    0  0.39998915541E+02  0.72123062251E+01 -0.36103093927E+03  0.36334193222E+03  0.46999998093E+01 0. -1.
       -5    1    3    3    0  502 -0.39998915541E+02 -0.72123062251E+01  0.68611683789E+03  0.68733567915E+03  0.46999998093E+01 0.  1.
</event>
<event>
 5   0  0.3854625E-04  0.9993370E+03  0.7818609E-02  0.9309272E-01
       -3   -1    0    0    0  501  0.00000000000E+00  0.00000000000E+00  0.80749536342E+03  0.80749536974E+03  0.10100000352E+00 0.  1.
        3   -1    0    0  501    0  0.00000000000E+00  0.00000000000E+00 -0.30918888291E+03  0.30918889940E+03  0.10100000352E+00 0. -1.
    10030    2    1    2    0    0  0.00000000000E+00  0.00000000000E+00  0.49830648051E+03  0.11166842691E+04  0.99933698442E+03 0.  0.
        1    1    3    3  502    0 -0.20983797607E+03  0.14342040134E+03 -0.23155678749E+03  0.34383125742E+03  0.50400001928E-02 0. -1.
       -1    1    3    3    0  502  0.20983797607E+03 -0.14342040134E+03  0.72986326801E+03  0.77285301172E+03  0.50400001928E-02 0.  1.
</event>
<event>
 5   0  0.1006749E-03  0.9797286E+03  0.7818609E-02  0.9331062E-01
        2   -1    0    0  501    0  0.00000000000E+00  0.00000000000E+00  0.14951560835E+04  0.14951560835E+04  0.25500000920E-02 0.  1.
       -2   -1    0    0    0  501  0.00000000000E+00  0.00000000000E+00 -0.16049630894E+03  0.16049630896E+03  0.25500000920E-02 0. -1.
    10030    2    1    2    0    0  0.00000000000E+00  0.00000000000E+00  0.13346597745E+04  0.16556523924E+04  0.97972860059E+03 0.  0.
        1    1    3    3  502    0 -0.10704644225E+03 -0.21095317846E+03  0.13922336736E+04  0.14121879429E+04  0.50400001928E-02 0.  1.
       -1    1    3    3    0  502  0.10704644225E+03  0.21095317846E+03 -0.57573899037E+02  0.24346444951E+03  0.50400001928E-02 0. -1.
</event>
<event>
 5   0  0.5960102E-04  0.9956684E+03  0.7818609E-02  0.9313308E-01
        1   -1    0    0  501    0  0.00000000000E+00  0.00000000000E+00  0.49135413041E+03  0.49135413044E+03  0.50400001928E-02 0. -1.
       -1   -1    0    0    0  501  0.00000000000E+00  0.00000000000E+00 -0.50439977351E+03  0.50439977354E+03  0.50400001928E-02 0.  1.
    10030    2    1    2    0    0  0.00000000000E+00  0.00000000000E+00 -0.13045643096E+02  0.99575390398E+03  0.99566844305E+03 0.  0.
        5    1    3    3  502    0  0.43616296392E+03 -0.46184857110E+02  0.22896638948E+03  0.49479174370E+03  0.46999998093E+01 0. -1.
       -5    1    3    3    0  502 -0.43616296392E+03  0.46184857110E+02 -0.24201203258E+03  0.50096216028E+03  0.46999998093E+01 0.  1.
</event>
<event>
 5   0  0.5768102E-04  0.9718732E+03  0.7818609E-02  0.9339943E-01
        1   -1    0    0  501    0  0.00000000000E+00  0.00000000000E+00  0.64291998489E+03  0.64291998491E+03  0.50400001928E-02 0. -1.
       -1   -1    0    0    0  501  0.00000000000E+00  0.00000000000E+00 -0.36728422930E+03  0.36728422934E+03  0.50400001928E-02 0.  1.
    10030    2    1    2    0    0  0.00000000000E+00  0.00000000000E+00  0.27563575558E+03  0.10102042142E+04  0.97187318346E+03 0.  0.
        4    1    3    3  502    0  0.27628443064E+03  0.37443322060E+03 -0.77016754360E+01  0.46539687580E+03  0.12699999809E+01 0.  1.
       -4    1    3    3    0  502 -0.27628443064E+03 -0.37443322060E+03  0.28333743102E+03  0.54480733844E+03  0.12699999809E+01 0. -1.
</event>
<event>
 5   0  0.5826939E-04  0.1000590E+04  0.7818609E-02  0.9307897E-01
       -1   -1    0    0    0  501  0.00000000000E+00  0.00000000000E+00  0.13980956905E+03  0.13980956914E+03  0.50400001928E-02 0. -1.
        1   -1    0    0  501    0  0.00000000000E+00  0.00000000000E+00 -0.17902586972E+04  0.17902586972E+04  0.50400001928E-02 0.  1.
    10030    2    1    2    0    0  0.00000000000E+00  0.00000000000E+00 -0.16504491281E+04  0.19300682663E+04  0.10005904198E+04 0.  0.
        1    1    3    3  502    0 -0.31158282014E+02  0.25200219955E+03  0.62745637511E+01  0.25399865609E+03  0.50400001928E-02 0. -1.
       -1    1    3    3    0  502  0.31158282014E+02 -0.25200219955E+03 -0.16567236919E+04  0.16760696102E+04  0.50400001928E-02 0.  1.
</event>
<event>
 5   0  0.5826939E-04  0.9996312E+03  0.7818609E-02  0.9308949E-01
        1   -1    0    0  501    0  0.00000000000E+00  0.00000000000E+00  0.54947932050E+03  0.54947932052E+03  0.50400001928E-02 0.  1.
       -1   -1    0    0    0  501  0.00000000000E+00  0.00000000000E+00 -0.45464068186E+03  0.45464068189E+03  0.50400001928E-02 0. -1.
    10030    2    1    2    0    0  0.00000000000E+00  0.00000000000E+00  0.94838638640E+02  0.10041200024E+04  0.99963123794E+03 0.  0.
        1    1    3    3  502    0  0.36660078933E+02  0.16949124696E+03  0.51829332497E+03  0.54653381864E+03  0.50400001928E-02 0.  1.
       -1    1    3    3    0  502 -0.36660078933E+02 -0.16949124696E+03 -0.42345468633E+03  0.45758618377E+03  0.50400001928E-02 0. -1.
</event>
<event>
 5   0  0.5826939E-04  0.1001120E+04  0.7818609E-02  0.9307317E-01
       -1   -1    0    0    0  501  0.00000000000E+00  0.00000000000E+00  0.14450349365E+04  0.14450349365E+04  0.50400001928E-02 0.  1.
        1   -1    0    0  501    0  0.00000000000E+00  0.00000000000E+00 -0.17339400864E+03  0.17339400871E+03  0.50400001928E-02 0. -1.
    10030    2    1    2    0    0  0.00000000000E+00  0.00000000000E+00  0.12716409279E+04  0.16184289453E+04  0.10011201733E+04 0.  0.
        1    1    3    3  502    0 -0.44210411450E+02 -0.49710192840E+03  0.69833808804E+03  0.85833616546E+03  0.50400001928E-02 0.  1.
       -1    1    3    3    0  502  0.44210411450E+02  0.49710192840E+03  0.57330283986E+03  0.76009277980E+03  0.50400001928E-02 0. -1.
</event>
<event>
 5   0  0.3854625E-04  0.9991433E+03  0.7818609E-02  0.9309485E-01
        4   -1    0    0  501    0  0.00000000000E+00  0.00000000000E+00  0.63001022447E+03  0.63001150453E+03  0.12699999809E+01 0.  1.
       -4   -1    0    0    0  501  0.00000000000E+00  0.00000000000E+00 -0.39613667492E+03  0.39613871070E+03  0.12699999809E+01 0. -1.
    10030    2    1    2    0    0  0.00000000000E+00  0.00000000000E+00  0.23387354955E+03  0.10261502152E+04  0.99914334658E+03 0.  0.
        5    1    3    3  502    0  0.35646020317E+03 -0.33732113155E+03  0.21273365483E+03  0.53490851567E+03  0.46999998093E+01 0.  1.
       -5    1    3    3    0  502 -0.35646020317E+03  0.33732113155E+03  0.21139894722E+02  0.49124169956E+03  0.46999998093E+01 0. -1.
</event>
<event>
 5   0  0.5960102E-04  0.1000519E+04  0.7818609E-02  0.9307976E-01
       -1   -1    0    0    0  501  0.00000000000E+00  0.00000000000E+00  0.37791512845E+03  0.37791512848E+03  0.50400001928E-02 0.  1.
        1   -1    0    0  501    0  0.00000000000E+00  0.00000000000E+00 -0.66221130052E+03  0.66221130054E+03  0.50400001928E-02 0. -1.
    10030    2    1    2    0    0  0.00000000000E+00  0.00000000000E+00 -0.28429617207E+03  0.10401264290E+04  0.10005192027E+04 0.  0.
        5    1    3    3  502    0 -0.15923751286E+03 -0.26887677124E+03 -0.54823448040E+03  0.63105818996E+03  0.46999998093E+01 0. -1.
       -5    1    3    3    0  502  0.15923751286E+03  0.26887677124E+03  0.26393830833E+03  0.40906823907E+03  0.46999998093E+01 0.  1.
</event>
<event>
 5   0  0.9741826E-04  0.9995183E+03  0.7818609E-02  0.9309073E-01
        2   -1    0    0  501    0  0.00000000000E+00  0.00000000000E+00  0.10024034619E+04  0.10024034619E+04  0.25500000920E-02 0. -1.
       -2   -1    0    0    0  501  0.00000000000E+00  0.00000000000E+00 -0.24916037154E+03  0.24916037155E+03  0.25500000920E-02 0.  1.
    10030    2    1    2    0    0  0.00000000000E+00  0.00000000000E+00  0.75324309037E+03  0.12515638335E+04  0.99951832202E+03 0.  0.
        3    1    3    3  502    0 -0.20152521801E+03  0.41668437851E+03  0.14062569152E+03  0.48374981148E+03  0.10100000352E+00 0.  1.
       -3    1    3    3    0  502  0.20152521801E+03 -0.41668437851E+03  0.61261739885E+03  0.76781402199E+03  0.10100000352E+00 0. -1.
</event>
<event>
 5   0  0.5758786E-04  0.1009310E+04  0.7818609E-02  0.9298393E-01
       -1   -1    0    0    0  501  0.00000000000E+00  0.00000000000E+00  0.10166715111E+04  0.10166715112E+04  0.50400001928E-02 0. -1.
        1   -1    0    0  501    0  0.00000000000E+00  0.00000000000E+00 -0.25050030477E+03  0.25050030482E+03  0.50400001928E-02 0.  1.
    10030    2    1    2    0    0  0.00000000000E+00  0.00000000000E+00  0.76617120638E+03  0.12671718160E+04  0.10093097115E+04 0.  0.
        3    1    3    3  502    0  0.14363976886E+03 -0.18341818097E+03  0.94511880399E+03  0.97340853508E+03  0.10100000352E+00 0. -1.
       -3    1    3    3    0  502 -0.14363976886E+03  0.18341818097E+03 -0.17894759761E+03  0.29376328089E+03  0.10100000352E+00 0.  1.
</event>
<event>
 5   0  0.5888774E-04  0.9979385E+03  0.7818609E-02  0.9310809E-01
       -1   -1    0    0    0  501  0.00000000000E+00  0.00000000000E+00  0.10112408847E+04  0.10112408848E+04  0.50400001928E-02 0.  1.
        1   -1    0    0  501    0  0.00000000000E+00  0.00000000000E+00 -0.24620279492E+03  0.24620279497E+03  0.50400001928E-02 0. -1.
    10030    2    1    2    0    0  0.00000000000E+00  0.00000000000E+00  0.76503808983E+03  0.12574436797E+04  0.99793853959E+03 0.  0.
        2    1    3    3  502    0 -0.77820212076E+02  0.19110213562E+03 -0.18992576013E+03  0.28044216162E+03  0.25500000920E-02 0. -1.
       -2    1    3    3    0  502  0.77820212076E+02 -0.19110213562E+03  0.95496384996E+03  0.97700151811E+03  0.25500000920E-02 0.  1.
</event>
<event>
 5   0  0.1020150E-03  0.1002798E+04  0.7818609E-02  0.9305482E-01
        2   -1    0    0  501    0  0.00000000000E+00  0.00000000000E+00  0.17018898835E+04  0.17018898835E+04  0.25500000920E-02 0.  1.
       -2   -1    0    0    0  501  0.00000000000E+00  0.00000000000E+00 -0.14771859319E+03  0.14771859321E+03  0.25500000920E-02 0. -1.
    10030    2    1    2    0    0  0.00000000000E+00  0.00000000000E+00  0.15541712903E+04  0.18496084767E+04  0.10027976453E+04 0.  0.
        5    1    3    3  502    0  0.32806397047E+03 -0.37631413237E+03  0.86241793658E+03  0.99650643866E+03  0.46999998093E+01 0.  1.
       -5    1    3    3    0  502 -0.32806397047E+03  0.37631413237E+03  0.69175335373E+03  0.85310203806E+03  0.46999998093E+01 0. -1.
</event>
<event>
 5   0  0.9741826E-04  0.1003918E+04  0.7818609E-02  0.9304258E-01
       -2   -1    0    0    0  501  0.00000000000E+00  0.00000000000E+00  0.64500982915E+03  0.64500982915E+03  0.25500000920E-02 0.  1.
        2   -1    0    0  501    0  0.00000000000E+00  0.00000000000E+00 -0.39063379629E+03  0.39063379630E+03  0.25500000920E-02 0. -1.
    10030    2    1    2    0    0  0.00000000000E+00  0.00000000000E+00  0.25437603285E+03  0.10356436255E+04  0.10039176026E+04 0.  0.
        3    1    3    3  502    0 -0.48462058188E+03 -0.77002401650E+02  0.23624622857E+03  0.54460882196E+03  0.10100000352E+00 0.  1.
       -3    1    3    3    0  502  0.48462058188E+03  0.77002401650E+02  0.18129804280E+02  0.49103480350E+03  0.10100000352E+00 0. -1.
</event>
<event>
 5   0  0.5826939E-04  0.1001209E+04  0.7818609E-02  0.9307220E-01
       -1   -1    0    0    0  501  0.00000000000E+00  0.00000000000E+00  0.32989271893E+03  0.32989271897E+03  0.50400001928E-02 0. -1.
        1   -1    0    0  501    0  0.00000000000E+00  0.00000000000E+00 -0.75965596041E+03  0.75965596043E+03  0.50400001928E-02 0.  1.
    10030    2    1    2    0    0  0.00000000000E+00  0.00000000000E+00 -0.42976324148E+03  0.10895486794E+04  0.10012092094E+04 0.  0.
        1    1    3    3  502    0  0.24276637755E+03  0.30267625218E+03  0.12934507556E+03  0.40899703704E+03  0.50400001928E-02 0. -1.
       -1    1    3    3    0  502 -0.24276637755E+03 -0.30267625218E+03 -0.55910831704E+03  0.68055164236E+03  0.50400001928E-02 0.  1.
</event>
<event>
 5   0  0.9674819E-04  0.9977750E+03  0.7818609E-02  0.9310988E-01
       -2   -1    0    0    0  501  0.00000000000E+00  0.00000000000E+00  0.12297410028E+03  0.12297410030E+03  0.25500000920E-02 0. -1.
        2   -1    0    0  501    0  0.00000000000E+00  0.00000000000E+00 -0.20239120383E+04  0.20239120383E+04  0.25500000920E-02 0.  1.
    10030    2    1    2    0    0  0.00000000000E+00  0.00000000000E+00 -0.19009379380E+04  0.21468861386E+04  0.99777504874E+03 0.  0.
        4    1    3    3  502    0  0.24308084993E+01  0.44773758898E+03 -0.47704069295E+03  0.65425094042E+03  0.12699999809E+01 0. -1.
       -4    1    3    3    0  502 -0.24308084993E+01 -0.44773758898E+03 -0.14238972450E+04  0.14926351981E+04  0.12699999809E+01 0.  1.
</event>
<event>
 5   0  0.1006749E-03  0.1001852E+04  0.7818609E-02  0.9306516E-01
       -2   -1    0    0    0  501  0.00000000000E+00  0.00000000000E+00  0.77686343166E+03  0.77686343166E+03  0.25500000920E-02 0.  1.
        2   -1    0    0  501    0  0.00000000000E+00  0.00000000000E+00 -0.32299985856E+03  0.32299985857E+03  0.25500000920E-02 0. -1.
    10030    2    1    2    0    0  0.00000000000E+00  0.00000000000E+00  0.45386357309E+03  0.10998632902E+04  0.10018518424E+04 0.  0.
        1    1    3    3  502    0  0.98882736260E+02  0.27818054581E+03  0.67119993341E+03  0.73326091007E+03  0.50400001928E-02 0.  1.
       -1    1    3    3    0  502 -0.98882736260E+02 -0.27818054581E+03 -0.21733636032E+03  0.36660238016E+03  0.50400001928E-02 0. -1.
</event>
<event>
 5   0  0.9741826E-04  0.1002273E+04  0.7818609E-02  0.9306055E-01
        2   -1    0    0  501    0  0.00000000000E+00  0.00000000000E+00  0.42466271833E+03  0.42466271833E+03  0.25500000920E-02 0.  1.
       -2   -1    0    0    0  501  0.00000000000E+00  0.00000000000E+00 -0.59138170512E+03  0.59138170513E+03  0.25500000920E-02 0. -1.
    10030    2    1    2    0    0  0.00000000000E+00  0.00000000000E+00 -0.16671898680E+03  0.10160444235E+04  0.10022729418E+04 0.  0.
        3    1    3    3  502    0  0.30173782286E+02  0.33817143670E+03 -0.45702609502E+03  0.56933578797E+03  0.10100000352E+00 0. -1.
       -3    1    3    3    0  502 -0.30173782286E+02 -0.33817143670E+03  0.29030710823E+03  0.44670863549E+03  0.10100000352E+00 0.  1.
</event>
<event>
 5   0  0.5960102E-04  0.1000309E+04  0.7818609E-02  0.9308206E-01
        1   -1    0    0  501    0  0.00000000000E+00  0.00000000000E+00  0.52922893686E+03  0.52922893689E+03  0.50400001928E-02 0.  1.
       -1   -1    0    0    0  501  0.00000000000E+00  0.00000000000E+00 -0.47267692006E+03  0.47267692009E+03  0.50400001928E-02 0. -1.
    10030    2    1    2    0    0  0.00000000000E+00  0.00000000000E+00  0.56552016799E+02  0.10019058570E+04  0.10003085602E+04 0.  0.
        5    1    3    3  502    0 -0.34835205559E+03 -0.32744341671E+03  0.17535690335E+03  0.50925482750E+03  0.46999998093E+01 0. -1.
       -5    1    3    3    0  502  0.34835205559E+03  0.32744341671E+03 -0.11880488656E+03  0.49265102948E+03  0.46999998093E+01 0.  1.
</event>
<event>
 5   0  0.5888774E-04  0.9993216E+03  0.7818609E-02  0.9309289E-01
        1   -1    0    0  501    0  0.00000000000E+00  0.00000000000E+00  0.79458490712E+03  0.79458490713E+03  0.50400001928E-02 0. -1.
       -1   -1    0    0    0  501  0.00000000000E+00  0.00000000000E+00 -0.31420293171E+03  0.31420293175E+03  0.50400001928E-02 0.  1.
    10030    2    1    2    0    0  0.00000000000E+00  0.00000000000E+00  0.48038197541E+03  0.11087878389E+04  0.99932158455E+03 0.  0.
        2    1    3    3  502    0 -0.29064387461E+03 -0.36256472980E+03  0.36404108186E+02  0.46610331928E+03  0.25500000920E-02 0.  1.
       -2    1    3    3    0  502  0.29064387461E+03  0.36256472980E+03  0.44397786722E+03  0.64268451960E+03  0.25500000920E-02 0. -1.
</event>
<event>
 5   0  0.5826939E-04  0.1002631E+04  0.7818609E-02  0.9305663E-01
        1   -1    0    0  501    0  0.00000000000E+00  0.00000000000E+00  0.66663393113E+03  0.66663393115E+03  0.50400001928E-02 0. -1.
       -1   -1    0    0    0  501  0.00000000000E+00  0.00000000000E+00 -0.37699465604E+03  0.37699465608E+03  0.50400001928E-02 0.  1.
    10030    2    1    2    0    0  0.00000000000E+00  0.00000000000E+00  0.28963927509E+03  0.10436285872E+04  0.10026313971E+04 0.  0.
        1    1    3    3  502    0  0.15935473756E+03 -0.23769947831E+03 -0.28362050201E+03  0.40290887749E+03  0.50400001928E-02 0.  1.
       -1    1    3    3    0  502 -0.15935473756E+03  0.23769947831E+03  0.57325977711E+03  0.64071970974E+03  0.50400001928E-02 0. -1.
</event>
<event>
 5   0  0.1006006E-03  0.9999477E+03  0.7818609E-02  0.9308602E-01
       -2   -1    0    0    0  501  0.00000000000E+00  0.00000000000E+00  0.23365721317E+03  0.23365721318E+03  0.25500000920E-02 0. -1.
        2   -1    0    0  501    0  0.00000000000E+00  0.00000000000E+00 -0.10698314569E+04  0.10698314569E+04  0.25500000920E-02 0.  1.
    10030    2    1    2    0    0  0.00000000000E+00  0.00000000000E+00 -0.83617424372E+03  0.13034886701E+04  0.99994767220E+03 0.  0.
        2    1    3    3  502    0 -0.70387144423E+02  0.99176418509E+02  0.21408222606E+03  0.24621436110E+03  0.25500000920E-02 0. -1.
       -2    1    3    3    0  502  0.70387144423E+02 -0.99176418509E+02 -0.10502564698E+04  0.10572743090E+04  0.25500000920E-02 0.  1.
</event>
<event>
 5   0  0.9674819E-04  0.9993204E+03  0.7818609E-02  0.9309290E-01
       -2   -1    0    0    0  501  0.00000000000E+00  0.00000000000E+00  0.26830246135E+03  0.26830246136E+03  0.25500000920E-02 0. -1.
        2   -1    0    0  501    0  0.00000000000E+00  0.00000000000E+00 -0.93051823637E+03  0.93051823637E+03  0.25500000920E-02 0.  1.
    10030    2    1    2    0    0  0.00000000000E+00  0.00000000000E+00 -0.66221577502E+03  0.11988206977E+04  0.99932043541E+03 0.  0.
        4    1    3    3  502    0  0.17203803387E+02  0.31592476610E+03 -0.79503409193E+03  0.85567823913E+03  0.12699999809E+01 0.  1.
       -4    1    3    3    0  502 -0.17203803387E+02 -0.31592476610E+03  0.13281831691E+03  0.34314245860E+03  0.12699999809E+01 0. -1.
</event>
<event>
 5   0  0.5888774E-04  0.9997944E+03  0.7818609E-02  0.9308770E-01
       -1   -1    0    0    0  501  0.00000000000E+00  0.00000000000E+00  0.35882199252E+03  0.35882199255E+03  0.50400001928E-02 0. -1.
        1   -1    0    0  501    0  0.00000000000E+00  0.00000000000E+00 -0.69643786179E+03  0.69643786181E+03  0.50400001928E-02 0.  1.
    10030    2    1    2    0    0  0.00000000000E+00  0.00000000000E+00 -0.33761586927E+03  0.10552598544E+04  0.99979442139E+03 0.  0.
        2    1    3    3  502    0  0.36018681106E+03  0.29686558673E+03  0.20100323217E+02  0.46719132959E+03  0.25500000920E-02 0. -1.
       -2    1    3    3    0  502 -0.36018681106E+03 -0.29686558673E+03 -0.35771619249E+03  0.58806852477E+03  0.25500000920E-02 0.  1.
</event>
<event>
 5   0  0.5960102E-04  0.1001540E+04  0.7818609E-02  0.9306858E-01
       -1   -1    0    0    0  501  0.00000000000E+00  0.00000000000E+00  0.25934750986E+03  0.25934750991E+03  0.50400001928E-02 0. -1.
        1   -1    0    0  501    0  0.00000000000E+00  0.00000000000E+00 -0.96692819226E+03  0.96692819227E+03  0.50400001928E-02 0.  1.
    10030    2    1    2    0    0  0.00000000000E+00  0.00000000000E+00 -0.70758068240E+03  0.12262757022E+04  0.10015396526E+04 0.  0.
        5    1    3    3  502    0  0.35797747143E+03  0.35006537919E+03 -0.34473571363E+03  0.60791318624E+03  0.46999998093E+01 0.  1.
       -5    1    3    3    0  502 -0.35797747143E+03 -0.35006537919E+03 -0.36284496877E+03  0.61836251594E+03  0.46999998093E+01 0. -1.
</event>
<event>
 5   0  0.5888774E-04  0.9992718E+03  0.7818609E-02  0.9309344E-01
        1   -1    0    0  501    0  0.00000000000E+00  0.00000000000E+00  0.15840083807E+04  0.15840083807E+04  0.50400001928E-02 0.  1.
       -1   -1    0    0    0  501  0.00000000000E+00  0.00000000000E+00 -0.15759767073E+03  0.15759767081E+03  0.50400001928E-02 0. -1.
    10030    2    1    2    0    0  0.00000000000E+00  0.00000000000E+00  0.14264107100E+04  0.17416060515E+04  0.99927179745E+03 0.  0.
        2    1    3    3  502    0 -0.25281583440E+03  0.20260635710E+03  0.13761187736E+04  0.14137425724E+04  0.25500000920E-02 0.  1.
       -2    1    3    3    0  502  0.25281583440E+03 -0.20260635710E+03  0.50291936395E+02  0.32786347911E+03  0.25500000920E-02 0. -1.
</event>
<event>
 5   0  0.3854625E-04  0.1005175E+04  0.7818609E-02  0.9302887E-01
       -3   -1    0    0    0  501  0.00000000000E+00  0.00000000000E+00  0.28582515080E+03  0.28582516865E+03  0.10100000352E+00 0. -1.
        3   -1    0    0  501    0  0.00000000000E+00  0.00000000000E+00 -0.88373728042E+03  0.88373728619E+03  0.10100000352E+00 0.  1.
    10030    2    1    2    0    0  0.00000000000E+00  0.00000000000E+00 -0.59791212962E+03  0.11695624548E+04  0.10051753185E+04 0.  0.
        4    1    3    3  502    0  0.36393052922E+03  0.17968826980E+03  0.45930131287E+02  0.40846602584E+03  0.12699999809E+01 0. -1.
       -4    1    3    3    0  502 -0.36393052922E+03 -0.17968826980E+03 -0.64384226090E+03  0.76109642900E+03  0.12699999809E+01 0.  1.
</event>
<event>
 5   0  0.1006006E-03  0.9861261E+03  0.7818609E-02  0.9323894E-01
       -2   -1    0    0    0  501  0.00000000000E+00  0.00000000000E+00  0.76898308129E+03  0.76898308130E+03  0.25500000920E-02 0.  1.
        2   -1    0    0  501    0  0.00000000000E+00  0.00000000000E+00 -0.31614633953E+03  0.31614633954E+03  0.25500000920E-02 0. -1.
    10030    2    1    2    0    0  0.00000000000E+00  0.00000000000E+00  0.45283674177E+03  0.10851294208E+04  0.98612613051E+03 0.  0.
        2    1    3    3  502    0  0.68606533303E+02  0.27802823452E+03  0.66809364116E+03  0.72688078044E+03  0.25500000920E-02 0.  1.
       -2    1    3    3    0  502 -0.68606533303E+02 -0.27802823452E+03 -0.21525689940E+03  0.35824864040E+03  0.25500000920E-02 0. -1.
</event>
<event>
 5   0  0.9741826E-04  0.9979132E+03  0.7818609E-02  0.9310837E-01
       -2   -1    0    0    0  501  0.00000000000E+00  0.00000000000E+00  0.49256559347E+03  0.49256559348E+03  0.25500000920E-02 0. -1.
        2   -1    0    0  501    0  0.00000000000E+00  0.00000000000E+00 -0.50543049332E+03  0.50543049333E+03  0.25500000920E-02 0.  1.
    10030    2    1    2    0    0  0.00000000000E+00  0.00000000000E+00 -0.12864899852E+02  0.99799608681E+03  0.99791316437E+03 0.  0.
        3    1    3    3  502    0  0.29935151991E+03 -0.32266600586E+03  0.22860405051E+03  0.49596825092E+03  0.10100000352E+00 0. -1.
       -3    1    3    3    0  502 -0.29935151991E+03  0.32266600586E+03 -0.24146895037E+03  0.50202783588E+03  0.10100000352E+00 0.  1.
</event>
<event>
 5   0  0.1006006E-03  0.1001767E+04  0.7818609E-02  0.9306609E-01
        2   -1    0    0  501    0  0.00000000000E+00  0.00000000000E+00  0.17434314578E+04  0.17434314578E+04  0.25500000920E-02 0. -1.
       -2   -1    0    0    0  501  0.00000000000E+00  0.00000000000E+00 -0.14390248265E+03  0.14390248267E+03  0.25500000920E-02 0.  1.
    10030    2    1    2    0    0  0.00000000000E+00  0.00000000000E+00  0.15995289751E+04  0.18873339404E+04  0.10017666697E+04 0.  0.
        2    1    3    3  502    0 -0.17036664873E+03 -0.29448934076E+03  0.14923392388E+04  0.15306290114E+04  0.25500000920E-02 0. -1.
       -2    1    3    3    0  502  0.17036664873E+03  0.29448934076E+03  0.10718973629E+03  0.35670492903E+03  0.25500000920E-02 0.  1.
</event>
<event>
 5   0  0.5758786E-04  0.1000373E+04  0.7818609E-02  0.9308136E-01
       -1   -1    0    0    0  501  0.00000000000E+00  0.00000000000E+00  0.46488969343E+03  0.46488969346E+03  0.50400001928E-02 0.  1.
        1   -1    0    0  501    0  0.00000000000E+00  0.00000000000E+00 -0.53816347250E+03  0.53816347252E+03  0.50400001928E-02 0. -1.
    10030    2    1    2    0    0  0.00000000000E+00  0.00000000000E+00 -0.73273779061E+02  0.10030531660E+04  0.10003732339E+04 0.  0.
        3    1    3    3  502    0 -0.16613780915E+03 -0.47156181585E+03 -0.51315909758E+02  0.50259889632E+03  0.10100000352E+00 0.  1.
       -3    1    3    3    0  502  0.16613780915E+03  0.47156181585E+03 -0.21957869304E+02  0.50045426966E+03  0.10100000352E+00 0. -1.
</event>
<event>
 5   0  0.5960102E-04  0.1006277E+04  0.7818609E-02  0.9301687E-01
        1   -1    0    0  501    0  0.00000000000E+00  0.00000000000E+00  0.99325837593E+03  0.99325837595E+03  0.50400001928E-02 0.  1.
       -1   -1    0    0    0  501  0.00000000000E+00  0.00000000000E+00 -0.25486663703E+03  0.25486663708E+03  0.50400001928E-02 0. -1.
    10030    2    1    2    0    0  0.00000000000E+00  0.00000000000E+00  0.73839173890E+03  0.12481250130E+04  0.10062771428E+04 0.  0.
        5    1    3    3  502    0  0.29559453765E+03  0.25680489525E+03  0.76103598699E+03  0.85587542809E+03  0.46999998093E+01 0.  1.
       -5    1    3    3    0  502 -0.29559453765E+03 -0.25680489525E+03 -0.22644248084E+02  0.39224958494E+03  0.46999998093E+01 0. -1.
</event>
<event>
 5   0  0.1020150E-03  0.9992135E+03  0.7818609E-02  0.9309408E-01
        2   -1    0    0  501    0  0.00000000000E+00  0.00000000000E+00  0.34124765049E+03  0.34124765050E+03  0.25500000920E-02 0. -1.
       -2   -1    0    0    0  501  0.00000000000E+00  0.00000000000E+00 -0.73145389984E+03  0.73145389984E+03  0.25500000920E-02 0.  1.
    10030    2    1    2    0    0  0.00000000000E+00  0.00000000000E+00 -0.39020624934E+03  0.10727015503E+04  0.99921354029E+03 0.  0.
        5    1    3    3  502    0  0.30695604812E+03 -0.15968952894E+03  0.19176394552E+03  0.39562388948E+03  0.46999998093E+01 0. -1.
       -5    1    3    3    0  502 -0.30695604812E+03  0.15968952894E+03 -0.58197019487E+03  0.67707766086E+03  0.46999998093E+01 0.  1.
</event>
<event>
 5   0  0.5960102E-04  0.9892571E+03  0.7818609E-02  0.9320406E-01
       -1   -1    0    0    0  501  0.00000000000E+00  0.00000000000E+00  0.24962892482E+03  0.24962892487E+03  0.50400001928E-02 0.  1.
        1   -1    0    0  501    0  0.00000000000E+00  0.00000000000E+00 -0.98008439538E+03  0.98008439540E+03  0.50400001928E-02 0. -1.
    10030    2    1    2    0    0  0.00000000000E+00  0.00000000000E+00 -0.73045547057E+03  0.12297133203E+04  0.98925712307E+03 0.  0.
        5    1    3    3  502    0  0.10381093212E+03  0.17148764068E+03  0.19684030235E+03  0.28098561380E+03  0.46999998093E+01 0.  1.
       -5    1    3    3    0  502 -0.10381093212E+03 -0.17148764068E+03 -0.92729577292E+03  0.94872770646E+03  0.46999998093E+01 0. -1.
</event>
<event>
 5   0  0.5888774E-04  0.1000204E+04  0.7818609E-02  0.9308322E-01
       -1   -1    0    0    0  501  0.00000000000E+00  0.00000000000E+00  0.74891824601E+03  0.74891824603E+03  0.50400001928E-02 0.  1.
        1   -1    0    0  501    0  0.00000000000E+00  0.00000000000E+00 -0.33395075941E+03  0.33395075945E+03  0.50400001928E-02 0. -1.
    10030    2    1    2    0    0  0.00000000000E+00  0.00000000000E+00  0.41496748660E+03  0.10828690055E+04  0.10002036133E+04 0.  0.
        2    1    3    3  502    0  0.18231286697E+03 -0.45222344574E+03  0.87130465877E+02  0.49531378381E+03  0.25500000920E-02 0. -1.
       -2    1    3    3    0  502 -0.18231286697E+03  0.45222344574E+03  0.32783702073E+03  0.58755522166E+03  0.25500000920E-02 0.  1.
</event>
<event>
 5   0  0.1020150E-03  0.9982575E+03  0.7818609E-02  0.9310458E-01
       -2   -1    0    0    0  501  0.00000000000E+00  0.00000000000E+00  0.16768998985E+03  0.16768998987E+03  0.25500000920E-02 0.  1.
        2   -1    0    0  501    0  0.00000000000E+00  0.00000000000E+00 -0.14856551423E+04  0.14856551423E+04  0.25500000920E-02 0. -1.
    10030    2    1    2    0    0  0.00000000000E+00  0.00000000000E+00 -0.13179651525E+04  0.16533451322E+04  0.99825747331E+03 0.  0.
        5    1    3    3  502    0  0.49421286202E+03 -0.61391733856E+02 -0.60424901555E+03  0.78304167243E+03  0.46999998093E+01 0.  1.
       -5    1    3    3    0  502 -0.49421286202E+03  0.61391733856E+02 -0.71371613691E+03  0.87030345975E+03  0.46999998093E+01 0. -1.
</event>
<event>
 5   0  0.5826939E-04  0.9997512E+03  0.7818609E-02  0.9308818E-01
        1   -1    0    0  501    0  0.00000000000E+00  0.00000000000E+00  0.95082947347E+03  0.95082947348E+03  0.50400001928E-02 0.  1.
       -1   -1    0    0    0  501  0.00000000000E+00  0.00000000000E+00 -0.26279752286E+03  0.26279752291E+03  0.50400001928E-02 0. -1.
    10030    2    1    2    0    0  0.00000000000E+00  0.00000000000E+00  0.68803195060E+03  0.12136269964E+04  0.99975122972E+03 0.  0.
        1    1    3    3  502    0 -0.35811388020E+03 -0.32823642222E+03  0.48708939136E+03  0.68792497794E+03  0.50400001928E-02 0.  1.
       -1    1    3    3    0  502  0.35811388020E+03  0.32823642222E+03  0.20094255924E+03  0.52570201845E+03  0.50400001928E-02 0. -1.
</event>
<event>
 5   0  0.9741826E-04  0.1000163E+04  0.7818609E-02  0.9308366E-01
       -2   -1    0    0    0  501  0.00000000000E+00  0.00000000000E+00  0.95260084998E+03  0.95260084998E+03  0.25500000920E-02 0.  1.
        2   -1    0    0  501    0  0.00000000000E+00  0.00000000000E+00 -0.26252492167E+03  0.26252492168E+03  0.25500000920E-02 0. -1.
    10030    2    1    2    0    0  0.00000000000E+00  0.00000000000E+00  0.69007592831E+03  0.12151257717E+04  0.10001629138E+04 0.  0.
        3    1    3    3  502    0  0.30763635394E+03 -0.38596179689E+03  0.44279865940E+03  0.66308166759E+03  0.10100000352E+00 0.  1.
       -3    1    3    3    0  502 -0.30763635394E+03  0.38596179689E+03  0.24727726891E+03  0.55204410407E+03  0.10100000352E+00 0. -1.
</event>
<event>
 5   0  0.1006749E-03  0.1004902E+04  0.7818609E-02  0.9303185E-01
       -2   -1    0    0    0  501  0.00000000000E+00  0.00000000000E+00  0.31249928052E+03  0.31249928053E+03  0.25500000920E-02 0. -1.
        2   -1    0    0  501    0  0.00000000000E+00  0.00000000000E+00 -0.80786349986E+03  0.80786349986E+03  0.25500000920E-02 0.  1.
    10030    2    1    2    0    0  0.00000000000E+00  0.00000000000E+00 -0.49536421933E+03  0.11203627804E+04  0.10049015125E+04 0.  0.
        1    1    3    3  502    0  0.17420106297E+02 -0.12167941166E+03  0.29547745710E+03  0.32002541619E+03  0.50400001928E-02 0. -1.
       -1    1    3    3    0  502 -0.17420106297E+02  0.12167941166E+03 -0.79084167644E+03  0.80033736420E+03  0.50400001928E-02 0.  1.
</event>
<event>
 5   0  0.9741826E-04  0.9985293E+03  0.7818609E-02  0.9310159E-01
       -2   -1    0    0    0  501  0.00000000000E+00  0.00000000000E+00  0.10580614011E+03  0.10580614014E+03  0.25500000920E-02 0. -1.
        2   -1    0    0  501    0  0.00000000000E+00  0.00000000000E+00 -0.23558668984E+04  0.23558668984E+04  0.25500000920E-02 0.  1.
    10030    2    1    2    0    0  0.00000000000E+00  0.00000000000E+00 -0.22500607583E+04  0.24616730386E+04  0.99852928486E+03 0.  0.
        3    1    3    3  502    0  0.42128286423E+03 -0.23253331975E+03 -0.79691238624E+03  0.93092446420E+03  0.10100000352E+00 0. -1.
       -3    1    3    3    0  502 -0.42128286423E+03  0.23253331975E+03 -0.14531483721E+04  0.15307485744E+04  0.10100000352E+00 0.  1.
</event>
<event>
 5   0  0.3854625E-04  0.1001084E+04  0.7818609E-02  0.9307357E-01
        4   -1    0    0  501    0  0.00000000000E+00  0.00000000000E+00  0.45637526734E+03  0.45637703441E+03  0.12699999809E+01 0.  1.
       -4   -1    0    0    0  501  0.00000000000E+00  0.00000000000E+00 -0.54897906271E+03  0.54898053171E+03  0.12699999809E+01 0. -1.
    10030    2    1    2    0    0  0.00000000000E+00  0.00000000000E+00 -0.92603795373E+02  0.10053575661E+04  0.10010835993E+04 0.  0.
        5    1    3    3  502    0  0.23123501307E+03 -0.38093804205E+03  0.18256705305E+03  0.48159759344E+03  0.46999998093E+01 0. -1.
       -5    1    3    3    0  502 -0.23123501307E+03  0.38093804205E+03 -0.27517084842E+03  0.52375997267E+03  0.46999998093E+01 0.  1.
</event>
<event>
 5   0  0.9674819E-04  0.1007427E+04  0.7818609E-02  0.9300436E-01
        2   -1    0    0  501    0  0.00000000000E+00  0.00000000000E+00  0.15030794251E+04  0.15030794251E+04  0.25500000920E-02 0.  1.
       -2   -1    0    0    0  501  0.00000000000E+00  0.00000000000E+00 -0.16880511821E+03  0.16880511823E+03  0.25500000920E-02 0. -1.
    10030    2    1    2    0    0  0.00000000000E+00  0.00000000000E+00  0.13342743069E+04  0.16718845433E+04  0.10074274168E+04 0.  0.
        4    1    3    3  502    0 -0.16466169083E+03 -0.42346219643E+03  0.10280374153E+04  0.11239645210E+04  0.12699999809E+01 0.  1.
       -4    1    3    3    0  502  0.16466169083E+03  0.42346219643E+03  0.30623689157E+03  0.54792002235E+03  0.12699999809E+01 0. -1.
</event>
<event>
 5   0  0.5960102E-04  0.9999519E+03  0.7818609E-02  0.9308598E-01
       -1   -1    0    0    0  501  0.00000000000E+00  0.00000000000E+00  0.42252231434E+03  0.42252231437E+03  0.50400001928E-02 0.  1.
        1   -1    0    0  501    0  0.00000000000E+00  0.00000000000E+00 -0.59162777107E+03  0.59162777109E+03  0.50400001928E-02 0. -1.
    10030    2    1    2    0    0  0.00000000000E+00  0.00000000000E+00 -0.16910545673E+03  0.10141500855E+04  0.99995186902E+03 0.  0.
        5    1    3    3  502    0  0.12406375866E+03  0.38977068232E+03  0.20700228075E+03  0.45845941504E+03  0.46999998093E+01 0.  1.
       -5    1    3    3    0  502 -0.12406375866E+03 -0.38977068232E+03 -0.37610773747E+03  0.55569067042E+03  0.46999998093E+01 0. -1.
</event>
<event>
 5   0  0.3854625E-04  0.9965568E+03  0.7818609E-02  0.9312329E-01
       -4   -1    0    0    0  501  0.00000000000E+00  0.00000000000E+00  0.41493346532E+03  0.41493540888E+03  0.12699999809E+01 0.  1.
        4   -1    0    0  501    0  0.00000000000E+00  0.00000000000E+00 -0.59836029053E+03  0.59836163830E+03  0.12699999809E+01 0. -1.
    10030    2    1    2    0    0  0.00000000000E+00  0.00000000000E+00 -0.18342682521E+03  0.10132970472E+04  0.99655682508E+03 0.  0.
        1    1    3    3  502    0 -0.30142032258E+03 -0.24159246780E+02  0.31097391866E+03  0.43375414486E+03  0.50400001928E-02 0.  1.
       -1    1    3    3    0  502  0.30142032258E+03  0.24159246780E+02 -0.49440074387E+03  0.57954290232E+03  0.50400001928E-02 0. -1.
</event>
<event>
 5   0  0.3854625E-04  0.9987998E+03  0.7818609E-02  0.9309862E-01
       -3   -1    0    0    0  501  0.00000000000E+00  0.00000000000E+00  0.44902974782E+03  0.44902975918E+03  0.10100000352E+00 0. -1.
        3   -1    0    0  501    0  0.00000000000E+00  0.00000000000E+00 -0.55542027962E+03  0.55542028881E+03  0.10100000352E+00 0.  1.
    10030    2    1    2    0    0  0.00000000000E+00  0.00000000000E+00 -0.10639053181E+03  0.10044500480E+04  0.99879975652E+03 0.  0.
        5    1    3    3  502    0  0.51808209960E+02  0.14924333206E+03 -0.52960559066E+03  0.55268601796E+03  0.46999998093E+01 0.  1.
       -5    1    3    3    0  502 -0.51808209960E+02 -0.14924333206E+03  0.42321505886E+03  0.45176403003E+03  0.46999998093E+01 0. -1.
</event>
<event>
 5   0  0.3854625E-04  0.9997892E+03  0.7818609E-02  0.9308776E-01
        3   -1    0    0  501    0  0.00000000000E+00  0.00000000000E+00  0.39937203353E+03  0.39937204630E+03  0.10100000352E+00 0.  1.
       -3   -1    0    0    0  501  0.00000000000E+00  0.00000000000E+00 -0.62571881508E+03  0.62571882323E+03  0.10100000352E+00 0. -1.
    10030    2    1    2    0    0  0.00000000000E+00  0.00000000000E+00 -0.22634678155E+03  0.10250908695E+04  0.99978919042E+03 0.  0.
        5    1    3    3  502    0  0.35207515082E+03 -0.31155232680E+03 -0.28732700761E+03  0.55099969461E+03  0.46999998093E+01 0. -1.
       -5    1    3    3    0  502 -0.35207515082E+03  0.31155232680E+03  0.60980226053E+02  0.47409117492E+03  0.46999998093E+01 0.  1.
</event>
<event>
 5   0  0.3854625E-04  0.9983283E+03  0.7818609E-02  0.9310380E-01
        3   -1    0    0  501    0  0.00000000000E+00  0.00000000000E+00  0.10812856699E+03  0.10812861416E+03  0.10100000352E+00 0.  1.
       -3   -1    0    0    0  501  0.00000000000E+00  0.00000000000E+00 -0.23043382000E+04  0.23043382022E+04  0.10100000352E+00 0. -1.
    10030    2    1    2    0    0  0.00000000000E+00  0.00000000000E+00 -0.21962096330E+04  0.24124668163E+04  0.99832829667E+03 0.  0.
        4    1    3    3  502    0  0.37139844683E+03  0.26754734353E+03 -0.15792557570E+04  0.16442532488E+04  0.12699999809E+01 0. -1.
       -4    1    3    3    0  502 -0.37139844683E+03 -0.26754734353E+03 -0.61695387599E+03  0.76821356753E+03  0.12699999809E+01 0.  1.
</event>
<event>
 5   0  0.5888774E-04  0.1000313E+04  0.7818609E-02  0.9308201E-01
       -1   -1    0    0    0  501  0.00000000000E+00  0.00000000000E+00  0.16090845150E+03  0.16090845158E+03  0.50400001928E-02 0.  1.
        1   -1    0    0  501    0  0.00000000000E+00  0.00000000000E+00 -0.15546516448E+04  0.15546516448E+04  0.50400001928E-02 0. -1.
    10030    2    1    2    0    0  0.00000000000E+00  0.00000000000E+00 -0.13937431933E+04  0.17155600964E+04  0.10003131287E+04 0.  0.
        2    1    3    3  502    0 -0.31037768138E+03  0.36415501044E+03 -0.94666170251E+03  0.10607127584E+04  0.25500000920E-02 0. -1.
       -2    1    3    3    0  502  0.31037768138E+03 -0.36415501044E+03 -0.44708149079E+03  0.65484733804E+03  0.25500000920E-02 0.  1.
</event>
<event>
 5   0  0.5758786E-04  0.9993894E+03  0.7818609E-02  0.9309215E-01
       -1   -1    0    0    0  501  0.00000000000E+00  0.00000000000E+00  0.31369419190E+03  0.31369419194E+03  0.50400001928E-02 0. -1.
        1   -1    0    0  501    0  0.00000000000E+00  0.00000000000E+00 -0.79598157571E+03  0.79598157572E+03  0.50400001928E-02 0.  1.
    10030    2    1    2    0    0  0.00000000000E+00  0.00000000000E+00 -0.48228738380E+03  0.11096757677E+04  0.99938940798E+03 0.  0.
        3    1    3    3  502    0  0.37542719930E+03  0.31248604791E+03 -0.35813554291E+03  0.60568489284E+03  0.10100000352E+00 0.  1.
       -3    1    3    3    0  502 -0.37542719930E+03 -0.31248604791E+03 -0.12415184089E+03  0.50399087483E+03  0.10100000352E+00 0. -1.
</event>
<event>
 5   0  0.5960102E-04  0.1000158E+04  0.7818609E-02  0.9308372E-01
        1   -1    0    0  501    0  0.00000000000E+00  0.00000000000E+00  0.44199820183E+03  0.44199820186E+03  0.50400001928E-02 0. -1.
       -1   -1    0    0    0  501  0.00000000000E+00  0.00000000000E+00 -0.56579162637E+03  0.56579162639E+03  0.50400001928E-02 0.  1.
    10030    2    1    2    0    0  0.00000000000E+00  0.00000000000E+00 -0.12379342454E+03  0.10077898283E+04  0.10001577505E+04 0.  0.
        5    1    3    3  502    0 -0.33344269362E+03  0.32985402883E+03 -0.23662432570E+03  0.52535785116E+03  0.46999998093E+01 0.  1.
       -5    1    3    3    0  502  0.33344269362E+03 -0.32985402883E+03  0.11283090116E+03  0.48243197709E+03  0.46999998093E+01 0. -1.
</event>
<event>
 5   0  0.1020150E-03  0.1000579E+04  0.7818609E-02  0.9307910E-01
        2   -1    0    0  501    0  0.00000000000E+00  0.00000000000E+00  0.45267633735E+03  0.45267633736E+03  0.25500000920E-02 0. -1.
       -2   -1    0    0    0  501  0.00000000000E+00  0.00000000000E+00 -0.55291085624E+03  0.55291085624E+03  0.25500000920E-02 0.  1.
    10030    2    1    2    0    0  0.00000000000E+00  0.00000000000E+00 -0.10023451888E+03  0.10055871936E+04  0.10005791549E+04 0.  0.
        5    1    3    3  502    0 -0.17847197748E+03  0.40356353198E+03  0.18675671745E+03  0.47918256709E+03  0.46999998093E+01 0.  1.
       -5    1    3    3    0  502  0.17847197748E+03 -0.40356353198E+03 -0.28699123633E+03  0.52640462652E+03  0.46999998093E+01 0. -1.
</event>
<event>
 5   0  0.5826939E-04  0.9996746E+03  0.7818609E-02  0.9308902E-01
        1   -1    0    0  501    0  0.00000000000E+00  0.00000000000E+00  0.51913182921E+03  0.51913182923E+03  0.50400001928E-02 0.  1.
       -1   -1    0    0    0  501  0.00000000000E+00  0.00000000000E+00 -0.48125993333E+03  0.48125993336E+03  0.50400001928E-02 0. -1.
    10030    2    1    2    0    0  0.00000000000E+00  0.00000000000E+00  0.37871895877E+02  0.10003917626E+04  0.99967464615E+03 0.  0.
        1    1    3    3  502    0 -0.21621524633E+03  0.25631744693E+03  0.38986298496E+03  0.51423809021E+03  0.50400001928E-02 0.  1.
       -1    1    3    3    0  502  0.21621524633E+03 -0.25631744693E+03 -0.35199108909E+03  0.48615367238E+03  0.50400001928E-02 0. -1.
</event>
<event>
 5   0  0.5960102E-04  0.1002047E+04  0.7818609E-02  0.9306303E-01
       -1   -1    0    0    0  501  0.00000000000E+00  0.00000000000E+00  0.25320088377E+03  0.25320088382E+03  0.50400001928E-02 0.  1.
        1   -1    0    0  501    0  0.00000000000E+00  0.00000000000E+00 -0.99140380053E+03  0.99140380054E+03  0.50400001928E-02 0. -1.
    10030    2    1    2    0    0  0.00000000000E+00  0.00000000000E+00 -0.73820291676E+03  0.12446046844E+04  0.10020465428E+04 0.  0.
        5    1    3    3  502    0  0.24983131703E+02 -0.42067721652E+03 -0.32576363716E+02  0.42270177056E+03  0.46999998093E+01 0.  1.
       -5    1    3    3    0  502 -0.24983131703E+02  0.42067721652E+03 -0.70562655304E+03  0.82190291380E+03  0.46999998093E+01 0. -1.
</event>
<event>
 5   0  0.5768102E-04  0.9951201E+03  0.7818609E-02  0.9313913E-01
        1   -1    0    0  501    0  0.00000000000E+00  0.00000000000E+00  0.23173104008E+03  0.23173104014E+03  0.50400001928E-02 0.  1.
       -1   -1    0    0    0  501  0.00000000000E+00  0.00000000000E+00 -0.10683333721E+04  0.10683333721E+04  0.50400001928E-02 0. -1.
    10030    2    1    2    0    0  0.00000000000E+00  0.00000000000E+00 -0.83660233199E+03  0.13000644122E+04  0.99512010031E+03 0.  0.
        4    1    3    3  502    0  0.34605052151E+03  0.30776393616E+03 -0.65596831974E+03  0.80297300903E+03  0.12699999809E+01 0. -1.
       -4    1    3    3    0  502 -0.34605052151E+03 -0.30776393616E+03 -0.18063401225E+03  0.49709140319E+03  0.12699999809E+01 0.  1.
</event>
<event>
 5   0  0.5888774E-04  0.9977717E+03  0.7818609E-02  0.9310992E-01
       -1   -1    0    0    0  501  0.00000000000E+00  0.00000000000E+00  0.69415617628E+03  0.69415617629E+03  0.50400001928E-02 0. -1.
        1   -1    0    0  501    0  0.00000000000E+00  0.00000000000E+00 -0.35854623741E+03  0.35854623745E+03  0.50400001928E-02 0.  1.
    10030    2    1    2    0    0  0.00000000000E+00  0.00000000000E+00  0.33560993886E+03  0.10527024137E+04  0.99777168773E+03 0.  0.
        2    1    3    3  502    0  0.10865072680E+03  0.22710415719E+03 -0.28661059303E+03  0.38147989553E+03  0.25500000920E-02 0.  1.
       -2    1    3    3    0  502 -0.10865072680E+03 -0.22710415719E+03  0.62222053190E+03  0.67122251822E+03  0.25500000920E-02 0. -1.
</event>
<event>
 5   0  0.1006006E-03  0.9996568E+03  0.7818609E-02  0.9308921E-01
        2   -1    0    0  501    0  0.00000000000E+00  0.00000000000E+00  0.18215109703E+04  0.18215109703E+04  0.25500000920E-02 0.  1.
       -2   -1    0    0    0  501  0.00000000000E+00  0.00000000000E+00 -0.13715449690E+03  0.13715449693E+03  0.25500000920E-02 0. -1.
    10030    2    1    2    0    0  0.00000000000E+00  0.00000000000E+00  0.16843564734E+04  0.19586654672E+04  0.99965678261E+03 0.  0.
        2    1    3    3  502    0  0.13754813572E+03 -0.46961573661E+03  0.64265267597E+03  0.80775051324E+03  0.25500000920E-02 0. -1.
       -2    1    3    3    0  502 -0.13754813572E+03  0.46961573661E+03  0.10417037974E+04  0.11509149540E+04  0.25500000920E-02 0.  1.
</event>
<event>
 5   0  0.9741826E-04  0.9995150E+03  0.7818609E-02  0.9309077E-01
       -2   -1    0    0    0  501  0.00000000000E+00  0.00000000000E+00  0.81590825938E+03  0.81590825938E+03  0.25500000920E-02 0. -1.
        2   -1    0    0  501    0  0.00000000000E+00  0.00000000000E+00 -0.30610983676E+03  0.30610983677E+03  0.25500000920E-02 0.  1.
    10030    2    1    2    0    0  0.00000000000E+00  0.00000000000E+00  0.50979842262E+03  0.11220180961E+04  0.99951497056E+03 0.  0.
        3    1    3    3  502    0  0.18799527166E+03 -0.29636993828E+03  0.65428572693E+03  0.74247369323E+03  0.10100000352E+00 0. -1.
       -3    1    3    3    0  502 -0.18799527166E+03  0.29636993828E+03 -0.14448730431E+03  0.37954440292E+03  0.10100000352E+00 0.  1.
</event>
<event>
 5   0  0.9674819E-04  0.1000370E+04  0.7818609E-02  0.9308139E-01
       -2   -1    0    0    0  501  0.00000000000E+00  0.00000000000E+00  0.45847501761E+03  0.45847501761E+03  0.25500000920E-02 0. -1.
        2   -1    0    0  501    0  0.00000000000E+00  0.00000000000E+00 -0.54569009924E+03  0.54569009925E+03  0.25500000920E-02 0.  1.
    10030    2    1    2    0    0  0.00000000000E+00  0.00000000000E+00 -0.87215081633E+02  0.10041651169E+04  0.10003704871E+04 0.  0.
        4    1    3    3  502    0  0.14634695769E+03  0.38268738476E+03 -0.33160454352E+03  0.52709605639E+03  0.12699999809E+01 0.  1.
       -4    1    3    3    0  502 -0.14634695769E+03 -0.38268738476E+03  0.24438946189E+03  0.47706906047E+03  0.12699999809E+01 0. -1.
</event>
<event>
 5   0  0.5960102E-04  0.9999358E+03  0.7818609E-02  0.9308615E-01
       -1   -1    0    0    0  501  0.00000000000E+00  0.00000000000E+00  0.19478993086E+03  0.19478993093E+03  0.50400001928E-02 0. -1.
        1   -1    0    0  501    0  0.00000000000E+00  0.00000000000E+00 -0.12832691869E+04  0.12832691869E+04  0.50400001928E-02 0.  1.
    10030    2    1    2    0    0  0.00000000000E+00  0.00000000000E+00 -0.10884792560E+04  0.14780591178E+04  0.99993583042E+03 0.  0.
        5    1    3    3  502    0 -0.70355802941E+01 -0.30398282989E+03  0.42367345983E+02  0.30703768867E+03  0.46999998093E+01 0. -1.
       -5    1    3    3    0  502  0.70355802941E+01  0.30398282989E+03 -0.11308466020E+04  0.11710214291E+04  0.46999998093E+01 0.  1.
</event>
<event>
 5   0  0.1006749E-03  0.1008021E+04  0.7818609E-02  0.9299792E-01
       -2   -1    0    0    0  501  0.00000000000E+00  0.00000000000E+00  0.50822521368E+03  0.50822521368E+03  0.25500000920E-02 0. -1.
        2   -1    0    0  501    0  0.00000000000E+00  0.00000000000E+00 -0.49983028094E+03  0.49983028094E+03  0.25500000920E-02 0.  1.
    10030    2    1    2    0    0  0.00000000000E+00  0.00000000000E+00  0.83949327405E+01  0.10080554946E+04  0.10080205382E+04 0.  0.
        1    1    3    3  502    0 -0.31406595084E+02 -0.41369899184E+03 -0.28198219953E+03  0.50164448661E+03  0.50400001928E-02 0.  1.
       -1    1    3    3    0  502  0.31406595084E+02  0.41369899184E+03  0.29037713227E+03  0.50641100802E+03  0.50400001928E-02 0. -1.
</event>
<event>
 5   0  0.1020150E-03  0.9995262E+03  0.7818609E-02  0.9309065E-01
        2   -1    0    0  501    0  0.00000000000E+00  0.00000000000E+00  0.77613100153E+03  0.77613100154E+03  0.25500000920E-02 0.  1.
       -2   -1    0    0    0  501  0.00000000000E+00  0.00000000000E+00 -0.32180541997E+03  0.32180541998E+03  0.25500000920E-02 0. -1.
    10030    2    1    2    0    0  0.00000000000E+00  0.00000000000E+00  0.45432558156E+03  0.10979364215E+04  0.99952621358E+03 0.  0.
        5    1    3    3  502    0  0.22598765241E+03 -0.56414999443E+02  0.71283478076E+03  0.74993905476E+03  0.46999998093E+01 0.  1.
       -5    1    3    3    0  502 -0.22598765241E+03  0.56414999443E+02 -0.25850919919E+03  0.34799736676E+03  0.46999998093E+01 0. -1.
</event>
<event>
 5   0  0.5768102E-04  0.1000691E+04  0.7818609E-02  0.9307787E-01
        1   -1    0    0  501    0  0.00000000000E+00  0.00000000000E+00  0.11545725773E+04  0.11545725773E+04  0.50400001928E-02 0. -1.
       -1   -1    0    0    0  501  0.00000000000E+00  0.00000000000E+00 -0.21682975780E+03  0.21682975785E+03  0.50400001928E-02 0.  1.
    10030    2    1    2    0    0  0.00000000000E+00  0.00000000000E+00  0.93774281946E+03  0.13714023351E+04  0.10006911458E+04 0.  0.
        4    1    3    3  502    0 -0.16095241647E+03 -0.24885727890E+02 -0.17948438932E+03  0.24236591907E+03  0.12699999809E+01 0.  1.
       -4    1    3    3    0  502  0.16095241647E+03  0.24885727890E+02  0.11172272088E+04  0.11290364160E+04  0.12699999809E+01 0. -1.
</event>
<event>
 5   0  0.5888774E-04  0.9964035E+03  0.7818609E-02  0.9312498E-01
        1   -1    0    0  501    0  0.00000000000E+00  0.00000000000E+00  0.10421463920E+04  0.10421463920E+04  0.50400001928E-02 0.  1.
       -1   -1    0    0    0  501  0.00000000000E+00  0.00000000000E+00 -0.23816707886E+03  0.23816707891E+03  0.50400001928E-02 0. -1.
    10030    2    1    2    0    0  0.00000000000E+00  0.00000000000E+00  0.80397931317E+03  0.12803134710E+04  0.99640345639E+03 0.  0.
        2    1    3    3  502    0 -0.13279874887E+03  0.47104635058E+03  0.52173558274E+03  0.71535179485E+03  0.25500000920E-02 0.  1.
       -2    1    3    3    0  502  0.13279874887E+03 -0.47104635058E+03  0.28224373043E+03  0.56496167611E+03  0.25500000920E-02 0. -1.
</event>
<event>
 5   0  0.5888774E-04  0.1000411E+04  0.7818609E-02  0.9308094E-01
        1   -1    0    0  501    0  0.00000000000E+00  0.00000000000E+00  0.89432562199E+03  0.89432562200E+03  0.50400001928E-02 0.  1.
       -1   -1    0    0    0  501  0.00000000000E+00  0.00000000000E+00 -0.27977007200E+03  0.27977007205E+03  0.50400001928E-02 0. -1.
    10030    2    1    2    0    0  0.00000000000E+00  0.00000000000E+00  0.61455554999E+03  0.11740956940E+04  0.10004110029E+04 0.  0.
        2    1    3    3  502    0  0.70219984582E+02 -0.89290063940E+02  0.87898768243E+03  0.88629730206E+03  0.25500000920E-02 0.  1.
       -2    1    3    3    0  502 -0.70219984582E+02  0.89290063940E+02 -0.26443213245E+03  0.28779839199E+03  0.25500000920E-02 0. -1.
</event>
<event>
 5   0  0.5758786E-04  0.1005620E+04  0.7818609E-02  0.9302402E-01
       -1   -1    0    0    0  501  0.00000000000E+00  0.00000000000E+00  0.13347750637E+03  0.13347750646E+03  0.50400001928E-02 0. -1.
        1   -1    0    0  501    0  0.00000000000E+00  0.00000000000E+00 -0.18940855334E+04  0.18940855334E+04  0.50400001928E-02 0.  1.
    10030    2    1    2    0    0  0.00000000000E+00  0.00000000000E+00 -0.17606080271E+04  0.20275630399E+04  0.10056198366E+04 0.  0.
        3    1    3    3  502    0  0.45512417123E+03  0.63830384060E+02 -0.46904467323E+03  0.65666981418E+03  0.10100000352E+00 0. -1.
       -3    1    3    3    0  502 -0.45512417123E+03 -0.63830384060E+02 -0.12915633538E+04  0.13708932257E+04  0.10100000352E+00 0.  1.
</event>
<event>
 5   0  0.5888774E-04  0.1001388E+04  0.7818609E-02  0.9307024E-01
       -1   -1    0    0    0  501  0.00000000000E+00  0.00000000000E+00  0.32529062451E+03  0.32529062455E+03  0.50400001928E-02 0.  1.
        1   -1    0    0  501    0  0.00000000000E+00  0.00000000000E+00 -0.77067833830E+03  0.77067833832E+03  0.50400001928E-02 0. -1.
    10030    2    1    2    0    0  0.00000000000E+00  0.00000000000E+00 -0.44538771379E+03  0.10959689629E+04  0.10013879128E+04 0.  0.
        2    1    3    3  502    0 -0.22682817511E+03 -0.25781314023E+03 -0.62149406527E+03  0.71005176535E+03  0.25500000920E-02 0. -1.
       -2    1    3    3    0  502  0.22682817511E+03  0.25781314023E+03  0.17610635148E+03  0.38591719751E+03  0.25500000920E-02 0.  1.
</event>
<event>
 5   0  0.1006006E-03  0.1001668E+04  0.7818609E-02  0.9306717E-01
       -2   -1    0    0    0  501  0.00000000000E+00  0.00000000000E+00  0.36783291096E+03  0.36783291097E+03  0.25500000920E-02 0.  1.
        2   -1    0    0  501    0  0.00000000000E+00  0.00000000000E+00 -0.68192584089E+03  0.68192584089E+03  0.25500000920E-02 0. -1.
    10030    2    1    2    0    0  0.00000000000E+00  0.00000000000E+00 -0.31409292992E+03  0.10497587519E+04  0.10016681429E+04 0.  0.
        2    1    3    3  502    0  0.15288624514E+03  0.42281725569E+03  0.74196365214E+02  0.45569039520E+03  0.25500000920E-02 0. -1.
       -2    1    3    3    0  502 -0.15288624514E+03 -0.42281725569E+03 -0.38828929514E+03  0.59406835666E+03  0.25500000920E-02 0.  1.
</event>
<event>
 5   0  0.1006006E-03  0.1000180E+04  0.7818609E-02  0.9308348E-01
        2   -1    0    0  501    0  0.00000000000E+00  0.00000000000E+00  0.52868730514E+03  0.52868730514E+03  0.25500000920E-02 0.  1.
       -2   -1    0    0    0  501  0.00000000000E+00  0.00000000000E+00 -0.47303926279E+03  0.47303926280E+03  0.25500000920E-02 0. -1.
    10030    2    1    2    0    0  0.00000000000E+00  0.00000000000E+00  0.55648042346E+02  0.10017265679E+04  0.10001796900E+04 0.  0.
        2    1    3    3  502    0 -0.16343174738E+03 -0.17648198706E+03 -0.41129908614E+03  0.47646906098E+03  0.25500000920E-02 0. -1.
       -2    1    3    3    0  502  0.16343174738E+03  0.17648198706E+03  0.46694712848E+03  0.52525750696E+03  0.25500000920E-02 0.  1.
</event>
<event>
 5   0  0.9741826E-04  0.1001286E+04  0.7818609E-02  0.9307135E-01
        2   -1    0    0  501    0  0.00000000000E+00  0.00000000000E+00  0.63270375083E+03  0.63270375083E+03  0.25500000920E-02 0. -1.
       -2   -1    0    0    0  501  0.00000000000E+00  0.00000000000E+00 -0.39614657828E+03  0.39614657829E+03  0.25500000920E-02 0.  1.
    10030    2    1    2    0    0  0.00000000000E+00  0.00000000000E+00  0.23655717254E+03  0.10288503291E+04  0.10012860250E+04 0.  0.
        3    1    3    3  502    0 -0.84843582428E+02 -0.35906081943E+03 -0.22944592391E+03  0.43447502544E+03  0.10100000352E+00 0.  1.
       -3    1    3    3    0  502  0.84843582428E+02  0.35906081943E+03  0.46600309645E+03  0.59437530369E+03  0.10100000352E+00 0. -1.
</event>
<event>
 5   0  0.3854625E-04  0.9991414E+03  0.7818609E-02  0.9309487E-01
        3   -1    0    0  501    0  0.00000000000E+00  0.00000000000E+00  0.29147757631E+03  0.29147759381E+03  0.10100000352E+00 0.  1.
       -3   -1    0    0    0  501  0.00000000000E+00  0.00000000000E+00 -0.85622662483E+03  0.85622663078E+03  0.10100000352E+00 0. -1.
    10030    2    1    2    0    0  0.00000000000E+00  0.00000000000E+00 -0.56474904852E+03  0.11477042246E+04  0.99914138106E+03 0.  0.
        5    1    3    3  502    0 -0.16171512901E+02  0.15829940296E+03  0.26156235302E+03  0.30619793161E+03  0.46999998093E+01 0.  1.
       -5    1    3    3    0  502  0.16171512901E+02 -0.15829940296E+03 -0.82631140154E+03  0.84150629298E+03  0.46999998093E+01 0. -1.
</event>
<event>
 5   0  0.5826939E-04  0.9996621E+03  0.7818609E-02  0.9308916E-01
        1   -1    0    0  501    0  0.00000000000E+00  0.00000000000E+00  0.41199295634E+03  0.41199295637E+03  0.50400001928E-02 0.  1.
       -1   -1    0    0    0  501  0.00000000000E+00  0.00000000000E+00 -0.60639645274E+03  0.60639645276E+03  0.50400001928E-02 0. -1.
    10030    2    1    2    0    0  0.00000000000E+00  0.00000000000E+00 -0.19440349641E+03  0.10183894091E+04  0.99966207751E+03 0.  0.
        1    1    3    3  502    0  0.13598030184E+03 -0.24138934293E+03 -0.52101406462E+03  0.59009754526E+03  0.50400001928E-02 0. -1.
       -1    1    3    3    0  502 -0.13598030184E+03  0.24138934293E+03  0.32661056821E+03  0.42829186387E+03  0.50400001928E-02 0.  1.
</event>
<event>
 5   0  0.5888774E-04  0.1000460E+04  0.7818609E-02  0.9308040E-01
       -1   -1    0    0    0  501  0.00000000000E+00  0.00000000000E+00  0.14082013490E+04  0.14082013491E+04  0.50400001928E-02 0.  1.
        1   -1    0    0  501    0  0.00000000000E+00  0.00000000000E+00 -0.17769482157E+03  0.17769482164E+03  0.50400001928E-02 0. -1.
    10030    2    1    2    0    0  0.00000000000E+00  0.00000000000E+00  0.12305065275E+04  0.15858961707E+04  0.10004600692E+04 0.  0.
        2    1    3    3  502    0  0.32572123933E+03 -0.36956439344E+03  0.75306181306E+03  0.89987458067E+03  0.25500000920E-02 0.  1.
       -2    1    3    3    0  502 -0.32572123933E+03  0.36956439344E+03  0.47744471442E+03  0.68602159003E+03  0.25500000920E-02 0. -1.
</event>
<event>
 5   0  0.5888774E-04  0.1001312E+04  0.7818609E-02  0.9307107E-01
       -1   -1    0    0    0  501  0.00000000000E+00  0.00000000000E+00  0.21889606667E+03  0.21889606673E+03  0.50400001928E-02 0. -1.
        1   -1    0    0  501    0  0.00000000000E+00  0.00000000000E+00 -0.11450941086E+04  0.11450941086E+04  0.50400001928E-02 0.  1.
    10030    2    1    2    0    0  0.00000000000E+00  0.00000000000E+00 -0.92619804197E+03  0.13639901754E+04  0.10013123317E+04 0.  0.
        2    1    3    3  502    0 -0.15826499845E+03 -0.47498285260E+03 -0.46347550941E+03  0.68225073678E+03  0.25500000920E-02 0. -1.
       -2    1    3    3    0  502  0.15826499845E+03  0.47498285260E+03 -0.46272253256E+03  0.68173943860E+03  0.25500000920E-02 0.  1.
</event>
<event>
 5   0  0.9741826E-04  0.1000123E+04  0.7818609E-02  0.9308410E-01
       -2   -1    0    0    0  501  0.00000000000E+00  0.00000000000E+00  0.17800113616E+03  0.17800113618E+03  0.25500000920E-02 0. -1.
        2   -1    0    0  501    0  0.00000000000E+00  0.00000000000E+00 -0.14048311376E+04  0.14048311376E+04  0.25500000920E-02 0.  1.
    10030    2    1    2    0    0  0.00000000000E+00  0.00000000000E+00 -0.12268300014E+04  0.15828322738E+04  0.10001230697E+04 0.  0.
        3    1    3    3  502    0 -0.49122784691E+03 -0.37799000052E+02 -0.47793562480E+03  0.68640806642E+03  0.10100000352E+00 0. -1.
       -3    1    3    3    0  502  0.49122784691E+03  0.37799000052E+02 -0.74889437662E+03  0.89642420735E+03  0.10100000352E+00 0.  1.
</event>
<event>
 5   0  0.1006006E-03  0.1005437E+04  0.7818609E-02  0.9302602E-01
        2   -1    0    0  501    0  0.00000000000E+00  0.00000000000E+00  0.35436366599E+03  0.35436366600E+03  0.25500000920E-02 0.  1.
       -2   -1    0    0    0  501  0.00000000000E+00  0.00000000000E+00 -0.71318234297E+03  0.71318234298E+03  0.25500000920E-02 0. -1.
    10030    2    1    2    0    0  0.00000000000E+00  0.00000000000E+00 -0.35881867698E+03  0.10675460090E+04  0.10054370385E+04 0.  0.
        2    1    3    3  502    0  0.49421264795E+03  0.70568124734E+02 -0.24222385663E+03  0.55488593274E+03  0.25500000920E-02 0.  1.
       -2    1    3    3    0  502 -0.49421264795E+03 -0.70568124734E+02 -0.11659482035E+03  0.51266007623E+03  0.25500000920E-02 0. -1.
</event>
<event>
 5   0  0.1006006E-03  0.1001617E+04  0.7818609E-02  0.9306774E-01
       -2   -1    0    0    0  501  0.00000000000E+00  0.00000000000E+00  0.62308902625E+03  0.62308902626E+03  0.25500000920E-02 0.  1.
        2   -1    0    0  501    0  0.00000000000E+00  0.00000000000E+00 -0.40252505692E+03  0.40252505693E+03  0.25500000920E-02 0. -1.
    10030    2    1    2    0    0  0.00000000000E+00  0.00000000000E+00  0.22056396933E+03  0.10256140832E+04  0.10016165849E+04 0.  0.
        2    1    3    3  502    0 -0.24570494306E+03  0.11080433822E+02  0.55698539121E+03  0.60887307469E+03  0.25500000920E-02 0.  1.
       -2    1    3    3    0  502  0.24570494306E+03 -0.11080433822E+02 -0.33642142188E+03  0.41674100850E+03  0.25500000920E-02 0. -1.
</event>
<event>
 5   0  0.5768102E-04  0.9978090E+03  0.7818609E-02  0.9310951E-01
       -1   -1    0    0    0  501  0.00000000000E+00  0.00000000000E+00  0.24527518669E+03  0.24527518674E+03  0.50400001928E-02 0.  1.
        1   -1    0    0  501    0  0.00000000000E+00  0.00000000000E+00 -0.10148018591E+04  0.10148018591E+04  0.50400001928E-02 0. -1.
    10030    2    1    2    0    0  0.00000000000E+00  0.00000000000E+00 -0.76952667239E+03  0.12600770458E+04  0.99780903080E+03 0.  0.
        4    1    3    3  502    0 -0.11537542014E+03  0.23260698445E+03 -0.92275055652E+03  0.95858630245E+03  0.12699999809E+01 0. -1.
       -4    1    3    3    0  502  0.11537542014E+03 -0.23260698445E+03  0.15322388412E+03  0.30149074340E+03  0.12699999809E+01 0.  1.
</event>
<event>
 5   0  0.3854625E-04  0.9997650E+03  0.7818609E-02  0.9308803E-01
       -3   -1    0    0    0  501  0.00000000000E+00  0.00000000000E+00  0.10550117289E+04  0.10550117337E+04  0.10100000352E+00 0.  1.
        3   -1    0    0  501    0  0.00000000000E+00  0.00000000000E+00 -0.23685282242E+03  0.23685284395E+03  0.10100000352E+00 0. -1.
    10030    2    1    2    0    0  0.00000000000E+00  0.00000000000E+00  0.81815890648E+03  0.12918645777E+04  0.99976501780E+03 0.  0.
        2    1    3    3  502    0  0.20164310463E+03 -0.15723829229E+03  0.96410849683E+03  0.99744123429E+03  0.25500000920E-02 0.  1.
       -2    1    3    3    0  502 -0.20164310463E+03  0.15723829229E+03 -0.14594959034E+03  0.29442334339E+03  0.25500000920E-02 0. -1.
</event>
<event>
 5   0  0.1006749E-03  0.1001395E+04  0.7818609E-02  0.9307017E-01
       -2   -1    0    0    0  501  0.00000000000E+00  0.00000000000E+00  0.16863077218E+03  0.16863077220E+03  0.25500000920E-02 0.  1.
        2   -1    0    0  501    0  0.00000000000E+00  0.00000000000E+00 -0.14866667912E+04  0.14866667912E+04  0.25500000920E-02 0. -1.
    10030    2    1    2    0    0  0.00000000000E+00  0.00000000000E+00 -0.13180360190E+04  0.16552975634E+04  0.10013945656E+04 0.  0.
        1    1    3    3  502    0  0.10949389673E+03 -0.35236773971E+03 -0.12184669945E+04  0.12731118388E+04  0.50400001928E-02 0. -1.
       -1    1    3    3    0  502 -0.10949389673E+03  0.35236773971E+03 -0.99569024497E+02  0.38218572458E+03  0.50400001928E-02 0.  1.
</event>
<event>
 5   0  0.9741826E-04  0.1004026E+04  0.7818609E-02  0.9304140E-01
       -2   -1    0    0    0  501  0.00000000000E+00  0.00000000000E+00  0.14529865085E+03  0.14529865088E+03  0.25500000920E-02 0. -1.
        2   -1    0    0  501    0  0.00000000000E+00  0.00000000000E+00 -0.17344775306E+04  0.17344775306E+04  0.25500000920E-02 0.  1.
    10030    2    1    2    0    0  0.00000000000E+00  0.00000000000E+00 -0.15891788798E+04  0.18797761815E+04  0.10040263844E+04 0.  0.
        3    1    3    3  502    0 -0.33655293529E+03 -0.28285797697E+03 -0.12483540853E+04  0.13235046075E+04  0.10100000352E+00 0.  1.
       -3    1    3    3    0  502  0.33655293529E+03  0.28285797697E+03 -0.34082479444E+03  0.55627157405E+03  0.10100000352E+00 0. -1.
</event>
<event>
 5   0  0.3854625E-04  0.9994737E+03  0.7818609E-02  0.9309122E-01
        4   -1    0    0  501    0  0.00000000000E+00  0.00000000000E+00  0.51401427750E+03  0.51401584642E+03  0.12699999809E+01 0. -1.
       -4   -1    0    0    0  501  0.00000000000E+00  0.00000000000E+00 -0.48585281741E+03  0.48585447727E+03  0.12699999809E+01 0.  1.
    10030    2    1    2    0    0  0.00000000000E+00  0.00000000000E+00  0.28161460086E+02  0.99987032369E+03  0.99947365967E+03 0.  0.
        3    1    3    3  502    0 -0.15716964391E+03 -0.10182348455E+03 -0.44942438797E+03  0.48688048808E+03  0.10100000352E+00 0.  1.
       -3    1    3    3    0  502  0.15716964391E+03  0.10182348455E+03  0.47758584806E+03  0.51298983561E+03  0.10100000352E+00 0. -1.
</event>
<event>
 5   0  0.9741826E-04  0.9947221E+03  0.7818609E-02  0.9314353E-01
        2   -1    0    0  501    0  0.00000000000E+00  0.00000000000E+00  0.80635212567E+03  0.80635212567E+03  0.25500000920E-02 0. -1.
       -2   -1    0    0    0  501  0.00000000000E+00  0.00000000000E+00 -0.30677417928E+03  0.30677417929E+03  0.25500000920E-02 0.  1.
    10030    2    1    2    0    0  0.00000000000E+00  0.00000000000E+00  0.49957794638E+03  0.11131263050E+04  0.99472209500E+03 0.  0.
        3    1    3    3  502    0 -0.47168031719E+03  0.15005472573E+03  0.19532002939E+03  0.53211715479E+03  0.10100000352E+00 0.  1.
       -3    1    3    3    0  502  0.47168031719E+03 -0.15005472573E+03  0.30425791700E+03  0.58100915018E+03  0.10100000352E+00 0. -1.
</event>
<event>
 5   0  0.1006006E-03  0.1001609E+04  0.7818609E-02  0.9306782E-01
        2   -1    0    0  501    0  0.00000000000E+00  0.00000000000E+00  0.29120139813E+04  0.29120139813E+04  0.25500000920E-02 0.  1.
       -2   -1    0    0    0  501  0.00000000000E+00  0.00000000000E+00 -0.86127677123E+02  0.86127677161E+02  0.25500000920E-02 0. -1.
    10030    2    1    2    0    0  0.00000000000E+00  0.00000000000E+00  0.28258863041E+04  0.29981416584E+04  0.10016087061E+04 0.  0.
        2    1    3    3  502    0 -0.55790264208E+02 -0.31620461491E+03  0.25633586563E+04  0.25833903137E+04  0.25500000920E-02 0.  1.
       -2    1    3    3    0  502  0.55790264208E+02  0.31620461491E+03  0.26252764786E+03  0.41475134475E+03  0.25500000920E-02 0. -1.
</event>
<event>
 5   0  0.1020150E-03  0.1000060E+04  0.7818609E-02  0.9308479E-01
        2   -1    0    0  501    0  0.00000000000E+00  0.00000000000E+00  0.34879979692E+03  0.34879979693E+03  0.25500000920E-02 0.  1.
       -2   -1    0    0    0  501  0.00000000000E+00  0.00000000000E+00 -0.71682933655E+03  0.71682933655E+03  0.25500000920E-02 0. -1.
    10030    2    1    2    0    0  0.00000000000E+00  0.00000000000E+00 -0.36802953963E+03  0.10656291335E+04  0.10000598522E+04 0.  0.
        5    1    3    3  502    0  0.17707065506E+03  0.27227778709E+03 -0.58909589318E+03  0.67271485161E+03  0.46999998093E+01 0. -1.
       -5    1    3    3    0  502 -0.17707065506E+03 -0.27227778709E+03  0.22106635355E+03  0.39291428187E+03  0.46999998093E+01 0.  1.
</event>
<event>
 5   0  0.5758786E-04  0.1000794E+04  0.7818609E-02  0.9307675E-01
       -1   -1    0    0    0  501  0.00000000000E+00  0.00000000000E+00  0.33367299797E+03  0.33367299801E+03  0.50400001928E-02 0. -1.
        1   -1    0    0  501    0  0.00000000000E+00  0.00000000000E+00 -0.75042654339E+03  0.75042654340E+03  0.50400001928E-02 0.  1.
    10030    2    1    2    0    0  0.00000000000E+00  0.00000000000E+00 -0.41675354541E+03  0.10840995414E+04  0.10007938340E+04 0.  0.
        3    1    3    3  502    0 -0.16887126186E+03  0.14180789822E+03 -0.69495528274E+03  0.72910207673E+03  0.10100000352E+00 0.  1.
       -3    1    3    3    0  502  0.16887126186E+03 -0.14180789822E+03  0.27820173733E+03  0.35499746469E+03  0.10100000352E+00 0. -1.
</event>
<event>
 5   0  0.5960102E-04  0.9976656E+03  0.7818609E-02  0.9311109E-01
        1   -1    0    0  501    0  0.00000000000E+00  0.00000000000E+00  0.19883732647E+03  0.19883732654E+03  0.50400001928E-02 0.  1.
       -1   -1    0    0    0  501  0.00000000000E+00  0.00000000000E+00 -0.12514459691E+04  0.12514459691E+04  0.50400001928E-02 0. -1.
    10030    2    1    2    0    0  0.00000000000E+00  0.00000000000E+00 -0.10526086426E+04  0.14502832957E+04  0.99766561688E+03 0.  0.
        5    1    3    3  502    0 -0.64371888764E+02 -0.24834534689E+03 -0.11481533988E+04  0.11764767183E+04  0.46999998093E+01 0. -1.
       -5    1    3    3    0  502  0.64371888764E+02  0.24834534689E+03  0.95544756197E+02  0.27380657739E+03  0.46999998093E+01 0.  1.
</event>
<event>
 5   0  0.1006749E-03  0.1004002E+04  0.7818609E-02  0.9304166E-01
        2   -1    0    0  501    0  0.00000000000E+00  0.00000000000E+00  0.90523498221E+03  0.90523498222E+03  0.25500000920E-02 0.  1.
       -2   -1    0    0    0  501  0.00000000000E+00  0.00000000000E+00 -0.27838655180E+03  0.27838655182E+03  0.25500000920E-02 0. -1.
    10030    2    1    2    0    0  0.00000000000E+00  0.00000000000E+00  0.62684843041E+03  0.11836215340E+04  0.10040024806E+04 0.  0.
        1    1    3    3  502    0  0.43964714081E+03  0.45901404155E+02  0.32932747578E+02  0.44326190138E+03  0.50400001928E-02 0. -1.
       -1    1    3    3    0  502 -0.43964714081E+03 -0.45901404155E+02  0.59391568283E+03  0.74035963266E+03  0.50400001928E-02 0.  1.
</event>
<event>
 5   0  0.5888774E-04  0.1003339E+04  0.7818609E-02  0.9304890E-01
       -1   -1    0    0    0  501  0.00000000000E+00  0.00000000000E+00  0.62239400017E+03  0.62239400019E+03  0.50400001928E-02 0.  1.
        1   -1    0    0  501    0  0.00000000000E+00  0.00000000000E+00 -0.40436150111E+03  0.40436150114E+03  0.50400001928E-02 0. -1.
    10030    2    1    2    0    0  0.00000000000E+00  0.00000000000E+00  0.21803249906E+03  0.10267555013E+04  0.10033387707E+04 0.  0.
        2    1    3    3  502    0  0.23075703114E+03  0.44035631989E+03  0.40294828733E+02  0.49878469215E+03  0.25500000920E-02 0. -1.
       -2    1    3    3    0  502 -0.23075703114E+03 -0.44035631989E+03  0.17773767033E+03  0.52797080918E+03  0.25500000920E-02 0.  1.
</event>
<event>
 5   0  0.1006006E-03  0.9992279E+03  0.7818609E-02  0.9309392E-01
       -2   -1    0    0    0  501  0.00000000000E+00  0.00000000000E+00  0.23439289902E+03  0.23439289903E+03  0.25500000920E-02 0. -1.
        2   -1    0    0  501    0  0.00000000000E+00  0.00000000000E+00 -0.10649388900E+04  0.10649388900E+04  0.25500000920E-02 0.  1.
    10030    2    1    2    0    0  0.00000000000E+00  0.00000000000E+00 -0.83054599101E+03  0.12993317891E+04  0.99922792940E+03 0.  0.
        2    1    3    3  502    0  0.24697664459E+03  0.36079628395E+03 -0.72962816484E+03  0.85060489090E+03  0.25500000920E-02 0.  1.
       -2    1    3    3    0  502 -0.24697664459E+03 -0.36079628395E+03 -0.10091782617E+03  0.44872689816E+03  0.25500000920E-02 0. -1.
</event>
<event>
 5   0  0.5826939E-04  0.9996961E+03  0.7818609E-02  0.9308878E-01
        1   -1    0    0  501    0  0.00000000000E+00  0.00000000000E+00  0.78373845110E+03  0.78373845112E+03  0.50400001928E-02 0. -1.
       -1   -1    0    0    0  501  0.00000000000E+00  0.00000000000E+00 -0.31879008804E+03  0.31879008808E+03  0.50400001928E-02 0.  1.
    10030    2    1    2    0    0  0.00000000000E+00  0.00000000000E+00  0.46494836307E+03  0.11025285392E+04  0.99969605352E+03 0.  0.
        1    1    3    3  502    0 -0.40395898241E+03  0.17399533819E+03  0.49436847716E+03  0.66170796309E+03  0.50400001928E-02 0. -1.
       -1    1    3    3    0  502  0.40395898241E+03 -0.17399533819E+03 -0.29420114094E+02  0.44082057611E+03  0.50400001928E-02 0.  1.
</event>
<event>
 5   0  0.9674819E-04  0.9965874E+03  0.7818609E-02  0.9312296E-01
        2   -1    0    0  501    0  0.00000000000E+00  0.00000000000E+00  0.33415788230E+03  0.33415788231E+03  0.25500000920E-02 0. -1.
       -2   -1    0    0    0  501  0.00000000000E+00  0.00000000000E+00 -0.74305180989E+03  0.74305180989E+03  0.25500000920E-02 0.  1.
    10030    2    1    2    0    0  0.00000000000E+00  0.00000000000E+00 -0.40889392759E+03  0.10772096922E+04  0.99658741562E+03 0.  0.
        4    1    3    3  502    0 -0.84667144675E+02 -0.33462789950E+03 -0.59289519779E+03  0.68605443295E+03  0.12699999809E+01 0.  1.
       -4    1    3    3    0  502  0.84667144675E+02  0.33462789950E+03  0.18400127020E+03  0.39115525926E+03  0.12699999809E+01 0. -1.
</event>
<event>
 5   0  0.5768102E-04  0.9998107E+03  0.7818609E-02  0.9308752E-01
        1   -1    0    0  501    0  0.00000000000E+00  0.00000000000E+00  0.16930586106E+04  0.16930586106E+04  0.50400001928E-02 0. -1.
       -1   -1    0    0    0  501  0.00000000000E+00  0.00000000000E+00 -0.14760585851E+03  0.14760585859E+03  0.50400001928E-02 0.  1.
    10030    2    1    2    0    0  0.00000000000E+00  0.00000000000E+00  0.15454527521E+04  0.18406644692E+04  0.99981072170E+03 0.  0.
        4    1    3    3  502    0 -0.33163460139E+03  0.36502611763E+03  0.92317421327E+03  0.10466507614E+04  0.12699999809E+01 0. -1.
       -4    1    3    3    0  502  0.33163460139E+03 -0.36502611763E+03  0.62227853883E+03  0.79401370781E+03  0.12699999809E+01 0.  1.
</event>
<event>
 5   0  0.1020150E-03  0.9931393E+03  0.7818609E-02  0.9316102E-01
       -2   -1    0    0    0  501  0.00000000000E+00  0.00000000000E+00  0.11791729382E+03  0.11791729385E+03  0.25500000920E-02 0. -1.
        2   -1    0    0  501    0  0.00000000000E+00  0.00000000000E+00 -0.20911386883E+04  0.20911386883E+04  0.25500000920E-02 0.  1.
    10030    2    1    2    0    0  0.00000000000E+00  0.00000000000E+00 -0.19732213945E+04  0.22090559822E+04  0.99313929569E+03 0.  0.
        5    1    3    3  502    0 -0.48579807140E+03  0.61184094132E+02 -0.80297232394E+03  0.94049449896E+03  0.46999998093E+01 0. -1.
       -5    1    3    3    0  502  0.48579807140E+03 -0.61184094132E+02 -0.11702490705E+04  0.12685614832E+04  0.46999998093E+01 0.  1.
</event>
<event>
 5   0  0.5888774E-04  0.1004541E+04  0.7818609E-02  0.9303578E-01
        1   -1    0    0  501    0  0.00000000000E+00  0.00000000000E+00  0.12408812639E+04  0.12408812639E+04  0.50400001928E-02 0. -1.
       -1   -1    0    0    0  501  0.00000000000E+00  0.00000000000E+00 -0.20330363974E+03  0.20330363980E+03  0.50400001928E-02 0.  1.
    10030    2    1    2    0    0  0.00000000000E+00  0.00000000000E+00  0.10375776242E+04  0.14441849037E+04  0.10045410444E+04 0.  0.
        2    1    3    3  502    0 -0.38148175405E+03  0.25866510935E+03  0.80574341734E+03  0.92825558014E+03  0.25500000920E-02 0. -1.
       -2    1    3    3    0  502  0.38148175405E+03 -0.25866510935E+03  0.23183420682E+03  0.51592932358E+03  0.25500000920E-02 0.  1.
</event>
<event>
 5   0  0.5758786E-04  0.9951922E+03  0.7818609E-02  0.9313834E-01
       -1   -1    0    0    0  501  0.00000000000E+00  0.00000000000E+00  0.16848470614E+04  0.16848470615E+04  0.50400001928E-02 0.  1.
        1   -1    0    0  501    0  0.00000000000E+00  0.00000000000E+00 -0.14695807798E+03  0.14695807807E+03  0.50400001928E-02 0. -1.
    10030    2    1    2    0    0  0.00000000000E+00  0.00000000000E+00  0.15378889835E+04  0.18318051395E+04  0.99519221445E+03 0.  0.
        3    1    3    3  502    0  0.41520340465E+03 -0.30739523797E+01  0.26419363645E+03  0.49213982175E+03  0.10100000352E+00 0. -1.
       -3    1    3    3    0  502 -0.41520340465E+03  0.30739523797E+01  0.12736953470E+04  0.13396653178E+04  0.10100000352E+00 0.  1.
</event>
<event>
 5   0  0.1006749E-03  0.1001651E+04  0.7818609E-02  0.9306736E-01
       -2   -1    0    0    0  501  0.00000000000E+00  0.00000000000E+00  0.18896487253E+03  0.18896487255E+03  0.25500000920E-02 0. -1.
        2   -1    0    0  501    0  0.00000000000E+00  0.00000000000E+00 -0.13273698192E+04  0.13273698192E+04  0.25500000920E-02 0.  1.
    10030    2    1    2    0    0  0.00000000000E+00  0.00000000000E+00 -0.11384049467E+04  0.15163346918E+04  0.10016511742E+04 0.  0.
        1    1    3    3  502    0 -0.90386317775E+02 -0.84341355582E+02 -0.13039087948E+04  0.13097561971E+04  0.50400001928E-02 0.  1.
       -1    1    3    3    0  502  0.90386317775E+02  0.84341355582E+02  0.16550384809E+03  0.20657849467E+03  0.50400001928E-02 0. -1.
</event>
<event>
 5   0  0.5758786E-04  0.1000812E+04  0.7818609E-02  0.9307654E-01
        1   -1    0    0  501    0  0.00000000000E+00  0.00000000000E+00  0.64309495821E+03  0.64309495823E+03  0.50400001928E-02 0.  1.
       -1   -1    0    0    0  501  0.00000000000E+00  0.00000000000E+00 -0.38937703785E+03  0.38937703788E+03  0.50400001928E-02 0. -1.
    10030    2    1    2    0    0  0.00000000000E+00  0.00000000000E+00  0.25371792037E+03  0.10324719961E+04  0.10008124897E+04 0.  0.
        3    1    3    3  502    0 -0.28266518024E+03  0.98455912793E+02 -0.28684192527E+03  0.41457384285E+03  0.10100000352E+00 0. -1.
       -3    1    3    3    0  502  0.28266518024E+03 -0.98455912793E+02  0.54055984564E+03  0.61789815326E+03  0.10100000352E+00 0.  1.
</event>
<event>
 5   0  0.1006749E-03  0.1000345E+04  0.7818609E-02  0.9308166E-01
        2   -1    0    0  501    0  0.00000000000E+00  0.00000000000E+00  0.12401160054E+04  0.12401160054E+04  0.25500000920E-02 0.  1.
       -2   -1    0    0    0  501  0.00000000000E+00  0.00000000000E+00 -0.20173325048E+03  0.20173325050E+03  0.25500000920E-02 0. -1.
    10030    2    1    2    0    0  0.00000000000E+00  0.00000000000E+00  0.10383827549E+04  0.14418492559E+04  0.10003452059E+04 0.  0.
        1    1    3    3  502    0  0.47686441525E+03  0.84138518606E+02  0.33862692852E+03  0.59088675530E+03  0.50400001928E-02 0.  1.
       -1    1    3    3    0  502 -0.47686441525E+03 -0.84138518606E+02  0.69975582642E+03  0.85096250063E+03  0.50400001928E-02 0. -1.
</event>
<event>
 5   0  0.5758786E-04  0.1001665E+04  0.7818609E-02  0.9306721E-01
        1   -1    0    0  501    0  0.00000000000E+00  0.00000000000E+00  0.53563518256E+03  0.53563518258E+03  0.50400001928E-02 0.  1.
       -1   -1    0    0    0  501  0.00000000000E+00  0.00000000000E+00 -0.46829088342E+03  0.46829088345E+03  0.50400001928E-02 0. -1.
    10030    2    1    2    0    0  0.00000000000E+00  0.00000000000E+00  0.67344299134E+02  0.10039260660E+04  0.10016647600E+04 0.  0.
        3    1    3    3  502    0 -0.13017450013E+03 -0.46685121491E+03 -0.92857081600E+02  0.49347533389E+03  0.10100000352E+00 0. -1.
       -3    1    3    3    0  502  0.13017450013E+03  0.46685121491E+03  0.16020138073E+03  0.51045073214E+03  0.10100000352E+00 0.  1.
</event>
<event>
 5   0  0.5960102E-04  0.1002226E+04  0.7818609E-02  0.9306107E-01
        1   -1    0    0  501    0  0.00000000000E+00  0.00000000000E+00  0.12723775894E+04  0.12723775894E+04  0.50400001928E-02 0. -1.
       -1   -1    0    0    0  501  0.00000000000E+00  0.00000000000E+00 -0.19735829096E+03  0.19735829102E+03  0.50400001928E-02 0.  1.
    10030    2    1    2    0    0  0.00000000000E+00  0.00000000000E+00  0.10750192985E+04  0.14697358805E+04  0.10022260555E+04 0.  0.
        5    1    3    3  502    0 -0.13965001465E+03 -0.32224000596E+03  0.10616607354E+04  0.11182514722E+04  0.46999998093E+01 0. -1.
       -5    1    3    3    0  502  0.13965001465E+03  0.32224000596E+03  0.13358563066E+02  0.35148440824E+03  0.46999998093E+01 0.  1.
</event>
<event>
 5   0  0.9674819E-04  0.9998763E+03  0.7818609E-02  0.9308680E-01
       -2   -1    0    0    0  501  0.00000000000E+00  0.00000000000E+00  0.22724442215E+03  0.22724442217E+03  0.25500000920E-02 0. -1.
        2   -1    0    0  501    0  0.00000000000E+00  0.00000000000E+00 -0.10998648442E+04  0.10998648442E+04  0.25500000920E-02 0.  1.
    10030    2    1    2    0    0  0.00000000000E+00  0.00000000000E+00 -0.87262042207E+03  0.13271092664E+04  0.99987629432E+03 0.  0.
        4    1    3    3  502    0  0.16358434907E+03  0.16473335454E+03  0.15135818611E+03  0.27714225726E+03  0.12699999809E+01 0. -1.
       -4    1    3    3    0  502 -0.16358434907E+03 -0.16473335454E+03 -0.10239786082E+04  0.10499670091E+04  0.12699999809E+01 0.  1.
</event>
<event>
 5   0  0.1006006E-03  0.9996842E+03  0.7818609E-02  0.9308891E-01
        2   -1    0    0  501    0  0.00000000000E+00  0.00000000000E+00  0.18948007650E+04  0.18948007650E+04  0.25500000920E-02 0. -1.
       -2   -1    0    0    0  501  0.00000000000E+00  0.00000000000E+00 -0.13185668221E+03  0.13185668223E+03  0.25500000920E-02 0.  1.
    10030    2    1    2    0    0  0.00000000000E+00  0.00000000000E+00  0.17629440828E+04  0.20266574472E+04  0.99968423483E+03 0.  0.
        2    1    3    3  502    0  0.91115348200E+02 -0.33747004624E+03  0.16057994107E+04  0.16434049368E+04  0.25500000920E-02 0. -1.
       -2    1    3    3    0  502 -0.91115348200E+02  0.33747004624E+03  0.15714467205E+03  0.38325251042E+03  0.25500000920E-02 0.  1.
</event>
<event>
 5   0  0.5768102E-04  0.9983877E+03  0.7818609E-02  0.9310315E-01
       -1   -1    0    0    0  501  0.00000000000E+00  0.00000000000E+00  0.24171623238E+03  0.24171623244E+03  0.50400001928E-02 0.  1.
        1   -1    0    0  501    0  0.00000000000E+00  0.00000000000E+00 -0.10309381572E+04  0.10309381572E+04  0.50400001928E-02 0. -1.
    10030    2    1    2    0    0  0.00000000000E+00  0.00000000000E+00 -0.78922192484E+03  0.12726543897E+04  0.99838767465E+03 0.  0.
        4    1    3    3  502    0 -0.29532404862E+03  0.63227719167E+02  0.11204216053E+03  0.32213211079E+03  0.12699999809E+01 0.  1.
       -4    1    3    3    0  502  0.29532404862E+03 -0.63227719167E+02 -0.90126408537E+03  0.95052227888E+03  0.12699999809E+01 0. -1.
</event>
<event>
 5   0  0.3854625E-04  0.9997612E+03  0.7818609E-02  0.9308807E-01
       -3   -1    0    0    0  501  0.00000000000E+00  0.00000000000E+00  0.58951813877E+03  0.58951814743E+03  0.10100000352E+00 0.  1.
        3   -1    0    0  501    0  0.00000000000E+00  0.00000000000E+00 -0.42387265901E+03  0.42387267104E+03  0.10100000352E+00 0. -1.
    10030    2    1    2    0    0  0.00000000000E+00  0.00000000000E+00  0.16564547976E+03  0.10133908185E+04  0.99976123449E+03 0.  0.
        3    1    3    3  502    0 -0.43231405768E+03 -0.57402322488E+02 -0.16482365378E+03  0.46621595655E+03  0.10100000352E+00 0. -1.
       -3    1    3    3    0  502  0.43231405768E+03  0.57402322488E+02  0.33046913355E+03  0.54717486192E+03  0.10100000352E+00 0.  1.
</event>
<event>
 5   0  0.1020150E-03  0.9995165E+03  0.7818609E-02  0.9309075E-01
        2   -1    0    0  501    0  0.00000000000E+00  0.00000000000E+00  0.19508737331E+04  0.19508737331E+04  0.25500000920E-02 0.  1.
       -2   -1    0    0    0  501  0.00000000000E+00  0.00000000000E+00 -0.12802381461E+03  0.12802381464E+03  0.25500000920E-02 0. -1.
    10030    2    1    2    0    0  0.00000000000E+00  0.00000000000E+00  0.18228499185E+04  0.20788975477E+04  0.99951647743E+03 0.  0.
        5    1    3    3  502    0 -0.35060725171E+03  0.16429513088E+03  0.15685488891E+04  0.16156379677E+04  0.46999998093E+01 0.  1.
       -5    1    3    3    0  502  0.35060725171E+03 -0.16429513088E+03  0.25430102932E+03  0.46325958004E+03  0.46999998093E+01 0. -1.
</event>
<event>
 5   0  0.5826939E-04  0.1013535E+04  0.7818609E-02  0.9293823E-01
       -1   -1    0    0    0  501  0.00000000000E+00  0.00000000000E+00  0.73147348012E+03  0.73147348014E+03  0.50400001928E-02 0. -1.
        1   -1    0    0  501    0  0.00000000000E+00  0.00000000000E+00 -0.35109018710E+03  0.35109018714E+03  0.50400001928E-02 0.  1.
    10030    2    1    2    0    0  0.00000000000E+00  0.00000000000E+00  0.38038329302E+03  0.10825636673E+04  0.10135347276E+04 0.  0.
        1    1    3    3  502    0 -0.21174418863E+03 -0.34688676081E+03 -0.13315939140E+03  0.42766511407E+03  0.50400001928E-02 0.  1.
       -1    1    3    3    0  502  0.21174418863E+03  0.34688676081E+03  0.51354268442E+03  0.65489855321E+03  0.50400001928E-02 0. -1.
</event>
<event>
 5   0  0.9674819E-04  0.9910018E+03  0.7818609E-02  0.9318469E-01
        2   -1    0    0  501    0  0.00000000000E+00  0.00000000000E+00  0.12622782687E+04  0.12622782687E+04  0.25500000920E-02 0. -1.
       -2   -1    0    0    0  501  0.00000000000E+00  0.00000000000E+00 -0.19450636300E+03  0.19450636301E+03  0.25500000920E-02 0.  1.
    10030    2    1    2    0    0  0.00000000000E+00  0.00000000000E+00  0.10677719057E+04  0.14567846317E+04  0.99100182674E+03 0.  0.
        4    1    3    3  502    0 -0.44882598040E+03 -0.28239398063E+02  0.22807638760E+03  0.50424465864E+03  0.12699999809E+01 0.  1.
       -4    1    3    3    0  502  0.44882598040E+03  0.28239398063E+02  0.83969551809E+03  0.95253997307E+03  0.12699999809E+01 0. -1.
</event>
<event>
 5   0  0.5888774E-04  0.9997493E+03  0.7818609E-02  0.9308820E-01
       -1   -1    0    0    0  501  0.00000000000E+00  0.00000000000E+00  0.26040547780E+03  0.26040547785E+03  0.50400001928E-02 0.  1.
        1   -1    0    0  501    0  0.00000000000E+00  0.00000000000E+00 -0.95955989510E+03  0.95955989511E+03  0.50400001928E-02 0. -1.
    10030    2    1    2    0    0  0.00000000000E+00  0.00000000000E+00 -0.69915441730E+03  0.12199653730E+04  0.99974927457E+03 0.  0.
        2    1    3    3  502    0  0.53322210972E+02  0.12395678245E+02  0.25673648174E+03  0.26250815622E+03  0.25500000920E-02 0.  1.
       -2    1    3    3    0  502 -0.53322210972E+02 -0.12395678245E+02 -0.95589089904E+03  0.95745721674E+03  0.25500000920E-02 0. -1.
</event>
<event>
 5   0  0.5888774E-04  0.1005811E+04  0.7818609E-02  0.9302195E-01
       -1   -1    0    0    0  501  0.00000000000E+00  0.00000000000E+00  0.26395289892E+03  0.26395289897E+03  0.50400001928E-02 0.  1.
        1   -1    0    0  501    0  0.00000000000E+00  0.00000000000E+00 -0.95817739770E+03  0.95817739772E+03  0.50400001928E-02 0. -1.
    10030    2    1    2    0    0  0.00000000000E+00  0.00000000000E+00 -0.69422449878E+03  0.12221302967E+04  0.10058105226E+04 0.  0.
        2    1    3    3  502    0 -0.23984024579E+03  0.41854427009E+03 -0.51985339627E+03  0.70918982166E+03  0.25500000920E-02 0. -1.
       -2    1    3    3    0  502  0.23984024579E+03 -0.41854427009E+03 -0.17437110251E+03  0.51294047503E+03  0.25500000920E-02 0.  1.
</event>
<event>
 5   0  0.1006006E-03  0.1000066E+04  0.7818609E-02  0.9308472E-01
        2   -1    0    0  501    0  0.00000000000E+00  0.00000000000E+00  0.51089937343E+03  0.51089937344E+03  0.25500000920E-02 0.  1.
       -2   -1    0    0    0  501  0.00000000000E+00  0.00000000000E+00 -0.48939821160E+03  0.48939821160E+03  0.25500000920E-02 0. -1.
    10030    2    1    2    0    0  0.00000000000E+00  0.00000000000E+00  0.21501161833E+02  0.10002975850E+04  0.10000664771E+04 0.  0.
        2    1    3    3  502    0 -0.15141388202E+03 -0.90320053077E+02 -0.45727780586E+03  0.49008863219E+03  0.25500000920E-02 0. -1.
       -2    1    3    3    0  502  0.15141388202E+03  0.90320053077E+02  0.47877896770E+03  0.51020895285E+03  0.25500000920E-02 0.  1.
</event>
<event>
 5   0  0.5960102E-04  0.1000620E+04  0.7818609E-02  0.9307865E-01
       -1   -1    0    0    0  501  0.00000000000E+00  0.00000000000E+00  0.18318351942E+03  0.18318351949E+03  0.50400001928E-02 0. -1.
        1   -1    0    0  501    0  0.00000000000E+00  0.00000000000E+00 -0.13664456560E+04  0.13664456560E+04  0.50400001928E-02 0.  1.
    10030    2    1    2    0    0  0.00000000000E+00  0.00000000000E+00 -0.11832621365E+04  0.15496291755E+04  0.10006204563E+04 0.  0.
        5    1    3    3  502    0  0.45044447033E+03 -0.73032988354E+02 -0.90921833043E+03  0.10173171092E+04  0.46999998093E+01 0.  1.
       -5    1    3    3    0  502 -0.45044447033E+03  0.73032988354E+02 -0.27404380610E+03  0.53231206627E+03  0.46999998093E+01 0. -1.
</event>
<event>
 5   0  0.5768102E-04  0.9998367E+03  0.7818609E-02  0.9308724E-01
       -1   -1    0    0    0  501  0.00000000000E+00  0.00000000000E+00  0.40805041637E+03  0.40805041640E+03  0.50400001928E-02 0. -1.
        1   -1    0    0  501    0  0.00000000000E+00  0.00000000000E+00 -0.61246928651E+03  0.61246928653E+03  0.50400001928E-02 0.  1.
    10030    2    1    2    0    0  0.00000000000E+00  0.00000000000E+00 -0.20441887014E+03  0.10205197029E+04  0.99983668147E+03 0.  0.
        4    1    3    3  502    0  0.32514496504E+03 -0.33284046260E+03  0.84368891517E+02  0.47288660860E+03  0.12699999809E+01 0. -1.
       -4    1    3    3    0  502 -0.32514496504E+03  0.33284046260E+03 -0.28878776165E+03  0.54763309434E+03  0.12699999809E+01 0.  1.
</event>
<event>
 5   0  0.5960102E-04  0.1000347E+04  0.7818609E-02  0.9308164E-01
        1   -1    0    0  501    0  0.00000000000E+00  0.00000000000E+00  0.47916072884E+03  0.47916072886E+03  0.50400001928E-02 0. -1.
       -1   -1    0    0    0  501  0.00000000000E+00  0.00000000000E+00 -0.52210784658E+03  0.52210784660E+03  0.50400001928E-02 0.  1.
    10030    2    1    2    0    0  0.00000000000E+00  0.00000000000E+00 -0.42947117745E+02  0.10012685755E+04  0.10003470924E+04 0.  0.
        5    1    3    3  502    0  0.45432941208E+03  0.31475175319E+02  0.18546694607E+03  0.49175804968E+03  0.46999998093E+01 0. -1.
       -5    1    3    3    0  502 -0.45432941208E+03 -0.31475175319E+02 -0.22841406381E+03  0.50951052579E+03  0.46999998093E+01 0.  1.
</event>
<event>
 5   0  0.1006006E-03  0.1000660E+04  0.7818609E-02  0.9307821E-01
        2   -1    0    0  501    0  0.00000000000E+00  0.00000000000E+00  0.28000422515E+03  0.28000422516E+03  0.25500000920E-02 0. -1.
       -2   -1    0    0    0  501  0.00000000000E+00  0.00000000000E+00 -0.89402314528E+03  0.89402314529E+03  0.25500000920E-02 0.  1.
    10030    2    1    2    0    0  0.00000000000E+00  0.00000000000E+00 -0.61401892014E+03  0.11740273704E+04  0.10006602981E+04 0.  0.
        2    1    3    3  502    0 -0.39058231019E+03  0.30096872618E+03 -0.40651859969E+03  0.63905718607E+03  0.25500000920E-02 0. -1.
       -2    1    3    3    0  502  0.39058231019E+03 -0.30096872618E+03 -0.20750032045E+03  0.53497018437E+03  0.25500000920E-02 0.  1.
</event>
<event>
 5   0  0.1006006E-03  0.1002310E+04  0.7818609E-02  0.9306014E-01
       -2   -1    0    0    0  501  0.00000000000E+00  0.00000000000E+00  0.72014739816E+03  0.72014739816E+03  0.25500000920E-02 0.  1.
        2   -1    0    0  501    0  0.00000000000E+00  0.00000000000E+00 -0.34875718066E+03  0.34875718067E+03  0.25500000920E-02 0. -1.
    10030    2    1    2    0    0  0.00000000000E+00  0.00000000000E+00  0.37139021749E+03  0.10689045788E+04  0.10023104833E+04 0.  0.
        2    1    3    3  502    0  0.17149561194E+03  0.17361815831E+03 -0.28111185451E+03  0.37226050631E+03  0.25500000920E-02 0. -1.
       -2    1    3    3    0  502 -0.17149561194E+03 -0.17361815831E+03  0.65250207200E+03  0.69664407252E+03  0.25500000920E-02 0.  1.
</event>
<event>
 5   0  0.5826939E-04  0.9997890E+03  0.7818609E-02  0.9308776E-01
        1   -1    0    0  501    0  0.00000000000E+00  0.00000000000E+00  0.51301490776E+03  0.51301490779E+03  0.50400001928E-02 0. -1.
       -1   -1    0    0    0  501  0.00000000000E+00  0.00000000000E+00 -0.48710961797E+03  0.48710961799E+03  0.50400001928E-02 0.  1.
    10030    2    1    2    0    0  0.00000000000E+00  0.00000000000E+00  0.25905289796E+02  0.10001245258E+04  0.99978896925E+03 0.  0.
        1    1    3    3  502    0  0.43835592466E+03 -0.21257802348E+03 -0.99107999745E+02  0.49715966087E+03  0.50400001928E-02 0. -1.
       -1    1    3    3    0  502 -0.43835592466E+03  0.21257802348E+03  0.12501328954E+03  0.50296486492E+03  0.50400001928E-02 0.  1.
</event>
<event>
 5   0  0.9741826E-04  0.9988243E+03  0.7818609E-02  0.9309835E-01
       -2   -1    0    0    0  501  0.00000000000E+00  0.00000000000E+00  0.14078560025E+03  0.14078560028E+03  0.25500000920E-02 0. -1.
        2   -1    0    0  501    0  0.00000000000E+00  0.00000000000E+00 -0.17715768788E+04  0.17715768788E+04  0.25500000920E-02 0.  1.
    10030    2    1    2    0    0  0.00000000000E+00  0.00000000000E+00 -0.16307912785E+04  0.19123624790E+04  0.99882433749E+03 0.  0.
        3    1    3    3  502    0 -0.33174366228E+02  0.42655253230E+03 -0.13086265992E+04  0.13767901756E+04  0.10100000352E+00 0.  1.
       -3    1    3    3    0  502  0.33174366228E+02 -0.42655253230E+03 -0.32216467935E+03  0.53557230344E+03  0.10100000352E+00 0. -1.
</event>
<event>
 5   0  0.9741826E-04  0.9997830E+03  0.7818609E-02  0.9308783E-01
       -2   -1    0    0    0  501  0.00000000000E+00  0.00000000000E+00  0.30958158838E+03  0.30958158839E+03  0.25500000920E-02 0.  1.
        2   -1    0    0  501    0  0.00000000000E+00  0.00000000000E+00 -0.80719108511E+03  0.80719108512E+03  0.25500000920E-02 0. -1.
    10030    2    1    2    0    0  0.00000000000E+00  0.00000000000E+00 -0.49760949673E+03  0.11167726735E+04  0.99978297298E+03 0.  0.
        3    1    3    3  502    0 -0.27510887553E+03 -0.39138173633E+03 -0.86830121302E+02  0.48621398282E+03  0.10100000352E+00 0. -1.
       -3    1    3    3    0  502  0.27510887553E+03  0.39138173633E+03 -0.41077937543E+03  0.63055869069E+03  0.10100000352E+00 0.  1.
</event>
<event>
 5   0  0.9674819E-04  0.9998559E+03  0.7818609E-02  0.9308703E-01
        2   -1    0    0  501    0  0.00000000000E+00  0.00000000000E+00  0.71714762261E+03  0.71714762261E+03  0.25500000920E-02 0.  1.
       -2   -1    0    0    0  501  0.00000000000E+00  0.00000000000E+00 -0.34850278620E+03  0.34850278620E+03  0.25500000920E-02 0. -1.
    10030    2    1    2    0    0  0.00000000000E+00  0.00000000000E+00  0.36864483641E+03  0.10656504088E+04  0.99985587881E+03 0.  0.
        4    1    3    3  502    0 -0.17572057305E+03  0.95027190068E+02 -0.30411178775E+03  0.36385914719E+03  0.12699999809E+01 0. -1.
       -4    1    3    3    0  502  0.17572057305E+03 -0.95027190068E+02  0.67275662416E+03  0.70179126163E+03  0.12699999809E+01 0.  1.
</event>
<event>
 5   0  0.5768102E-04  0.9995010E+03  0.7818609E-02  0.9309092E-01
        1   -1    0    0  501    0  0.00000000000E+00  0.00000000000E+00  0.82792851311E+03  0.82792851312E+03  0.50400001928E-02 0.  1.
       -1   -1    0    0    0  501  0.00000000000E+00  0.00000000000E+00 -0.30165713656E+03  0.30165713661E+03  0.50400001928E-02 0. -1.
    10030    2    1    2    0    0  0.00000000000E+00  0.00000000000E+00  0.52627137655E+03  0.11295856497E+04  0.99950096464E+03 0.  0.
        4    1    3    3  502    0  0.41007938704E+03  0.17982384478E+03  0.12336124268E+02  0.44794588031E+03  0.12699999809E+01 0. -1.
       -4    1    3    3    0  502 -0.41007938704E+03 -0.17982384478E+03  0.51393525228E+03  0.68163976942E+03  0.12699999809E+01 0.  1.
</event>
<event>
 5   0  0.5768102E-04  0.9968921E+03  0.7818609E-02  0.9311960E-01
       -1   -1    0    0    0  501  0.00000000000E+00  0.00000000000E+00  0.43667948422E+03  0.43667948425E+03  0.50400001928E-02 0.  1.
        1   -1    0    0  501    0  0.00000000000E+00  0.00000000000E+00 -0.56894930521E+03  0.56894930524E+03  0.50400001928E-02 0. -1.
    10030    2    1    2    0    0  0.00000000000E+00  0.00000000000E+00 -0.13226982099E+03  0.10056287895E+04  0.99689214898E+03 0.  0.
        4    1    3    3  502    0  0.38696477943E+03  0.30830310695E+03 -0.51540702937E+01  0.49479361719E+03  0.12699999809E+01 0.  1.
       -4    1    3    3    0  502 -0.38696477943E+03 -0.30830310695E+03 -0.12711575070E+03  0.51083517229E+03  0.12699999809E+01 0. -1.
</event>
<event>
 5   0  0.1020150E-03  0.9992089E+03  0.7818609E-02  0.9309413E-01
        2   -1    0    0  501    0  0.00000000000E+00  0.00000000000E+00  0.43549797122E+03  0.43549797123E+03  0.25500000920E-02 0.  1.
       -2   -1    0    0    0  501  0.00000000000E+00  0.00000000000E+00 -0.57314760274E+03  0.57314760274E+03  0.25500000920E-02 0. -1.
    10030    2    1    2    0    0  0.00000000000E+00  0.00000000000E+00 -0.13764963152E+03  0.10086455740E+04  0.99920892351E+03 0.  0.
        5    1    3    3  502    0 -0.61093857171E+02 -0.25408953669E+03  0.36097626408E+03  0.44566793161E+03  0.46999998093E+01 0.  1.
       -5    1    3    3    0  502  0.61093857171E+02  0.25408953669E+03 -0.49862589560E+03  0.56297764236E+03  0.46999998093E+01 0. -1.
</event>
<event>
 5   0  0.5768102E-04  0.1000202E+04  0.7818609E-02  0.9308323E-01
        1   -1    0    0  501    0  0.00000000000E+00  0.00000000000E+00  0.13893507915E+04  0.13893507915E+04  0.50400001928E-02 0.  1.
       -1   -1    0    0    0  501  0.00000000000E+00  0.00000000000E+00 -0.18001294146E+03  0.18001294153E+03  0.50400001928E-02 0. -1.
    10030    2    1    2    0    0  0.00000000000E+00  0.00000000000E+00  0.12093378500E+04  0.15693637330E+04  0.10002022251E+04 0.  0.
        4    1    3    3  502    0  0.14571382064E+02  0.22427175549E+03  0.13056470950E+04  0.13248494613E+04  0.12699999809E+01 0.  1.
       -4    1    3    3    0  502 -0.14571382064E+02 -0.22427175549E+03 -0.96309245021E+02  0.24451427170E+03  0.12699999809E+01 0. -1.
</event>
<event>
 5   0  0.9741826E-04  0.1003605E+04  0.7818609E-02  0.9304600E-01
       -2   -1    0    0    0  501  0.00000000000E+00  0.00000000000E+00  0.29965302159E+03  0.29965302160E+03  0.25500000920E-02 0. -1.
        2   -1    0    0  501    0  0.00000000000E+00  0.00000000000E+00 -0.84032396957E+03  0.84032396958E+03  0.25500000920E-02 0.  1.
    10030    2    1    2    0    0  0.00000000000E+00  0.00000000000E+00 -0.54067094799E+03  0.11399769912E+04  0.10036047361E+04 0.  0.
        3    1    3    3  502    0 -0.23347329443E+03 -0.37523244452E+02  0.23239720326E+03  0.33155126808E+03  0.10100000352E+00 0. -1.
       -3    1    3    3    0  502  0.23347329443E+03  0.37523244452E+02 -0.77306815124E+03  0.80842572309E+03  0.10100000352E+00 0.  1.
</event>
<event>
 5   0  0.9741826E-04  0.1005365E+04  0.7818609E-02  0.9302680E-01
        2   -1    0    0  501    0  0.00000000000E+00  0.00000000000E+00  0.69080391773E+03  0.69080391773E+03  0.25500000920E-02 0.  1.
       -2   -1    0    0    0  501  0.00000000000E+00  0.00000000000E+00 -0.36579059703E+03  0.36579059704E+03  0.25500000920E-02 0. -1.
    10030    2    1    2    0    0  0.00000000000E+00  0.00000000000E+00  0.32501332070E+03  0.10565945148E+04  0.10053647647E+04 0.  0.
        3    1    3    3  502    0  0.33183327092E+03 -0.36652688133E+03  0.67139720686E+02  0.49896194917E+03  0.10100000352E+00 0.  1.
       -3    1    3    3    0  502 -0.33183327092E+03  0.36652688133E+03  0.25787360001E+03  0.55763256560E+03  0.10100000352E+00 0. -1.
</event>
<event>
 5   0  0.5768102E-04  0.1000698E+04  0.7818609E-02  0.9307780E-01
       -1   -1    0    0    0  501  0.00000000000E+00  0.00000000000E+00  0.17854563353E+04  0.17854563353E+04  0.50400001928E-02 0.  1.
        1   -1    0    0  501    0  0.00000000000E+00  0.00000000000E+00 -0.14021570208E+03  0.14021570217E+03  0.50400001928E-02 0. -1.
    10030    2    1    2    0    0  0.00000000000E+00  0.00000000000E+00  0.16452406332E+04  0.19256720375E+04  0.10006977839E+04 0.  0.
        4    1    3    3  502    0  0.33998711273E+03 -0.15002809609E+03  0.17790471792E+03  0.41200894164E+03  0.12699999809E+01 0. -1.
       -4    1    3    3    0  502 -0.33998711273E+03  0.15002809609E+03  0.14673359153E+04  0.15136630958E+04  0.12699999809E+01 0.  1.
</event>
<event>
 5   0  0.5758786E-04  0.9992995E+03  0.7818609E-02  0.9309313E-01
       -1   -1    0    0    0  501  0.00000000000E+00  0.00000000000E+00  0.58209684349E+03  0.58209684351E+03  0.50400001928E-02 0. -1.
        1   -1    0    0  501    0  0.00000000000E+00  0.00000000000E+00 -0.42888028629E+03  0.42888028632E+03  0.50400001928E-02 0.  1.
    10030    2    1    2    0    0  0.00000000000E+00  0.00000000000E+00  0.15321655720E+03  0.10109771298E+04  0.99929947645E+03 0.  0.
        3    1    3    3  502    0 -0.21828590897E+03 -0.13687685687E+03 -0.35648997314E+03  0.43985125117E+03  0.10100000352E+00 0.  1.
       -3    1    3    3    0  502  0.21828590897E+03  0.13687685687E+03  0.50970653034E+03  0.57112587866E+03  0.10100000352E+00 0. -1.
</event>
<event>
 5   0  0.5768102E-04  0.1003117E+04  0.7818609E-02  0.9305133E-01
        1   -1    0    0  501    0  0.00000000000E+00  0.00000000000E+00  0.10591745135E+04  0.10591745135E+04  0.50400001928E-02 0. -1.
       -1   -1    0    0    0  501  0.00000000000E+00  0.00000000000E+00 -0.23750655917E+03  0.23750655923E+03  0.50400001928E-02 0.  1.
    10030    2    1    2    0    0  0.00000000000E+00  0.00000000000E+00  0.82166795431E+03  0.12966810727E+04  0.10031169310E+04 0.  0.
        4    1    3    3  502    0  0.13408048771E+03  0.35763538386E+03  0.83105251902E+03  0.91462043889E+03  0.12699999809E+01 0. -1.
       -4    1    3    3    0  502 -0.13408048771E+03 -0.35763538386E+03 -0.93845647080E+01  0.38206063383E+03  0.12699999809E+01 0.  1.
</event>
<event>
 5   0  0.1020150E-03  0.9731288E+03  0.7818609E-02  0.9338518E-01
       -2   -1    0    0    0  501  0.00000000000E+00  0.00000000000E+00  0.37187535113E+03  0.37187535113E+03  0.25500000920E-02 0. -1.
        2   -1    0    0  501    0  0.00000000000E+00  0.00000000000E+00 -0.63662436228E+03  0.63662436228E+03  0.25500000920E-02 0.  1.
    10030    2    1    2    0    0  0.00000000000E+00  0.00000000000E+00 -0.26474901115E+03  0.10084997134E+04  0.97312878544E+03 0.  0.
        5    1    3    3  502    0  0.23698191157E+03  0.27532532443E+03  0.20305387099E+03  0.41619397545E+03  0.46999998093E+01 0. -1.
       -5    1    3    3    0  502 -0.23698191157E+03 -0.27532532443E+03 -0.46780288215E+03  0.59230573796E+03  0.46999998093E+01 0.  1.
</event>
<event>
 5   0  0.5768102E-04  0.9994832E+03  0.7818609E-02  0.9309112E-01
        1   -1    0    0  501    0  0.00000000000E+00  0.00000000000E+00  0.28281460483E+03  0.28281460488E+03  0.50400001928E-02 0. -1.
       -1   -1    0    0    0  501  0.00000000000E+00  0.00000000000E+00 -0.88305795084E+03  0.88305795086E+03  0.50400001928E-02 0.  1.
    10030    2    1    2    0    0  0.00000000000E+00  0.00000000000E+00 -0.60024334601E+03  0.11658725557E+04  0.99948323737E+03 0.  0.
        4    1    3    3  502    0  0.21869449637E+03  0.42016863487E+03 -0.11432185594E+03  0.48727822045E+03  0.12699999809E+01 0. -1.
       -4    1    3    3    0  502 -0.21869449637E+03 -0.42016863487E+03 -0.48592149007E+03  0.67859433529E+03  0.12699999809E+01 0.  1.
</event>
<event>
 5   0  0.3854625E-04  0.1000197E+04  0.7818609E-02  0.9308329E-01
        3   -1    0    0  501    0  0.00000000000E+00  0.00000000000E+00  0.68485975215E+03  0.68485975960E+03  0.10100000352E+00 0.  1.
       -3   -1    0    0    0  501  0.00000000000E+00  0.00000000000E+00 -0.36518183690E+03  0.36518185087E+03  0.10100000352E+00 0. -1.
    10030    2    1    2    0    0  0.00000000000E+00  0.00000000000E+00  0.31967791525E+03  0.10500416105E+04  0.10001966878E+04 0.  0.
        1    1    3    3  502    0  0.33080959402E+03  0.37481989709E+03  0.17366376638E+03  0.52922967276E+03  0.50400001928E-02 0.  1.
       -1    1    3    3    0  502 -0.33080959402E+03 -0.37481989709E+03  0.14601414887E+03  0.52081193770E+03  0.50400001928E-02 0. -1.
</event>
<event>
 5   0  0.5888774E-04  0.1002616E+04  0.7818609E-02  0.9305680E-01
       -1   -1    0    0    0  501  0.00000000000E+00  0.00000000000E+00  0.72555763320E+03  0.72555763322E+03  0.50400001928E-02 0. -1.
        1   -1    0    0  501    0  0.00000000000E+00  0.00000000000E+00 -0.34636767365E+03  0.34636767369E+03  0.50400001928E-02 0.  1.
    10030    2    1    2    0    0  0.00000000000E+00  0.00000000000E+00  0.37918995955E+03  0.10719253069E+04  0.10026159974E+04 0.  0.
        2    1    3    3  502    0  0.10352984253E+03  0.22382666391E+03  0.65622137096E+03  0.70103016446E+03  0.25500000920E-02 0. -1.
       -2    1    3    3    0  502 -0.10352984253E+03 -0.22382666391E+03 -0.27703141141E+03  0.37089514244E+03  0.25500000920E-02 0.  1.
</event>
<event>
 5   0  0.5960102E-04  0.9985343E+03  0.7818609E-02  0.9310154E-01
       -1   -1    0    0    0  501  0.00000000000E+00  0.00000000000E+00  0.50406817805E+03  0.50406817807E+03  0.50400001928E-02 0.  1.
        1   -1    0    0  501    0  0.00000000000E+00  0.00000000000E+00 -0.49451182935E+03  0.49451182938E+03  0.50400001928E-02 0. -1.
    10030    2    1    2    0    0  0.00000000000E+00  0.00000000000E+00  0.95563486953E+01  0.99858000745E+03  0.99853427957E+03 0.  0.
        5    1    3    3  502    0  0.93969965627E+02 -0.47928441114E+03  0.10823186378E+03  0.50028004911E+03  0.46999998093E+01 0.  1.
       -5    1    3    3    0  502 -0.93969965627E+02  0.47928441114E+03 -0.98675515086E+02  0.49829995834E+03  0.46999998093E+01 0. -1.
</event>
<event>
 5   0  0.1006006E-03  0.9988539E+03  0.7818609E-02  0.9309803E-01
       -2   -1    0    0    0  501  0.00000000000E+00  0.00000000000E+00  0.20230807202E+03  0.20230807203E+03  0.25500000920E-02 0.  1.
        2   -1    0    0  501    0  0.00000000000E+00  0.00000000000E+00 -0.12329081400E+04  0.12329081400E+04  0.25500000920E-02 0. -1.
    10030    2    1    2    0    0  0.00000000000E+00  0.00000000000E+00 -0.10306000680E+04  0.14352162121E+04  0.99885388079E+03 0.  0.
        2    1    3    3  502    0 -0.14743817856E+03 -0.59223163605E+02  0.16502368585E+03  0.22908124432E+03  0.25500000920E-02 0.  1.
       -2    1    3    3    0  502  0.14743817856E+03  0.59223163605E+02 -0.11956237538E+04  0.12061349677E+04  0.25500000920E-02 0. -1.
</event>
<event>
 5   0  0.9674819E-04  0.1000093E+04  0.7818609E-02  0.9308443E-01
        2   -1    0    0  501    0  0.00000000000E+00  0.00000000000E+00  0.81857204702E+03  0.81857204702E+03  0.25500000920E-02 0.  1.
       -2   -1    0    0    0  501  0.00000000000E+00  0.00000000000E+00 -0.30546664688E+03  0.30546664689E+03  0.25500000920E-02 0. -1.
    10030    2    1    2    0    0  0.00000000000E+00  0.00000000000E+00  0.51310540014E+03  0.11240386939E+04  0.10000929126E+04 0.  0.
        4    1    3    3  502    0  0.20054739026E+03 -0.44892141550E+03  0.35891807926E+03  0.60874747930E+03  0.12699999809E+01 0.  1.
       -4    1    3    3    0  502 -0.20054739026E+03  0.44892141550E+03  0.15418732088E+03  0.51529121461E+03  0.12699999809E+01 0. -1.
</event>
<event>
 5   0  0.9741826E-04  0.9996071E+03  0.7818609E-02  0.9308976E-01
       -2   -1    0    0    0  501  0.00000000000E+00  0.00000000000E+00  0.17757417649E+03  0.17757417650E+03  0.25500000920E-02 0.  1.
        2   -1    0    0  501    0  0.00000000000E+00  0.00000000000E+00 -0.14067563216E+04  0.14067563216E+04  0.25500000920E-02 0. -1.
    10030    2    1    2    0    0  0.00000000000E+00  0.00000000000E+00 -0.12291821451E+04  0.15843304981E+04  0.99960711349E+03 0.  0.
        3    1    3    3  502    0  0.43209954395E+03 -0.12989459184E+02 -0.10121738061E+04  0.11006246254E+04  0.10100000352E+00 0. -1.
       -3    1    3    3    0  502 -0.43209954395E+03  0.12989459184E+02 -0.21700833896E+03  0.48370587272E+03  0.10100000352E+00 0.  1.
</event>
<event>
 5   0  0.5768102E-04  0.1004883E+04  0.7818609E-02  0.9303205E-01
        1   -1    0    0  501    0  0.00000000000E+00  0.00000000000E+00  0.50980141535E+03  0.50980141538E+03  0.50400001928E-02 0.  1.
       -1   -1    0    0    0  501  0.00000000000E+00  0.00000000000E+00 -0.49518801838E+03  0.49518801841E+03  0.50400001928E-02 0. -1.
    10030    2    1    2    0    0  0.00000000000E+00  0.00000000000E+00  0.14613396970E+02  0.10049894338E+04  0.10048831826E+04 0.  0.
        4    1    3    3  502    0  0.29032362884E+03  0.21021015971E+03 -0.34482401064E+03  0.49737443835E+03  0.12699999809E+01 0. -1.
       -4    1    3    3    0  502 -0.29032362884E+03 -0.21021015971E+03  0.35943740761E+03  0.50761499544E+03  0.12699999809E+01 0.  1.
</event>
<event>
 5   0  0.5758786E-04  0.1001091E+04  0.7818609E-02  0.9307349E-01
        1   -1    0    0  501    0  0.00000000000E+00  0.00000000000E+00  0.13797809753E+04  0.13797809753E+04  0.50400001928E-02 0. -1.
       -1   -1    0    0    0  501  0.00000000000E+00  0.00000000000E+00 -0.18158361560E+03  0.18158361567E+03  0.50400001928E-02 0.  1.
    10030    2    1    2    0    0  0.00000000000E+00  0.00000000000E+00  0.11981973597E+04  0.15613645910E+04  0.10010906418E+04 0.  0.
        3    1    3    3  502    0 -0.59267598602E+02 -0.14987780185E+03 -0.14000678160E+03  0.21348984245E+03  0.10100000352E+00 0.  1.
       -3    1    3    3    0  502  0.59267598602E+02  0.14987780185E+03  0.13382041413E+04  0.13478747485E+04  0.10100000352E+00 0. -1.
</event>
<event>
 5   0  0.5960102E-04  0.9971602E+03  0.7818609E-02  0.9311665E-01
        1   -1    0    0  501    0  0.00000000000E+00  0.00000000000E+00  0.13142471342E+04  0.13142471342E+04  0.50400001928E-02 0.  1.
       -1   -1    0    0    0  501  0.00000000000E+00  0.00000000000E+00 -0.18914412599E+03  0.18914412606E+03  0.50400001928E-02 0. -1.
    10030    2    1    2    0    0  0.00000000000E+00  0.00000000000E+00  0.11251030082E+04  0.15033912603E+04  0.99716021901E+03 0.  0.
        5    1    3    3  502    0  0.65538333558E+02  0.48255610910E+03  0.72355770862E+03  0.87218892408E+03  0.46999998093E+01 0.  1.
       -5    1    3    3    0  502 -0.65538333558E+02 -0.48255610910E+03  0.40154529960E+03  0.63120233619E+03  0.46999998093E+01 0. -1.
</event>
<event>
 5   0  0.5960102E-04  0.1005816E+04  0.7818609E-02  0.9302189E-01
       -1   -1    0    0    0  501  0.00000000000E+00  0.00000000000E+00  0.28928222121E+03  0.28928222126E+03  0.50400001928E-02 0.  1.
        1   -1    0    0  501    0  0.00000000000E+00  0.00000000000E+00 -0.87428880698E+03  0.87428880700E+03  0.50400001928E-02 0. -1.
    10030    2    1    2    0    0  0.00000000000E+00  0.00000000000E+00 -0.58500658577E+03  0.11635710283E+04  0.10058155061E+04 0.  0.
        5    1    3    3  502    0  0.35058396619E+03 -0.10339397261E+03  0.10705957710E+03  0.38089798367E+03  0.46999998093E+01 0.  1.
       -5    1    3    3    0  502 -0.35058396619E+03  0.10339397261E+03 -0.69206616287E+03  0.78267304458E+03  0.46999998093E+01 0. -1.
</event>
<event>
 5   0  0.1006006E-03  0.1000485E+04  0.7818609E-02  0.9308014E-01
        2   -1    0    0  501    0  0.00000000000E+00  0.00000000000E+00  0.17471573720E+04  0.17471573720E+04  0.25500000920E-02 0.  1.
       -2   -1    0    0    0  501  0.00000000000E+00  0.00000000000E+00 -0.14322827705E+03  0.14322827707E+03  0.25500000920E-02 0. -1.
    10030    2    1    2    0    0  0.00000000000E+00  0.00000000000E+00  0.16039290949E+04  0.18903856491E+04  0.10004845629E+04 0.  0.
        2    1    3    3  502    0  0.14532573127E+03  0.24915015108E+03  0.15742170536E+04  0.16004232871E+04  0.25500000920E-02 0.  1.
       -2    1    3    3    0  502 -0.14532573127E+03 -0.24915015108E+03  0.29712041322E+02  0.28996236197E+03  0.25500000920E-02 0. -1.
</event>
<event>
 5   0  0.1006006E-03  0.9987728E+03  0.7818609E-02  0.9309892E-01
       -2   -1    0    0    0  501  0.00000000000E+00  0.00000000000E+00  0.96950904377E+03  0.96950904377E+03  0.25500000920E-02 0.  1.
        2   -1    0    0  501    0  0.00000000000E+00  0.00000000000E+00 -0.25722996690E+03  0.25722996691E+03  0.25500000920E-02 0. -1.
    10030    2    1    2    0    0  0.00000000000E+00  0.00000000000E+00  0.71227907687E+03  0.12267390107E+04  0.99877280549E+03 0.  0.
        2    1    3    3  502    0  0.31008610573E+03 -0.15643731740E+03  0.79687421276E+03  0.86927241887E+03  0.25500000920E-02 0.  1.
       -2    1    3    3    0  502 -0.31008610573E+03  0.15643731740E+03 -0.84595135897E+02  0.35746659181E+03  0.25500000920E-02 0. -1.
</event>
<event>
 5   0  0.5758786E-04  0.1000050E+04  0.7818609E-02  0.9308489E-01
       -1   -1    0    0    0  501  0.00000000000E+00  0.00000000000E+00  0.21210730285E+03  0.21210730291E+03  0.50400001928E-02 0. -1.
        1   -1    0    0  501    0  0.00000000000E+00  0.00000000000E+00 -0.11787676883E+04  0.11787676883E+04  0.50400001928E-02 0.  1.
    10030    2    1    2    0    0  0.00000000000E+00  0.00000000000E+00 -0.96666038547E+03  0.13908749912E+04  0.10000504689E+04 0.  0.
        3    1    3    3  502    0 -0.37653182493E+03 -0.16650860479E+03 -0.88665236581E+02  0.42114470795E+03  0.10100000352E+00 0. -1.
       -3    1    3    3    0  502  0.37653182493E+03  0.16650860479E+03 -0.87799514889E+03  0.96973028329E+03  0.10100000352E+00 0.  1.
</event>
<event>
 5   0  0.5826939E-04  0.1000148E+04  0.7818609E-02  0.9308383E-01
       -1   -1    0    0    0  501  0.00000000000E+00  0.00000000000E+00  0.15859190924E+03  0.15859190932E+03  0.50400001928E-02 0.  1.
        1   -1    0    0  501    0  0.00000000000E+00  0.00000000000E+00 -0.15768394265E+04  0.15768394265E+04  0.50400001928E-02 0. -1.
    10030    2    1    2    0    0  0.00000000000E+00  0.00000000000E+00 -0.14182475173E+04  0.17354313358E+04  0.10001479396E+04 0.  0.
        1    1    3    3  502    0  0.34273647523E+03 -0.26966269600E+03 -0.28449240415E+03  0.52069394956E+03  0.50400001928E-02 0.  1.
       -1    1    3    3    0  502 -0.34273647523E+03  0.26966269600E+03 -0.11337551131E+04  0.12147373863E+04  0.50400001928E-02 0. -1.
</event>
<event>
 5   0  0.1006749E-03  0.9986335E+03  0.7818609E-02  0.9310045E-01
       -2   -1    0    0    0  501  0.00000000000E+00  0.00000000000E+00  0.11340866841E+03  0.11340866844E+03  0.25500000920E-02 0.  1.
        2   -1    0    0  501    0  0.00000000000E+00  0.00000000000E+00 -0.21983966384E+04  0.21983966384E+04  0.25500000920E-02 0. -1.
    10030    2    1    2    0    0  0.00000000000E+00  0.00000000000E+00 -0.20849879700E+04  0.23118053068E+04  0.99863353727E+03 0.  0.
        1    1    3    3  502    0 -0.26232311809E+02 -0.75846921828E+02 -0.21833680808E+04  0.21848425723E+04  0.50400001928E-02 0. -1.
       -1    1    3    3    0  502  0.26232311809E+02  0.75846921828E+02  0.98380110777E+02  0.12696273451E+03  0.50400001928E-02 0.  1.
</event>
<event>
 5   0  0.1020150E-03  0.1000480E+04  0.7818609E-02  0.9308019E-01
        2   -1    0    0  501    0  0.00000000000E+00  0.00000000000E+00  0.38641866514E+03  0.38641866515E+03  0.25500000920E-02 0. -1.
       -2   -1    0    0    0  501  0.00000000000E+00  0.00000000000E+00 -0.64758765195E+03  0.64758765195E+03  0.25500000920E-02 0.  1.
    10030    2    1    2    0    0  0.00000000000E+00  0.00000000000E+00 -0.26116898681E+03  0.10340063171E+04  0.10004797970E+04 0.  0.
        5    1    3    3  502    0 -0.31258473753E+03  0.23405498951E+02  0.27230013532E+03  0.41524268712E+03  0.46999998093E+01 0. -1.
       -5    1    3    3    0  502  0.31258473753E+03 -0.23405498951E+02 -0.53346912213E+03  0.61876362997E+03  0.46999998093E+01 0.  1.
</event>
<event>
 5   0  0.5888774E-04  0.9990619E+03  0.7818609E-02  0.9309574E-01
        1   -1    0    0  501    0  0.00000000000E+00  0.00000000000E+00  0.67960567072E+03  0.67960567074E+03  0.50400001928E-02 0. -1.
       -1   -1    0    0    0  501  0.00000000000E+00  0.00000000000E+00 -0.36717051881E+03  0.36717051885E+03  0.50400001928E-02 0.  1.
    10030    2    1    2    0    0  0.00000000000E+00  0.00000000000E+00  0.31243515191E+03  0.10467761896E+04  0.99906189345E+03 0.  0.
        2    1    3    3  502    0 -0.16964690719E+03 -0.20729986624E+03 -0.28555655075E+03  0.39153014105E+03  0.25500000920E-02 0.  1.
       -2    1    3    3    0  502  0.16964690719E+03  0.20729986624E+03  0.59799170266E+03  0.65524604854E+03  0.25500000920E-02 0. -1.
</event>
<event>
 5   0  0.5888774E-04  0.1000017E+04  0.7818609E-02  0.9308526E-01
       -1   -1    0    0    0  501  0.00000000000E+00  0.00000000000E+00  0.16645854599E+03  0.16645854607E+03  0.50400001928E-02 0. -1.
        1   -1    0    0  501    0  0.00000000000E+00  0.00000000000E+00 -0.15019275354E+04  0.15019275354E+04  0.50400001928E-02 0.  1.
    10030    2    1    2    0    0  0.00000000000E+00  0.00000000000E+00 -0.13354689894E+04  0.16683860815E+04  0.10000173474E+04 0.  0.
        2    1    3    3  502    0  0.15449811743E+03  0.49727822608E+02  0.12128758143E+03  0.20261589781E+03  0.25500000920E-02 0. -1.
       -2    1    3    3    0  502 -0.15449811743E+03 -0.49727822608E+02 -0.14567565708E+04  0.14657701836E+04  0.25500000920E-02 0.  1.
</event>
<event>
 5   0  0.5758786E-04  0.1019839E+04  0.7818609E-02  0.9287049E-01
       -1   -1    0    0    0  501  0.00000000000E+00  0.00000000000E+00  0.11880889360E+04  0.11880889360E+04  0.50400001928E-02 0.  1.
        1   -1    0    0  501    0  0.00000000000E+00  0.00000000000E+00 -0.21885397324E+03  0.21885397329E+03  0.50400001928E-02 0. -1.
    10030    2    1    2    0    0  0.00000000000E+00  0.00000000000E+00  0.96923496280E+03  0.14069429093E+04  0.10198391721E+04 0.  0.
        3    1    3    3  502    0  0.22483343352E+03 -0.21979044667E+03 -0.69208718473E+02  0.32194373761E+03  0.10100000352E+00 0. -1.
       -3    1    3    3    0  502 -0.22483343352E+03  0.21979044667E+03  0.10384436813E+04  0.10849991717E+04  0.10100000352E+00 0.  1.
</event>
<event>
 5   0  0.9741826E-04  0.1005941E+04  0.7818609E-02  0.9302053E-01
        2   -1    0    0  501    0  0.00000000000E+00  0.00000000000E+00  0.15220127358E+04  0.15220127358E+04  0.25500000920E-02 0.  1.
       -2   -1    0    0    0  501  0.00000000000E+00  0.00000000000E+00 -0.16621368264E+03  0.16621368266E+03  0.25500000920E-02 0. -1.
    10030    2    1    2    0    0  0.00000000000E+00  0.00000000000E+00  0.13557990531E+04  0.16882264184E+04  0.10059410357E+04 0.  0.
        3    1    3    3  502    0 -0.77490381237E+02 -0.21866309852E+02 -0.15532777240E+03  0.17495605668E+03  0.10100000352E+00 0. -1.
       -3    1    3    3    0  502  0.77490381237E+02  0.21866309852E+02  0.15111268255E+04  0.15132703617E+04  0.10100000352E+00 0.  1.
</event>
<event>
 5   0  0.5960102E-04  0.1000422E+04  0.7818609E-02  0.9308082E-01
        1   -1    0    0  501    0  0.00000000000E+00  0.00000000000E+00  0.10790001929E+04  0.10790001929E+04  0.50400001928E-02 0.  1.
       -1   -1    0    0    0  501  0.00000000000E+00  0.00000000000E+00 -0.23189154154E+03  0.23189154159E+03  0.50400001928E-02 0. -1.
    10030    2    1    2    0    0  0.00000000000E+00  0.00000000000E+00  0.84710865132E+03  0.13108917345E+04  0.10004219471E+04 0.  0.
        5    1    3    3  502    0 -0.46146456938E+03 -0.11430991695E+03  0.62727987451E+03  0.78709493510E+03  0.46999998093E+01 0.  1.
       -5    1    3    3    0  502  0.46146456938E+03  0.11430991695E+03  0.21982877681E+03  0.52379679936E+03  0.46999998093E+01 0. -1.
</event>
<event>
 5   0  0.5888774E-04  0.9836185E+03  0.7818609E-02  0.9326696E-01
        1   -1    0    0  501    0  0.00000000000E+00  0.00000000000E+00  0.13265021930E+04  0.13265021930E+04  0.50400001928E-02 0.  1.
       -1   -1    0    0    0  501  0.00000000000E+00  0.00000000000E+00 -0.18234144626E+03  0.18234144633E+03  0.50400001928E-02 0. -1.
    10030    2    1    2    0    0  0.00000000000E+00  0.00000000000E+00  0.11441607467E+04  0.15088436393E+04  0.98361847969E+03 0.  0.
        2    1    3    3  502    0 -0.98140888616E+02 -0.37093022765E+03  0.10440242912E+04  0.11122983361E+04  0.25500000920E-02 0.  1.
       -2    1    3    3    0  502  0.98140888616E+02  0.37093022765E+03  0.10013645554E+03  0.39654530327E+03  0.25500000920E-02 0. -1.
</event>
<event>
 5   0  0.9741826E-04  0.1000482E+04  0.7818609E-02  0.9308017E-01
       -2   -1    0    0    0  501  0.00000000000E+00  0.00000000000E+00  0.13385026762E+03  0.13385026764E+03  0.25500000920E-02 0.  1.
        2   -1    0    0  501    0  0.00000000000E+00  0.00000000000E+00 -0.18695585973E+04  0.18695585973E+04  0.25500000920E-02 0. -1.
    10030    2    1    2    0    0  0.00000000000E+00  0.00000000000E+00 -0.17357083297E+04  0.20034088650E+04  0.10004817212E+04 0.  0.
        3    1    3    3  502    0 -0.30296252706E+03 -0.89573645408E+02 -0.16445113428E+04  0.16745827234E+04  0.10100000352E+00 0. -1.
       -3    1    3    3    0  502  0.30296252706E+03  0.89573645408E+02 -0.91196986916E+02  0.32882614157E+03  0.10100000352E+00 0.  1.
</event>
<event>
 5   0  0.1020150E-03  0.9901320E+03  0.7818609E-02  0.9319435E-01
       -2   -1    0    0    0  501  0.00000000000E+00  0.00000000000E+00  0.15025520858E+04  0.15025520858E+04  0.25500000920E-02 0. -1.
        2   -1    0    0  501    0  0.00000000000E+00  0.00000000000E+00 -0.16311602437E+03  0.16311602439E+03  0.25500000920E-02 0.  1.
    10030    2    1    2    0    0  0.00000000000E+00  0.00000000000E+00  0.13394360615E+04  0.16656681102E+04  0.99013195619E+03 0.  0.
        5    1    3    3  502    0  0.84504802782E+02 -0.17355651972E+03  0.14365914931E+04  0.14495103088E+04  0.46999998093E+01 0. -1.
       -5    1    3    3    0  502 -0.84504802782E+02  0.17355651972E+03 -0.97155431635E+02  0.21615780144E+03  0.46999998093E+01 0.  1.
</event>
<event>
 5   0  0.1020150E-03  0.1001144E+04  0.7818609E-02  0.9307291E-01
        2   -1    0    0  501    0  0.00000000000E+00  0.00000000000E+00  0.34477002128E+03  0.34477002129E+03  0.25500000920E-02 0.  1.
       -2   -1    0    0    0  501  0.00000000000E+00  0.00000000000E+00 -0.72678041211E+03  0.72678041211E+03  0.25500000920E-02 0. -1.
    10030    2    1    2    0    0  0.00000000000E+00  0.00000000000E+00 -0.38201039083E+03  0.10715504334E+04  0.10011435425E+04 0.  0.
        5    1    3    3  502    0 -0.31129848616E+03  0.38219363801E+03 -0.28413764515E+03  0.56897716633E+03  0.46999998093E+01 0.  1.
       -5    1    3    3    0  502  0.31129848616E+03 -0.38219363801E+03 -0.97872745684E+02  0.50257326706E+03  0.46999998093E+01 0. -1.
</event>
<event>
 5   0  0.1020150E-03  0.9910621E+03  0.7818609E-02  0.9318402E-01
       -2   -1    0    0    0  501  0.00000000000E+00  0.00000000000E+00  0.19260699621E+03  0.19260699623E+03  0.25500000920E-02 0. -1.
        2   -1    0    0  501    0  0.00000000000E+00  0.00000000000E+00 -0.12748811551E+04  0.12748811551E+04  0.25500000920E-02 0.  1.
    10030    2    1    2    0    0  0.00000000000E+00  0.00000000000E+00 -0.10822741589E+04  0.14674881513E+04  0.99106211677E+03 0.  0.
        5    1    3    3  502    0  0.31363327089E+03 -0.31757747624E+03 -0.85977696356E+03  0.96874134788E+03  0.46999998093E+01 0.  1.
       -5    1    3    3    0  502 -0.31363327089E+03  0.31757747624E+03 -0.22249719532E+03  0.49874680345E+03  0.46999998093E+01 0. -1.
</event>
<event>
 5   0  0.1006006E-03  0.1004752E+04  0.7818609E-02  0.9303348E-01
       -2   -1    0    0    0  501  0.00000000000E+00  0.00000000000E+00  0.65983087180E+03  0.65983087181E+03  0.25500000920E-02 0.  1.
        2   -1    0    0  501    0  0.00000000000E+00  0.00000000000E+00 -0.38249427395E+03  0.38249427395E+03  0.25500000920E-02 0. -1.
    10030    2    1    2    0    0  0.00000000000E+00  0.00000000000E+00  0.27733659786E+03  0.10423251458E+04  0.10047517708E+04 0.  0.
        2    1    3    3  502    0  0.46997826333E+03 -0.17717601921E+03  0.14957923863E+03  0.52406570048E+03  0.25500000920E-02 0.  1.
       -2    1    3    3    0  502 -0.46997826333E+03  0.17717601921E+03  0.12775735923E+03  0.51825944528E+03  0.25500000920E-02 0. -1.
</event>
<event>
 5   0  0.9674819E-04  0.1000104E+04  0.7818609E-02  0.9308431E-01
       -2   -1    0    0    0  501  0.00000000000E+00  0.00000000000E+00  0.13861690711E+03  0.13861690714E+03  0.25500000920E-02 0.  1.
        2   -1    0    0  501    0  0.00000000000E+00  0.00000000000E+00 -0.18039056585E+04  0.18039056585E+04  0.25500000920E-02 0. -1.
    10030    2    1    2    0    0  0.00000000000E+00  0.00000000000E+00 -0.16652887514E+04  0.19425225656E+04  0.10001036409E+04 0.  0.
        4    1    3    3  502    0  0.86333214889E+01 -0.38282503665E+03 -0.20801165280E+03  0.43577517543E+03  0.12699999809E+01 0.  1.
       -4    1    3    3    0  502 -0.86333214889E+01  0.38282503665E+03 -0.14572770986E+04  0.15067473902E+04  0.12699999809E+01 0. -1.
</event>
<event>
 5   0  0.9741826E-04  0.9996570E+03  0.7818609E-02  0.9308921E-01
       -2   -1    0    0    0  501  0.00000000000E+00  0.00000000000E+00  0.30308114297E+03  0.30308114298E+03  0.25500000920E-02 0.  1.
        2   -1    0    0  501    0  0.00000000000E+00  0.00000000000E+00 -0.82429577866E+03  0.82429577867E+03  0.25500000920E-02 0. -1.
    10030    2    1    2    0    0  0.00000000000E+00  0.00000000000E+00 -0.52121463569E+03  0.11273769216E+04  0.99965695466E+03 0.  0.
        3    1    3    3  502    0  0.36635241879E+03  0.19577858408E+03  0.52913345540E+02  0.41873999220E+03  0.10100000352E+00 0.  1.
       -3    1    3    3    0  502 -0.36635241879E+03 -0.19577858408E+03 -0.57412798123E+03  0.70863692944E+03  0.10100000352E+00 0. -1.
</event>
<event>
 5   0  0.1020150E-03  0.1000611E+04  0.7818609E-02  0.9307875E-01
        2   -1    0    0  501    0  0.00000000000E+00  0.00000000000E+00  0.11163853392E+04  0.11163853392E+04  0.25500000920E-02 0.  1.
       -2   -1    0    0    0  501  0.00000000000E+00  0.00000000000E+00 -0.22421088403E+03  0.22421088404E+03  0.25500000920E-02 0. -1.
    10030    2    1    2    0    0  0.00000000000E+00  0.00000000000E+00  0.89217445519E+03  0.13405962233E+04  0.10006113008E+04 0.  0.
        5    1    3    3  502    0 -0.40843469997E+03  0.50037129666E+02  0.64871671129E+02  0.41659697814E+03  0.46999998093E+01 0. -1.
       -5    1    3    3    0  502  0.40843469997E+03 -0.50037129666E+02  0.82730278406E+03  0.92399924512E+03  0.46999998093E+01 0.  1.
</event>
<event>
 5   0  0.1006749E-03  0.9987430E+03  0.7818609E-02  0.9309925E-01
       -2   -1    0    0    0  501  0.00000000000E+00  0.00000000000E+00  0.41539926571E+03  0.41539926571E+03  0.25500000920E-02 0.  1.
        2   -1    0    0  501    0  0.00000000000E+00  0.00000000000E+00 -0.60031854752E+03  0.60031854752E+03  0.25500000920E-02 0. -1.
    10030    2    1    2    0    0  0.00000000000E+00  0.00000000000E+00 -0.18491928181E+03  0.10157178132E+04  0.99874297762E+03 0.  0.
        1    1    3    3  502    0  0.33869881280E+03 -0.32131380398E+03 -0.27270751378E+03  0.54067442562E+03  0.50400001928E-02 0. -1.
       -1    1    3    3    0  502 -0.33869881280E+03  0.32131380398E+03  0.87788231970E+02  0.47504338762E+03  0.50400001928E-02 0.  1.
</event>
<event>
 5   0  0.3854625E-04  0.1001170E+04  0.7818609E-02  0.9307263E-01
       -3   -1    0    0    0  501  0.00000000000E+00  0.00000000000E+00  0.15466782499E+04  0.15466782532E+04  0.10100000352E+00 0.  1.
        3   -1    0    0  501    0  0.00000000000E+00  0.00000000000E+00 -0.16201509821E+03  0.16201512969E+03  0.10100000352E+00 0. -1.
    10030    2    1    2    0    0  0.00000000000E+00  0.00000000000E+00  0.13846631517E+04  0.17086933829E+04  0.10011698323E+04 0.  0.
        4    1    3    3  502    0  0.10300335400E+03  0.18932684526E+03  0.14634286515E+04  0.14792157977E+04  0.12699999809E+01 0.  1.
       -4    1    3    3    0  502 -0.10300335400E+03 -0.18932684526E+03 -0.78765499763E+02  0.22947758523E+03  0.12699999809E+01 0. -1.
</event>
<event>
 5   0  0.1006749E-03  0.9995408E+03  0.7818609E-02  0.9309049E-01
       -2   -1    0    0    0  501  0.00000000000E+00  0.00000000000E+00  0.24421022256E+03  0.24421022257E+03  0.25500000920E-02 0. -1.
        2   -1    0    0  501    0  0.00000000000E+00  0.00000000000E+00 -0.10227682690E+04  0.10227682690E+04  0.25500000920E-02 0.  1.
    10030    2    1    2    0    0  0.00000000000E+00  0.00000000000E+00 -0.77855804648E+03  0.12669784916E+04  0.99954082781E+03 0.  0.
        1    1    3    3  502    0 -0.35206690093E+03 -0.22756211969E+03 -0.44384108206E+02  0.42155138493E+03  0.50400001928E-02 0. -1.
       -1    1    3    3    0  502  0.35206690093E+03  0.22756211969E+03 -0.73417393828E+03  0.84542710669E+03  0.50400001928E-02 0.  1.
</event>
<event>
 5   0  0.5888774E-04  0.1000692E+04  0.7818609E-02  0.9307786E-01
        1   -1    0    0  501    0  0.00000000000E+00  0.00000000000E+00  0.10448742850E+04  0.10448742850E+04  0.50400001928E-02 0.  1.
       -1   -1    0    0    0  501  0.00000000000E+00  0.00000000000E+00 -0.23959472095E+03  0.23959472100E+03  0.50400001928E-02 0. -1.
    10030    2    1    2    0    0  0.00000000000E+00  0.00000000000E+00  0.80527956406E+03  0.12844690060E+04  0.10006924858E+04 0.  0.
        2    1    3    3  502    0 -0.12840811014E+03  0.11051036254E+03  0.10069391445E+04  0.10210913886E+04  0.25500000920E-02 0.  1.
       -2    1    3    3    0  502  0.12840811014E+03 -0.11051036254E+03 -0.20165958047E+03  0.26337761746E+03  0.25500000920E-02 0. -1.
</event>
<event>
 5   0  0.9741826E-04  0.9990136E+03  0.7818609E-02  0.9309627E-01
       -2   -1    0    0    0  501  0.00000000000E+00  0.00000000000E+00  0.25218001181E+03  0.25218001182E+03  0.25500000920E-02 0. -1.
        2   -1    0    0  501    0  0.00000000000E+00  0.00000000000E+00 -0.98940060761E+03  0.98940060761E+03  0.25500000920E-02 0.  1.
    10030    2    1    2    0    0  0.00000000000E+00  0.00000000000E+00 -0.73722059580E+03  0.12415806194E+04  0.99901362737E+03 0.  0.
        3    1    3    3  502    0  0.22966919930E+03 -0.59039579227E+02  0.17776315984E+03  0.29636694184E+03  0.10100000352E+00 0. -1.
       -3    1    3    3    0  502 -0.22966919930E+03  0.59039579227E+02 -0.91498375564E+03  0.94521367759E+03  0.10100000352E+00 0.  1.
</event>
<event>
 5   0  0.5768102E-04  0.1002754E+04  0.7818609E-02  0.9305529E-01
        1   -1    0    0  501    0  0.00000000000E+00  0.00000000000E+00  0.91246233936E+03  0.91246233938E+03  0.50400001928E-02 0.  1.
       -1   -1    0    0    0  501  0.00000000000E+00  0.00000000000E+00 -0.27549511435E+03  0.27549511439E+03  0.50400001928E-02 0. -1.
    10030    2    1    2    0    0  0.00000000000E+00  0.00000000000E+00  0.63696722502E+03  0.11879574538E+04  0.10027540407E+04 0.  0.
        4    1    3    3  502    0  0.29301968919E+03  0.20314543879E+03 -0.99108595125E+02  0.37007125542E+03  0.12699999809E+01 0.  1.
       -4    1    3    3    0  502 -0.29301968919E+03 -0.20314543879E+03  0.73607582014E+03  0.81788619835E+03  0.12699999809E+01 0. -1.
</event>
<event>
 5   0  0.5826939E-04  0.1000449E+04  0.7818609E-02  0.9308052E-01
        1   -1    0    0  501    0  0.00000000000E+00  0.00000000000E+00  0.13845900617E+04  0.13845900617E+04  0.50400001928E-02 0.  1.
       -1   -1    0    0    0  501  0.00000000000E+00  0.00000000000E+00 -0.18072119657E+03  0.18072119664E+03  0.50400001928E-02 0. -1.
    10030    2    1    2    0    0  0.00000000000E+00  0.00000000000E+00  0.12038688651E+04  0.15653112583E+04  0.10004494445E+04 0.  0.
        1    1    3    3  502    0  0.22976337503E+03  0.42327631031E+02  0.12939829414E+04  0.13149048214E+04  0.50400001928E-02 0.  1.
       -1    1    3    3    0  502 -0.22976337503E+03 -0.42327631031E+02 -0.90114076282E+02  0.25040643687E+03  0.50400001928E-02 0. -1.
</event>
<event>
 5   0  0.5960102E-04  0.9991050E+03  0.7818609E-02  0.9309527E-01
        1   -1    0    0  501    0  0.00000000000E+00  0.00000000000E+00  0.27932662642E+03  0.27932662646E+03  0.50400001928E-02 0.  1.
       -1   -1    0    0    0  501  0.00000000000E+00  0.00000000000E+00 -0.89340818935E+03  0.89340818937E+03  0.50400001928E-02 0. -1.
    10030    2    1    2    0    0  0.00000000000E+00  0.00000000000E+00 -0.61408156294E+03  0.11727348158E+04  0.99910499064E+03 0.  0.
        5    1    3    3  502    0  0.33017313171E+03 -0.83194625869E+02 -0.73606689984E+03  0.81101924374E+03  0.46999998093E+01 0. -1.
       -5    1    3    3    0  502 -0.33017313171E+03  0.83194625869E+02  0.12198533690E+03  0.36171557209E+03  0.46999998093E+01 0.  1.
</event>
<event>
 5   0  0.9674819E-04  0.1001110E+04  0.7818609E-02  0.9307328E-01
       -2   -1    0    0    0  501  0.00000000000E+00  0.00000000000E+00  0.31729522691E+03  0.31729522692E+03  0.25500000920E-02 0.  1.
        2   -1    0    0  501    0  0.00000000000E+00  0.00000000000E+00 -0.78965963377E+03  0.78965963377E+03  0.25500000920E-02 0. -1.
    10030    2    1    2    0    0  0.00000000000E+00  0.00000000000E+00 -0.47236440685E+03  0.11069548607E+04  0.10011098495E+04 0.  0.
        4    1    3    3  502    0  0.35107014982E+03 -0.34269846866E+03 -0.34598452012E+03  0.60033273406E+03  0.12699999809E+01 0.  1.
       -4    1    3    3    0  502 -0.35107014982E+03  0.34269846866E+03 -0.12637988673E+03  0.50662212663E+03  0.12699999809E+01 0. -1.
</event>
<event>
 5   0  0.5888774E-04  0.9996620E+03  0.7818609E-02  0.9308916E-01
        1   -1    0    0  501    0  0.00000000000E+00  0.00000000000E+00  0.10003827525E+04  0.10003827525E+04  0.50400001928E-02 0.  1.
       -1   -1    0    0    0  501  0.00000000000E+00  0.00000000000E+00 -0.24973544371E+03  0.24973544377E+03  0.50400001928E-02 0. -1.
    10030    2    1    2    0    0  0.00000000000E+00  0.00000000000E+00  0.75064730877E+03  0.12501181963E+04  0.99966200411E+03 0.  0.
        2    1    3    3  502    0 -0.90982406725E+02 -0.28250905827E+03 -0.12760816519E+03  0.32306812001E+03  0.25500000920E-02 0. -1.
       -2    1    3    3    0  502  0.90982406725E+02  0.28250905827E+03  0.87825547396E+03  0.92705007625E+03  0.25500000920E-02 0.  1.
</event>
<event>
 5   0  0.1006006E-03  0.9964801E+03  0.7818609E-02  0.9312414E-01
       -2   -1    0    0    0  501  0.00000000000E+00  0.00000000000E+00  0.17735913034E+03  0.17735913036E+03  0.25500000920E-02 0. -1.
        2   -1    0    0  501    0  0.00000000000E+00  0.00000000000E+00 -0.13996638523E+04  0.13996638523E+04  0.25500000920E-02 0.  1.
    10030    2    1    2    0    0  0.00000000000E+00  0.00000000000E+00 -0.12223047220E+04  0.15770229827E+04  0.99648013252E+03 0.  0.
        2    1    3    3  502    0 -0.45981792724E+03 -0.18631250288E+03 -0.53865837203E+03  0.73232350549E+03  0.25500000920E-02 0. -1.
       -2    1    3    3    0  502  0.45981792724E+03  0.18631250288E+03 -0.68364634994E+03  0.84469947717E+03  0.25500000920E-02 0.  1.
</event>
<event>
 5   0  0.1006749E-03  0.9999827E+03  0.7818609E-02  0.9308564E-01
        2   -1    0    0  501    0  0.00000000000E+00  0.00000000000E+00  0.17181838557E+04  0.17181838557E+04  0.25500000920E-02 0.  1.
       -2   -1    0    0    0  501  0.00000000000E+00  0.00000000000E+00 -0.14549742491E+03  0.14549742493E+03  0.25500000920E-02 0. -1.
    10030    2    1    2    0    0  0.00000000000E+00  0.00000000000E+00  0.15726864308E+04  0.18636812806E+04  0.99998265294E+03 0.  0.
        1    1    3    3  502    0  0.23281527407E+03  0.33663386689E+03  0.13215439236E+04  0.13834752091E+04  0.50400001928E-02 0.  1.
       -1    1    3    3    0  502 -0.23281527407E+03 -0.33663386689E+03  0.25114250717E+03  0.48020607150E+03  0.50400001928E-02 0. -1.
</event>
<event>
 5   0  0.1020150E-03  0.9998639E+03  0.7818609E-02  0.9308694E-01
        2   -1    0    0  501    0  0.00000000000E+00  0.00000000000E+00  0.54921877155E+03  0.54921877155E+03  0.25500000920E-02 0.  1.
       -2   -1    0    0    0  501  0.00000000000E+00  0.00000000000E+00 -0.45506807659E+03  0.45506807660E+03  0.25500000920E-02 0. -1.
    10030    2    1    2    0    0  0.00000000000E+00  0.00000000000E+00  0.94150694954E+02  0.10042868482E+04  0.99986385074E+03 0.  0.
        5    1    3    3  502    0 -0.28288219476E+03  0.30289886593E+03 -0.23369614002E+03  0.47582143179E+03  0.46999998093E+01 0. -1.
       -5    1    3    3    0  502  0.28288219476E+03 -0.30289886593E+03  0.32784683498E+03  0.52846541636E+03  0.46999998093E+01 0.  1.
</event>
<event>
 5   0  0.5888774E-04  0.1021018E+04  0.7818609E-02  0.9285788E-01
       -1   -1    0    0    0  501  0.00000000000E+00  0.00000000000E+00  0.19358747476E+03  0.19358747483E+03  0.50400001928E-02 0. -1.
        1   -1    0    0  501    0  0.00000000000E+00  0.00000000000E+00 -0.13462625856E+04  0.13462625856E+04  0.50400001928E-02 0.  1.
    10030    2    1    2    0    0  0.00000000000E+00  0.00000000000E+00 -0.11526751108E+04  0.15398500604E+04  0.10210182650E+04 0.  0.
        2    1    3    3  502    0  0.31268209798E+03 -0.77121205086E+02  0.21053733766E+02  0.32273988657E+03  0.25500000920E-02 0. -1.
       -2    1    3    3    0  502 -0.31268209798E+03  0.77121205086E+02 -0.11737288446E+04  0.12171101739E+04  0.25500000920E-02 0.  1.
</event>
<event>
 5   0  0.5768102E-04  0.9996601E+03  0.7818609E-02  0.9308918E-01
        1   -1    0    0  501    0  0.00000000000E+00  0.00000000000E+00  0.34801953779E+03  0.34801953782E+03  0.50400001928E-02 0.  1.
       -1   -1    0    0    0  501  0.00000000000E+00  0.00000000000E+00 -0.71786228766E+03  0.71786228768E+03  0.50400001928E-02 0. -1.
    10030    2    1    2    0    0  0.00000000000E+00  0.00000000000E+00 -0.36984274988E+03  0.10658818255E+04  0.99966014540E+03 0.  0.
        4    1    3    3  502    0 -0.34867783456E+03  0.31389250195E+03 -0.10947112251E+01  0.46915620681E+03  0.12699999809E+01 0.  1.
       -4    1    3    3    0  502  0.34867783456E+03 -0.31389250195E+03 -0.36874803865E+03  0.59672561869E+03  0.12699999809E+01 0. -1.
</event>
<event>
 5   0  0.9674819E-04  0.9936775E+03  0.7818609E-02  0.9315506E-01
       -2   -1    0    0    0  501  0.00000000000E+00  0.00000000000E+00  0.40333488104E+03  0.40333488105E+03  0.25500000920E-02 0. -1.
        2   -1    0    0  501    0  0.00000000000E+00  0.00000000000E+00 -0.61201938326E+03  0.61201938327E+03  0.25500000920E-02 0.  1.
    10030    2    1    2    0    0  0.00000000000E+00  0.00000000000E+00 -0.20868450222E+03  0.10153542643E+04  0.99367754358E+03 0.  0.
        4    1    3    3  502    0 -0.67235365433E+02  0.35862185779E+03 -0.44891796775E+03  0.57849735169E+03  0.12699999809E+01 0.  1.
       -4    1    3    3    0  502  0.67235365433E+02 -0.35862185779E+03  0.24023346553E+03  0.43685691263E+03  0.12699999809E+01 0. -1.
</event>
<event>
 5   0  0.9741826E-04  0.9998703E+03  0.7818609E-02  0.9308687E-01
       -2   -1    0    0    0  501  0.00000000000E+00  0.00000000000E+00  0.57057422276E+03  0.57057422277E+03  0.25500000920E-02 0. -1.
        2   -1    0    0  501    0  0.00000000000E+00  0.00000000000E+00 -0.43804144078E+03  0.43804144079E+03  0.25500000920E-02 0.  1.
    10030    2    1    2    0    0  0.00000000000E+00  0.00000000000E+00  0.13253278198E+03  0.10086156636E+04  0.99987030082E+03 0.  0.
        3    1    3    3  502    0  0.33120187189E+03 -0.25230847629E+03  0.34541936874E+03  0.54098872230E+03  0.10100000352E+00 0. -1.
       -3    1    3    3    0  502 -0.33120187189E+03  0.25230847629E+03 -0.21288658676E+03  0.46762694125E+03  0.10100000352E+00 0.  1.
</event>
<event>
 5   0  0.5826939E-04  0.9992430E+03  0.7818609E-02  0.9309375E-01
        1   -1    0    0  501    0  0.00000000000E+00  0.00000000000E+00  0.83349425034E+03  0.83349425035E+03  0.50400001928E-02 0. -1.
       -1   -1    0    0    0  501  0.00000000000E+00  0.00000000000E+00 -0.29948812509E+03  0.29948812513E+03  0.50400001928E-02 0.  1.
    10030    2    1    2    0    0  0.00000000000E+00  0.00000000000E+00  0.53400612524E+03  0.11329823755E+04  0.99924297414E+03 0.  0.
        1    1    3    3  502    0  0.28952368041E+03 -0.12250227315E+03  0.70729381360E+03  0.77401247227E+03  0.50400001928E-02 0. -1.
       -1    1    3    3    0  502 -0.28952368041E+03  0.12250227315E+03 -0.17328768836E+03  0.35896990321E+03  0.50400001928E-02 0.  1.
</event>
<event>
 5   0  0.5826939E-04  0.9997697E+03  0.7818609E-02  0.9308797E-01
        1   -1    0    0  501    0  0.00000000000E+00  0.00000000000E+00  0.27997182078E+03  0.27997182083E+03  0.50400001928E-02 0. -1.
       -1   -1    0    0    0  501  0.00000000000E+00  0.00000000000E+00 -0.89253582733E+03  0.89253582735E+03  0.50400001928E-02 0.  1.
    10030    2    1    2    0    0  0.00000000000E+00  0.00000000000E+00 -0.61256400655E+03  0.11725076482E+04  0.99976973494E+03 0.  0.
        1    1    3    3  502    0 -0.67791524926E+02 -0.10523317717E+03  0.26129293079E+03  0.28973040595E+03  0.50400001928E-02 0. -1.
       -1    1    3    3    0  502  0.67791524926E+02  0.10523317717E+03 -0.87385693734E+03  0.88277724222E+03  0.50400001928E-02 0.  1.
</event>
<event>
 5   0  0.5888774E-04  0.9981221E+03  0.7818609E-02  0.9310607E-01
       -1   -1    0    0    0  501  0.00000000000E+00  0.00000000000E+00  0.76643333556E+03  0.76643333558E+03  0.50400001928E-02 0. -1.
        1   -1    0    0  501    0  0.00000000000E+00  0.00000000000E+00 -0.32496231585E+03  0.32496231589E+03  0.50400001928E-02 0.  1.
    10030    2    1    2    0    0  0.00000000000E+00  0.00000000000E+00  0.44147101972E+03  0.10913956515E+04  0.99812214022E+03 0.  0.
        2    1    3    3  502    0  0.39494418292E+03 -0.16139061370E+03  0.50383981018E+03  0.66021389878E+03  0.25500000920E-02 0.  1.
       -2    1    3    3    0  502 -0.39494418292E+03  0.16139061370E+03 -0.62368790465E+02  0.43118175268E+03  0.25500000920E-02 0. -1.
</event>
<event>
 5   0  0.5888774E-04  0.1001250E+04  0.7818609E-02  0.9307175E-01
       -1   -1    0    0    0  501  0.00000000000E+00  0.00000000000E+00  0.17376699970E+03  0.17376699977E+03  0.50400001928E-02 0.  1.
        1   -1    0    0  501    0  0.00000000000E+00  0.00000000000E+00 -0.14423073217E+04  0.14423073217E+04  0.50400001928E-02 0. -1.
    10030    2    1    2    0    0  0.00000000000E+00  0.00000000000E+00 -0.12685403220E+04  0.16160743215E+04  0.10012500507E+04 0.  0.
        2    1    3    3  502    0  0.26670000344E+03 -0.16329974885E+03 -0.32798627324E+01  0.31274023936E+03  0.25500000920E-02 0.  1.
       -2    1    3    3    0  502 -0.26670000344E+03  0.16329974885E+03 -0.12652604593E+04  0.13033340821E+04  0.25500000920E-02 0. -1.
</event>
<event>
 5   0  0.1020150E-03  0.9995341E+03  0.7818609E-02  0.9309056E-01
        2   -1    0    0  501    0  0.00000000000E+00  0.00000000000E+00  0.41546990402E+03  0.41546990403E+03  0.25500000920E-02 0. -1.
       -2   -1    0    0    0  501  0.00000000000E+00  0.00000000000E+00 -0.60116769323E+03  0.60116769324E+03  0.25500000920E-02 0.  1.
    10030    2    1    2    0    0  0.00000000000E+00  0.00000000000E+00 -0.18569778921E+03  0.10166375973E+04  0.99953405908E+03 0.  0.
        5    1    3    3  502    0 -0.41754440014E+03 -0.25020704217E+03 -0.20791340216E+03  0.52933634188E+03  0.46999998093E+01 0.  1.
       -5    1    3    3    0  502  0.41754440014E+03  0.25020704217E+03  0.22215612957E+02  0.48730125538E+03  0.46999998093E+01 0. -1.
</event>
<event>
 5   0  0.5960102E-04  0.9997583E+03  0.7818609E-02  0.9308810E-01
       -1   -1    0    0    0  501  0.00000000000E+00  0.00000000000E+00  0.44872105111E+03  0.44872105114E+03  0.50400001928E-02 0.  1.
        1   -1    0    0  501    0  0.00000000000E+00  0.00000000000E+00 -0.55686966522E+03  0.55686966524E+03  0.50400001928E-02 0. -1.
    10030    2    1    2    0    0  0.00000000000E+00  0.00000000000E+00 -0.10814861411E+03  0.10055907164E+04  0.99975825384E+03 0.  0.
        5    1    3    3  502    0 -0.24922789871E+03 -0.17203296568E+03 -0.45407151711E+03  0.54581399710E+03  0.46999998093E+01 0. -1.
       -5    1    3    3    0  502  0.24922789871E+03  0.17203296568E+03  0.34592290300E+03  0.45977671928E+03  0.46999998093E+01 0.  1.
</event>
<event>
 5   0  0.5758786E-04  0.9993816E+03  0.7818609E-02  0.9309223E-01
        1   -1    0    0  501    0  0.00000000000E+00  0.00000000000E+00  0.33979716177E+03  0.33979716181E+03  0.50400001928E-02 0.  1.
       -1   -1    0    0    0  501  0.00000000000E+00  0.00000000000E+00 -0.73482332798E+03  0.73482332800E+03  0.50400001928E-02 0. -1.
    10030    2    1    2    0    0  0.00000000000E+00  0.00000000000E+00 -0.39502616621E+03  0.10746204898E+04  0.99938157134E+03 0.  0.
        3    1    3    3  502    0  0.21434919672E+03 -0.45125967143E+03 -0.20879086903E+03  0.54145591361E+03  0.10100000352E+00 0.  1.
       -3    1    3    3    0  502 -0.21434919672E+03  0.45125967143E+03 -0.18623529718E+03  0.53316457620E+03  0.10100000352E+00 0. -1.
</event>
<event>
 5   0  0.5960102E-04  0.9973844E+03  0.7818609E-02  0.9311418E-01
       -1   -1    0    0    0  501  0.00000000000E+00  0.00000000000E+00  0.91064358033E+03  0.91064358035E+03  0.50400001928E-02 0.  1.
        1   -1    0    0  501    0  0.00000000000E+00  0.00000000000E+00 -0.27309688569E+03  0.27309688573E+03  0.50400001928E-02 0. -1.
    10030    2    1    2    0    0  0.00000000000E+00  0.00000000000E+00  0.63754669465E+03  0.11837404661E+04  0.99738443099E+03 0.  0.
        5    1    3    3  502    0 -0.27860315823E+03 -0.14416821740E+03  0.77884623835E+03  0.83965930453E+03  0.46999998093E+01 0.  1.
       -5    1    3    3    0  502  0.27860315823E+03  0.14416821740E+03 -0.14129954371E+03  0.34408116155E+03  0.46999998093E+01 0. -1.
</event>
<event>
 5   0  0.5768102E-04  0.9983873E+03  0.7818609E-02  0.9310315E-01
        1   -1    0    0  501    0  0.00000000000E+00  0.00000000000E+00  0.63121046887E+03  0.63121046889E+03  0.50400001928E-02 0.  1.
       -1   -1    0    0    0  501  0.00000000000E+00  0.00000000000E+00 -0.39478800380E+03  0.39478800383E+03  0.50400001928E-02 0. -1.
    10030    2    1    2    0    0  0.00000000000E+00  0.00000000000E+00  0.23642246507E+03  0.10259984727E+04  0.99838734169E+03 0.  0.
        4    1    3    3  502    0 -0.41853601244E+03  0.16536178583E+03 -0.10380948728E+03  0.46183864766E+03  0.12699999809E+01 0. -1.
       -4    1    3    3    0  502  0.41853601244E+03 -0.16536178583E+03  0.34023195236E+03  0.56415982507E+03  0.12699999809E+01 0.  1.
</event>
<event>
 5   0  0.1006006E-03  0.1000227E+04  0.7818609E-02  0.9308296E-01
       -2   -1    0    0    0  501  0.00000000000E+00  0.00000000000E+00  0.22204161906E+03  0.22204161908E+03  0.25500000920E-02 0. -1.
        2   -1    0    0  501    0  0.00000000000E+00  0.00000000000E+00 -0.11264264618E+04  0.11264264618E+04  0.25500000920E-02 0.  1.
    10030    2    1    2    0    0  0.00000000000E+00  0.00000000000E+00 -0.90438484270E+03  0.13484680808E+04  0.10002270849E+04 0.  0.
        2    1    3    3  502    0 -0.35407797188E+03 -0.25397797582E+03 -0.12130851157E+03  0.45231822576E+03  0.25500000920E-02 0.  1.
       -2    1    3    3    0  502  0.35407797188E+03  0.25397797582E+03 -0.78307633113E+03  0.89614985507E+03  0.25500000920E-02 0. -1.
</event>
<event>
 5   0  0.1006749E-03  0.9907832E+03  0.7818609E-02  0.9318712E-01
       -2   -1    0    0    0  501  0.00000000000E+00  0.00000000000E+00  0.10311012736E+04  0.10311012736E+04  0.25500000920E-02 0.  1.
        2   -1    0    0  501    0  0.00000000000E+00  0.00000000000E+00 -0.23801040182E+03  0.23801040184E+03  0.25500000920E-02 0. -1.
    10030    2    1    2    0    0  0.00000000000E+00  0.00000000000E+00  0.79309087175E+03  0.12691116754E+04  0.99078318204E+03 0.  0.
        1    1    3    3  502    0  0.12752790579E+02  0.49437805562E+03  0.35940914130E+03  0.61134869463E+03  0.50400001928E-02 0. -1.
       -1    1    3    3    0  502 -0.12752790579E+02 -0.49437805562E+03  0.43368173044E+03  0.65776298078E+03  0.50400001928E-02 0.  1.
</event>
<event>
 5   0  0.5960102E-04  0.1000276E+04  0.7818609E-02  0.9308242E-01
       -1   -1    0    0    0  501  0.00000000000E+00  0.00000000000E+00  0.43225648921E+03  0.43225648924E+03  0.50400001928E-02 0. -1.
        1   -1    0    0  501    0  0.00000000000E+00  0.00000000000E+00 -0.57867989256E+03  0.57867989258E+03  0.50400001928E-02 0.  1.
    10030    2    1    2    0    0  0.00000000000E+00  0.00000000000E+00 -0.14642340336E+03  0.10109363818E+04  0.10002762394E+04 0.  0.
        5    1    3    3  502    0  0.18352090446E+03  0.22657548804E+03  0.33744317283E+03  0.44598919163E+03  0.46999998093E+01 0. -1.
       -5    1    3    3    0  502 -0.18352090446E+03 -0.22657548804E+03 -0.48386657619E+03  0.56494719019E+03  0.46999998093E+01 0.  1.
</event>
<event>
 5   0  0.5888774E-04  0.1002663E+04  0.7818609E-02  0.9305629E-01
       -1   -1    0    0    0  501  0.00000000000E+00  0.00000000000E+00  0.13527473692E+03  0.13527473701E+03  0.50400001928E-02 0. -1.
        1   -1    0    0  501    0  0.00000000000E+00  0.00000000000E+00 -0.18579477902E+04  0.18579477902E+04  0.50400001928E-02 0.  1.
    10030    2    1    2    0    0  0.00000000000E+00  0.00000000000E+00 -0.17226730533E+04  0.19932225272E+04  0.10026632508E+04 0.  0.
        2    1    3    3  502    0 -0.48379412995E+03 -0.89944561576E+02 -0.10518731352E+04  0.11612854416E+04  0.25500000920E-02 0.  1.
       -2    1    3    3    0  502  0.48379412995E+03  0.89944561576E+02 -0.67079991814E+03  0.83193708567E+03  0.25500000920E-02 0. -1.
</event>
<event>
 5   0  0.5758786E-04  0.1000957E+04  0.7818609E-02  0.9307496E-01
        1   -1    0    0  501    0  0.00000000000E+00  0.00000000000E+00  0.93654286185E+03  0.93654286186E+03  0.50400001928E-02 0.  1.
       -1   -1    0    0    0  501  0.00000000000E+00  0.00000000000E+00 -0.26745048137E+03  0.26745048142E+03  0.50400001928E-02 0. -1.
    10030    2    1    2    0    0  0.00000000000E+00  0.00000000000E+00  0.66909238047E+03  0.12039933433E+04  0.10009572204E+04 0.  0.
        3    1    3    3  502    0  0.12034018154E+03 -0.26190765285E+03  0.82668563879E+03  0.87549216644E+03  0.10100000352E+00 0.  1.
       -3    1    3    3    0  502 -0.12034018154E+03  0.26190765285E+03 -0.15759325832E+03  0.32850117684E+03  0.10100000352E+00 0. -1.
</event>
<event>
 5   0  0.1006006E-03  0.1002103E+04  0.7818609E-02  0.9306241E-01
       -2   -1    0    0    0  501  0.00000000000E+00  0.00000000000E+00  0.22508969631E+03  0.22508969633E+03  0.25500000920E-02 0. -1.
        2   -1    0    0  501    0  0.00000000000E+00  0.00000000000E+00 -0.11153442713E+04  0.11153442713E+04  0.25500000920E-02 0.  1.
    10030    2    1    2    0    0  0.00000000000E+00  0.00000000000E+00 -0.89025457503E+03  0.13404339677E+04  0.10021027958E+04 0.  0.
        2    1    3    3  502    0 -0.16968357084E+02 -0.49903388214E+03 -0.38949506501E+03  0.63326862099E+03  0.25500000920E-02 0.  1.
       -2    1    3    3    0  502  0.16968357084E+02  0.49903388214E+03 -0.50075951002E+03  0.70716534668E+03  0.25500000920E-02 0. -1.
</event>
<event>
 5   0  0.1006749E-03  0.1001160E+04  0.7818609E-02  0.9307273E-01
        2   -1    0    0  501    0  0.00000000000E+00  0.00000000000E+00  0.41079643605E+03  0.41079643606E+03  0.25500000920E-02 0. -1.
       -2   -1    0    0    0  501  0.00000000000E+00  0.00000000000E+00 -0.60998663262E+03  0.60998663263E+03  0.25500000920E-02 0.  1.
    10030    2    1    2    0    0  0.00000000000E+00  0.00000000000E+00 -0.19919019657E+03  0.10207830687E+04  0.10011599967E+04 0.  0.
        1    1    3    3  502    0 -0.34639340300E+03 -0.28940835629E+03 -0.32025024689E+03  0.55344901029E+03  0.50400001928E-02 0.  1.
       -1    1    3    3    0  502  0.34639340300E+03  0.28940835629E+03  0.12106005032E+03  0.46733405840E+03  0.50400001928E-02 0. -1.
</event>
<event>
 5   0  0.5826939E-04  0.1000764E+04  0.7818609E-02  0.9307707E-01
        1   -1    0    0  501    0  0.00000000000E+00  0.00000000000E+00  0.11630464340E+04  0.11630464340E+04  0.50400001928E-02 0. -1.
       -1   -1    0    0    0  501  0.00000000000E+00  0.00000000000E+00 -0.21528136163E+03  0.21528136169E+03  0.50400001928E-02 0.  1.
    10030    2    1    2    0    0  0.00000000000E+00  0.00000000000E+00  0.94776507234E+03  0.13783277957E+04  0.10007641480E+04 0.  0.
        1    1    3    3  502    0 -0.46146269766E+02 -0.42241781434E+03  0.83779593444E+03  0.93939784750E+03  0.50400001928E-02 0. -1.
       -1    1    3    3    0  502  0.46146269766E+02  0.42241781434E+03  0.10996913790E+03  0.43892994817E+03  0.50400001928E-02 0.  1.
</event>
<event>
 5   0  0.1006006E-03  0.1001235E+04  0.7818609E-02  0.9307192E-01
       -2   -1    0    0    0  501  0.00000000000E+00  0.00000000000E+00  0.31646954641E+03  0.31646954642E+03  0.25500000920E-02 0. -1.
        2   -1    0    0  501    0  0.00000000000E+00  0.00000000000E+00 -0.79191745181E+03  0.79191745181E+03  0.25500000920E-02 0.  1.
    10030    2    1    2    0    0  0.00000000000E+00  0.00000000000E+00 -0.47544790539E+03  0.11083869982E+04  0.10012347513E+04 0.  0.
        2    1    3    3  502    0  0.67870457403E+02 -0.37179449236E+03 -0.60115751175E+03  0.71009006293E+03  0.25500000920E-02 0.  1.
       -2    1    3    3    0  502 -0.67870457403E+02  0.37179449236E+03  0.12570960635E+03  0.39829693530E+03  0.25500000920E-02 0. -1.
</event>
<event>
 5   0  0.5768102E-04  0.1001894E+04  0.7818609E-02  0.9306470E-01
        1   -1    0    0  501    0  0.00000000000E+00  0.00000000000E+00  0.24218826409E+04  0.24218826409E+04  0.50400001928E-02 0.  1.
       -1   -1    0    0    0  501  0.00000000000E+00  0.00000000000E+00 -0.10361692899E+03  0.10361692911E+03  0.50400001928E-02 0. -1.
    10030    2    1    2    0    0  0.00000000000E+00  0.00000000000E+00  0.23182657119E+04  0.25254995700E+04  0.10018942894E+04 0.  0.
        4    1    3    3  502    0 -0.41880803315E+03 -0.27272414637E+03  0.12452738100E+04  0.13418223069E+04  0.12699999809E+01 0.  1.
       -4    1    3    3    0  502  0.41880803315E+03  0.27272414637E+03  0.10729919019E+04  0.11836772631E+04  0.12699999809E+01 0. -1.
</event>
<event>
 5   0  0.3854625E-04  0.1000183E+04  0.7818609E-02  0.9308344E-01
       -3   -1    0    0    0  501  0.00000000000E+00  0.00000000000E+00  0.35315382434E+03  0.35315383878E+03  0.10100000352E+00 0. -1.
        3   -1    0    0  501    0  0.00000000000E+00  0.00000000000E+00 -0.70816573568E+03  0.70816574288E+03  0.10100000352E+00 0.  1.
    10030    2    1    2    0    0  0.00000000000E+00  0.00000000000E+00 -0.35501191134E+03  0.10613195817E+04  0.10001828819E+04 0.  0.
        1    1    3    3  502    0 -0.37939348345E+03  0.32186704868E+03 -0.23112836685E+03  0.54859651320E+03  0.50400001928E-02 0.  1.
       -1    1    3    3    0  502  0.37939348345E+03 -0.32186704868E+03 -0.12388354449E+03  0.51272306846E+03  0.50400001928E-02 0. -1.
</event>
<event>
 5   0  0.5758786E-04  0.1000077E+04  0.7818609E-02  0.9308461E-01
       -1   -1    0    0    0  501  0.00000000000E+00  0.00000000000E+00  0.16746755120E+03  0.16746755127E+03  0.50400001928E-02 0. -1.
        1   -1    0    0  501    0  0.00000000000E+00  0.00000000000E+00 -0.14930559053E+04  0.14930559053E+04  0.50400001928E-02 0.  1.
    10030    2    1    2    0    0  0.00000000000E+00  0.00000000000E+00 -0.13255883541E+04  0.16605234566E+04  0.10000768297E+04 0.  0.
        3    1    3    3  502    0  0.97946804148E+02  0.13541017704E+02  0.15107333903E+03  0.18055497659E+03  0.10100000352E+00 0. -1.
       -3    1    3    3    0  502 -0.97946804148E+02 -0.13541017704E+02 -0.14766616931E+04  0.14799684800E+04  0.10100000352E+00 0.  1.
</event>
<event>
 5   0  0.1020150E-03  0.9997422E+03  0.7818609E-02  0.9308828E-01
       -2   -1    0    0    0  501  0.00000000000E+00  0.00000000000E+00  0.11630207170E+03  0.11630207173E+03  0.25500000920E-02 0.  1.
        2   -1    0    0  501    0  0.00000000000E+00  0.00000000000E+00 -0.21484665505E+04  0.21484665505E+04  0.25500000920E-02 0. -1.
    10030    2    1    2    0    0  0.00000000000E+00  0.00000000000E+00 -0.20321644788E+04  0.22647686223E+04  0.99974218846E+03 0.  0.
        5    1    3    3  502    0 -0.22671998894E+03 -0.40608468882E+03 -0.14309715006E+04  0.15046621725E+04  0.46999998093E+01 0. -1.
       -5    1    3    3    0  502  0.22671998894E+03  0.40608468882E+03 -0.60119297824E+03  0.76010644976E+03  0.46999998093E+01 0.  1.
</event>
<event>
 5   0  0.1006006E-03  0.9992174E+03  0.7818609E-02  0.9309404E-01
       -2   -1    0    0    0  501  0.00000000000E+00  0.00000000000E+00  0.20727449271E+03  0.20727449272E+03  0.25500000920E-02 0. -1.
        2   -1    0    0  501    0  0.00000000000E+00  0.00000000000E+00 -0.12042430274E+04  0.12042430274E+04  0.25500000920E-02 0.  1.
    10030    2    1    2    0    0  0.00000000000E+00  0.00000000000E+00 -0.99696853472E+03  0.14115175202E+04  0.99921741903E+03 0.  0.
        2    1    3    3  502    0  0.40028840915E+03 -0.15213933366E+03 -0.86203008010E+03  0.96253469878E+03  0.25500000920E-02 0.  1.
       -2    1    3    3    0  502 -0.40028840915E+03  0.15213933366E+03 -0.13493845462E+03  0.44898282138E+03  0.25500000920E-02 0. -1.
</event>
<event>
 5   0  0.3854625E-04  0.1000798E+04  0.7818609E-02  0.9307671E-01
        3   -1    0    0  501    0  0.00000000000E+00  0.00000000000E+00  0.23465566790E+04  0.23465566811E+04  0.10100000352E+00 0. -1.
       -3   -1    0    0    0  501  0.00000000000E+00  0.00000000000E+00 -0.10670906336E+03  0.10670911116E+03  0.10100000352E+00 0.  1.
    10030    2    1    2    0    0  0.00000000000E+00  0.00000000000E+00  0.22398476156E+04  0.24532657923E+04  0.10007975352E+04 0.  0.
        2    1    3    3  502    0 -0.20749487212E+03  0.38665198802E+03  0.17094884870E+04  0.17649092807E+04  0.25500000920E-02 0. -1.
       -2    1    3    3    0  502  0.20749487212E+03 -0.38665198802E+03  0.53035912856E+03  0.68835651159E+03  0.25500000920E-02 0.  1.
</event>
<event>
 5   0  0.5960102E-04  0.9998276E+03  0.7818609E-02  0.9308734E-01
        1   -1    0    0  501    0  0.00000000000E+00  0.00000000000E+00  0.27461929000E+03  0.27461929005E+03  0.50400001928E-02 0.  1.
       -1   -1    0    0    0  501  0.00000000000E+00  0.00000000000E+00 -0.91003736098E+03  0.91003736099E+03  0.50400001928E-02 0. -1.
    10030    2    1    2    0    0  0.00000000000E+00  0.00000000000E+00 -0.63541807098E+03  0.11846566510E+04  0.99982761310E+03 0.  0.
        5    1    3    3  502    0  0.32074987825E+03 -0.27386429730E+03 -0.63566174329E+03  0.76286963475E+03  0.46999998093E+01 0. -1.
       -5    1    3    3    0  502 -0.32074987825E+03  0.27386429730E+03  0.24367230955E+00  0.42178701629E+03  0.46999998093E+01 0.  1.
</event>
<event>
 5   0  0.5888774E-04  0.1000491E+04  0.7818609E-02  0.9308007E-01
        1   -1    0    0  501    0  0.00000000000E+00  0.00000000000E+00  0.14892807340E+04  0.14892807340E+04  0.50400001928E-02 0. -1.
       -1   -1    0    0    0  501  0.00000000000E+00  0.00000000000E+00 -0.16803108838E+03  0.16803108845E+03  0.50400001928E-02 0.  1.
    10030    2    1    2    0    0  0.00000000000E+00  0.00000000000E+00  0.13212496456E+04  0.16573118225E+04  0.10004908050E+04 0.  0.
        2    1    3    3  502    0  0.12901270721E+03 -0.10527071854E+03 -0.12077791803E+03  0.20570247517E+03  0.25500000920E-02 0.  1.
       -2    1    3    3    0  502 -0.12901270721E+03  0.10527071854E+03  0.14420275637E+04  0.14516093473E+04  0.25500000920E-02 0. -1.
</event>
<event>
 5   0  0.5826939E-04  0.9985534E+03  0.7818609E-02  0.9310133E-01
       -1   -1    0    0    0  501  0.00000000000E+00  0.00000000000E+00  0.10269122600E+04  0.10269122600E+04  0.50400001928E-02 0.  1.
        1   -1    0    0  501    0  0.00000000000E+00  0.00000000000E+00 -0.24274442392E+03  0.24274442397E+03  0.50400001928E-02 0. -1.
    10030    2    1    2    0    0  0.00000000000E+00  0.00000000000E+00  0.78416783603E+03  0.12696566839E+04  0.99855340368E+03 0.  0.
        1    1    3    3  502    0  0.20782210628E+03  0.45219444369E+03  0.44306095467E+03  0.66631287871E+03  0.50400001928E-02 0.  1.
       -1    1    3    3    0  502 -0.20782210628E+03 -0.45219444369E+03  0.34110688137E+03  0.60334380523E+03  0.50400001928E-02 0. -1.
</event>
<event>
 5   0  0.1006006E-03  0.1003859E+04  0.7818609E-02  0.9304322E-01
       -2   -1    0    0    0  501  0.00000000000E+00  0.00000000000E+00  0.25980453966E+03  0.25980453968E+03  0.25500000920E-02 0. -1.
        2   -1    0    0  501    0  0.00000000000E+00  0.00000000000E+00 -0.96970310734E+03  0.96970310734E+03  0.25500000920E-02 0.  1.
    10030    2    1    2    0    0  0.00000000000E+00  0.00000000000E+00 -0.70989856768E+03  0.12295076470E+04  0.10038590925E+04 0.  0.
        2    1    3    3  502    0  0.19371066972E+03  0.25114398499E+03 -0.83141297422E+03  0.88985653814E+03  0.25500000920E-02 0.  1.
       -2    1    3    3    0  502 -0.19371066972E+03 -0.25114398499E+03  0.12151440655E+03  0.33965110888E+03  0.25500000920E-02 0. -1.
</event>
<event>
 5   0  0.5826939E-04  0.1000072E+04  0.7818609E-02  0.9308466E-01
        1   -1    0    0  501    0  0.00000000000E+00  0.00000000000E+00  0.99303286269E+03  0.99303286271E+03  0.50400001928E-02 0. -1.
       -1   -1    0    0    0  501  0.00000000000E+00  0.00000000000E+00 -0.25179009288E+03  0.25179009293E+03  0.50400001928E-02 0.  1.
    10030    2    1    2    0    0  0.00000000000E+00  0.00000000000E+00  0.74124276982E+03  0.12448229556E+04  0.10000716710E+04 0.  0.
        1    1    3    3  502    0  0.48192340796E+03  0.13095949136E+03  0.40199453349E+03  0.64109294529E+03  0.50400001928E-02 0. -1.
       -1    1    3    3    0  502 -0.48192340796E+03 -0.13095949136E+03  0.33924823633E+03  0.60373001035E+03  0.50400001928E-02 0.  1.
</event>
<event>
 5   0  0.1020150E-03  0.9999743E+03  0.7818609E-02  0.9308573E-01
       -2   -1    0    0    0  501  0.00000000000E+00  0.00000000000E+00  0.14292445193E+04  0.14292445193E+04  0.25500000920E-02 0. -1.
        2   -1    0    0  501    0  0.00000000000E+00  0.00000000000E+00 -0.17490857946E+03  0.17490857948E+03  0.25500000920E-02 0.  1.
    10030    2    1    2    0    0  0.00000000000E+00  0.00000000000E+00  0.12543359398E+04  0.16041530988E+04  0.99997425684E+03 0.  0.
        5    1    3    3  502    0 -0.30611707120E+03  0.36424196521E+03  0.38080440336E+03  0.60943740788E+03  0.46999998093E+01 0. -1.
       -5    1    3    3    0  502  0.30611707120E+03 -0.36424196521E+03  0.87353153646E+03  0.99471569088E+03  0.46999998093E+01 0.  1.
</event>
<event>
 5   0  0.5758786E-04  0.1002155E+04  0.7818609E-02  0.9306185E-01
       -1   -1    0    0    0  501  0.00000000000E+00  0.00000000000E+00  0.66367307562E+03  0.66367307564E+03  0.50400001928E-02 0. -1.
        1   -1    0    0  501    0  0.00000000000E+00  0.00000000000E+00 -0.37831652114E+03  0.37831652117E+03  0.50400001928E-02 0.  1.
    10030    2    1    2    0    0  0.00000000000E+00  0.00000000000E+00  0.28535655448E+03  0.10419895968E+04  0.10021546571E+04 0.  0.
        3    1    3    3  502    0  0.35571359463E+03  0.32726728385E+03  0.53587549960E+01  0.48338883204E+03  0.10100000352E+00 0.  1.
       -3    1    3    3    0  502 -0.35571359463E+03 -0.32726728385E+03  0.27999779949E+03  0.55860076477E+03  0.10100000352E+00 0. -1.
</event>
<event>
 5   0  0.5960102E-04  0.9993989E+03  0.7818609E-02  0.9309204E-01
       -1   -1    0    0    0  501  0.00000000000E+00  0.00000000000E+00  0.43933820228E+03  0.43933820231E+03  0.50400001928E-02 0. -1.
        1   -1    0    0  501    0  0.00000000000E+00  0.00000000000E+00 -0.56835380666E+03  0.56835380668E+03  0.50400001928E-02 0.  1.
    10030    2    1    2    0    0  0.00000000000E+00  0.00000000000E+00 -0.12901560437E+03  0.10076920090E+04  0.99939889874E+03 0.  0.
        5    1    3    3  502    0 -0.38256842601E+03  0.87130558565E+01  0.25947287765E+03  0.46236650199E+03  0.46999998093E+01 0. -1.
       -5    1    3    3    0  502  0.38256842601E+03 -0.87130558565E+01 -0.38848848203E+03  0.54532550700E+03  0.46999998093E+01 0.  1.
</event>
<event>
 5   0  0.5960102E-04  0.1001256E+04  0.7818609E-02  0.9307169E-01
       -1   -1    0    0    0  501  0.00000000000E+00  0.00000000000E+00  0.47621975194E+03  0.47621975197E+03  0.50400001928E-02 0. -1.
        1   -1    0    0  501    0  0.00000000000E+00  0.00000000000E+00 -0.52628674736E+03  0.52628674738E+03  0.50400001928E-02 0.  1.
    10030    2    1    2    0    0  0.00000000000E+00  0.00000000000E+00 -0.50066995417E+02  0.10025064993E+04  0.10012555005E+04 0.  0.
        5    1    3    3  502    0 -0.16353200549E+03 -0.29911206284E+03 -0.39209119927E+03  0.51958477797E+03  0.46999998093E+01 0.  1.
       -5    1    3    3    0  502  0.16353200549E+03  0.29911206284E+03  0.34202420386E+03  0.48292172138E+03  0.46999998093E+01 0. -1.
</event>
<event>
 5   0  0.1006006E-03  0.1000152E+04  0.7818609E-02  0.9308378E-01
        2   -1    0    0  501    0  0.00000000000E+00  0.00000000000E+00  0.54128516025E+03  0.54128516026E+03  0.25500000920E-02 0.  1.
       -2   -1    0    0    0  501  0.00000000000E+00  0.00000000000E+00 -0.46200407156E+03  0.46200407157E+03  0.25500000920E-02 0. -1.
    10030    2    1    2    0    0  0.00000000000E+00  0.00000000000E+00  0.79281088690E+02  0.10032892318E+04  0.10001518843E+04 0.  0.
        2    1    3    3  502    0 -0.37423543920E+03 -0.32834235105E+03  0.86852864007E+02  0.50537538864E+03  0.25500000920E-02 0.  1.
       -2    1    3    3    0  502  0.37423543920E+03  0.32834235105E+03 -0.75717753172E+01  0.49791384319E+03  0.25500000920E-02 0. -1.
</event>
<event>
 5   0  0.3854625E-04  0.1009412E+04  0.7818609E-02  0.9298281E-01
        3   -1    0    0  501    0  0.00000000000E+00  0.00000000000E+00  0.14596608717E+04  0.14596608752E+04  0.10100000352E+00 0.  1.
       -3   -1    0    0    0  501  0.00000000000E+00  0.00000000000E+00 -0.17451199264E+03  0.17451202187E+03  0.10100000352E+00 0. -1.
    10030    2    1    2    0    0  0.00000000000E+00  0.00000000000E+00  0.12851488790E+04  0.16341728970E+04  0.10094124113E+04 0.  0.
        2    1    3    3  502    0  0.48234021313E+03 -0.49528284982E+02  0.86935954051E+03  0.99543515253E+03  0.25500000920E-02 0.  1.
       -2    1    3    3    0  502 -0.48234021313E+03  0.49528284982E+02  0.41578933851E+03  0.63873774450E+03  0.25500000920E-02 0. -1.
</event>
<event>
 5   0  0.5826939E-04  0.1002740E+04  0.7818609E-02  0.9305544E-01
       -1   -1    0    0    0  501  0.00000000000E+00  0.00000000000E+00  0.84515728009E+03  0.84515728010E+03  0.50400001928E-02 0.  1.
        1   -1    0    0  501    0  0.00000000000E+00  0.00000000000E+00 -0.29742634515E+03  0.29742634519E+03  0.50400001928E-02 0. -1.
    10030    2    1    2    0    0  0.00000000000E+00  0.00000000000E+00  0.54773093494E+03  0.11425836253E+04  0.10027403272E+04 0.  0.
        1    1    3    3  502    0 -0.30509322162E+03 -0.10967283511E+03  0.70964348835E+03  0.78019477390E+03  0.50400001928E-02 0.  1.
       -1    1    3    3    0  502  0.30509322162E+03  0.10967283511E+03 -0.16191255341E+03  0.36238885139E+03  0.50400001928E-02 0. -1.
</event>
<event>
 5   0  0.1006006E-03  0.9989780E+03  0.7818609E-02  0.9309666E-01
        2   -1    0    0  501    0  0.00000000000E+00  0.00000000000E+00  0.52696169576E+03  0.52696169577E+03  0.25500000920E-02 0.  1.
       -2   -1    0    0    0  501  0.00000000000E+00  0.00000000000E+00 -0.47344855929E+03  0.47344855930E+03  0.25500000920E-02 0. -1.
    10030    2    1    2    0    0  0.00000000000E+00  0.00000000000E+00  0.53513136473E+02  0.10004102551E+04  0.99897798908E+03 0.  0.
        2    1    3    3  502    0 -0.78234589300E+00  0.29474062141E+03 -0.37707909264E+03  0.47860347688E+03  0.25500000920E-02 0. -1.
       -2    1    3    3    0  502  0.78234589300E+00 -0.29474062141E+03  0.43059222911E+03  0.52180677818E+03  0.25500000920E-02 0.  1.
</event>
<event>
 5   0  0.3854625E-04  0.1000294E+04  0.7818609E-02  0.9308223E-01
        4   -1    0    0  501    0  0.00000000000E+00  0.00000000000E+00  0.13979253634E+04  0.13979259403E+04  0.12699999809E+01 0.  1.
       -4   -1    0    0    0  501  0.00000000000E+00  0.00000000000E+00 -0.17893861900E+03  0.17894312580E+03  0.12699999809E+01 0. -1.
    10030    2    1    2    0    0  0.00000000000E+00  0.00000000000E+00  0.12189867444E+04  0.15768690661E+04  0.10002936412E+04 0.  0.
        5    1    3    3  502    0  0.78036075421E+01 -0.49430656289E+03  0.72876886885E+03  0.88063955658E+03  0.46999998093E+01 0.  1.
       -5    1    3    3    0  502 -0.78036075421E+01  0.49430656289E+03  0.49021787553E+03  0.69622950950E+03  0.46999998093E+01 0. -1.
</event>
<event>
 5   0  0.5888774E-04  0.1000601E+04  0.7818609E-02  0.9307886E-01
        1   -1    0    0  501    0  0.00000000000E+00  0.00000000000E+00  0.36518015208E+03  0.36518015212E+03  0.50400001928E-02 0.  1.
       -1   -1    0    0    0  501  0.00000000000E+00  0.00000000000E+00 -0.68541695309E+03  0.68541695310E+03  0.50400001928E-02 0. -1.
    10030    2    1    2    0    0  0.00000000000E+00  0.00000000000E+00 -0.32023680101E+03  0.10505971052E+04  0.10006011537E+04 0.  0.
        2    1    3    3  502    0  0.33904865908E+02  0.33789771151E+02  0.36277029485E+03  0.36591471055E+03  0.25500000920E-02 0.  1.
       -2    1    3    3    0  502 -0.33904865908E+02 -0.33789771151E+02 -0.68300709586E+03  0.68468239467E+03  0.25500000920E-02 0. -1.
</event>
<event>
 5   0  0.5768102E-04  0.9984816E+03  0.7818609E-02  0.9310212E-01
        1   -1    0    0  501    0  0.00000000000E+00  0.00000000000E+00  0.71693972144E+03  0.71693972146E+03  0.50400001928E-02 0. -1.
       -1   -1    0    0    0  501  0.00000000000E+00  0.00000000000E+00 -0.34764622188E+03  0.34764622192E+03  0.50400001928E-02 0.  1.
    10030    2    1    2    0    0  0.00000000000E+00  0.00000000000E+00  0.36929349956E+03  0.10645859434E+04  0.99848161827E+03 0.  0.
        4    1    3    3  502    0  0.69228957762E+02  0.66962081316E+02  0.70693827526E+03  0.71347032655E+03  0.12699999809E+01 0. -1.
       -4    1    3    3    0  502 -0.69228957762E+02 -0.66962081316E+02 -0.33764477570E+03  0.35111561684E+03  0.12699999809E+01 0.  1.
</event>
<event>
 5   0  0.5768102E-04  0.1002433E+04  0.7818609E-02  0.9305881E-01
       -1   -1    0    0    0  501  0.00000000000E+00  0.00000000000E+00  0.76729539650E+03  0.76729539651E+03  0.50400001928E-02 0. -1.
        1   -1    0    0  501    0  0.00000000000E+00  0.00000000000E+00 -0.32740701821E+03  0.32740701825E+03  0.50400001928E-02 0.  1.
    10030    2    1    2    0    0  0.00000000000E+00  0.00000000000E+00  0.43988837828E+03  0.10947024148E+04  0.10024328364E+04 0.  0.
        4    1    3    3  502    0  0.41857920350E+03  0.12542498107E+03 -0.48166493799E+02  0.43961528580E+03  0.12699999809E+01 0.  1.
       -4    1    3    3    0  502 -0.41857920350E+03 -0.12542498107E+03  0.48805487208E+03  0.65508712897E+03  0.12699999809E+01 0. -1.
</event>
<event>
 5   0  0.5960102E-04  0.1000369E+04  0.7818609E-02  0.9308140E-01
       -1   -1    0    0    0  501  0.00000000000E+00  0.00000000000E+00  0.62156183785E+03  0.62156183787E+03  0.50400001928E-02 0. -1.
        1   -1    0    0  501    0  0.00000000000E+00  0.00000000000E+00 -0.40250958144E+03  0.40250958147E+03  0.50400001928E-02 0.  1.
    10030    2    1    2    0    0  0.00000000000E+00  0.00000000000E+00  0.21905225641E+03  0.10240714193E+04  0.10003691223E+04 0.  0.
        5    1    3    3  502    0  0.30187537543E+03  0.33504811197E+03  0.33092935585E+03  0.55939459078E+03  0.46999998093E+01 0. -1.
       -5    1    3    3    0  502 -0.30187537543E+03 -0.33504811197E+03 -0.11187709944E+03  0.46467682856E+03  0.46999998093E+01 0.  1.
</event>
<event>
 5   0  0.5758786E-04  0.1000004E+04  0.7818609E-02  0.9308541E-01
        1   -1    0    0  501    0  0.00000000000E+00  0.00000000000E+00  0.87598649896E+03  0.87598649897E+03  0.50400001928E-02 0.  1.
       -1   -1    0    0    0  501  0.00000000000E+00  0.00000000000E+00 -0.28539455361E+03  0.28539455366E+03  0.50400001928E-02 0. -1.
    10030    2    1    2    0    0  0.00000000000E+00  0.00000000000E+00  0.59059194534E+03  0.11613810526E+04  0.10000035517E+04 0.  0.
        3    1    3    3  502    0 -0.26634612880E+03  0.32309110992E+03 -0.22067438083E+02  0.41930312145E+03  0.10100000352E+00 0. -1.
       -3    1    3    3    0  502  0.26634612880E+03 -0.32309110992E+03  0.61265938342E+03  0.74207793117E+03  0.10100000352E+00 0.  1.
</event>
<event>
 5   0  0.1020150E-03  0.9999143E+03  0.7818609E-02  0.9308639E-01
        2   -1    0    0  501    0  0.00000000000E+00  0.00000000000E+00  0.19563622145E+04  0.19563622145E+04  0.25500000920E-02 0.  1.
       -2   -1    0    0    0  501  0.00000000000E+00  0.00000000000E+00 -0.12776629924E+03  0.12776629927E+03  0.25500000920E-02 0. -1.
    10030    2    1    2    0    0  0.00000000000E+00  0.00000000000E+00  0.18285959153E+04  0.20841285138E+04  0.99991431665E+03 0.  0.
        5    1    3    3  502    0  0.38651817546E+03 -0.23332834191E+03  0.46679447958E+03  0.64942866526E+03  0.46999998093E+01 0. -1.
       -5    1    3    3    0  502 -0.38651817546E+03  0.23332834191E+03  0.13618014357E+04  0.14346998486E+04  0.46999998093E+01 0.  1.
</event>
<event>
 5   0  0.5960102E-04  0.9968002E+03  0.7818609E-02  0.9312061E-01
        1   -1    0    0  501    0  0.00000000000E+00  0.00000000000E+00  0.65026653930E+03  0.65026653932E+03  0.50400001928E-02 0. -1.
       -1   -1    0    0    0  501  0.00000000000E+00  0.00000000000E+00 -0.38200126958E+03  0.38200126961E+03  0.50400001928E-02 0.  1.
    10030    2    1    2    0    0  0.00000000000E+00  0.00000000000E+00  0.26826526972E+03  0.10322678089E+04  0.99680016775E+03 0.  0.
        5    1    3    3  502    0 -0.13785566887E+03  0.46515053439E+02 -0.35949629039E+03  0.38784985296E+03  0.46999998093E+01 0.  1.
       -5    1    3    3    0  502  0.13785566887E+03 -0.46515053439E+02  0.62776156011E+03  0.64441795598E+03  0.46999998093E+01 0. -1.
</event>
<event>
 5   0  0.1006749E-03  0.1000417E+04  0.7818609E-02  0.9308088E-01
       -2   -1    0    0    0  501  0.00000000000E+00  0.00000000000E+00  0.26107290887E+03  0.26107290888E+03  0.25500000920E-02 0.  1.
        2   -1    0    0  501    0  0.00000000000E+00  0.00000000000E+00 -0.95838568639E+03  0.95838568639E+03  0.25500000920E-02 0. -1.
    10030    2    1    2    0    0  0.00000000000E+00  0.00000000000E+00 -0.69731277751E+03  0.12194585953E+04  0.10004169910E+04 0.  0.
        1    1    3    3  502    0 -0.12714288989E+03 -0.48366223798E+03 -0.36167487231E+03  0.61717354786E+03  0.50400001928E-02 0.  1.
       -1    1    3    3    0  502  0.12714288989E+03  0.48366223798E+03 -0.33563790520E+03  0.60228504741E+03  0.50400001928E-02 0. -1.
</event>
<event>
 5   0  0.5758786E-04  0.9994610E+03  0.7818609E-02  0.9309136E-01
       -1   -1    0    0    0  501  0.00000000000E+00  0.00000000000E+00  0.78048433158E+03  0.78048433160E+03  0.50400001928E-02 0. -1.
        1   -1    0    0  501    0  0.00000000000E+00  0.00000000000E+00 -0.31996874942E+03  0.31996874945E+03  0.50400001928E-02 0.  1.
    10030    2    1    2    0    0  0.00000000000E+00  0.00000000000E+00  0.46051558216E+03  0.11004530810E+04  0.99946104585E+03 0.  0.
        3    1    3    3  502    0 -0.30811182607E+03  0.39247487294E+03  0.26063474577E+03  0.56293863267E+03  0.10100000352E+00 0. -1.
       -3    1    3    3    0  502  0.30811182607E+03 -0.39247487294E+03  0.19988083640E+03  0.53751444838E+03  0.10100000352E+00 0.  1.
</event>
<event>
 5   0  0.5888774E-04  0.9996909E+03  0.7818609E-02  0.9308884E-01
       -1   -1    0    0    0  501  0.00000000000E+00  0.00000000000E+00  0.46741032972E+03  0.46741032975E+03  0.50400001928E-02 0.  1.
        1   -1    0    0  501    0  0.00000000000E+00  0.00000000000E+00 -0.53453137421E+03  0.53453137423E+03  0.50400001928E-02 0. -1.
    10030    2    1    2    0    0  0.00000000000E+00  0.00000000000E+00 -0.67121044487E+02  0.10019417040E+04  0.99969092402E+03 0.  0.
        2    1    3    3  502    0  0.23360576600E+02 -0.74590944493E+02 -0.52836829010E+03  0.53411850326E+03  0.25500000920E-02 0. -1.
       -2    1    3    3    0  502 -0.23360576600E+02  0.74590944493E+02  0.46124724561E+03  0.46782320072E+03  0.25500000920E-02 0.  1.
</event>
<event>
 5   0  0.3854625E-04  0.1000120E+04  0.7818609E-02  0.9308413E-01
       -3   -1    0    0    0  501  0.00000000000E+00  0.00000000000E+00  0.94389440415E+03  0.94389440956E+03  0.10100000352E+00 0.  1.
        3   -1    0    0  501    0  0.00000000000E+00  0.00000000000E+00 -0.26492374633E+03  0.26492376558E+03  0.10100000352E+00 0. -1.
    10030    2    1    2    0    0  0.00000000000E+00  0.00000000000E+00  0.67897065783E+03  0.12088181751E+04  0.10001201060E+04 0.  0.
        3    1    3    3  502    0 -0.24317554461E+03 -0.31769106218E+03  0.70208338298E+03  0.80807366208E+03  0.10100000352E+00 0.  1.
       -3    1    3    3    0  502  0.24317554461E+03  0.31769106218E+03 -0.23112725152E+02  0.40074451306E+03  0.10100000352E+00 0. -1.
</event>
<event>
 5   0  0.1006749E-03  0.9859517E+03  0.7818609E-02  0.9324088E-01
       -2   -1    0    0    0  501  0.00000000000E+00  0.00000000000E+00  0.28205445559E+03  0.28205445560E+03  0.25500000920E-02 0.  1.
        2   -1    0    0  501    0  0.00000000000E+00  0.00000000000E+00 -0.86162509168E+03  0.86162509168E+03  0.25500000920E-02 0. -1.
    10030    2    1    2    0    0  0.00000000000E+00  0.00000000000E+00 -0.57957063609E+03  0.11436795473E+04  0.98595171518E+03 0.  0.
        1    1    3    3  502    0 -0.15891391622E+02 -0.41029404255E+02  0.27977225231E+03  0.28321098412E+03  0.50400001928E-02 0.  1.
       -1    1    3    3    0  502  0.15891391622E+02  0.41029404255E+02 -0.85934288839E+03  0.86046856317E+03  0.50400001928E-02 0. -1.
</event>
<event>
 5   0  0.9741826E-04  0.1000641E+04  0.7818609E-02  0.9307842E-01
       -2   -1    0    0    0  501  0.00000000000E+00  0.00000000000E+00  0.50204258751E+03  0.50204258751E+03  0.25500000920E-02 0. -1.
        2   -1    0    0  501    0  0.00000000000E+00  0.00000000000E+00 -0.49860450543E+03  0.49860450544E+03  0.25500000920E-02 0.  1.
    10030    2    1    2    0    0  0.00000000000E+00  0.00000000000E+00  0.34380820737E+01  0.10006470930E+04  0.10006411866E+04 0.  0.
        3    1    3    3  502    0 -0.21617136553E+03  0.20428938705E+03  0.40403531423E+03  0.50170584837E+03  0.10100000352E+00 0. -1.
       -3    1    3    3    0  502  0.21617136553E+03 -0.20428938705E+03 -0.40059723216E+03  0.49894124459E+03  0.10100000352E+00 0.  1.
</event>
<event>
 5   0  0.1006749E-03  0.9987976E+03  0.7818609E-02  0.9309865E-01
       -2   -1    0    0    0  501  0.00000000000E+00  0.00000000000E+00  0.67032557459E+03  0.67032557460E+03  0.25500000920E-02 0.  1.
        2   -1    0    0  501    0  0.00000000000E+00  0.00000000000E+00 -0.37205674775E+03  0.37205674776E+03  0.25500000920E-02 0. -1.
    10030    2    1    2    0    0  0.00000000000E+00  0.00000000000E+00  0.29826882685E+03  0.10423823224E+04  0.99879758354E+03 0.  0.
        1    1    3    3  502    0  0.42687510709E+03 -0.22994690206E+03  0.27394058854E+03  0.55690338560E+03  0.50400001928E-02 0. -1.
       -1    1    3    3    0  502 -0.42687510709E+03  0.22994690206E+03  0.24328238312E+02  0.48547893675E+03  0.50400001928E-02 0.  1.
</event>
<event>
 5   0  0.9741826E-04  0.1002356E+04  0.7818609E-02  0.9305965E-01
       -2   -1    0    0    0  501  0.00000000000E+00  0.00000000000E+00  0.39901413873E+03  0.39901413874E+03  0.25500000920E-02 0. -1.
        2   -1    0    0  501    0  0.00000000000E+00  0.00000000000E+00 -0.62949987947E+03  0.62949987947E+03  0.25500000920E-02 0.  1.
    10030    2    1    2    0    0  0.00000000000E+00  0.00000000000E+00 -0.23048574073E+03  0.10285140182E+04  0.10023559293E+04 0.  0.
        3    1    3    3  502    0 -0.34972516430E+03  0.21073142639E+03 -0.41345400947E+03  0.58108489290E+03  0.10100000352E+00 0.  1.
       -3    1    3    3    0  502  0.34972516430E+03 -0.21073142639E+03  0.18296826874E+03  0.44742912531E+03  0.10100000352E+00 0. -1.
</event>
<event>
 5   0  0.1006006E-03  0.1000558E+04  0.7818609E-02  0.9307933E-01
       -2   -1    0    0    0  501  0.00000000000E+00  0.00000000000E+00  0.16865765239E+03  0.16865765241E+03  0.25500000920E-02 0. -1.
        2   -1    0    0  501    0  0.00000000000E+00  0.00000000000E+00 -0.14839480402E+04  0.14839480402E+04  0.25500000920E-02 0.  1.
    10030    2    1    2    0    0  0.00000000000E+00  0.00000000000E+00 -0.13152903878E+04  0.16526056926E+04  0.10005582297E+04 0.  0.
        2    1    3    3  502    0 -0.60036040193E+02 -0.48905755965E+03 -0.51462836652E+03  0.71247735291E+03  0.25500000920E-02 0. -1.
       -2    1    3    3    0  502  0.60036040193E+02  0.48905755965E+03 -0.80066202125E+03  0.94012833967E+03  0.25500000920E-02 0.  1.
</event>
<event>
 5   0  0.1006749E-03  0.9988691E+03  0.7818609E-02  0.9309786E-01
        2   -1    0    0  501    0  0.00000000000E+00  0.00000000000E+00  0.45587813747E+03  0.45587813748E+03  0.25500000920E-02 0.  1.
       -2   -1    0    0    0  501  0.00000000000E+00  0.00000000000E+00 -0.54715252174E+03  0.54715252175E+03  0.25500000920E-02 0. -1.
    10030    2    1    2    0    0  0.00000000000E+00  0.00000000000E+00 -0.91274384272E+02  0.10030306592E+04  0.99886910560E+03 0.  0.
        1    1    3    3  502    0 -0.42671803368E+03 -0.94099735587E+02  0.19722126923E+03  0.47941554999E+03  0.50400001928E-02 0. -1.
       -1    1    3    3    0  502  0.42671803368E+03  0.94099735587E+02 -0.28849565350E+03  0.52361510924E+03  0.50400001928E-02 0.  1.
</event>
<event>
 5   0  0.5960102E-04  0.9991328E+03  0.7818609E-02  0.9309496E-01
        1   -1    0    0  501    0  0.00000000000E+00  0.00000000000E+00  0.99010684386E+03  0.99010684388E+03  0.50400001928E-02 0.  1.
       -1   -1    0    0    0  501  0.00000000000E+00  0.00000000000E+00 -0.25206027100E+03  0.25206027105E+03  0.50400001928E-02 0. -1.
    10030    2    1    2    0    0  0.00000000000E+00  0.00000000000E+00  0.73804657287E+03  0.12421671149E+04  0.99913282284E+03 0.  0.
        5    1    3    3  502    0  0.32900776053E+03 -0.34436582463E+03  0.55638072092E+03  0.73240393518E+03  0.46999998093E+01 0. -1.
       -5    1    3    3    0  502 -0.32900776053E+03  0.34436582463E+03  0.18166585194E+03  0.50976317974E+03  0.46999998093E+01 0.  1.
</event>
<event>
 5   0  0.5960102E-04  0.1001495E+04  0.7818609E-02  0.9306906E-01
       -1   -1    0    0    0  501  0.00000000000E+00  0.00000000000E+00  0.65652198255E+03  0.65652198257E+03  0.50400001928E-02 0.  1.
        1   -1    0    0  501    0  0.00000000000E+00  0.00000000000E+00 -0.38193426634E+03  0.38193426637E+03  0.50400001928E-02 0. -1.
    10030    2    1    2    0    0  0.00000000000E+00  0.00000000000E+00  0.27458771621E+03  0.10384562489E+04  0.10014953655E+04 0.  0.
        5    1    3    3  502    0  0.27090594982E+03 -0.32972359242E+03  0.40891262771E+03  0.59104932801E+03  0.46999998093E+01 0.  1.
       -5    1    3    3    0  502 -0.27090594982E+03  0.32972359242E+03 -0.13432491150E+03  0.44740692093E+03  0.46999998093E+01 0. -1.
</event>
<event>
 5   0  0.1006006E-03  0.1005599E+04  0.7818609E-02  0.9302425E-01
        2   -1    0    0  501    0  0.00000000000E+00  0.00000000000E+00  0.33492688981E+03  0.33492688981E+03  0.25500000920E-02 0.  1.
       -2   -1    0    0    0  501  0.00000000000E+00  0.00000000000E+00 -0.75481367653E+03  0.75481367653E+03  0.25500000920E-02 0. -1.
    10030    2    1    2    0    0  0.00000000000E+00  0.00000000000E+00 -0.41988678672E+03  0.10897405663E+04  0.10055991191E+04 0.  0.
        2    1    3    3  502    0  0.81754905413E+02  0.32522035816E+03  0.19604401732E+03  0.38843970273E+03  0.25500000920E-02 0.  1.
       -2    1    3    3    0  502 -0.81754905413E+02 -0.32522035816E+03 -0.61593080405E+03  0.70130086361E+03  0.25500000920E-02 0. -1.
</event>
<event>
 5   0  0.5758786E-04  0.9978800E+03  0.7818609E-02  0.9310873E-01
        1   -1    0    0  501    0  0.00000000000E+00  0.00000000000E+00  0.88421899155E+03  0.88421899157E+03  0.50400001928E-02 0.  1.
       -1   -1    0    0    0  501  0.00000000000E+00  0.00000000000E+00 -0.28153784308E+03  0.28153784312E+03  0.50400001928E-02 0. -1.
    10030    2    1    2    0    0  0.00000000000E+00  0.00000000000E+00  0.60268114848E+03  0.11657568347E+04  0.99787996818E+03 0.  0.
        3    1    3    3  502    0 -0.13740308402E+03  0.20958503386E+03  0.80535665368E+03  0.84344818676E+03  0.10100000352E+00 0.  1.
       -3    1    3    3    0  502  0.13740308402E+03 -0.20958503386E+03 -0.20267550520E+03  0.32230864793E+03  0.10100000352E+00 0. -1.
</event>
<event>
 5   0  0.5960102E-04  0.1001006E+04  0.7818609E-02  0.9307442E-01
       -1   -1    0    0    0  501  0.00000000000E+00  0.00000000000E+00  0.76973292208E+03  0.76973292210E+03  0.50400001928E-02 0.  1.
        1   -1    0    0  501    0  0.00000000000E+00  0.00000000000E+00 -0.32544183010E+03  0.32544183014E+03  0.50400001928E-02 0. -1.
    10030    2    1    2    0    0  0.00000000000E+00  0.00000000000E+00  0.44429109198E+03  0.10951747522E+04  0.10010060757E+04 0.  0.
        5    1    3    3  502    0  0.37577046392E+03 -0.20945501157E+03  0.50195133238E+03  0.66109914045E+03  0.46999998093E+01 0.  1.
       -5    1    3    3    0  502 -0.37577046392E+03  0.20945501157E+03 -0.57660240400E+02  0.43407561179E+03  0.46999998093E+01 0. -1.
</event>
<event>
 5   0  0.3854625E-04  0.9995907E+03  0.7818609E-02  0.9308994E-01
        4   -1    0    0  501    0  0.00000000000E+00  0.00000000000E+00  0.47756833984E+03  0.47757002849E+03  0.12699999809E+01 0.  1.
       -4   -1    0    0    0  501  0.00000000000E+00  0.00000000000E+00 -0.52305348864E+03  0.52305503045E+03  0.12699999809E+01 0. -1.
    10030    2    1    2    0    0  0.00000000000E+00  0.00000000000E+00 -0.45485148807E+02  0.10006250589E+04  0.99959072116E+03 0.  0.
        2    1    3    3  502    0 -0.31717622142E+03 -0.22464166535E+03  0.29179708999E+03  0.48601458309E+03  0.25500000920E-02 0.  1.
       -2    1    3    3    0  502  0.31717622142E+03  0.22464166535E+03 -0.33728223879E+03  0.51461047585E+03  0.25500000920E-02 0. -1.
</event>
<event>
 5   0  0.9741826E-04  0.9989119E+03  0.7818609E-02  0.9309739E-01
        2   -1    0    0  501    0  0.00000000000E+00  0.00000000000E+00  0.44176076700E+03  0.44176076701E+03  0.25500000920E-02 0.  1.
       -2   -1    0    0    0  501  0.00000000000E+00  0.00000000000E+00 -0.56468627832E+03  0.56468627832E+03  0.25500000920E-02 0. -1.
    10030    2    1    2    0    0  0.00000000000E+00  0.00000000000E+00 -0.12292551132E+03  0.10064470453E+04  0.99891189487E+03 0.  0.
        3    1    3    3  502    0  0.11509720145E+03 -0.22132357596E+03  0.37449596068E+03  0.44997636141E+03  0.10100000352E+00 0.  1.
       -3    1    3    3    0  502 -0.11509720145E+03  0.22132357596E+03 -0.49742147200E+03  0.55647068392E+03  0.10100000352E+00 0. -1.
</event>
<event>
 5   0  0.5960102E-04  0.9995627E+03  0.7818609E-02  0.9309025E-01
        1   -1    0    0  501    0  0.00000000000E+00  0.00000000000E+00  0.51522706148E+03  0.51522706151E+03  0.50400001928E-02 0. -1.
       -1   -1    0    0    0  501  0.00000000000E+00  0.00000000000E+00 -0.48479863484E+03  0.48479863487E+03  0.50400001928E-02 0.  1.
    10030    2    1    2    0    0  0.00000000000E+00  0.00000000000E+00  0.30428426642E+02  0.10000256964E+04  0.99956265649E+03 0.  0.
        5    1    3    3  502    0  0.58414970263E+02 -0.28675858577E+03  0.42051481470E+03  0.51234519091E+03  0.46999998093E+01 0. -1.
       -5    1    3    3    0  502 -0.58414970263E+02  0.28675858577E+03 -0.39008638806E+03  0.48768050547E+03  0.46999998093E+01 0.  1.
</event>
<event>
 5   0  0.1006006E-03  0.1000084E+04  0.7818609E-02  0.9308453E-01
        2   -1    0    0  501    0  0.00000000000E+00  0.00000000000E+00  0.13566177713E+04  0.13566177713E+04  0.25500000920E-02 0. -1.
       -2   -1    0    0    0  501  0.00000000000E+00  0.00000000000E+00 -0.18431280234E+03  0.18431280236E+03  0.25500000920E-02 0.  1.
    10030    2    1    2    0    0  0.00000000000E+00  0.00000000000E+00  0.11723049690E+04  0.15409305737E+04  0.10000840428E+04 0.  0.
        2    1    3    3  502    0 -0.40977692680E+03  0.99907794353E+02  0.10000040999E+04  0.10853141927E+04  0.25500000920E-02 0. -1.
       -2    1    3    3    0  502  0.40977692680E+03 -0.99907794353E+02  0.17230086908E+03  0.45561638097E+03  0.25500000920E-02 0.  1.
</event>
<event>
 5   0  0.5826939E-04  0.9880982E+03  0.7818609E-02  0.9321696E-01
       -1   -1    0    0    0  501  0.00000000000E+00  0.00000000000E+00  0.25341938229E+03  0.25341938234E+03  0.50400001928E-02 0. -1.
        1   -1    0    0  501    0  0.00000000000E+00  0.00000000000E+00 -0.96316438185E+03  0.96316438187E+03  0.50400001928E-02 0.  1.
    10030    2    1    2    0    0  0.00000000000E+00  0.00000000000E+00 -0.70974499956E+03  0.12165837642E+04  0.98809821928E+03 0.  0.
        1    1    3    3  502    0  0.31035700257E+03  0.72216361214E+02 -0.81973256272E+03  0.87948743384E+03  0.50400001928E-02 0.  1.
       -1    1    3    3    0  502 -0.31035700257E+03 -0.72216361214E+02  0.10998756316E+03  0.33709633037E+03  0.50400001928E-02 0. -1.
</event>
<event>
 5   0  0.3854625E-04  0.9992166E+03  0.7818609E-02  0.9309404E-01
       -3   -1    0    0    0  501  0.00000000000E+00  0.00000000000E+00  0.98420931699E+03  0.98420932218E+03  0.10100000352E+00 0.  1.
        3   -1    0    0  501    0  0.00000000000E+00  0.00000000000E+00 -0.25361318782E+03  0.25361320793E+03  0.10100000352E+00 0. -1.
    10030    2    1    2    0    0  0.00000000000E+00  0.00000000000E+00  0.73059612917E+03  0.12378225301E+04  0.99921664923E+03 0.  0.
        1    1    3    3  502    0  0.41777440857E+03  0.21976956713E+03  0.56800017102E+03  0.73855149678E+03  0.50400001928E-02 0.  1.
       -1    1    3    3    0  502 -0.41777440857E+03 -0.21976956713E+03  0.16259595815E+03  0.49927103333E+03  0.50400001928E-02 0. -1.
</event>
<event>
 5   0  0.9741826E-04  0.9971186E+03  0.7818609E-02  0.9311711E-01
        2   -1    0    0  501    0  0.00000000000E+00  0.00000000000E+00  0.17403459416E+04  0.17403459416E+04  0.25500000920E-02 0. -1.
       -2   -1    0    0    0  501  0.00000000000E+00  0.00000000000E+00 -0.14282298288E+03  0.14282298290E+03  0.25500000920E-02 0.  1.
    10030    2    1    2    0    0  0.00000000000E+00  0.00000000000E+00  0.15975229587E+04  0.18831689245E+04  0.99711864620E+03 0.  0.
        3    1    3    3  502    0  0.65738089237E+02 -0.16254437489E+03  0.16801969814E+04  0.16893205962E+04  0.10100000352E+00 0. -1.
       -3    1    3    3    0  502 -0.65738089237E+02  0.16254437489E+03 -0.82674022643E+02  0.19384832836E+03  0.10100000352E+00 0.  1.
</event>
<event>
 5   0  0.5888774E-04  0.1002001E+04  0.7818609E-02  0.9306352E-01
        1   -1    0    0  501    0  0.00000000000E+00  0.00000000000E+00  0.14057633274E+04  0.14057633274E+04  0.50400001928E-02 0. -1.
       -1   -1    0    0    0  501  0.00000000000E+00  0.00000000000E+00 -0.17855188395E+03  0.17855188403E+03  0.50400001928E-02 0.  1.
    10030    2    1    2    0    0  0.00000000000E+00  0.00000000000E+00  0.12272114434E+04  0.15843152114E+04  0.10020013784E+04 0.  0.
        2    1    3    3  502    0 -0.28176192647E+02  0.37055786419E+03  0.11448692190E+04  0.12036746060E+04  0.25500000920E-02 0. -1.
       -2    1    3    3    0  502  0.28176192647E+02 -0.37055786419E+03  0.82342224415E+02  0.38064060539E+03  0.25500000920E-02 0.  1.
</event>
<event>
 5   0  0.5758786E-04  0.9997605E+03  0.7818609E-02  0.9308808E-01
       -1   -1    0    0    0  501  0.00000000000E+00  0.00000000000E+00  0.19014236134E+04  0.19014236134E+04  0.50400001928E-02 0. -1.
        1   -1    0    0  501    0  0.00000000000E+00  0.00000000000E+00 -0.13141744908E+03  0.13141744918E+03  0.50400001928E-02 0.  1.
    10030    2    1    2    0    0  0.00000000000E+00  0.00000000000E+00  0.17700061643E+04  0.20328410626E+04  0.99976045331E+03 0.  0.
        3    1    3    3  502    0 -0.35072787876E+03 -0.14996777480E+03  0.22807805130E+03  0.44443220642E+03  0.10100000352E+00 0.  1.
       -3    1    3    3    0  502  0.35072787876E+03  0.14996777480E+03  0.15419281130E+04  0.15884088561E+04  0.10100000352E+00 0. -1.
</event>
<event>
 5   0  0.5960102E-04  0.1002346E+04  0.7818609E-02  0.9305976E-01
        1   -1    0    0  501    0  0.00000000000E+00  0.00000000000E+00  0.74503293123E+03  0.74503293125E+03  0.50400001928E-02 0. -1.
       -1   -1    0    0    0  501  0.00000000000E+00  0.00000000000E+00 -0.33713189497E+03  0.33713189500E+03  0.50400001928E-02 0.  1.
    10030    2    1    2    0    0  0.00000000000E+00  0.00000000000E+00  0.40790103627E+03  0.10821648263E+04  0.10023459761E+04 0.  0.
        5    1    3    3  502    0 -0.35205636338E+03 -0.34955775957E+03  0.12747199033E+03  0.51225531582E+03  0.46999998093E+01 0.  1.
       -5    1    3    3    0  502  0.35205636338E+03  0.34955775957E+03  0.28042904594E+03  0.56990951043E+03  0.46999998093E+01 0. -1.
</event>
<event>
 5   0  0.5888774E-04  0.9993626E+03  0.7818609E-02  0.9309244E-01
        1   -1    0    0  501    0  0.00000000000E+00  0.00000000000E+00  0.12609383964E+04  0.12609383965E+04  0.50400001928E-02 0.  1.
       -1   -1    0    0    0  501  0.00000000000E+00  0.00000000000E+00 -0.19801238167E+03  0.19801238174E+03  0.50400001928E-02 0. -1.
    10030    2    1    2    0    0  0.00000000000E+00  0.00000000000E+00  0.10629260148E+04  0.14589507782E+04  0.99936262703E+03 0.  0.
        2    1    3    3  502    0 -0.35591068532E+03 -0.24934857350E+03  0.89153699697E+03  0.99180912680E+03  0.25500000920E-02 0.  1.
       -2    1    3    3    0  502  0.35591068532E+03  0.24934857350E+03  0.17138901780E+03  0.46714165139E+03  0.25500000920E-02 0. -1.
</event>
<event>
 5   0  0.9674819E-04  0.9995940E+03  0.7818609E-02  0.9308990E-01
       -2   -1    0    0    0  501  0.00000000000E+00  0.00000000000E+00  0.31299285642E+03  0.31299285643E+03  0.25500000920E-02 0. -1.
        2   -1    0    0  501    0  0.00000000000E+00  0.00000000000E+00 -0.79809184631E+03  0.79809184631E+03  0.25500000920E-02 0.  1.
    10030    2    1    2    0    0  0.00000000000E+00  0.00000000000E+00 -0.48509898989E+03  0.11110847027E+04  0.99959401092E+03 0.  0.
        4    1    3    3  502    0 -0.14470775179E+03  0.34009827729E+03 -0.61650869222E+03  0.71881273788E+03  0.12699999809E+01 0.  1.
       -4    1    3    3    0  502  0.14470775179E+03 -0.34009827729E+03  0.13140970233E+03  0.39227196486E+03  0.12699999809E+01 0. -1.
</event>
<event>
 5   0  0.5768102E-04  0.9999355E+03  0.7818609E-02  0.9308616E-01
        1   -1    0    0  501    0  0.00000000000E+00  0.00000000000E+00  0.81693024399E+03  0.81693024401E+03  0.50400001928E-02 0.  1.
       -1   -1    0    0    0  501  0.00000000000E+00  0.00000000000E+00 -0.30598419363E+03  0.30598419367E+03  0.50400001928E-02 0. -1.
    10030    2    1    2    0    0  0.00000000000E+00  0.00000000000E+00  0.51094605036E+03  0.11229144377E+04  0.99993548191E+03 0.  0.
        4    1    3    3  502    0  0.18901601478E+03 -0.32956965495E+03 -0.10949411689E+03  0.39539067495E+03  0.12699999809E+01 0. -1.
       -4    1    3    3    0  502 -0.18901601478E+03  0.32956965495E+03  0.62044016725E+03  0.72752376273E+03  0.12699999809E+01 0.  1.
</event>
<event>
 5   0  0.5758786E-04  0.1001354E+04  0.7818609E-02  0.9307061E-01
       -1   -1    0    0    0  501  0.00000000000E+00  0.00000000000E+00  0.61615776933E+03  0.61615776935E+03  0.50400001928E-02 0.  1.
        1   -1    0    0  501    0  0.00000000000E+00  0.00000000000E+00 -0.40683973967E+03  0.40683973970E+03  0.50400001928E-02 0. -1.
    10030    2    1    2    0    0  0.00000000000E+00  0.00000000000E+00  0.20931802966E+03  0.10229975091E+04  0.10013540163E+04 0.  0.
        3    1    3    3  502    0  0.50002404570E+03 -0.15922565049E+02  0.84229745939E+02  0.50731867171E+03  0.10100000352E+00 0. -1.
       -3    1    3    3    0  502 -0.50002404570E+03  0.15922565049E+02  0.12508828372E+03  0.51567883735E+03  0.10100000352E+00 0.  1.
</event>
<event>
 5   0  0.3854625E-04  0.1001246E+04  0.7818609E-02  0.9307179E-01
        4   -1    0    0  501    0  0.00000000000E+00  0.00000000000E+00  0.35857222764E+03  0.35857447669E+03  0.12699999809E+01 0.  1.
       -4   -1    0    0    0  501  0.00000000000E+00  0.00000000000E+00 -0.69894347951E+03  0.69894463332E+03  0.12699999809E+01 0. -1.
    10030    2    1    2    0    0  0.00000000000E+00  0.00000000000E+00 -0.34037125187E+03  0.10575191100E+04  0.10012462629E+04 0.  0.
        1    1    3    3  502    0 -0.45959049019E+02  0.15207333841E+03 -0.67161504011E+03  0.69014874960E+03  0.50400001928E-02 0. -1.
       -1    1    3    3    0  502  0.45959049019E+02 -0.15207333841E+03  0.33124378824E+03  0.36737036042E+03  0.50400001928E-02 0.  1.
</event>
<event>
 5   0  0.1006749E-03  0.1000521E+04  0.7818609E-02  0.9307973E-01
       -2   -1    0    0    0  501  0.00000000000E+00  0.00000000000E+00  0.27591238089E+03  0.27591238090E+03  0.25500000920E-02 0. -1.
        2   -1    0    0  501    0  0.00000000000E+00  0.00000000000E+00 -0.90702963005E+03  0.90702963005E+03  0.25500000920E-02 0.  1.
    10030    2    1    2    0    0  0.00000000000E+00  0.00000000000E+00 -0.63111724916E+03  0.11829420110E+04  0.10005212737E+04 0.  0.
        1    1    3    3  502    0  0.22888414623E+02 -0.13253407536E+03  0.25413534609E+03  0.28753075455E+03  0.50400001928E-02 0. -1.
       -1    1    3    3    0  502 -0.22888414623E+02  0.13253407536E+03 -0.88525259525E+03  0.89541125640E+03  0.50400001928E-02 0.  1.
</event>
<event>
 5   0  0.9741826E-04  0.9999564E+03  0.7818609E-02  0.9308593E-01
        2   -1    0    0  501    0  0.00000000000E+00  0.00000000000E+00  0.94943414641E+03  0.94943414642E+03  0.25500000920E-02 0. -1.
       -2   -1    0    0    0  501  0.00000000000E+00  0.00000000000E+00 -0.26329179354E+03  0.26329179355E+03  0.25500000920E-02 0.  1.
    10030    2    1    2    0    0  0.00000000000E+00  0.00000000000E+00  0.68614235288E+03  0.12127259400E+04  0.99995643758E+03 0.  0.
        3    1    3    3  502    0  0.13164484517E+03 -0.83836676233E+01  0.92794945076E+03  0.93727842422E+03  0.10100000352E+00 0. -1.
       -3    1    3    3    0  502 -0.13164484517E+03  0.83836676233E+01 -0.24180709788E+03  0.27544751574E+03  0.10100000352E+00 0.  1.
</event>
<event>
 5   0  0.9741826E-04  0.1000504E+04  0.7818609E-02  0.9307992E-01
       -2   -1    0    0    0  501  0.00000000000E+00  0.00000000000E+00  0.36865240178E+03  0.36865240179E+03  0.25500000920E-02 0. -1.
        2   -1    0    0  501    0  0.00000000000E+00  0.00000000000E+00 -0.67882897895E+03  0.67882897895E+03  0.25500000920E-02 0.  1.
    10030    2    1    2    0    0  0.00000000000E+00  0.00000000000E+00 -0.31017657717E+03  0.10474813807E+04  0.10005037401E+04 0.  0.
        3    1    3    3  502    0  0.46115619991E+03 -0.74756163728E+02 -0.34236842512E+03  0.57919743909E+03  0.10100000352E+00 0.  1.
       -3    1    3    3    0  502 -0.46115619991E+03  0.74756163728E+02  0.32191847947E+02  0.46828394165E+03  0.10100000352E+00 0. -1.
</event>
<event>
 5   0  0.5768102E-04  0.9944543E+03  0.7818609E-02  0.9314648E-01
        1   -1    0    0  501    0  0.00000000000E+00  0.00000000000E+00  0.69031404491E+03  0.69031404493E+03  0.50400001928E-02 0.  1.
       -1   -1    0    0    0  501  0.00000000000E+00  0.00000000000E+00 -0.35814832611E+03  0.35814832615E+03  0.50400001928E-02 0. -1.
    10030    2    1    2    0    0  0.00000000000E+00  0.00000000000E+00  0.33216571880E+03  0.10484623711E+04  0.99445426181E+03 0.  0.
        4    1    3    3  502    0 -0.39456582562E+02  0.18682618504E+03 -0.31795002265E+03  0.37088364096E+03  0.12699999809E+01 0. -1.
       -4    1    3    3    0  502  0.39456582562E+02 -0.18682618504E+03  0.65011574146E+03  0.67757873012E+03  0.12699999809E+01 0.  1.
</event>
<event>
 5   0  0.1006749E-03  0.1000483E+04  0.7818609E-02  0.9308016E-01
        2   -1    0    0  501    0  0.00000000000E+00  0.00000000000E+00  0.71410684508E+03  0.71410684508E+03  0.25500000920E-02 0.  1.
       -2   -1    0    0    0  501  0.00000000000E+00  0.00000000000E+00 -0.35042561581E+03  0.35042561582E+03  0.25500000920E-02 0. -1.
    10030    2    1    2    0    0  0.00000000000E+00  0.00000000000E+00  0.36368122926E+03  0.10645324609E+04  0.10004825455E+04 0.  0.
        1    1    3    3  502    0  0.26983454698E+03  0.22451382789E+03 -0.19738058568E+03  0.40271110897E+03  0.50400001928E-02 0. -1.
       -1    1    3    3    0  502 -0.26983454698E+03 -0.22451382789E+03  0.56106181495E+03  0.66182135193E+03  0.50400001928E-02 0.  1.
</event>
<event>
 5   0  0.5888774E-04  0.1000436E+04  0.7818609E-02  0.9308067E-01
       -1   -1    0    0    0  501  0.00000000000E+00  0.00000000000E+00  0.46810778759E+03  0.46810778762E+03  0.50400001928E-02 0. -1.
        1   -1    0    0  501    0  0.00000000000E+00  0.00000000000E+00 -0.53453037249E+03  0.53453037251E+03  0.50400001928E-02 0.  1.
    10030    2    1    2    0    0  0.00000000000E+00  0.00000000000E+00 -0.66422584893E+02  0.10026381601E+04  0.10004355653E+04 0.  0.
        2    1    3    3  502    0 -0.14761666756E+03 -0.32802488517E+03  0.31515553040E+03  0.47824054008E+03  0.25500000920E-02 0. -1.
       -2    1    3    3    0  502  0.14761666756E+03  0.32802488517E+03 -0.38157811529E+03  0.52439762005E+03  0.25500000920E-02 0.  1.
</event>
<event>
 5   0  0.5826939E-04  0.1000102E+04  0.7818609E-02  0.9308432E-01
        1   -1    0    0  501    0  0.00000000000E+00  0.00000000000E+00  0.94492044804E+03  0.94492044805E+03  0.50400001928E-02 0.  1.
       -1   -1    0    0    0  501  0.00000000000E+00  0.00000000000E+00 -0.26462675418E+03  0.26462675423E+03  0.50400001928E-02 0. -1.
    10030    2    1    2    0    0  0.00000000000E+00  0.00000000000E+00  0.68029369386E+03  0.12095472023E+04  0.10001024571E+04 0.  0.
        1    1    3    3  502    0 -0.49590821618E+03  0.55316429727E+02  0.30065283611E+03  0.58256072144E+03  0.50400001928E-02 0.  1.
       -1    1    3    3    0  502  0.49590821618E+03 -0.55316429727E+02  0.37964085774E+03  0.62698648085E+03  0.50400001928E-02 0. -1.
</event>
<event>
 5   0  0.5960102E-04  0.9995179E+03  0.7818609E-02  0.9309074E-01
        1   -1    0    0  501    0  0.00000000000E+00  0.00000000000E+00  0.71568060697E+03  0.71568060699E+03  0.50400001928E-02 0.  1.
       -1   -1    0    0    0  501  0.00000000000E+00  0.00000000000E+00 -0.34898108456E+03  0.34898108460E+03  0.50400001928E-02 0. -1.
    10030    2    1    2    0    0  0.00000000000E+00  0.00000000000E+00  0.36669952241E+03  0.10646616916E+04  0.99951787268E+03 0.  0.
        5    1    3    3  502    0 -0.43993372524E+03 -0.20094610522E+03  0.49392022485E+02  0.48619202142E+03  0.46999998093E+01 0. -1.
       -5    1    3    3    0  502  0.43993372524E+03  0.20094610522E+03  0.31730749993E+03  0.57846967017E+03  0.46999998093E+01 0.  1.
</event>
<event>
 5   0  0.1006006E-03  0.1001425E+04  0.7818609E-02  0.9306983E-01
       -2   -1    0    0    0  501  0.00000000000E+00  0.00000000000E+00  0.53825760000E+03  0.53825760001E+03  0.25500000920E-02 0. -1.
        2   -1    0    0  501    0  0.00000000000E+00  0.00000000000E+00 -0.46578638100E+03  0.46578638101E+03  0.25500000920E-02 0.  1.
    10030    2    1    2    0    0  0.00000000000E+00  0.00000000000E+00  0.72471219000E+02  0.10040439810E+04  0.10014251037E+04 0.  0.
        2    1    3    3  502    0 -0.19245999368E+03 -0.43459718021E+01 -0.42719966676E+03  0.46857154408E+03  0.25500000920E-02 0. -1.
       -2    1    3    3    0  502  0.19245999368E+03  0.43459718021E+01  0.49967088575E+03  0.53547243693E+03  0.25500000920E-02 0.  1.
</event>
<event>
 5   0  0.1006749E-03  0.1000227E+04  0.7818609E-02  0.9308296E-01
        2   -1    0    0  501    0  0.00000000000E+00  0.00000000000E+00  0.80791333352E+03  0.80791333353E+03  0.25500000920E-02 0. -1.
       -2   -1    0    0    0  501  0.00000000000E+00  0.00000000000E+00 -0.30957962991E+03  0.30957962992E+03  0.25500000920E-02 0.  1.
    10030    2    1    2    0    0  0.00000000000E+00  0.00000000000E+00  0.49833370361E+03  0.11174929635E+04  0.10002269958E+04 0.  0.
        1    1    3    3  502    0 -0.24981615539E+03  0.22461224565E+03  0.66308064452E+03  0.74332678786E+03  0.50400001928E-02 0. -1.
       -1    1    3    3    0  502  0.24981615539E+03 -0.22461224565E+03 -0.16474694090E+03  0.37416617559E+03  0.50400001928E-02 0.  1.
</event>
<event>
 5   0  0.1020150E-03  0.9990119E+03  0.7818609E-02  0.9309629E-01
        2   -1    0    0  501    0  0.00000000000E+00  0.00000000000E+00  0.19172872806E+04  0.19172872806E+04  0.25500000920E-02 0.  1.
       -2   -1    0    0    0  501  0.00000000000E+00  0.00000000000E+00 -0.13013499482E+03  0.13013499484E+03  0.25500000920E-02 0. -1.
    10030    2    1    2    0    0  0.00000000000E+00  0.00000000000E+00  0.17871522858E+04  0.20474222755E+04  0.99901185251E+03 0.  0.
        5    1    3    3  502    0  0.12697898794E+03  0.46392723114E+02 -0.91882348067E+02  0.16352493394E+03  0.46999998093E+01 0. -1.
       -5    1    3    3    0  502 -0.12697898794E+03 -0.46392723114E+02  0.18790346339E+04  0.18838973415E+04  0.46999998093E+01 0.  1.
</event>
<event>
 5   0  0.3854625E-04  0.9993084E+03  0.7818609E-02  0.9309304E-01
       -3   -1    0    0    0  501  0.00000000000E+00  0.00000000000E+00  0.73781007812E+03  0.73781008504E+03  0.10100000352E+00 0.  1.
        3   -1    0    0  501    0  0.00000000000E+00  0.00000000000E+00 -0.33837202086E+03  0.33837203594E+03  0.10100000352E+00 0. -1.
    10030    2    1    2    0    0  0.00000000000E+00  0.00000000000E+00  0.39943805726E+03  0.10761821210E+04  0.99930835877E+03 0.  0.
        4    1    3    3  502    0  0.38656179958E+03  0.29359029693E+03  0.72170684852E+02  0.49074994447E+03  0.12699999809E+01 0. -1.
       -4    1    3    3    0  502 -0.38656179958E+03 -0.29359029693E+03  0.32726737241E+03  0.58543217651E+03  0.12699999809E+01 0.  1.
</event>
<event>
 5   0  0.3854625E-04  0.1000377E+04  0.7818609E-02  0.9308132E-01
        4   -1    0    0  501    0  0.00000000000E+00  0.00000000000E+00  0.36411178342E+03  0.36411399826E+03  0.12699999809E+01 0.  1.
       -4   -1    0    0    0  501  0.00000000000E+00  0.00000000000E+00 -0.68711478337E+03  0.68711595705E+03  0.12699999809E+01 0. -1.
    10030    2    1    2    0    0  0.00000000000E+00  0.00000000000E+00 -0.32300299995E+03  0.10512299553E+04  0.10003766695E+04 0.  0.
        4    1    3    3  502    0  0.47215336548E+03 -0.40939695829E+02  0.65725076080E+01  0.47397222491E+03  0.12699999809E+01 0.  1.
       -4    1    3    3    0  502 -0.47215336548E+03  0.40939695829E+02 -0.32957550756E+03  0.57725773040E+03  0.12699999809E+01 0. -1.
</event>
<event>
 5   0  0.9674819E-04  0.9993997E+03  0.7818609E-02  0.9309203E-01
       -2   -1    0    0    0  501  0.00000000000E+00  0.00000000000E+00  0.46893963333E+03  0.46893963333E+03  0.25500000920E-02 0.  1.
        2   -1    0    0  501    0  0.00000000000E+00  0.00000000000E+00 -0.53247780700E+03  0.53247780700E+03  0.25500000920E-02 0. -1.
    10030    2    1    2    0    0  0.00000000000E+00  0.00000000000E+00 -0.63538173673E+02  0.10014174403E+04  0.99939971498E+03 0.  0.
        4    1    3    3  502    0  0.11800814765E+03  0.30086769911E+03  0.35011851042E+03  0.47647862441E+03  0.12699999809E+01 0.  1.
       -4    1    3    3    0  502 -0.11800814765E+03 -0.30086769911E+03 -0.41365668409E+03  0.52493881593E+03  0.12699999809E+01 0. -1.
</event>
<event>
 5   0  0.1006749E-03  0.9996708E+03  0.7818609E-02  0.9308906E-01
       -2   -1    0    0    0  501  0.00000000000E+00  0.00000000000E+00  0.27986968155E+03  0.27986968156E+03  0.25500000920E-02 0.  1.
        2   -1    0    0  501    0  0.00000000000E+00  0.00000000000E+00 -0.89268478669E+03  0.89268478670E+03  0.25500000920E-02 0. -1.
    10030    2    1    2    0    0  0.00000000000E+00  0.00000000000E+00 -0.61281510515E+03  0.11725544683E+04  0.99967075976E+03 0.  0.
        1    1    3    3  502    0 -0.10291861833E+03 -0.46705366619E+03 -0.47680332490E+03  0.67533160726E+03  0.50400001928E-02 0. -1.
       -1    1    3    3    0  502  0.10291861833E+03  0.46705366619E+03 -0.13601178025E+03  0.49722286100E+03  0.50400001928E-02 0.  1.
</event>
<event>
 5   0  0.5826939E-04  0.1000841E+04  0.7818609E-02  0.9307623E-01
       -1   -1    0    0    0  501  0.00000000000E+00  0.00000000000E+00  0.11657153664E+03  0.11657153675E+03  0.50400001928E-02 0. -1.
        1   -1    0    0  501    0  0.00000000000E+00  0.00000000000E+00 -0.21482158262E+04  0.21482158262E+04  0.50400001928E-02 0.  1.
    10030    2    1    2    0    0  0.00000000000E+00  0.00000000000E+00 -0.20316442896E+04  0.22647873630E+04  0.10008412862E+04 0.  0.
        1    1    3    3  502    0 -0.14350760108E+03  0.57027807823E+02  0.61306226401E+02  0.16614769289E+03  0.50400001928E-02 0. -1.
       -1    1    3    3    0  502  0.14350760108E+03 -0.57027807823E+02 -0.20929505160E+04  0.20986396701E+04  0.50400001928E-02 0.  1.
</event>
<event>
 5   0  0.5960102E-04  0.1001881E+04  0.7818609E-02  0.9306484E-01
        1   -1    0    0  501    0  0.00000000000E+00  0.00000000000E+00  0.64796894890E+03  0.64796894892E+03  0.50400001928E-02 0. -1.
       -1   -1    0    0    0  501  0.00000000000E+00  0.00000000000E+00 -0.38727372645E+03  0.38727372648E+03  0.50400001928E-02 0.  1.
    10030    2    1    2    0    0  0.00000000000E+00  0.00000000000E+00  0.26069522245E+03  0.10352426754E+04  0.10018809300E+04 0.  0.
        5    1    3    3  502    0 -0.15947771274E+03  0.25870128706E+03  0.54180280597E+03  0.62123414856E+03  0.46999998093E+01 0. -1.
       -5    1    3    3    0  502  0.15947771274E+03 -0.25870128706E+03 -0.28110758352E+03  0.41400852684E+03  0.46999998093E+01 0.  1.
</event>
<event>
 5   0  0.1020150E-03  0.9997960E+03  0.7818609E-02  0.9308769E-01
       -2   -1    0    0    0  501  0.00000000000E+00  0.00000000000E+00  0.29343192123E+03  0.29343192125E+03  0.25500000920E-02 0.  1.
        2   -1    0    0  501    0  0.00000000000E+00  0.00000000000E+00 -0.85163877559E+03  0.85163877560E+03  0.25500000920E-02 0. -1.
    10030    2    1    2    0    0  0.00000000000E+00  0.00000000000E+00 -0.55820685436E+03  0.11450706968E+04  0.99979598345E+03 0.  0.
        5    1    3    3  502    0 -0.21075749037E+03 -0.12978036635E+03  0.21829930041E+03  0.33005808245E+03  0.46999998093E+01 0.  1.
       -5    1    3    3    0  502  0.21075749037E+03  0.12978036635E+03 -0.77650615477E+03  0.81501261439E+03  0.46999998093E+01 0. -1.
</event>
<event>
 5   0  0.1020150E-03  0.1003472E+04  0.7818609E-02  0.9304745E-01
       -2   -1    0    0    0  501  0.00000000000E+00  0.00000000000E+00  0.79180381911E+03  0.79180381911E+03  0.25500000920E-02 0.  1.
        2   -1    0    0  501    0  0.00000000000E+00  0.00000000000E+00 -0.31793094243E+03  0.31793094244E+03  0.25500000920E-02 0. -1.
    10030    2    1    2    0    0  0.00000000000E+00  0.00000000000E+00  0.47387287668E+03  0.11097347615E+04  0.10034718420E+04 0.  0.
        5    1    3    3  502    0  0.69818073962E+02  0.63590862075E+02 -0.30798887729E+03  0.32217634879E+03  0.46999998093E+01 0. -1.
       -5    1    3    3    0  502 -0.69818073962E+02 -0.63590862075E+02  0.78186175396E+03  0.78755841276E+03  0.46999998093E+01 0.  1.
</event>
<event>
 5   0  0.1020150E-03  0.1001012E+04  0.7818609E-02  0.9307436E-01
       -2   -1    0    0    0  501  0.00000000000E+00  0.00000000000E+00  0.25332326875E+03  0.25332326877E+03  0.25500000920E-02 0.  1.
        2   -1    0    0  501    0  0.00000000000E+00  0.00000000000E+00 -0.98887977018E+03  0.98887977019E+03  0.25500000920E-02 0. -1.
    10030    2    1    2    0    0  0.00000000000E+00  0.00000000000E+00 -0.73555650143E+03  0.12422030390E+04  0.10010119995E+04 0.  0.
        5    1    3    3  502    0  0.37373786001E+03 -0.32981904556E+03 -0.42360122264E+03  0.65415646190E+03  0.46999998093E+01 0. -1.
       -5    1    3    3    0  502 -0.37373786001E+03  0.32981904556E+03 -0.31195527880E+03  0.58804657706E+03  0.46999998093E+01 0.  1.
</event>
<event>
 5   0  0.9674819E-04  0.1001263E+04  0.7818609E-02  0.9307161E-01
        2   -1    0    0  501    0  0.00000000000E+00  0.00000000000E+00  0.11845217047E+04  0.11845217047E+04  0.25500000920E-02 0.  1.
       -2   -1    0    0    0  501  0.00000000000E+00  0.00000000000E+00 -0.21158908888E+03  0.21158908890E+03  0.25500000920E-02 0. -1.
    10030    2    1    2    0    0  0.00000000000E+00  0.00000000000E+00  0.97293261584E+03  0.13961107936E+04  0.10012629390E+04 0.  0.
        4    1    3    3  502    0 -0.45860286182E+03 -0.37105565626E+02  0.21132731933E+03  0.50631438520E+03  0.12699999809E+01 0. -1.
       -4    1    3    3    0  502  0.45860286182E+03  0.37105565626E+02  0.76160529652E+03  0.88979640843E+03  0.12699999809E+01 0.  1.
</event>
<event>
 5   0  0.9674819E-04  0.1000267E+04  0.7818609E-02  0.9308252E-01
        2   -1    0    0  501    0  0.00000000000E+00  0.00000000000E+00  0.12182715782E+04  0.12182715782E+04  0.25500000920E-02 0. -1.
       -2   -1    0    0    0  501  0.00000000000E+00  0.00000000000E+00 -0.20531846548E+03  0.20531846549E+03  0.25500000920E-02 0.  1.
    10030    2    1    2    0    0  0.00000000000E+00  0.00000000000E+00  0.10129531127E+04  0.14235900437E+04  0.10002672662E+04 0.  0.
        4    1    3    3  502    0 -0.33025527133E+03 -0.30014317853E+03  0.82781185394E+03  0.94044061497E+03  0.12699999809E+01 0. -1.
       -4    1    3    3    0  502  0.33025527133E+03  0.30014317853E+03  0.18514125877E+03  0.48314942871E+03  0.12699999809E+01 0.  1.
</event>
<event>
 5   0  0.5960102E-04  0.9987221E+03  0.7818609E-02  0.9309947E-01
       -1   -1    0    0    0  501  0.00000000000E+00  0.00000000000E+00  0.27634517895E+03  0.27634517899E+03  0.50400001928E-02 0.  1.
        1   -1    0    0  501    0  0.00000000000E+00  0.00000000000E+00 -0.90235508603E+03  0.90235508604E+03  0.50400001928E-02 0. -1.
    10030    2    1    2    0    0  0.00000000000E+00  0.00000000000E+00 -0.62600990708E+03  0.11787002650E+04  0.99872213905E+03 0.  0.
        5    1    3    3  502    0  0.20665446603E+02  0.18342762093E+02 -0.90142598668E+03  0.90186163965E+03  0.46999998093E+01 0. -1.
       -5    1    3    3    0  502 -0.20665446603E+02 -0.18342762093E+02  0.27541607960E+03  0.27683862539E+03  0.46999998093E+01 0.  1.
</event>
<event>
 5   0  0.9741826E-04  0.1000112E+04  0.7818609E-02  0.9308421E-01
        2   -1    0    0  501    0  0.00000000000E+00  0.00000000000E+00  0.20816097149E+04  0.20816097149E+04  0.25500000920E-02 0. -1.
       -2   -1    0    0    0  501  0.00000000000E+00  0.00000000000E+00 -0.12012638456E+03  0.12012638459E+03  0.25500000920E-02 0.  1.
    10030    2    1    2    0    0  0.00000000000E+00  0.00000000000E+00  0.19614833304E+04  0.22017360995E+04  0.10001124920E+04 0.  0.
        3    1    3    3  502    0 -0.95014220240E+02 -0.49064102096E+03  0.10188678256E+04  0.11348338952E+04  0.10100000352E+00 0.  1.
       -3    1    3    3    0  502  0.95014220240E+02  0.49064102096E+03  0.94261550475E+03  0.10669022043E+04  0.10100000352E+00 0. -1.
</event>
<event>
 5   0  0.1006006E-03  0.9996585E+03  0.7818609E-02  0.9308919E-01
        2   -1    0    0  501    0  0.00000000000E+00  0.00000000000E+00  0.10975617785E+04  0.10975617785E+04  0.25500000920E-02 0.  1.
       -2   -1    0    0    0  501  0.00000000000E+00  0.00000000000E+00 -0.22762207453E+03  0.22762207454E+03  0.25500000920E-02 0. -1.
    10030    2    1    2    0    0  0.00000000000E+00  0.00000000000E+00  0.86993970395E+03  0.13251838530E+04  0.99965851960E+03 0.  0.
        2    1    3    3  502    0  0.13335052299E+03  0.34773913010E+03 -0.69354639972E+01  0.37249559092E+03  0.25500000920E-02 0. -1.
       -2    1    3    3    0  502 -0.13335052299E+03 -0.34773913010E+03  0.87687516795E+03  0.95268826211E+03  0.25500000920E-02 0.  1.
</event>
<event>
 5   0  0.5826939E-04  0.1000398E+04  0.7818609E-02  0.9308109E-01
        1   -1    0    0  501    0  0.00000000000E+00  0.00000000000E+00  0.11218549767E+04  0.11218549767E+04  0.50400001928E-02 0.  1.
       -1   -1    0    0    0  501  0.00000000000E+00  0.00000000000E+00 -0.22302244687E+03  0.22302244693E+03  0.50400001928E-02 0. -1.
    10030    2    1    2    0    0  0.00000000000E+00  0.00000000000E+00  0.89883252981E+03  0.13448774236E+04  0.10003976049E+04 0.  0.
        1    1    3    3  502    0  0.17587062399E+03  0.21254950641E+03 -0.11150035817E+03  0.29755688357E+03  0.50400001928E-02 0. -1.
       -1    1    3    3    0  502 -0.17587062399E+03 -0.21254950641E+03  0.10103328880E+04  0.10473205401E+04  0.50400001928E-02 0.  1.
</event>
<event>
 5   0  0.1020150E-03  0.9988475E+03  0.7818609E-02  0.9309810E-01
       -2   -1    0    0    0  501  0.00000000000E+00  0.00000000000E+00  0.29189996667E+03  0.29189996669E+03  0.25500000920E-02 0. -1.
        2   -1    0    0  501    0  0.00000000000E+00  0.00000000000E+00 -0.85448484138E+03  0.85448484138E+03  0.25500000920E-02 0.  1.
    10030    2    1    2    0    0  0.00000000000E+00  0.00000000000E+00 -0.56258487470E+03  0.11463848081E+04  0.99884752937E+03 0.  0.
        5    1    3    3  502    0  0.30179195431E+02 -0.48570681700E+03 -0.41002056596E+03  0.63636534351E+03  0.46999998093E+01 0. -1.
       -5    1    3    3    0  502 -0.30179195431E+02  0.48570681700E+03 -0.15256430875E+03  0.51001946455E+03  0.46999998093E+01 0.  1.
</event>
<event>
 5   0  0.1006006E-03  0.1000297E+04  0.7818609E-02  0.9308219E-01
       -2   -1    0    0    0  501  0.00000000000E+00  0.00000000000E+00  0.16097476711E+03  0.16097476713E+03  0.25500000920E-02 0. -1.
        2   -1    0    0  501    0  0.00000000000E+00  0.00000000000E+00 -0.15539622761E+04  0.15539622761E+04  0.25500000920E-02 0.  1.
    10030    2    1    2    0    0  0.00000000000E+00  0.00000000000E+00 -0.13929875090E+04  0.17149370432E+04  0.10002973868E+04 0.  0.
        2    1    3    3  502    0  0.13389094406E+03 -0.35984808211E+03 -0.12459971932E+04  0.13038122689E+04  0.25500000920E-02 0.  1.
       -2    1    3    3    0  502 -0.13389094406E+03  0.35984808211E+03 -0.14699031577E+03  0.41112477429E+03  0.25500000920E-02 0. -1.
</event>
<event>
 5   0  0.5826939E-04  0.1002802E+04  0.7818609E-02  0.9305477E-01
        1   -1    0    0  501    0  0.00000000000E+00  0.00000000000E+00  0.18275052013E+03  0.18275052020E+03  0.50400001928E-02 0.  1.
       -1   -1    0    0    0  501  0.00000000000E+00  0.00000000000E+00 -0.13756614739E+04  0.13756614739E+04  0.50400001928E-02 0. -1.
    10030    2    1    2    0    0  0.00000000000E+00  0.00000000000E+00 -0.11929109538E+04  0.15584119941E+04  0.10028017749E+04 0.  0.
        1    1    3    3  502    0  0.10657331412E+03 -0.43760488341E+03 -0.25404413685E+03  0.51710185530E+03  0.50400001928E-02 0.  1.
       -1    1    3    3    0  502 -0.10657331412E+03  0.43760488341E+03 -0.93886681693E+03  0.10413101388E+04  0.50400001928E-02 0. -1.
</event>
<event>
 5   0  0.1020150E-03  0.9996802E+03  0.7818609E-02  0.9308896E-01
        2   -1    0    0  501    0  0.00000000000E+00  0.00000000000E+00  0.39518148052E+03  0.39518148053E+03  0.25500000920E-02 0.  1.
       -2   -1    0    0    0  501  0.00000000000E+00  0.00000000000E+00 -0.63221623235E+03  0.63221623236E+03  0.25500000920E-02 0. -1.
    10030    2    1    2    0    0  0.00000000000E+00  0.00000000000E+00 -0.23703475183E+03  0.10273977129E+04  0.99968024232E+03 0.  0.
        5    1    3    3  502    0  0.36154357773E+03  0.15967422434E+03 -0.43295535048E+03  0.58624401236E+03  0.46999998093E+01 0. -1.
       -5    1    3    3    0  502 -0.36154357773E+03 -0.15967422434E+03  0.19592059865E+03  0.44115370053E+03  0.46999998093E+01 0.  1.
</event>
<event>
 5   0  0.3854625E-04  0.9998057E+03  0.7818609E-02  0.9308758E-01
       -4   -1    0    0    0  501  0.00000000000E+00  0.00000000000E+00  0.70539593579E+03  0.70539707904E+03  0.12699999809E+01 0. -1.
        4   -1    0    0  501    0  0.00000000000E+00  0.00000000000E+00 -0.35427064138E+03  0.35427291774E+03  0.12699999809E+01 0.  1.
    10030    2    1    2    0    0  0.00000000000E+00  0.00000000000E+00  0.35112529440E+03  0.10596699968E+04  0.99980574599E+03 0.  0.
        2    1    3    3  502    0 -0.14670811723E+02  0.21895401988E+03  0.65161895391E+03  0.68757789132E+03  0.25500000920E-02 0. -1.
       -2    1    3    3    0  502  0.14670811723E+02 -0.21895401988E+03 -0.30049365950E+03  0.37209210546E+03  0.25500000920E-02 0.  1.
</event>
<event>
 5   0  0.9741826E-04  0.1000139E+04  0.7818609E-02  0.9308393E-01
       -2   -1    0    0    0  501  0.00000000000E+00  0.00000000000E+00  0.63455565713E+03  0.63455565714E+03  0.25500000920E-02 0.  1.
        2   -1    0    0  501    0  0.00000000000E+00  0.00000000000E+00 -0.39408568929E+03  0.39408568930E+03  0.25500000920E-02 0. -1.
    10030    2    1    2    0    0  0.00000000000E+00  0.00000000000E+00  0.24046996784E+03  0.10286413464E+04  0.10001385975E+04 0.  0.
        3    1    3    3  502    0 -0.79868760263E+02  0.41962707604E+03  0.38765137964E+03  0.57683576879E+03  0.10100000352E+00 0.  1.
       -3    1    3    3    0  502  0.79868760263E+02 -0.41962707604E+03 -0.14718141180E+03  0.45180557765E+03  0.10100000352E+00 0. -1.
</event>
<event>
 5   0  0.3854625E-04  0.1001078E+04  0.7818609E-02  0.9307363E-01
       -4   -1    0    0    0  501  0.00000000000E+00  0.00000000000E+00  0.33475479208E+03  0.33475720114E+03  0.12699999809E+01 0. -1.
        4   -1    0    0  501    0  0.00000000000E+00  0.00000000000E+00 -0.74842049313E+03  0.74842157067E+03  0.12699999809E+01 0.  1.
    10030    2    1    2    0    0  0.00000000000E+00  0.00000000000E+00 -0.41366570106E+03  0.10831787718E+04  0.10010778888E+04 0.  0.
        5    1    3    3  502    0 -0.17535469259E+03  0.35723565840E+03 -0.53529192353E+03  0.66702782344E+03  0.46999998093E+01 0.  1.
       -5    1    3    3    0  502  0.17535469259E+03 -0.35723565840E+03  0.12162622247E+03  0.41615094838E+03  0.46999998093E+01 0. -1.
</event>
<event>
 5   0  0.5960102E-04  0.9992457E+03  0.7818609E-02  0.9309373E-01
       -1   -1    0    0    0  501  0.00000000000E+00  0.00000000000E+00  0.50748817158E+03  0.50748817161E+03  0.50400001928E-02 0. -1.
        1   -1    0    0  501    0  0.00000000000E+00  0.00000000000E+00 -0.49187940501E+03  0.49187940503E+03  0.50400001928E-02 0.  1.
    10030    2    1    2    0    0  0.00000000000E+00  0.00000000000E+00  0.15608766577E+02  0.99936757664E+03  0.99924567532E+03 0.  0.
        5    1    3    3  502    0  0.13724417609E+02 -0.66385137704E+02  0.50284511445E+03  0.50741565335E+03  0.46999998093E+01 0. -1.
       -5    1    3    3    0  502 -0.13724417609E+02  0.66385137704E+02 -0.48723634787E+03  0.49195192329E+03  0.46999998093E+01 0.  1.
</event>
<event>
 5   0  0.1006006E-03  0.1001388E+04  0.7818609E-02  0.9307024E-01
       -2   -1    0    0    0  501  0.00000000000E+00  0.00000000000E+00  0.25201947013E+03  0.25201947014E+03  0.25500000920E-02 0.  1.
        2   -1    0    0  501    0  0.00000000000E+00  0.00000000000E+00 -0.99474202073E+03  0.99474202074E+03  0.25500000920E-02 0. -1.
    10030    2    1    2    0    0  0.00000000000E+00  0.00000000000E+00 -0.74272255060E+03  0.12467614909E+04  0.10013877511E+04 0.  0.
        2    1    3    3  502    0 -0.49614350362E+02 -0.31255629156E+03 -0.85443007732E+03  0.91115518776E+03  0.25500000920E-02 0. -1.
       -2    1    3    3    0  502  0.49614350362E+02  0.31255629156E+03  0.11170752671E+03  0.33560630311E+03  0.25500000920E-02 0.  1.
</event>
<event>
 5   0  0.1006749E-03  0.9992174E+03  0.7818609E-02  0.9309404E-01
       -2   -1    0    0    0  501  0.00000000000E+00  0.00000000000E+00  0.57405732672E+03  0.57405732672E+03  0.25500000920E-02 0.  1.
        2   -1    0    0  501    0  0.00000000000E+00  0.00000000000E+00 -0.43481517731E+03  0.43481517731E+03  0.25500000920E-02 0. -1.
    10030    2    1    2    0    0  0.00000000000E+00  0.00000000000E+00  0.13924214941E+03  0.10088725040E+04  0.99921737036E+03 0.  0.
        1    1    3    3  502    0  0.21989792900E+03  0.16740954504E+02  0.52225352520E+03  0.56690749100E+03  0.50400001928E-02 0.  1.
       -1    1    3    3    0  502 -0.21989792900E+03 -0.16740954504E+02 -0.38301137579E+03  0.44196501304E+03  0.50400001928E-02 0. -1.
</event>
<event>
 5   0  0.5888774E-04  0.9995341E+03  0.7818609E-02  0.9309056E-01
       -1   -1    0    0    0  501  0.00000000000E+00  0.00000000000E+00  0.29856647080E+03  0.29856647084E+03  0.50400001928E-02 0. -1.
        1   -1    0    0  501    0  0.00000000000E+00  0.00000000000E+00 -0.83655445993E+03  0.83655445994E+03  0.50400001928E-02 0.  1.
    10030    2    1    2    0    0  0.00000000000E+00  0.00000000000E+00 -0.53798798913E+03  0.11351209308E+04  0.99953411700E+03 0.  0.
        2    1    3    3  502    0  0.43990970117E+03 -0.12329575266E+03 -0.38917006076E+02  0.45851599883E+03  0.25500000920E-02 0. -1.
       -2    1    3    3    0  502 -0.43990970117E+03  0.12329575266E+03 -0.49907098306E+03  0.67660493196E+03  0.25500000920E-02 0.  1.
</event>
<event>
 5   0  0.5758786E-04  0.1000324E+04  0.7818609E-02  0.9308190E-01
        1   -1    0    0  501    0  0.00000000000E+00  0.00000000000E+00  0.12353084634E+04  0.12353084634E+04  0.50400001928E-02 0. -1.
       -1   -1    0    0    0  501  0.00000000000E+00  0.00000000000E+00 -0.20250960183E+03  0.20250960189E+03  0.50400001928E-02 0.  1.
    10030    2    1    2    0    0  0.00000000000E+00  0.00000000000E+00  0.10327988616E+04  0.14378180653E+04  0.10003235979E+04 0.  0.
        3    1    3    3  502    0 -0.16717218671E+03 -0.44166776396E+03  0.27958550665E+03  0.54880326117E+03  0.10100000352E+00 0.  1.
       -3    1    3    3    0  502  0.16717218671E+03  0.44166776396E+03  0.75321335492E+03  0.88901480413E+03  0.10100000352E+00 0. -1.
</event>
<event>
 5   0  0.1006006E-03  0.1007272E+04  0.7818609E-02  0.9300604E-01
        2   -1    0    0  501    0  0.00000000000E+00  0.00000000000E+00  0.39938343379E+03  0.39938343379E+03  0.25500000920E-02 0. -1.
       -2   -1    0    0    0  501  0.00000000000E+00  0.00000000000E+00 -0.63510242708E+03  0.63510242708E+03  0.25500000920E-02 0.  1.
    10030    2    1    2    0    0  0.00000000000E+00  0.00000000000E+00 -0.23571899329E+03  0.10344858609E+04  0.10072723329E+04 0.  0.
        2    1    3    3  502    0  0.45408407594E+03 -0.12235224187E+03  0.67251513672E+02  0.47506334863E+03  0.25500000920E-02 0. -1.
       -2    1    3    3    0  502 -0.45408407594E+03  0.12235224187E+03 -0.30297050696E+03  0.55942251225E+03  0.25500000920E-02 0.  1.
</event>
<event>
 5   0  0.5826939E-04  0.1001904E+04  0.7818609E-02  0.9306459E-01
        1   -1    0    0  501    0  0.00000000000E+00  0.00000000000E+00  0.24606605456E+04  0.24606605456E+04  0.50400001928E-02 0. -1.
       -1   -1    0    0    0  501  0.00000000000E+00  0.00000000000E+00 -0.10198604645E+03  0.10198604657E+03  0.50400001928E-02 0.  1.
    10030    2    1    2    0    0  0.00000000000E+00  0.00000000000E+00  0.23586744991E+04  0.25626465921E+04  0.10019042686E+04 0.  0.
        1    1    3    3  502    0  0.22058732117E+03  0.44889305931E+03  0.12511964546E+04  0.13474629171E+04  0.50400001928E-02 0.  1.
       -1    1    3    3    0  502 -0.22058732117E+03 -0.44889305931E+03  0.11074780445E+04  0.12151836750E+04  0.50400001928E-02 0. -1.
</event>
<event>
 5   0  0.5826939E-04  0.1009412E+04  0.7818609E-02  0.9298282E-01
        1   -1    0    0  501    0  0.00000000000E+00  0.00000000000E+00  0.10961426910E+04  0.10961426910E+04  0.50400001928E-02 0.  1.
       -1   -1    0    0    0  501  0.00000000000E+00  0.00000000000E+00 -0.23238581752E+03  0.23238581758E+03  0.50400001928E-02 0. -1.
    10030    2    1    2    0    0  0.00000000000E+00  0.00000000000E+00  0.86375687346E+03  0.13285285086E+04  0.10094117404E+04 0.  0.
        1    1    3    3  502    0  0.70173405636E+02 -0.41431689983E+02  0.10874266507E+04  0.10904758651E+04  0.50400001928E-02 0.  1.
       -1    1    3    3    0  502 -0.70173405636E+02  0.41431689983E+02 -0.22366977721E+03  0.23805264345E+03  0.50400001928E-02 0. -1.
</event>
<event>
 5   0  0.5888774E-04  0.1001836E+04  0.7818609E-02  0.9306533E-01
       -1   -1    0    0    0  501  0.00000000000E+00  0.00000000000E+00  0.17074520625E+03  0.17074520633E+03  0.50400001928E-02 0.  1.
        1   -1    0    0  501    0  0.00000000000E+00  0.00000000000E+00 -0.14695524941E+04  0.14695524941E+04  0.50400001928E-02 0. -1.
    10030    2    1    2    0    0  0.00000000000E+00  0.00000000000E+00 -0.12988072878E+04  0.16402977004E+04  0.10018364013E+04 0.  0.
        2    1    3    3  502    0 -0.38506866495E+03 -0.41685325740E+02 -0.11694942208E+04  0.12319627736E+04  0.25500000920E-02 0. -1.
       -2    1    3    3    0  502  0.38506866495E+03  0.41685325740E+02 -0.12931306699E+03  0.40833492675E+03  0.25500000920E-02 0.  1.
</event>
<event>
 5   0  0.9674819E-04  0.1002433E+04  0.7818609E-02  0.9305880E-01
       -2   -1    0    0    0  501  0.00000000000E+00  0.00000000000E+00  0.28554720610E+03  0.28554720612E+03  0.25500000920E-02 0.  1.
        2   -1    0    0  501    0  0.00000000000E+00  0.00000000000E+00 -0.87977747530E+03  0.87977747531E+03  0.25500000920E-02 0. -1.
    10030    2    1    2    0    0  0.00000000000E+00  0.00000000000E+00 -0.59423026920E+03  0.11653246814E+04  0.10024330403E+04 0.  0.
        4    1    3    3  502    0  0.22345052211E+03  0.14807436707E+03  0.19521299711E+03  0.33161103895E+03  0.12699999809E+01 0.  1.
       -4    1    3    3    0  502 -0.22345052211E+03 -0.14807436707E+03 -0.78944326631E+03  0.83371364247E+03  0.12699999809E+01 0. -1.
</event>
<event>
 5   0  0.3854625E-04  0.9968408E+03  0.7818609E-02  0.9312017E-01
        4   -1    0    0  501    0  0.00000000000E+00  0.00000000000E+00  0.68072194672E+03  0.68072313141E+03  0.12699999809E+01 0. -1.
       -4   -1    0    0    0  501  0.00000000000E+00  0.00000000000E+00 -0.36493774747E+03  0.36493995729E+03  0.12699999809E+01 0.  1.
    10030    2    1    2    0    0  0.00000000000E+00  0.00000000000E+00  0.31578419925E+03  0.10456630887E+04  0.99684082711E+03 0.  0.
        2    1    3    3  502    0  0.32459673675E+03 -0.49088744257E+02 -0.23550946236E+03  0.40402655011E+03  0.25500000920E-02 0.  1.
       -2    1    3    3    0  502 -0.32459673675E+03  0.49088744257E+02  0.55129366161E+03  0.64163653860E+03  0.25500000920E-02 0. -1.
</event>
<event>
 5   0  0.9674819E-04  0.1004091E+04  0.7818609E-02  0.9304069E-01
       -2   -1    0    0    0  501  0.00000000000E+00  0.00000000000E+00  0.54855796557E+03  0.54855796558E+03  0.25500000920E-02 0.  1.
        2   -1    0    0  501    0  0.00000000000E+00  0.00000000000E+00 -0.45947666661E+03  0.45947666662E+03  0.25500000920E-02 0. -1.
    10030    2    1    2    0    0  0.00000000000E+00  0.00000000000E+00  0.89081298960E+02  0.10080346322E+04  0.10040908036E+04 0.  0.
        4    1    3    3  502    0  0.10037626455E+03 -0.38466051752E+03  0.35235358509E+03  0.53121913562E+03  0.12699999809E+01 0.  1.
       -4    1    3    3    0  502 -0.10037626455E+03  0.38466051752E+03 -0.26327228613E+03  0.47681549657E+03  0.12699999809E+01 0. -1.
</event>
<event>
 5   0  0.1006749E-03  0.1000638E+04  0.7818609E-02  0.9307846E-01
        2   -1    0    0  501    0  0.00000000000E+00  0.00000000000E+00  0.12741931889E+04  0.12741931889E+04  0.25500000920E-02 0. -1.
       -2   -1    0    0    0  501  0.00000000000E+00  0.00000000000E+00 -0.19645294108E+03  0.19645294110E+03  0.25500000920E-02 0.  1.
    10030    2    1    2    0    0  0.00000000000E+00  0.00000000000E+00  0.10777402478E+04  0.14706461300E+04  0.10006377956E+04 0.  0.
        1    1    3    3  502    0  0.16588019098E+03 -0.32067089628E+03  0.29805487314E+02  0.36226292741E+03  0.50400001928E-02 0.  1.
       -1    1    3    3    0  502 -0.16588019098E+03  0.32067089628E+03  0.10479347605E+04  0.11083832026E+04  0.50400001928E-02 0. -1.
</event>
<event>
 5   0  0.1020150E-03  0.1000076E+04  0.7818609E-02  0.9308462E-01
        2   -1    0    0  501    0  0.00000000000E+00  0.00000000000E+00  0.11663402345E+04  0.11663402345E+04  0.25500000920E-02 0.  1.
       -2   -1    0    0    0  501  0.00000000000E+00  0.00000000000E+00 -0.21437807161E+03  0.21437807162E+03  0.25500000920E-02 0. -1.
    10030    2    1    2    0    0  0.00000000000E+00  0.00000000000E+00  0.95196216292E+03  0.13807183062E+04  0.10000755378E+04 0.  0.
        5    1    3    3  502    0 -0.39605894470E+03  0.58072981132E+02  0.88965995335E+03  0.97557781925E+03  0.46999998093E+01 0.  1.
       -5    1    3    3    0  502  0.39605894470E+03 -0.58072981132E+02  0.62302209562E+02  0.40514048690E+03  0.46999998093E+01 0. -1.
</event>
<event>
 5   0  0.9741826E-04  0.1000330E+04  0.7818609E-02  0.9308183E-01
        2   -1    0    0  501    0  0.00000000000E+00  0.00000000000E+00  0.87284122986E+03  0.87284122986E+03  0.25500000920E-02 0. -1.
       -2   -1    0    0    0  501  0.00000000000E+00  0.00000000000E+00 -0.28660994017E+03  0.28660994018E+03  0.25500000920E-02 0.  1.
    10030    2    1    2    0    0  0.00000000000E+00  0.00000000000E+00  0.58623128968E+03  0.11594511700E+04  0.10003298909E+04 0.  0.
        3    1    3    3  502    0 -0.71878061702E+02  0.35255512317E+03 -0.10957260196E+03  0.37612196949E+03  0.10100000352E+00 0.  1.
       -3    1    3    3    0  502  0.71878061702E+02 -0.35255512317E+03  0.69580389164E+03  0.78332920056E+03  0.10100000352E+00 0. -1.
</event>
<event>
 5   0  0.9674819E-04  0.9999778E+03  0.7818609E-02  0.9308569E-01
       -2   -1    0    0    0  501  0.00000000000E+00  0.00000000000E+00  0.21928966543E+03  0.21928966545E+03  0.25500000920E-02 0. -1.
        2   -1    0    0  501    0  0.00000000000E+00  0.00000000000E+00 -0.11399939205E+04  0.11399939205E+04  0.25500000920E-02 0.  1.
    10030    2    1    2    0    0  0.00000000000E+00  0.00000000000E+00 -0.92070425507E+03  0.13592835860E+04  0.99997777062E+03 0.  0.
        4    1    3    3  502    0 -0.40771136482E+03  0.28778041741E+03 -0.41865093905E+03  0.65139569181E+03  0.12699999809E+01 0. -1.
       -4    1    3    3    0  502  0.40771136482E+03 -0.28778041741E+03 -0.50205331603E+03  0.70788789414E+03  0.12699999809E+01 0.  1.
</event>
<event>
 5   0  0.5758786E-04  0.9996438E+03  0.7818609E-02  0.9308936E-01
       -1   -1    0    0    0  501  0.00000000000E+00  0.00000000000E+00  0.35267213758E+03  0.35267213762E+03  0.50400001928E-02 0. -1.
        1   -1    0    0  501    0  0.00000000000E+00  0.00000000000E+00 -0.70836878459E+03  0.70836878461E+03  0.50400001928E-02 0.  1.
    10030    2    1    2    0    0  0.00000000000E+00  0.00000000000E+00 -0.35569664701E+03  0.10610409222E+04  0.99964380354E+03 0.  0.
        3    1    3    3  502    0 -0.43130929473E+03  0.23381619965E+03 -0.76460859028E+02  0.49653196886E+03  0.10100000352E+00 0. -1.
       -3    1    3    3    0  502  0.43130929473E+03 -0.23381619965E+03 -0.27923578798E+03  0.56450895337E+03  0.10100000352E+00 0.  1.
</event>
<event>
 5   0  0.5888774E-04  0.9994537E+03  0.7818609E-02  0.9309144E-01
        1   -1    0    0  501    0  0.00000000000E+00  0.00000000000E+00  0.19113556003E+04  0.19113556003E+04  0.50400001928E-02 0.  1.
       -1   -1    0    0    0  501  0.00000000000E+00  0.00000000000E+00 -0.13065435358E+03  0.13065435368E+03  0.50400001928E-02 0. -1.
    10030    2    1    2    0    0  0.00000000000E+00  0.00000000000E+00  0.17807012467E+04  0.20420099540E+04  0.99945371185E+03 0.  0.
        2    1    3    3  502    0 -0.90458935256E+01  0.45527597300E+03  0.46979957832E+03  0.65427034441E+03  0.25500000920E-02 0. -1.
       -2    1    3    3    0  502  0.90458935256E+01 -0.45527597300E+03  0.13109016684E+04  0.13877396096E+04  0.25500000920E-02 0.  1.
</event>
<event>
 5   0  0.5758786E-04  0.9848500E+03  0.7818609E-02  0.9325319E-01
       -1   -1    0    0    0  501  0.00000000000E+00  0.00000000000E+00  0.27315279633E+03  0.27315279638E+03  0.50400001928E-02 0.  1.
        1   -1    0    0  501    0  0.00000000000E+00  0.00000000000E+00 -0.88771700467E+03  0.88771700468E+03  0.50400001928E-02 0. -1.
    10030    2    1    2    0    0  0.00000000000E+00  0.00000000000E+00 -0.61456420834E+03  0.11608698011E+04  0.98485000322E+03 0.  0.
        3    1    3    3  502    0 -0.21015228974E+02  0.32231549579E+03  0.13083912304E+03  0.34849362261E+03  0.10100000352E+00 0.  1.
       -3    1    3    3    0  502  0.21015228974E+02 -0.32231549579E+03 -0.74540333138E+03  0.81237617845E+03  0.10100000352E+00 0. -1.
</event>
<event>
 5   0  0.9674819E-04  0.1002225E+04  0.7818609E-02  0.9306107E-01
        2   -1    0    0  501    0  0.00000000000E+00  0.00000000000E+00  0.52271202429E+03  0.52271202430E+03  0.25500000920E-02 0.  1.
       -2   -1    0    0    0  501  0.00000000000E+00  0.00000000000E+00 -0.48040592652E+03  0.48040592653E+03  0.25500000920E-02 0. -1.
    10030    2    1    2    0    0  0.00000000000E+00  0.00000000000E+00  0.42306097771E+02  0.10031179508E+04  0.10022254324E+04 0.  0.
        4    1    3    3  502    0 -0.46073794258E+02 -0.86080610993E+02  0.51309830804E+03  0.52230656967E+03  0.12699999809E+01 0.  1.
       -4    1    3    3    0  502  0.46073794258E+02  0.86080610993E+02 -0.47079221027E+03  0.48081138116E+03  0.12699999809E+01 0. -1.
</event>
<event>
 5   0  0.5826939E-04  0.1000199E+04  0.7818609E-02  0.9308327E-01
       -1   -1    0    0    0  501  0.00000000000E+00  0.00000000000E+00  0.97096787571E+03  0.97096787572E+03  0.50400001928E-02 0. -1.
        1   -1    0    0  501    0  0.00000000000E+00  0.00000000000E+00 -0.25757750105E+03  0.25757750110E+03  0.50400001928E-02 0.  1.
    10030    2    1    2    0    0  0.00000000000E+00  0.00000000000E+00  0.71339037466E+03  0.12285453768E+04  0.10001989383E+04 0.  0.
        1    1    3    3  502    0 -0.21285195005E+03  0.57289419468E+02 -0.19468946757E+03  0.29409525503E+03  0.50400001928E-02 0.  1.
       -1    1    3    3    0  502  0.21285195005E+03 -0.57289419468E+02  0.90807984223E+03  0.93445012179E+03  0.50400001928E-02 0. -1.
</event>
<event>
 5   0  0.5960102E-04  0.1000249E+04  0.7818609E-02  0.9308272E-01
       -1   -1    0    0    0  501  0.00000000000E+00  0.00000000000E+00  0.80975773946E+03  0.80975773948E+03  0.50400001928E-02 0. -1.
        1   -1    0    0  501    0  0.00000000000E+00  0.00000000000E+00 -0.30888779975E+03  0.30888779979E+03  0.50400001928E-02 0.  1.
    10030    2    1    2    0    0  0.00000000000E+00  0.00000000000E+00  0.50086993971E+03  0.11186455393E+04  0.10002485421E+04 0.  0.
        5    1    3    3  502    0  0.11797556152E+03 -0.48225465773E+03  0.31767117364E+03  0.58942756347E+03  0.46999998093E+01 0.  1.
       -5    1    3    3    0  502 -0.11797556152E+03  0.48225465773E+03  0.18319876608E+03  0.52921797580E+03  0.46999998093E+01 0. -1.
</event>
<event>
 5   0  0.5826939E-04  0.9988846E+03  0.7818609E-02  0.9309769E-01
       -1   -1    0    0    0  501  0.00000000000E+00  0.00000000000E+00  0.51603762948E+03  0.51603762951E+03  0.50400001928E-02 0.  1.
        1   -1    0    0  501    0  0.00000000000E+00  0.00000000000E+00 -0.48338063643E+03  0.48338063645E+03  0.50400001928E-02 0. -1.
    10030    2    1    2    0    0  0.00000000000E+00  0.00000000000E+00  0.32656993053E+02  0.99941826596E+03  0.99888457348E+03 0.  0.
        1    1    3    3  502    0 -0.19718944517E+03 -0.32504242894E+03 -0.30773703742E+03  0.48911996701E+03  0.50400001928E-02 0. -1.
       -1    1    3    3    0  502  0.19718944517E+03  0.32504242894E+03  0.34039403048E+03  0.51029829895E+03  0.50400001928E-02 0.  1.
</event>
<event>
 5   0  0.5888774E-04  0.9985477E+03  0.7818609E-02  0.9310139E-01
        1   -1    0    0  501    0  0.00000000000E+00  0.00000000000E+00  0.33003401127E+03  0.33003401130E+03  0.50400001928E-02 0. -1.
       -1   -1    0    0    0  501  0.00000000000E+00  0.00000000000E+00 -0.75529899774E+03  0.75529899775E+03  0.50400001928E-02 0.  1.
    10030    2    1    2    0    0  0.00000000000E+00  0.00000000000E+00 -0.42526498647E+03  0.10853330091E+04  0.99854766127E+03 0.  0.
        2    1    3    3  502    0  0.32479339249E+03 -0.37903668405E+03 -0.20098668871E+03  0.53810334017E+03  0.25500000920E-02 0. -1.
       -2    1    3    3    0  502 -0.32479339249E+03  0.37903668405E+03 -0.22427829776E+03  0.54722966889E+03  0.25500000920E-02 0.  1.
</event>
<event>
 5   0  0.1020150E-03  0.9991604E+03  0.7818609E-02  0.9309466E-01
        2   -1    0    0  501    0  0.00000000000E+00  0.00000000000E+00  0.83803286379E+03  0.83803286380E+03  0.25500000920E-02 0. -1.
       -2   -1    0    0    0  501  0.00000000000E+00  0.00000000000E+00 -0.29781695892E+03  0.29781695893E+03  0.25500000920E-02 0.  1.
    10030    2    1    2    0    0  0.00000000000E+00  0.00000000000E+00  0.54021590487E+03  0.11358498227E+04  0.99916044553E+03 0.  0.
        5    1    3    3  502    0  0.16470912346E+03  0.24394544453E+03 -0.18874408104E+03  0.34969256981E+03  0.46999998093E+01 0.  1.
       -5    1    3    3    0  502 -0.16470912346E+03 -0.24394544453E+03  0.72895998591E+03  0.78615725292E+03  0.46999998093E+01 0. -1.
</event>
<event>
 5   0  0.9674819E-04  0.9982893E+03  0.7818609E-02  0.9310423E-01
       -2   -1    0    0    0  501  0.00000000000E+00  0.00000000000E+00  0.20087624262E+03  0.20087624263E+03  0.25500000920E-02 0.  1.
        2   -1    0    0  501    0  0.00000000000E+00  0.00000000000E+00 -0.12402929844E+04  0.12402929844E+04  0.25500000920E-02 0. -1.
    10030    2    1    2    0    0  0.00000000000E+00  0.00000000000E+00 -0.10394167418E+04  0.14411692271E+04  0.99828932574E+03 0.  0.
        4    1    3    3  502    0  0.46273705433E+03  0.71582131143E+02 -0.76931264090E+03  0.90060709264E+03  0.12699999809E+01 0. -1.
       -4    1    3    3    0  502 -0.46273705433E+03 -0.71582131143E+02 -0.27010410091E+03  0.54056213443E+03  0.12699999809E+01 0.  1.
</event>
<event>
 5   0  0.5758786E-04  0.1000092E+04  0.7818609E-02  0.9308444E-01
        1   -1    0    0  501    0  0.00000000000E+00  0.00000000000E+00  0.51109056754E+03  0.51109056756E+03  0.50400001928E-02 0. -1.
       -1   -1    0    0    0  501  0.00000000000E+00  0.00000000000E+00 -0.48923982950E+03  0.48923982953E+03  0.50400001928E-02 0.  1.
    10030    2    1    2    0    0  0.00000000000E+00  0.00000000000E+00  0.21850738040E+02  0.10003303971E+04  0.10000917201E+04 0.  0.
        3    1    3    3  502    0 -0.16742230158E+03  0.18423699552E+03  0.44470196351E+03  0.50964040670E+03  0.10100000352E+00 0. -1.
       -3    1    3    3    0  502  0.16742230158E+03 -0.18423699552E+03 -0.42285122547E+03  0.49068999039E+03  0.10100000352E+00 0.  1.
</event>
<event>
 5   0  0.5888774E-04  0.9958919E+03  0.7818609E-02  0.9313062E-01
       -1   -1    0    0    0  501  0.00000000000E+00  0.00000000000E+00  0.18440407378E+03  0.18440407385E+03  0.50400001928E-02 0.  1.
        1   -1    0    0  501    0  0.00000000000E+00  0.00000000000E+00 -0.13446023495E+04  0.13446023495E+04  0.50400001928E-02 0. -1.
    10030    2    1    2    0    0  0.00000000000E+00  0.00000000000E+00 -0.11601982757E+04  0.15290064233E+04  0.99589186344E+03 0.  0.
        2    1    3    3  502    0  0.25009222590E+03 -0.30380558521E+03 -0.11162414093E+03  0.40902799892E+03  0.25500000920E-02 0.  1.
       -2    1    3    3    0  502 -0.25009222590E+03  0.30380558521E+03 -0.10485741347E+04  0.11199784244E+04  0.25500000920E-02 0. -1.
</event>
<event>
 5   0  0.9674819E-04  0.9703357E+03  0.7818609E-02  0.9341692E-01
       -2   -1    0    0    0  501  0.00000000000E+00  0.00000000000E+00  0.10715872210E+03  0.10715872213E+03  0.25500000920E-02 0.  1.
        2   -1    0    0  501    0  0.00000000000E+00  0.00000000000E+00 -0.21966279023E+04  0.21966279023E+04  0.25500000920E-02 0. -1.
    10030    2    1    2    0    0  0.00000000000E+00  0.00000000000E+00 -0.20894691802E+04  0.23037866244E+04  0.97033569235E+03 0.  0.
        4    1    3    3  502    0 -0.61339064854E+02  0.27966919190E+03 -0.11481476352E+03  0.30848238297E+03  0.12699999809E+01 0.  1.
       -4    1    3    3    0  502  0.61339064854E+02 -0.27966919190E+03 -0.19746544166E+04  0.19953042414E+04  0.12699999809E+01 0. -1.
</event>
<event>
 5   0  0.5826939E-04  0.9940859E+03  0.7818609E-02  0.9315055E-01
       -1   -1    0    0    0  501  0.00000000000E+00  0.00000000000E+00  0.36858681091E+03  0.36858681095E+03  0.50400001928E-02 0. -1.
        1   -1    0    0  501    0  0.00000000000E+00  0.00000000000E+00 -0.67026732112E+03  0.67026732114E+03  0.50400001928E-02 0.  1.
    10030    2    1    2    0    0  0.00000000000E+00  0.00000000000E+00 -0.30168051020E+03  0.10388541321E+04  0.99408590047E+03 0.  0.
        1    1    3    3  502    0  0.18659843258E+02  0.27735421988E+03  0.27975728537E+03  0.39438267175E+03  0.50400001928E-02 0. -1.
       -1    1    3    3    0  502 -0.18659843258E+02 -0.27735421988E+03 -0.58143779558E+03  0.64447146033E+03  0.50400001928E-02 0.  1.
</event>
<event>
 5   0  0.1006749E-03  0.9853992E+03  0.7818609E-02  0.9324705E-01
        2   -1    0    0  501    0  0.00000000000E+00  0.00000000000E+00  0.91014833715E+03  0.91014833715E+03  0.25500000920E-02 0.  1.
       -2   -1    0    0    0  501  0.00000000000E+00  0.00000000000E+00 -0.26671793057E+03  0.26671793058E+03  0.25500000920E-02 0. -1.
    10030    2    1    2    0    0  0.00000000000E+00  0.00000000000E+00  0.64343040658E+03  0.11768662677E+04  0.98539916989E+03 0.  0.
        1    1    3    3  502    0 -0.37537543119E+03 -0.11373915759E+03  0.67782931142E+03  0.78313209981E+03  0.50400001928E-02 0.  1.
       -1    1    3    3    0  502  0.37537543119E+03  0.11373915759E+03 -0.34398904843E+02  0.39373416792E+03  0.50400001928E-02 0. -1.
</event>
<event>
 5   0  0.5826939E-04  0.1000283E+04  0.7818609E-02  0.9308235E-01
       -1   -1    0    0    0  501  0.00000000000E+00  0.00000000000E+00  0.99273559711E+02  0.99273559839E+02  0.50400001928E-02 0. -1.
        1   -1    0    0  501    0  0.00000000000E+00  0.00000000000E+00 -0.25197191253E+04  0.25197191253E+04  0.50400001928E-02 0.  1.
    10030    2    1    2    0    0  0.00000000000E+00  0.00000000000E+00 -0.24204455656E+04  0.26189926852E+04  0.10002829344E+04 0.  0.
        1    1    3    3  502    0 -0.25385415378E+03  0.35891246918E+03 -0.18346711673E+04  0.18866049889E+04  0.50400001928E-02 0.  1.
       -1    1    3    3    0  502  0.25385415378E+03 -0.35891246918E+03 -0.58577439831E+03  0.73238769628E+03  0.50400001928E-02 0. -1.
</event>
<event>
 5   0  0.5826939E-04  0.1001576E+04  0.7818609E-02  0.9306818E-01
        1   -1    0    0  501    0  0.00000000000E+00  0.00000000000E+00  0.71168519800E+03  0.71168519802E+03  0.50400001928E-02 0. -1.
       -1   -1    0    0    0  501  0.00000000000E+00  0.00000000000E+00 -0.35238667370E+03  0.35238667374E+03  0.50400001928E-02 0.  1.
    10030    2    1    2    0    0  0.00000000000E+00  0.00000000000E+00  0.35929852430E+03  0.10640718718E+04  0.10015755182E+04 0.  0.
        1    1    3    3  502    0  0.31474809971E+03  0.28591625039E+01 -0.23415967014E+03  0.39230764998E+03  0.50400001928E-02 0.  1.
       -1    1    3    3    0  502 -0.31474809971E+03 -0.28591625039E+01  0.59345819444E+03  0.67176422178E+03  0.50400001928E-02 0. -1.
</event>
<event>
 5   0  0.9741826E-04  0.1000397E+04  0.7818609E-02  0.9308110E-01
       -2   -1    0    0    0  501  0.00000000000E+00  0.00000000000E+00  0.11448877530E+03  0.11448877533E+03  0.25500000920E-02 0. -1.
        2   -1    0    0  501    0  0.00000000000E+00  0.00000000000E+00 -0.21853534810E+04  0.21853534810E+04  0.25500000920E-02 0.  1.
    10030    2    1    2    0    0  0.00000000000E+00  0.00000000000E+00 -0.20708647057E+04  0.22998422563E+04  0.10003968086E+04 0.  0.
        3    1    3    3  502    0  0.12739756463E+03 -0.28376504895E+03 -0.13489216151E+03  0.33904077619E+03  0.10100000352E+00 0. -1.
       -3    1    3    3    0  502 -0.12739756463E+03  0.28376504895E+03 -0.19359725442E+04  0.19608014801E+04  0.10100000352E+00 0.  1.
</event>
<event>
 5   0  0.5960102E-04  0.9992087E+03  0.7818609E-02  0.9309413E-01
       -1   -1    0    0    0  501  0.00000000000E+00  0.00000000000E+00  0.83142536909E+03  0.83142536911E+03  0.50400001928E-02 0. -1.
        1   -1    0    0  501    0  0.00000000000E+00  0.00000000000E+00 -0.30021275022E+03  0.30021275027E+03  0.50400001928E-02 0.  1.
    10030    2    1    2    0    0  0.00000000000E+00  0.00000000000E+00  0.53121261887E+03  0.11316381194E+04  0.99920868029E+03 0.  0.
        5    1    3    3  502    0  0.43059719896E+03  0.20904170516E+03  0.42764195016E+03  0.64188169454E+03  0.46999998093E+01 0. -1.
       -5    1    3    3    0  502 -0.43059719896E+03 -0.20904170516E+03  0.10357066871E+03  0.48975642483E+03  0.46999998093E+01 0.  1.
</event>
<event>
 5   0  0.9741826E-04  0.9996527E+03  0.7818609E-02  0.9308926E-01
       -2   -1    0    0    0  501  0.00000000000E+00  0.00000000000E+00  0.61421317430E+03  0.61421317431E+03  0.25500000920E-02 0. -1.
        2   -1    0    0  501    0  0.00000000000E+00  0.00000000000E+00 -0.40674209941E+03  0.40674209942E+03  0.25500000920E-02 0.  1.
    10030    2    1    2    0    0  0.00000000000E+00  0.00000000000E+00  0.20747107489E+03  0.10209552737E+04  0.99965265169E+03 0.  0.
        3    1    3    3  502    0 -0.18465615368E+03 -0.25467942810E+03  0.50042849527E+03  0.59109068278E+03  0.10100000352E+00 0. -1.
       -3    1    3    3    0  502  0.18465615368E+03  0.25467942810E+03 -0.29295742038E+03  0.42986459094E+03  0.10100000352E+00 0.  1.
</event>
<event>
 5   0  0.9674819E-04  0.1002930E+04  0.7818609E-02  0.9305337E-01
       -2   -1    0    0    0  501  0.00000000000E+00  0.00000000000E+00  0.28675011540E+03  0.28675011541E+03  0.25500000920E-02 0.  1.
        2   -1    0    0  501    0  0.00000000000E+00  0.00000000000E+00 -0.87695513352E+03  0.87695513353E+03  0.25500000920E-02 0. -1.
    10030    2    1    2    0    0  0.00000000000E+00  0.00000000000E+00 -0.59020501812E+03  0.11637052489E+04  0.10029296800E+04 0.  0.
        4    1    3    3  502    0 -0.27734629628E+03  0.29381851600E+03  0.49520235343E+02  0.40706775236E+03  0.12699999809E+01 0.  1.
       -4    1    3    3    0  502  0.27734629628E+03 -0.29381851600E+03 -0.63972525346E+03  0.75663749658E+03  0.12699999809E+01 0. -1.
</event>
<event>
 5   0  0.9741826E-04  0.1001804E+04  0.7818609E-02  0.9306568E-01
        2   -1    0    0  501    0  0.00000000000E+00  0.00000000000E+00  0.48134098871E+03  0.48134098871E+03  0.25500000920E-02 0.  1.
       -2   -1    0    0    0  501  0.00000000000E+00  0.00000000000E+00 -0.52125829691E+03  0.52125829691E+03  0.25500000920E-02 0. -1.
    10030    2    1    2    0    0  0.00000000000E+00  0.00000000000E+00 -0.39917308198E+02  0.10025992856E+04  0.10018043402E+04 0.  0.
        3    1    3    3  502    0 -0.15086133028E+03 -0.23450830191E+03 -0.43640143706E+03  0.51787982111E+03  0.10100000352E+00 0. -1.
       -3    1    3    3    0  502  0.15086133028E+03  0.23450830191E+03  0.39648412887E+03  0.48471946452E+03  0.10100000352E+00 0.  1.
</event>
<event>
 5   0  0.1006749E-03  0.9961693E+03  0.7818609E-02  0.9312756E-01
        2   -1    0    0  501    0  0.00000000000E+00  0.00000000000E+00  0.65454733382E+03  0.65454733383E+03  0.25500000920E-02 0. -1.
       -2   -1    0    0    0  501  0.00000000000E+00  0.00000000000E+00 -0.37902275162E+03  0.37902275163E+03  0.25500000920E-02 0.  1.
    10030    2    1    2    0    0  0.00000000000E+00  0.00000000000E+00  0.27552458220E+03  0.10335700855E+04  0.99616932605E+03 0.  0.
        1    1    3    3  502    0 -0.28064819785E+03 -0.55272898384E+02  0.56083351711E+03  0.62956551541E+03  0.50400001928E-02 0. -1.
       -1    1    3    3    0  502  0.28064819785E+03  0.55272898384E+02 -0.28530893491E+03  0.40400457005E+03  0.50400001928E-02 0.  1.
</event>
<event>
 5   0  0.5888774E-04  0.1016946E+04  0.7818609E-02  0.9290152E-01
       -1   -1    0    0    0  501  0.00000000000E+00  0.00000000000E+00  0.26106010596E+03  0.26106010601E+03  0.50400001928E-02 0.  1.
        1   -1    0    0  501    0  0.00000000000E+00  0.00000000000E+00 -0.99036410401E+03  0.99036410403E+03  0.50400001928E-02 0. -1.
    10030    2    1    2    0    0  0.00000000000E+00  0.00000000000E+00 -0.72930399806E+03  0.12514242100E+04  0.10169455403E+04 0.  0.
        2    1    3    3  502    0 -0.22164450099E+02 -0.25094100268E+03  0.17886778141E+03  0.30896008303E+03  0.25500000920E-02 0.  1.
       -2    1    3    3    0  502  0.22164450099E+02  0.25094100268E+03 -0.90817177946E+03  0.94246412700E+03  0.25500000920E-02 0. -1.
</event>
<event>
 5   0  0.5768102E-04  0.9993168E+03  0.7818609E-02  0.9309294E-01
        1   -1    0    0  501    0  0.00000000000E+00  0.00000000000E+00  0.51869962504E+03  0.51869962506E+03  0.50400001928E-02 0.  1.
       -1   -1    0    0    0  501  0.00000000000E+00  0.00000000000E+00 -0.48131618800E+03  0.48131618803E+03  0.50400001928E-02 0. -1.
    10030    2    1    2    0    0  0.00000000000E+00  0.00000000000E+00  0.37383437036E+02  0.10000158131E+04  0.99931681917E+03 0.  0.
        4    1    3    3  502    0 -0.14391966762E+03 -0.20048682856E+03  0.45344822033E+03  0.51626034186E+03  0.12699999809E+01 0.  1.
       -4    1    3    3    0  502  0.14391966762E+03  0.20048682856E+03 -0.41606478329E+03  0.48375547124E+03  0.12699999809E+01 0. -1.
</event>
<event>
 5   0  0.1020150E-03  0.1001145E+04  0.7818609E-02  0.9307290E-01
        2   -1    0    0  501    0  0.00000000000E+00  0.00000000000E+00  0.11295757410E+04  0.11295757410E+04  0.25500000920E-02 0.  1.
       -2   -1    0    0    0  501  0.00000000000E+00  0.00000000000E+00 -0.22182897522E+03  0.22182897524E+03  0.25500000920E-02 0. -1.
    10030    2    1    2    0    0  0.00000000000E+00  0.00000000000E+00  0.90774676574E+03  0.13514047162E+04  0.10011446031E+04 0.  0.
        5    1    3    3  502    0 -0.23811451019E+03  0.57680905289E+02 -0.13532904489E+03  0.27993150445E+03  0.46999998093E+01 0. -1.
       -5    1    3    3    0  502  0.23811451019E+03 -0.57680905289E+02  0.10430758106E+04  0.10714732118E+04  0.46999998093E+01 0.  1.
</event>
<event>
 5   0  0.5826939E-04  0.1000343E+04  0.7818609E-02  0.9308168E-01
       -1   -1    0    0    0  501  0.00000000000E+00  0.00000000000E+00  0.67864756962E+03  0.67864756964E+03  0.50400001928E-02 0. -1.
        1   -1    0    0  501    0  0.00000000000E+00  0.00000000000E+00 -0.36863263271E+03  0.36863263275E+03  0.50400001928E-02 0.  1.
    10030    2    1    2    0    0  0.00000000000E+00  0.00000000000E+00  0.31001493691E+03  0.10472802024E+04  0.10003432217E+04 0.  0.
        1    1    3    3  502    0  0.14077739583E+03  0.15718087974E+03  0.62976910188E+03  0.66417860989E+03  0.50400001928E-02 0. -1.
       -1    1    3    3    0  502 -0.14077739583E+03 -0.15718087974E+03 -0.31975416497E+03  0.38310159249E+03  0.50400001928E-02 0.  1.
</event>
<event>
 5   0  0.5768102E-04  0.9979737E+03  0.7818609E-02  0.9310770E-01
       -1   -1    0    0    0  501  0.00000000000E+00  0.00000000000E+00  0.68063355952E+03  0.68063355953E+03  0.50400001928E-02 0. -1.
        1   -1    0    0  501    0  0.00000000000E+00  0.00000000000E+00 -0.36581778551E+03  0.36581778554E+03  0.50400001928E-02 0.  1.
    10030    2    1    2    0    0  0.00000000000E+00  0.00000000000E+00  0.31481577400E+03  0.10464513451E+04  0.99797367002E+03 0.  0.
        4    1    3    3  502    0  0.19265521501E+03 -0.21912146541E+03  0.58186237685E+03  0.65091910939E+03  0.12699999809E+01 0. -1.
       -4    1    3    3    0  502 -0.19265521501E+03  0.21912146541E+03 -0.26704660285E+03  0.39553223569E+03  0.12699999809E+01 0.  1.
</event>
<event>
 5   0  0.5960102E-04  0.9999805E+03  0.7818609E-02  0.9308566E-01
       -1   -1    0    0    0  501  0.00000000000E+00  0.00000000000E+00  0.17598407201E+03  0.17598407208E+03  0.50400001928E-02 0. -1.
        1   -1    0    0  501    0  0.00000000000E+00  0.00000000000E+00 -0.14205277275E+04  0.14205277276E+04  0.50400001928E-02 0.  1.
    10030    2    1    2    0    0  0.00000000000E+00  0.00000000000E+00 -0.12445436555E+04  0.15965117996E+04  0.99998050773E+03 0.  0.
        5    1    3    3  502    0  0.55590076141E+02 -0.41968287611E+03 -0.19762685192E+03  0.46722846196E+03  0.46999998093E+01 0. -1.
       -5    1    3    3    0  502 -0.55590076141E+02  0.41968287611E+03 -0.10469168036E+04  0.11292833377E+04  0.46999998093E+01 0.  1.
</event>
<event>
 5   0  0.9674819E-04  0.9998960E+03  0.7818609E-02  0.9308659E-01
        2   -1    0    0  501    0  0.00000000000E+00  0.00000000000E+00  0.26734891201E+04  0.26734891201E+04  0.25500000920E-02 0. -1.
       -2   -1    0    0    0  501  0.00000000000E+00  0.00000000000E+00 -0.93491307585E+02  0.93491307619E+02  0.25500000920E-02 0.  1.
    10030    2    1    2    0    0  0.00000000000E+00  0.00000000000E+00  0.25799978125E+04  0.27669804277E+04  0.99989598199E+03 0.  0.
        4    1    3    3  502    0 -0.45124455371E+03  0.11863850481E+02  0.69530025382E+03  0.82897916383E+03  0.12699999809E+01 0.  1.
       -4    1    3    3    0  502  0.45124455371E+03 -0.11863850481E+02  0.18846975587E+04  0.19380012639E+04  0.12699999809E+01 0. -1.
</event>
<event>
 5   0  0.5826939E-04  0.9975533E+03  0.7818609E-02  0.9311232E-01
        1   -1    0    0  501    0  0.00000000000E+00  0.00000000000E+00  0.14751294362E+03  0.14751294371E+03  0.50400001928E-02 0. -1.
       -1   -1    0    0    0  501  0.00000000000E+00  0.00000000000E+00 -0.16864834827E+04  0.16864834827E+04  0.50400001928E-02 0.  1.
    10030    2    1    2    0    0  0.00000000000E+00  0.00000000000E+00 -0.15389705391E+04  0.18339964264E+04  0.99755329280E+03 0.  0.
        1    1    3    3  502    0 -0.45816966826E+03  0.88840538191E+02 -0.10930083967E+04  0.11884777833E+04  0.50400001928E-02 0.  1.
       -1    1    3    3    0  502  0.45816966826E+03 -0.88840538191E+02 -0.44596214237E+03  0.64551864311E+03  0.50400001928E-02 0. -1.
</event>
<event>
 5   0  0.1006006E-03  0.9774120E+03  0.7818609E-02  0.9333672E-01
       -2   -1    0    0    0  501  0.00000000000E+00  0.00000000000E+00  0.71737387685E+03  0.71737387685E+03  0.25500000920E-02 0. -1.
        2   -1    0    0  501    0  0.00000000000E+00  0.00000000000E+00 -0.33292755575E+03  0.33292755576E+03  0.25500000920E-02 0.  1.
    10030    2    1    2    0    0  0.00000000000E+00  0.00000000000E+00  0.38444632110E+03  0.10503014326E+04  0.97741195283E+03 0.  0.
        2    1    3    3  502    0  0.17021026590E+03  0.45804086585E+03  0.20058566405E+03  0.52821167919E+03  0.25500000920E-02 0. -1.
       -2    1    3    3    0  502 -0.17021026590E+03 -0.45804086585E+03  0.18386065705E+03  0.52208975342E+03  0.25500000920E-02 0.  1.
</event>
<event>
 5   0  0.1020150E-03  0.9980912E+03  0.7818609E-02  0.9310641E-01
        2   -1    0    0  501    0  0.00000000000E+00  0.00000000000E+00  0.16347303871E+04  0.16347303871E+04  0.25500000920E-02 0.  1.
       -2   -1    0    0    0  501  0.00000000000E+00  0.00000000000E+00 -0.15234714805E+03  0.15234714808E+03  0.25500000920E-02 0. -1.
    10030    2    1    2    0    0  0.00000000000E+00  0.00000000000E+00  0.14823832390E+04  0.17870775351E+04  0.99809120290E+03 0.  0.
        5    1    3    3  502    0 -0.45440530074E+03  0.18874922667E+03  0.59231138234E+03  0.77004240893E+03  0.46999998093E+01 0. -1.
       -5    1    3    3    0  502  0.45440530074E+03 -0.18874922667E+03  0.89007185667E+03  0.10170351262E+04  0.46999998093E+01 0.  1.
</event>
<event>
 5   0  0.5758786E-04  0.1000631E+04  0.7818609E-02  0.9307853E-01
        1   -1    0    0  501    0  0.00000000000E+00  0.00000000000E+00  0.12927598651E+04  0.12927598651E+04  0.50400001928E-02 0.  1.
       -1   -1    0    0    0  501  0.00000000000E+00  0.00000000000E+00 -0.19362896434E+03  0.19362896441E+03  0.50400001928E-02 0. -1.
    10030    2    1    2    0    0  0.00000000000E+00  0.00000000000E+00  0.10991309007E+04  0.14863888295E+04  0.10006313085E+04 0.  0.
        3    1    3    3  502    0 -0.41639724479E+03 -0.21139798553E+03  0.81628549763E+03  0.94042426468E+03  0.10100000352E+00 0.  1.
       -3    1    3    3    0  502  0.41639724479E+03  0.21139798553E+03  0.28284540309E+03  0.54596456479E+03  0.10100000352E+00 0. -1.
</event>
<event>
 5   0  0.3854625E-04  0.1000025E+04  0.7818609E-02  0.9308517E-01
        3   -1    0    0  501    0  0.00000000000E+00  0.00000000000E+00  0.28657428697E+03  0.28657430477E+03  0.10100000352E+00 0.  1.
       -3   -1    0    0    0  501  0.00000000000E+00  0.00000000000E+00 -0.87241803496E+03  0.87241804081E+03  0.10100000352E+00 0. -1.
    10030    2    1    2    0    0  0.00000000000E+00  0.00000000000E+00 -0.58584374799E+03  0.11589923456E+04  0.10000251797E+04 0.  0.
        3    1    3    3  502    0  0.34020888726E+03  0.31667608300E+03 -0.79261266331E+02  0.47149569145E+03  0.10100000352E+00 0.  1.
       -3    1    3    3    0  502 -0.34020888726E+03 -0.31667608300E+03 -0.50658248166E+03  0.68749665413E+03  0.10100000352E+00 0. -1.
</event>
<event>
 5   0  0.5960102E-04  0.1000388E+04  0.7818609E-02  0.9308120E-01
       -1   -1    0    0    0  501  0.00000000000E+00  0.00000000000E+00  0.47126960841E+03  0.47126960843E+03  0.50400001928E-02 0. -1.
        1   -1    0    0  501    0  0.00000000000E+00  0.00000000000E+00 -0.53089338670E+03  0.53089338672E+03  0.50400001928E-02 0.  1.
    10030    2    1    2    0    0  0.00000000000E+00  0.00000000000E+00 -0.59623778294E+02  0.10021629952E+04  0.10003877618E+04 0.  0.
        5    1    3    3  502    0  0.34436468606E+03  0.19284062149E+03  0.27797473817E+03  0.48276970427E+03  0.46999998093E+01 0.  1.
       -5    1    3    3    0  502 -0.34436468606E+03 -0.19284062149E+03 -0.33759851646E+03  0.51939329089E+03  0.46999998093E+01 0. -1.
</event>
<event>
 5   0  0.1006006E-03  0.1000783E+04  0.7818609E-02  0.9307687E-01
       -2   -1    0    0    0  501  0.00000000000E+00  0.00000000000E+00  0.38447621504E+03  0.38447621504E+03  0.25500000920E-02 0. -1.
        2   -1    0    0  501    0  0.00000000000E+00  0.00000000000E+00 -0.65125363483E+03  0.65125363484E+03  0.25500000920E-02 0.  1.
    10030    2    1    2    0    0  0.00000000000E+00  0.00000000000E+00 -0.26677741980E+03  0.10357298499E+04  0.10007827588E+04 0.  0.
        2    1    3    3  502    0 -0.34496933941E+02 -0.17580477815E+03  0.35014610672E+03  0.39331876961E+03  0.25500000920E-02 0. -1.
       -2    1    3    3    0  502  0.34496933941E+02  0.17580477815E+03 -0.61692352652E+03  0.64241108027E+03  0.25500000920E-02 0.  1.
</event>
<event>
 5   0  0.5768102E-04  0.1000673E+04  0.7818609E-02  0.9307807E-01
        1   -1    0    0  501    0  0.00000000000E+00  0.00000000000E+00  0.90075290991E+03  0.90075290992E+03  0.50400001928E-02 0.  1.
       -1   -1    0    0    0  501  0.00000000000E+00  0.00000000000E+00 -0.27791951307E+03  0.27791951311E+03  0.50400001928E-02 0. -1.
    10030    2    1    2    0    0  0.00000000000E+00  0.00000000000E+00  0.62283339684E+03  0.11786724230E+04  0.10006733936E+04 0.  0.
        4    1    3    3  502    0  0.10274151596E+03 -0.14747425358E+03 -0.23857941062E+03  0.29870758719E+03  0.12699999809E+01 0. -1.
       -4    1    3    3    0  502 -0.10274151596E+03  0.14747425358E+03  0.86141280746E+03  0.87996483585E+03  0.12699999809E+01 0.  1.
</event>
<event>
 5   0  0.9741826E-04  0.1003442E+04  0.7818609E-02  0.9304777E-01
       -2   -1    0    0    0  501  0.00000000000E+00  0.00000000000E+00  0.10703502773E+03  0.10703502776E+03  0.25500000920E-02 0.  1.
        2   -1    0    0  501    0  0.00000000000E+00  0.00000000000E+00 -0.23517922323E+04  0.23517922323E+04  0.25500000920E-02 0. -1.
    10030    2    1    2    0    0  0.00000000000E+00  0.00000000000E+00 -0.22447572045E+04  0.24588272600E+04  0.10034423687E+04 0.  0.
        3    1    3    3  502    0 -0.17953949708E+03 -0.70836104447E+02  0.12425343115E+02  0.19340781799E+03  0.10100000352E+00 0.  1.
       -3    1    3    3    0  502  0.17953949708E+03  0.70836104447E+02 -0.22571825477E+04  0.22654194420E+04  0.10100000352E+00 0. -1.
</event>
<event>
 5   0  0.1020150E-03  0.9951054E+03  0.7818609E-02  0.9313929E-01
       -2   -1    0    0    0  501  0.00000000000E+00  0.00000000000E+00  0.27807435796E+03  0.27807435797E+03  0.25500000920E-02 0.  1.
        2   -1    0    0  501    0  0.00000000000E+00  0.00000000000E+00 -0.89026075752E+03  0.89026075752E+03  0.25500000920E-02 0. -1.
    10030    2    1    2    0    0  0.00000000000E+00  0.00000000000E+00 -0.61218639956E+03  0.11683351155E+04  0.99510539858E+03 0.  0.
        5    1    3    3  502    0 -0.21238906765E+03 -0.88500787990E+02 -0.82401511745E+03  0.85554924424E+03  0.46999998093E+01 0. -1.
       -5    1    3    3    0  502  0.21238906765E+03  0.88500787990E+02  0.21182871789E+03  0.31278587125E+03  0.46999998093E+01 0.  1.
</event>
<event>
 5   0  0.1006749E-03  0.1001071E+04  0.7818609E-02  0.9307371E-01
        2   -1    0    0  501    0  0.00000000000E+00  0.00000000000E+00  0.49923721628E+03  0.49923721629E+03  0.25500000920E-02 0. -1.
       -2   -1    0    0    0  501  0.00000000000E+00  0.00000000000E+00 -0.50183714092E+03  0.50183714093E+03  0.25500000920E-02 0.  1.
    10030    2    1    2    0    0  0.00000000000E+00  0.00000000000E+00 -0.25999246401E+01  0.10010743572E+04  0.10010709810E+04 0.  0.
        1    1    3    3  502    0 -0.34795428150E+03 -0.35750030149E+03  0.39408032411E+02  0.50043145447E+03  0.50400001928E-02 0.  1.
       -1    1    3    3    0  502  0.34795428150E+03  0.35750030149E+03 -0.42007957051E+02  0.50064290274E+03  0.50400001928E-02 0. -1.
</event>
<event>
 5   0  0.5768102E-04  0.9859597E+03  0.7818609E-02  0.9324079E-01
       -1   -1    0    0    0  501  0.00000000000E+00  0.00000000000E+00  0.43112651275E+03  0.43112651278E+03  0.50400001928E-02 0. -1.
        1   -1    0    0  501    0  0.00000000000E+00  0.00000000000E+00 -0.56370717858E+03  0.56370717861E+03  0.50400001928E-02 0.  1.
    10030    2    1    2    0    0  0.00000000000E+00  0.00000000000E+00 -0.13258066583E+03  0.99483369138E+03  0.98595965463E+03 0.  0.
        4    1    3    3  502    0 -0.48245552996E+02  0.35785809522E+03 -0.40492603307E+03  0.54254654625E+03  0.12699999809E+01 0.  1.
       -4    1    3    3    0  502  0.48245552996E+02 -0.35785809522E+03  0.27234536724E+03  0.45228714513E+03  0.12699999809E+01 0. -1.
</event>
<event>
 5   0  0.1006749E-03  0.1000091E+04  0.7818609E-02  0.9308445E-01
        2   -1    0    0  501    0  0.00000000000E+00  0.00000000000E+00  0.57639164953E+03  0.57639164954E+03  0.25500000920E-02 0. -1.
       -2   -1    0    0    0  501  0.00000000000E+00  0.00000000000E+00 -0.43381151234E+03  0.43381151235E+03  0.25500000920E-02 0.  1.
    10030    2    1    2    0    0  0.00000000000E+00  0.00000000000E+00  0.14258013719E+03  0.10102031619E+04  0.10000906623E+04 0.  0.
        1    1    3    3  502    0  0.48551260882E+02 -0.44864531066E+03  0.28888764242E+03  0.53581331607E+03  0.50400001928E-02 0. -1.
       -1    1    3    3    0  502 -0.48551260882E+02  0.44864531066E+03 -0.14630750523E+03  0.47438984582E+03  0.50400001928E-02 0.  1.
</event>
<event>
 5   0  0.5768102E-04  0.9991025E+03  0.7818609E-02  0.9309530E-01
       -1   -1    0    0    0  501  0.00000000000E+00  0.00000000000E+00  0.31085463092E+03  0.31085463096E+03  0.50400001928E-02 0. -1.
        1   -1    0    0  501    0  0.00000000000E+00  0.00000000000E+00 -0.80279152916E+03  0.80279152917E+03  0.50400001928E-02 0.  1.
    10030    2    1    2    0    0  0.00000000000E+00  0.00000000000E+00 -0.49193689824E+03  0.11136461601E+04  0.99910252634E+03 0.  0.
        4    1    3    3  502    0 -0.24270505257E+03  0.32262898231E+02 -0.73132401555E+03  0.77122180063E+03  0.12699999809E+01 0.  1.
       -4    1    3    3    0  502  0.24270505257E+03 -0.32262898231E+02  0.23938711731E+03  0.34242435950E+03  0.12699999809E+01 0. -1.
</event>
<event>
 5   0  0.9674819E-04  0.9993798E+03  0.7818609E-02  0.9309225E-01
        2   -1    0    0  501    0  0.00000000000E+00  0.00000000000E+00  0.10819616423E+04  0.10819616423E+04  0.25500000920E-02 0.  1.
       -2   -1    0    0    0  501  0.00000000000E+00  0.00000000000E+00 -0.23077527623E+03  0.23077527625E+03  0.25500000920E-02 0. -1.
    10030    2    1    2    0    0  0.00000000000E+00  0.00000000000E+00  0.85118636607E+03  0.13127369186E+04  0.99937980145E+03 0.  0.
        4    1    3    3  502    0 -0.25218229139E+03 -0.43037462111E+03  0.38684538407E+03  0.63124415773E+03  0.12699999809E+01 0. -1.
       -4    1    3    3    0  502  0.25218229139E+03  0.43037462111E+03  0.46434098201E+03  0.68149276083E+03  0.12699999809E+01 0.  1.
</event>
<event>
 5   0  0.5826939E-04  0.9995842E+03  0.7818609E-02  0.9309001E-01
       -1   -1    0    0    0  501  0.00000000000E+00  0.00000000000E+00  0.60187254656E+03  0.60187254658E+03  0.50400001928E-02 0. -1.
        1   -1    0    0  501    0  0.00000000000E+00  0.00000000000E+00 -0.41502494451E+03  0.41502494454E+03  0.50400001928E-02 0.  1.
    10030    2    1    2    0    0  0.00000000000E+00  0.00000000000E+00  0.18684760206E+03  0.10168974911E+04  0.99958415406E+03 0.  0.
        1    1    3    3  502    0 -0.36659543267E+03  0.23057825654E+03  0.34721128103E+03  0.55508037017E+03  0.50400001928E-02 0. -1.
       -1    1    3    3    0  502  0.36659543267E+03 -0.23057825654E+03 -0.16036367898E+03  0.46181712095E+03  0.50400001928E-02 0.  1.
</event>
<event>
 5   0  0.1020150E-03  0.1000927E+04  0.7818609E-02  0.9307529E-01
        2   -1    0    0  501    0  0.00000000000E+00  0.00000000000E+00  0.21012873157E+04  0.21012873157E+04  0.25500000920E-02 0.  1.
       -2   -1    0    0    0  501  0.00000000000E+00  0.00000000000E+00 -0.11919526691E+03  0.11919526693E+03  0.25500000920E-02 0. -1.
    10030    2    1    2    0    0  0.00000000000E+00  0.00000000000E+00  0.19820920488E+04  0.22204825826E+04  0.10009265757E+04 0.  0.
        5    1    3    3  502    0 -0.45798483331E+03  0.19988327924E+03  0.93078072280E+03  0.10564460596E+04  0.46999998093E+01 0. -1.
       -5    1    3    3    0  502  0.45798483331E+03 -0.19988327924E+03  0.10513113260E+04  0.11640365231E+04  0.46999998093E+01 0.  1.
</event>
<event>
 5   0  0.1020150E-03  0.1000030E+04  0.7818609E-02  0.9308512E-01
        2   -1    0    0  501    0  0.00000000000E+00  0.00000000000E+00  0.16474471299E+04  0.16474471299E+04  0.25500000920E-02 0.  1.
       -2   -1    0    0    0  501  0.00000000000E+00  0.00000000000E+00 -0.15175891919E+03  0.15175891921E+03  0.25500000920E-02 0. -1.
    10030    2    1    2    0    0  0.00000000000E+00  0.00000000000E+00  0.14956882107E+04  0.17992060491E+04  0.10000295913E+04 0.  0.
        5    1    3    3  502    0 -0.59346149500E+02 -0.37707671914E+02 -0.14277991747E+03  0.15922320438E+03  0.46999998093E+01 0. -1.
       -5    1    3    3    0  502  0.59346149500E+02  0.37707671914E+02  0.16384681282E+04  0.16399828447E+04  0.46999998093E+01 0.  1.
</event>
<event>
 5   0  0.1006006E-03  0.9984579E+03  0.7818609E-02  0.9310238E-01
       -2   -1    0    0    0  501  0.00000000000E+00  0.00000000000E+00  0.20414336108E+03  0.20414336109E+03  0.25500000920E-02 0.  1.
        2   -1    0    0  501    0  0.00000000000E+00  0.00000000000E+00 -0.12208555923E+04  0.12208555923E+04  0.25500000920E-02 0. -1.
    10030    2    1    2    0    0  0.00000000000E+00  0.00000000000E+00 -0.10167122312E+04  0.14249989534E+04  0.99845793905E+03 0.  0.
        2    1    3    3  502    0 -0.49397482154E+03  0.45071863717E+01 -0.40545783241E+03  0.63908332235E+03  0.25500000920E-02 0.  1.
       -2    1    3    3    0  502  0.49397482154E+03 -0.45071863717E+01 -0.61125439879E+03  0.78591563103E+03  0.25500000920E-02 0. -1.
</event>
<event>
 5   0  0.1006006E-03  0.9987595E+03  0.7818609E-02  0.9309906E-01
        2   -1    0    0  501    0  0.00000000000E+00  0.00000000000E+00  0.10794281651E+04  0.10794281651E+04  0.25500000920E-02 0.  1.
       -2   -1    0    0    0  501  0.00000000000E+00  0.00000000000E+00 -0.23102983724E+03  0.23102983725E+03  0.25500000920E-02 0. -1.
    10030    2    1    2    0    0  0.00000000000E+00  0.00000000000E+00  0.84839832787E+03  0.13104580024E+04  0.99875945713E+03 0.  0.
        2    1    3    3  502    0 -0.21215702892E+03 -0.28135651443E+03  0.88847734764E+03  0.95580546682E+03  0.25500000920E-02 0.  1.
       -2    1    3    3    0  502  0.21215702892E+03  0.28135651443E+03 -0.40079019771E+02  0.35465253554E+03  0.25500000920E-02 0. -1.
</event>
<event>
 5   0  0.1006749E-03  0.9993043E+03  0.7818609E-02  0.9309308E-01
        2   -1    0    0  501    0  0.00000000000E+00  0.00000000000E+00  0.45378971832E+03  0.45378971833E+03  0.25500000920E-02 0.  1.
       -2   -1    0    0    0  501  0.00000000000E+00  0.00000000000E+00 -0.55014965943E+03  0.55014965944E+03  0.25500000920E-02 0. -1.
    10030    2    1    2    0    0  0.00000000000E+00  0.00000000000E+00 -0.96359941108E+02  0.10039393778E+04  0.99930427597E+03 0.  0.
        1    1    3    3  502    0 -0.67420211951E+02 -0.40577791251E+03 -0.33313454145E+03  0.52932015075E+03  0.50400001928E-02 0. -1.
       -1    1    3    3    0  502  0.67420211951E+02  0.40577791251E+03  0.23677460034E+03  0.47461922701E+03  0.50400001928E-02 0.  1.
</event>
<event>
 5   0  0.5758786E-04  0.9994360E+03  0.7818609E-02  0.9309164E-01
        1   -1    0    0  501    0  0.00000000000E+00  0.00000000000E+00  0.71177407094E+03  0.71177407096E+03  0.50400001928E-02 0. -1.
       -1   -1    0    0    0  501  0.00000000000E+00  0.00000000000E+00 -0.35083895480E+03  0.35083895483E+03  0.50400001928E-02 0.  1.
    10030    2    1    2    0    0  0.00000000000E+00  0.00000000000E+00  0.36093511614E+03  0.10626130258E+04  0.99943598320E+03 0.  0.
        3    1    3    3  502    0 -0.16849659629E+03 -0.43505219151E+03 -0.98936862258E+01  0.46664698384E+03  0.10100000352E+00 0. -1.
       -3    1    3    3    0  502  0.16849659629E+03  0.43505219151E+03  0.37082880237E+03  0.59596604195E+03  0.10100000352E+00 0.  1.
</event>
<event>
 5   0  0.5758786E-04  0.1001486E+04  0.7818609E-02  0.9306917E-01
       -1   -1    0    0    0  501  0.00000000000E+00  0.00000000000E+00  0.42524611256E+03  0.42524611259E+03  0.50400001928E-02 0.  1.
        1   -1    0    0  501    0  0.00000000000E+00  0.00000000000E+00 -0.58964281194E+03  0.58964281196E+03  0.50400001928E-02 0. -1.
    10030    2    1    2    0    0  0.00000000000E+00  0.00000000000E+00 -0.16439669938E+03  0.10148889246E+04  0.10014855238E+04 0.  0.
        3    1    3    3  502    0  0.47989252359E+03 -0.93345303766E+02 -0.19196758972E+03  0.52522542364E+03  0.10100000352E+00 0. -1.
       -3    1    3    3    0  502 -0.47989252359E+03  0.93345303766E+02  0.27570890344E+02  0.48966350092E+03  0.10100000352E+00 0.  1.
</event>
<event>
 5   0  0.3854625E-04  0.9976974E+03  0.7818609E-02  0.9311074E-01
       -3   -1    0    0    0  501  0.00000000000E+00  0.00000000000E+00  0.15336883832E+04  0.15336883865E+04  0.10100000352E+00 0.  1.
        3   -1    0    0  501    0  0.00000000000E+00  0.00000000000E+00 -0.16225591194E+03  0.16225594338E+03  0.10100000352E+00 0. -1.
    10030    2    1    2    0    0  0.00000000000E+00  0.00000000000E+00  0.13714324712E+04  0.16959443299E+04  0.99769742251E+03 0.  0.
        1    1    3    3  502    0 -0.87258841703E+02  0.29783761574E+03  0.21837885038E+02  0.31112416180E+03  0.50400001928E-02 0. -1.
       -1    1    3    3    0  502  0.87258841703E+02 -0.29783761574E+03  0.13495945862E+04  0.13848201681E+04  0.50400001928E-02 0.  1.
</event>
<event>
 5   0  0.9741826E-04  0.9969322E+03  0.7818609E-02  0.9311916E-01
       -2   -1    0    0    0  501  0.00000000000E+00  0.00000000000E+00  0.51221541784E+03  0.51221541784E+03  0.25500000920E-02 0. -1.
        2   -1    0    0  501    0  0.00000000000E+00  0.00000000000E+00 -0.48508581718E+03  0.48508581718E+03  0.25500000920E-02 0.  1.
    10030    2    1    2    0    0  0.00000000000E+00  0.00000000000E+00  0.27129600660E+02  0.99730123502E+03  0.99693216326E+03 0.  0.
        3    1    3    3  502    0 -0.35775913313E+03  0.32749584647E+03  0.12859996924E+03  0.50177992096E+03  0.10100000352E+00 0. -1.
       -3    1    3    3    0  502  0.35775913313E+03 -0.32749584647E+03 -0.10147036858E+03  0.49552131406E+03  0.10100000352E+00 0.  1.
</event>
<event>
 5   0  0.5826939E-04  0.9992084E+03  0.7818609E-02  0.9309413E-01
       -1   -1    0    0    0  501  0.00000000000E+00  0.00000000000E+00  0.47759760059E+03  0.47759760062E+03  0.50400001928E-02 0.  1.
        1   -1    0    0  501    0  0.00000000000E+00  0.00000000000E+00 -0.52262476956E+03  0.52262476958E+03  0.50400001928E-02 0. -1.
    10030    2    1    2    0    0  0.00000000000E+00  0.00000000000E+00 -0.45027168966E+02  0.10002223702E+04  0.99920835860E+03 0.  0.
        1    1    3    3  502    0 -0.43749497839E+03 -0.90072111100E+02  0.20152036241E+03  0.49002581341E+03  0.50400001928E-02 0.  1.
       -1    1    3    3    0  502  0.43749497839E+03  0.90072111100E+02 -0.24654753138E+03  0.51019655679E+03  0.50400001928E-02 0. -1.
</event>
<event>
 5   0  0.1006006E-03  0.1000904E+04  0.7818609E-02  0.9307554E-01
       -2   -1    0    0    0  501  0.00000000000E+00  0.00000000000E+00  0.26422999175E+03  0.26422999176E+03  0.25500000920E-02 0. -1.
        2   -1    0    0  501    0  0.00000000000E+00  0.00000000000E+00 -0.94785657465E+03  0.94785657465E+03  0.25500000920E-02 0.  1.
    10030    2    1    2    0    0  0.00000000000E+00  0.00000000000E+00 -0.68362658290E+03  0.12120865664E+04  0.10009038613E+04 0.  0.
        2    1    3    3  502    0  0.99644808447E+02 -0.46206135963E+03 -0.54088191173E+03  0.71831958790E+03  0.25500000920E-02 0.  1.
       -2    1    3    3    0  502 -0.99644808447E+02  0.46206135963E+03 -0.14274467117E+03  0.49376697851E+03  0.25500000920E-02 0. -1.
</event>
<event>
 5   0  0.5768102E-04  0.9995596E+03  0.7818609E-02  0.9309028E-01
        1   -1    0    0  501    0  0.00000000000E+00  0.00000000000E+00  0.28707416622E+03  0.28707416626E+03  0.50400001928E-02 0. -1.
       -1   -1    0    0    0  501  0.00000000000E+00  0.00000000000E+00 -0.87008823208E+03  0.87008823210E+03  0.50400001928E-02 0.  1.
    10030    2    1    2    0    0  0.00000000000E+00  0.00000000000E+00 -0.58301406587E+03  0.11571623984E+04  0.99955961062E+03 0.  0.
        4    1    3    3  502    0 -0.37120759793E+03  0.17721094401E+03  0.37115803687E+02  0.41301088996E+03  0.12699999809E+01 0.  1.
       -4    1    3    3    0  502  0.37120759793E+03 -0.17721094401E+03 -0.62012986956E+03  0.74415150840E+03  0.12699999809E+01 0. -1.
</event>
<event>
 5   0  0.5826939E-04  0.1004080E+04  0.7818609E-02  0.9304082E-01
       -1   -1    0    0    0  501  0.00000000000E+00  0.00000000000E+00  0.88823250533E+03  0.88823250534E+03  0.50400001928E-02 0.  1.
        1   -1    0    0  501    0  0.00000000000E+00  0.00000000000E+00 -0.28375899970E+03  0.28375899974E+03  0.50400001928E-02 0. -1.
    10030    2    1    2    0    0  0.00000000000E+00  0.00000000000E+00  0.60447350563E+03  0.11719915051E+04  0.10040796129E+04 0.  0.
        1    1    3    3  502    0  0.67049384087E+02 -0.41364195806E+02 -0.27649891383E+03  0.28750350603E+03  0.50400001928E-02 0. -1.
       -1    1    3    3    0  502 -0.67049384087E+02  0.41364195806E+02  0.88097241946E+03  0.88448799906E+03  0.50400001928E-02 0.  1.
</event>
<event>
 5   0  0.5888774E-04  0.9981920E+03  0.7818609E-02  0.9310530E-01
       -1   -1    0    0    0  501  0.00000000000E+00  0.00000000000E+00  0.66652014286E+03  0.66652014288E+03  0.50400001928E-02 0. -1.
        1   -1    0    0  501    0  0.00000000000E+00  0.00000000000E+00 -0.37372733499E+03  0.37372733502E+03  0.50400001928E-02 0.  1.
    10030    2    1    2    0    0  0.00000000000E+00  0.00000000000E+00  0.29279280787E+03  0.10402474779E+04  0.99819195896E+03 0.  0.
        2    1    3    3  502    0  0.27053357303E+03  0.10192236278E+03  0.57037909279E+03  0.63945984367E+03  0.25500000920E-02 0. -1.
       -2    1    3    3    0  502 -0.27053357303E+03 -0.10192236278E+03 -0.27758628492E+03  0.40078763423E+03  0.25500000920E-02 0.  1.
</event>
<event>
 5   0  0.5758786E-04  0.1000661E+04  0.7818609E-02  0.9307821E-01
       -1   -1    0    0    0  501  0.00000000000E+00  0.00000000000E+00  0.41827950789E+03  0.41827950792E+03  0.50400001928E-02 0. -1.
        1   -1    0    0  501    0  0.00000000000E+00  0.00000000000E+00 -0.59847643778E+03  0.59847643780E+03  0.50400001928E-02 0.  1.
    10030    2    1    2    0    0  0.00000000000E+00  0.00000000000E+00 -0.18019692989E+03  0.10167559457E+04  0.10006606416E+04 0.  0.
        3    1    3    3  502    0  0.49466504019E+03 -0.58137617821E+02 -0.41827115602E+02  0.49982297105E+03  0.10100000352E+00 0.  1.
       -3    1    3    3    0  502 -0.49466504019E+03  0.58137617821E+02 -0.13836981429E+03  0.51693297466E+03  0.10100000352E+00 0. -1.
</event>
<event>
 5   0  0.9674819E-04  0.1000972E+04  0.7818609E-02  0.9307479E-01
        2   -1    0    0  501    0  0.00000000000E+00  0.00000000000E+00  0.11500490283E+04  0.11500490283E+04  0.25500000920E-02 0. -1.
       -2   -1    0    0    0  501  0.00000000000E+00  0.00000000000E+00 -0.21780485923E+03  0.21780485924E+03  0.25500000920E-02 0.  1.
    10030    2    1    2    0    0  0.00000000000E+00  0.00000000000E+00  0.93224416910E+03  0.13678538876E+04  0.10009720610E+04 0.  0.
        4    1    3    3  502    0 -0.24011559086E+03  0.43296779770E+03  0.36600095359E+03  0.61569060554E+03  0.12699999809E+01 0.  1.
       -4    1    3    3    0  502  0.24011559086E+03 -0.43296779770E+03  0.56624321550E+03  0.75216328203E+03  0.12699999809E+01 0. -1.
</event>
<event>
 5   0  0.9674819E-04  0.9991967E+03  0.7818609E-02  0.9309426E-01
        2   -1    0    0  501    0  0.00000000000E+00  0.00000000000E+00  0.15235093458E+04  0.15235093458E+04  0.25500000920E-02 0. -1.
       -2   -1    0    0    0  501  0.00000000000E+00  0.00000000000E+00 -0.16383130780E+03  0.16383130782E+03  0.25500000920E-02 0.  1.
    10030    2    1    2    0    0  0.00000000000E+00  0.00000000000E+00  0.13596780380E+04  0.16873406536E+04  0.99919673454E+03 0.  0.
        4    1    3    3  502    0 -0.17079323755E+03 -0.34859688932E+03  0.14875305029E+03  0.41571529212E+03  0.12699999809E+01 0. -1.
       -4    1    3    3    0  502  0.17079323755E+03  0.34859688932E+03  0.12109249877E+04  0.12716253615E+04  0.12699999809E+01 0.  1.
</event>
<event>
 5   0  0.5888774E-04  0.9917180E+03  0.7818609E-02  0.9317675E-01
        1   -1    0    0  501    0  0.00000000000E+00  0.00000000000E+00  0.76360077657E+03  0.76360077659E+03  0.50400001928E-02 0.  1.
       -1   -1    0    0    0  501  0.00000000000E+00  0.00000000000E+00 -0.32199569771E+03  0.32199569775E+03  0.50400001928E-02 0. -1.
    10030    2    1    2    0    0  0.00000000000E+00  0.00000000000E+00  0.44160507886E+03  0.10855964743E+04  0.99171803423E+03 0.  0.
        2    1    3    3  502    0  0.27411499838E+03 -0.17898195108E+03 -0.18688036889E+03  0.37695867603E+03  0.25500000920E-02 0. -1.
       -2    1    3    3    0  502 -0.27411499838E+03  0.17898195108E+03  0.62848544775E+03  0.70863779831E+03  0.25500000920E-02 0.  1.
</event>
<event>
 5   0  0.9674819E-04  0.1000996E+04  0.7818609E-02  0.9307453E-01
       -2   -1    0    0    0  501  0.00000000000E+00  0.00000000000E+00  0.14543535489E+03  0.14543535491E+03  0.25500000920E-02 0. -1.
        2   -1    0    0  501    0  0.00000000000E+00  0.00000000000E+00 -0.17224037531E+04  0.17224037531E+04  0.25500000920E-02 0.  1.
    10030    2    1    2    0    0  0.00000000000E+00  0.00000000000E+00 -0.15769683982E+04  0.18678391080E+04  0.10009963059E+04 0.  0.
        4    1    3    3  502    0 -0.40958248057E+03 -0.19457432155E+03 -0.39317901492E+03  0.60017357962E+03  0.12699999809E+01 0. -1.
       -4    1    3    3    0  502  0.40958248057E+03  0.19457432155E+03 -0.11837893833E+04  0.12676655284E+04  0.12699999809E+01 0.  1.
</event>
<event>
 5   0  0.1006749E-03  0.1006541E+04  0.7818609E-02  0.9301400E-01
        2   -1    0    0  501    0  0.00000000000E+00  0.00000000000E+00  0.91878119178E+03  0.91878119178E+03  0.25500000920E-02 0.  1.
       -2   -1    0    0    0  501  0.00000000000E+00  0.00000000000E+00 -0.27567065408E+03  0.27567065410E+03  0.25500000920E-02 0. -1.
    10030    2    1    2    0    0  0.00000000000E+00  0.00000000000E+00  0.64311053769E+03  0.11944518459E+04  0.10065406343E+04 0.  0.
        1    1    3    3  502    0 -0.20695971623E+03  0.30629246640E+03 -0.83719156154E+02  0.37902017921E+03  0.50400001928E-02 0. -1.
       -1    1    3    3    0  502  0.20695971623E+03 -0.30629246640E+03  0.72682969385E+03  0.81543166666E+03  0.50400001928E-02 0.  1.
</event>
<event>
 5   0  0.9674819E-04  0.9982299E+03  0.7818609E-02  0.9310488E-01
        2   -1    0    0  501    0  0.00000000000E+00  0.00000000000E+00  0.39767763576E+03  0.39767763577E+03  0.25500000920E-02 0.  1.
       -2   -1    0    0    0  501  0.00000000000E+00  0.00000000000E+00 -0.62642632588E+03  0.62642632589E+03  0.25500000920E-02 0. -1.
    10030    2    1    2    0    0  0.00000000000E+00  0.00000000000E+00 -0.22874869012E+03  0.10241039617E+04  0.99822991392E+03 0.  0.
        4    1    3    3  502    0 -0.43452207790E+03 -0.23876743506E+03 -0.55486155708E+02  0.49889843716E+03  0.12699999809E+01 0. -1.
       -4    1    3    3    0  502  0.43452207790E+03  0.23876743506E+03 -0.17326253442E+03  0.52520552449E+03  0.12699999809E+01 0.  1.
</event>
<event>
 5   0  0.5758786E-04  0.1002934E+04  0.7818609E-02  0.9305333E-01
       -1   -1    0    0    0  501  0.00000000000E+00  0.00000000000E+00  0.17383443573E+03  0.17383443580E+03  0.50400001928E-02 0.  1.
        1   -1    0    0  501    0  0.00000000000E+00  0.00000000000E+00 -0.14466006082E+04  0.14466006082E+04  0.50400001928E-02 0. -1.
    10030    2    1    2    0    0  0.00000000000E+00  0.00000000000E+00 -0.12727661725E+04  0.16204350440E+04  0.10029336978E+04 0.  0.
        3    1    3    3  502    0  0.39450457755E+03  0.11459531330E+03 -0.11010268873E+04  0.11751706958E+04  0.10100000352E+00 0. -1.
       -3    1    3    3    0  502 -0.39450457755E+03 -0.11459531330E+03 -0.17173928524E+03  0.44526434826E+03  0.10100000352E+00 0.  1.
</event>
<event>
 5   0  0.1020150E-03  0.9999757E+03  0.7818609E-02  0.9308571E-01
        2   -1    0    0  501    0  0.00000000000E+00  0.00000000000E+00  0.13195939327E+04  0.13195939327E+04  0.25500000920E-02 0.  1.
       -2   -1    0    0    0  501  0.00000000000E+00  0.00000000000E+00 -0.18944302604E+03  0.18944302606E+03  0.25500000920E-02 0. -1.
    10030    2    1    2    0    0  0.00000000000E+00  0.00000000000E+00  0.11301509066E+04  0.15090369587E+04  0.99997573524E+03 0.  0.
        5    1    3    3  502    0 -0.48258260502E+03 -0.27585650680E+02  0.37229853069E+03  0.61014360994E+03  0.46999998093E+01 0. -1.
       -5    1    3    3    0  502  0.48258260502E+03  0.27585650680E+02  0.75785237594E+03  0.89889334879E+03  0.46999998093E+01 0.  1.
</event>
<event>
 5   0  0.5758786E-04  0.1001263E+04  0.7818609E-02  0.9307160E-01
       -1   -1    0    0    0  501  0.00000000000E+00  0.00000000000E+00  0.25100927716E+03  0.25100927721E+03  0.50400001928E-02 0. -1.
        1   -1    0    0  501    0  0.00000000000E+00  0.00000000000E+00 -0.99849730631E+03  0.99849730632E+03  0.50400001928E-02 0.  1.
    10030    2    1    2    0    0  0.00000000000E+00  0.00000000000E+00 -0.74748802915E+03  0.12495065835E+04  0.10012633762E+04 0.  0.
        3    1    3    3  502    0 -0.18650403808E+03  0.19654850286E+02 -0.95300672062E+03  0.97128362959E+03  0.10100000352E+00 0.  1.
       -3    1    3    3    0  502  0.18650403808E+03 -0.19654850286E+02  0.20551869147E+03  0.27822295395E+03  0.10100000352E+00 0. -1.
</event>
<event>
 5   0  0.5758786E-04  0.9948737E+03  0.7818609E-02  0.9314185E-01
        1   -1    0    0  501    0  0.00000000000E+00  0.00000000000E+00  0.25098184508E+04  0.25098184508E+04  0.50400001928E-02 0.  1.
       -1   -1    0    0    0  501  0.00000000000E+00  0.00000000000E+00 -0.98590167600E+02  0.98590167729E+02  0.50400001928E-02 0. -1.
    10030    2    1    2    0    0  0.00000000000E+00  0.00000000000E+00  0.24112282832E+04  0.26084086185E+04  0.99487370432E+03 0.  0.
        3    1    3    3  502    0  0.69760422124E+02  0.47444195030E+03  0.85895720816E+03  0.98375259916E+03  0.10100000352E+00 0.  1.
       -3    1    3    3    0  502 -0.69760422124E+02 -0.47444195030E+03  0.15522710750E+04  0.16246560194E+04  0.10100000352E+00 0. -1.
</event>
<event>
 5   0  0.9741826E-04  0.9997432E+03  0.7818609E-02  0.9308827E-01
       -2   -1    0    0    0  501  0.00000000000E+00  0.00000000000E+00  0.33221754821E+03  0.33221754822E+03  0.25500000920E-02 0. -1.
        2   -1    0    0  501    0  0.00000000000E+00  0.00000000000E+00 -0.75213248148E+03  0.75213248148E+03  0.25500000920E-02 0.  1.
    10030    2    1    2    0    0  0.00000000000E+00  0.00000000000E+00 -0.41991493327E+03  0.10843500297E+04  0.99974318489E+03 0.  0.
        3    1    3    3  502    0 -0.30214495727E+03  0.18280443015E+03  0.17376591999E+03  0.39357799740E+03  0.10100000352E+00 0. -1.
       -3    1    3    3    0  502  0.30214495727E+03 -0.18280443015E+03 -0.59368085326E+03  0.69077203231E+03  0.10100000352E+00 0.  1.
</event>
<event>
 5   0  0.5826939E-04  0.9981524E+03  0.7818609E-02  0.9310573E-01
       -1   -1    0    0    0  501  0.00000000000E+00  0.00000000000E+00  0.90549886781E+03  0.90549886783E+03  0.50400001928E-02 0.  1.
        1   -1    0    0  501    0  0.00000000000E+00  0.00000000000E+00 -0.27507166061E+03  0.27507166066E+03  0.50400001928E-02 0. -1.
    10030    2    1    2    0    0  0.00000000000E+00  0.00000000000E+00  0.63042720720E+03  0.11805705285E+04  0.99815244785E+03 0.  0.
        1    1    3    3  502    0  0.20656132022E+03 -0.59949445834E+02  0.84786822462E+03  0.87472398012E+03  0.50400001928E-02 0.  1.
       -1    1    3    3    0  502 -0.20656132022E+03  0.59949445834E+02 -0.21744101741E+03  0.30584654836E+03  0.50400001928E-02 0. -1.
</event>
<event>
 5   0  0.5768102E-04  0.1007546E+04  0.7818609E-02  0.9300307E-01
       -1   -1    0    0    0  501  0.00000000000E+00  0.00000000000E+00  0.44357963472E+03  0.44357963475E+03  0.50400001928E-02 0. -1.
        1   -1    0    0  501    0  0.00000000000E+00  0.00000000000E+00 -0.57213492113E+03  0.57213492115E+03  0.50400001928E-02 0.  1.
    10030    2    1    2    0    0  0.00000000000E+00  0.00000000000E+00 -0.12855528640E+03  0.10157145559E+04  0.10075463252E+04 0.  0.
        4    1    3    3  502    0  0.42620686155E+03 -0.19604919154E+03  0.12078130211E+03  0.48443504227E+03  0.12699999809E+01 0. -1.
       -4    1    3    3    0  502 -0.42620686155E+03  0.19604919154E+03 -0.24933658851E+03  0.53127951363E+03  0.12699999809E+01 0.  1.
</event>
<event>
 5   0  0.5960102E-04  0.9988976E+03  0.7818609E-02  0.9309755E-01
        1   -1    0    0  501    0  0.00000000000E+00  0.00000000000E+00  0.89557803996E+03  0.89557803997E+03  0.50400001928E-02 0. -1.
       -1   -1    0    0    0  501  0.00000000000E+00  0.00000000000E+00 -0.27853419651E+03  0.27853419655E+03  0.50400001928E-02 0.  1.
    10030    2    1    2    0    0  0.00000000000E+00  0.00000000000E+00  0.61704384345E+03  0.11741122365E+04  0.99889761198E+03 0.  0.
        5    1    3    3  502    0 -0.22223615642E+03  0.42763829923E+03  0.15453183047E+03  0.50612804784E+03  0.46999998093E+01 0. -1.
       -5    1    3    3    0  502  0.22223615642E+03 -0.42763829923E+03  0.46251201298E+03  0.66798418868E+03  0.46999998093E+01 0.  1.
</event>
<event>
 5   0  0.5768102E-04  0.1000516E+04  0.7818609E-02  0.9307979E-01
       -1   -1    0    0    0  501  0.00000000000E+00  0.00000000000E+00  0.16020709197E+03  0.16020709205E+03  0.50400001928E-02 0.  1.
        1   -1    0    0  501    0  0.00000000000E+00  0.00000000000E+00 -0.15620922839E+04  0.15620922839E+04  0.50400001928E-02 0. -1.
    10030    2    1    2    0    0  0.00000000000E+00  0.00000000000E+00 -0.14018851919E+04  0.17222993760E+04  0.10005163912E+04 0.  0.
        4    1    3    3  502    0  0.27384211382E+02  0.20103266989E+03  0.86200677413E+02  0.22044545602E+03  0.12699999809E+01 0.  1.
       -4    1    3    3    0  502 -0.27384211382E+02 -0.20103266989E+03 -0.14880858693E+04  0.15018539199E+04  0.12699999809E+01 0. -1.
</event>
<event>
 5   0  0.5826939E-04  0.1001011E+04  0.7818609E-02  0.9307436E-01
       -1   -1    0    0    0  501  0.00000000000E+00  0.00000000000E+00  0.24051845737E+03  0.24051845742E+03  0.50400001928E-02 0. -1.
        1   -1    0    0  501    0  0.00000000000E+00  0.00000000000E+00 -0.10415247822E+04  0.10415247822E+04  0.50400001928E-02 0.  1.
    10030    2    1    2    0    0  0.00000000000E+00  0.00000000000E+00 -0.80100632480E+03  0.12820432396E+04  0.10010113565E+04 0.  0.
        1    1    3    3  502    0 -0.15834202746E+03  0.34549262701E+03 -0.81761935310E+03  0.90163116603E+03  0.50400001928E-02 0.  1.
       -1    1    3    3    0  502  0.15834202746E+03 -0.34549262701E+03  0.16613028299E+02  0.38041207357E+03  0.50400001928E-02 0. -1.
</event>
<event>
 5   0  0.9674819E-04  0.9981668E+03  0.7818609E-02  0.9310558E-01
        2   -1    0    0  501    0  0.00000000000E+00  0.00000000000E+00  0.16966411285E+04  0.16966411285E+04  0.25500000920E-02 0.  1.
       -2   -1    0    0    0  501  0.00000000000E+00  0.00000000000E+00 -0.14681021039E+03  0.14681021042E+03  0.25500000920E-02 0. -1.
    10030    2    1    2    0    0  0.00000000000E+00  0.00000000000E+00  0.15498309181E+04  0.18434513389E+04  0.99816680182E+03 0.  0.
        4    1    3    3  502    0 -0.41870416005E+02  0.20260113475E+03 -0.63886651514E+02  0.21652590764E+03  0.12699999809E+01 0. -1.
       -4    1    3    3    0  502  0.41870416005E+02 -0.20260113475E+03  0.16137175696E+04  0.16269254313E+04  0.12699999809E+01 0.  1.
</event>
<event>
 5   0  0.5768102E-04  0.9998049E+03  0.7818609E-02  0.9308759E-01
       -1   -1    0    0    0  501  0.00000000000E+00  0.00000000000E+00  0.31202803372E+03  0.31202803376E+03  0.50400001928E-02 0. -1.
        1   -1    0    0  501    0  0.00000000000E+00  0.00000000000E+00 -0.80089741041E+03  0.80089741043E+03  0.50400001928E-02 0.  1.
    10030    2    1    2    0    0  0.00000000000E+00  0.00000000000E+00 -0.48886937670E+03  0.11129254442E+04  0.99980486939E+03 0.  0.
        4    1    3    3  502    0  0.11858603120E+03  0.36010503008E+03  0.11825607750E+03  0.39714530370E+03  0.12699999809E+01 0. -1.
       -4    1    3    3    0  502 -0.11858603120E+03 -0.36010503008E+03 -0.60712545420E+03  0.71578014049E+03  0.12699999809E+01 0.  1.
</event>
<event>
 5   0  0.5768102E-04  0.1000166E+04  0.7818609E-02  0.9308363E-01
        1   -1    0    0  501    0  0.00000000000E+00  0.00000000000E+00  0.84179003088E+03  0.84179003089E+03  0.50400001928E-02 0. -1.
       -1   -1    0    0    0  501  0.00000000000E+00  0.00000000000E+00 -0.29708473408E+03  0.29708473412E+03  0.50400001928E-02 0.  1.
    10030    2    1    2    0    0  0.00000000000E+00  0.00000000000E+00  0.54470529680E+03  0.11388747650E+04  0.10001659212E+04 0.  0.
        4    1    3    3  502    0 -0.47881979139E+03  0.14019923031E+03  0.31108701487E+03  0.58796340067E+03  0.12699999809E+01 0. -1.
       -4    1    3    3    0  502  0.47881979139E+03 -0.14019923031E+03  0.23361828193E+03  0.55091136434E+03  0.12699999809E+01 0.  1.
</event>
<event>
 5   0  0.5758786E-04  0.9999476E+03  0.7818609E-02  0.9308602E-01
        1   -1    0    0  501    0  0.00000000000E+00  0.00000000000E+00  0.10526444724E+04  0.10526444724E+04  0.50400001928E-02 0. -1.
       -1   -1    0    0    0  501  0.00000000000E+00  0.00000000000E+00 -0.23747220515E+03  0.23747220520E+03  0.50400001928E-02 0.  1.
    10030    2    1    2    0    0  0.00000000000E+00  0.00000000000E+00  0.81517226727E+03  0.12901166776E+04  0.99994760692E+03 0.  0.
        3    1    3    3  502    0 -0.78808835631E+02 -0.24001334529E+02  0.10438273944E+04  0.10470733194E+04  0.10100000352E+00 0. -1.
       -3    1    3    3    0  502  0.78808835631E+02  0.24001334529E+02 -0.22865512713E+03  0.24304335826E+03  0.10100000352E+00 0.  1.
</event>
<event>
 5   0  0.5758786E-04  0.9996716E+03  0.7818609E-02  0.9308905E-01
       -1   -1    0    0    0  501  0.00000000000E+00  0.00000000000E+00  0.10240837394E+04  0.10240837394E+04  0.50400001928E-02 0.  1.
        1   -1    0    0  501    0  0.00000000000E+00  0.00000000000E+00 -0.24396034048E+03  0.24396034054E+03  0.50400001928E-02 0. -1.
    10030    2    1    2    0    0  0.00000000000E+00  0.00000000000E+00  0.78012339892E+03  0.12680440800E+04  0.99967158165E+03 0.  0.
        3    1    3    3  502    0  0.37820663037E+03  0.24580025672E+03  0.66323107588E+03  0.80208072641E+03  0.10100000352E+00 0.  1.
       -3    1    3    3    0  502 -0.37820663037E+03 -0.24580025672E+03  0.11689232304E+03  0.46596335354E+03  0.10100000352E+00 0. -1.
</event>
<event>
 5   0  0.9674819E-04  0.9982685E+03  0.7818609E-02  0.9310446E-01
       -2   -1    0    0    0  501  0.00000000000E+00  0.00000000000E+00  0.24180406253E+03  0.24180406255E+03  0.25500000920E-02 0.  1.
        2   -1    0    0  501    0  0.00000000000E+00  0.00000000000E+00 -0.10303177229E+04  0.10303177229E+04  0.25500000920E-02 0. -1.
    10030    2    1    2    0    0  0.00000000000E+00  0.00000000000E+00 -0.78851366037E+03  0.12721217855E+04  0.99826852321E+03 0.  0.
        4    1    3    3  502    0 -0.49141927422E+03  0.87072081051E+02 -0.40404080300E+03  0.64212540346E+03  0.12699999809E+01 0. -1.
       -4    1    3    3    0  502  0.49141927422E+03 -0.87072081051E+02 -0.38447285737E+03  0.62999638200E+03  0.12699999809E+01 0.  1.
</event>
<event>
 5   0  0.5888774E-04  0.1000924E+04  0.7818609E-02  0.9307532E-01
       -1   -1    0    0    0  501  0.00000000000E+00  0.00000000000E+00  0.16641342323E+04  0.16641342323E+04  0.50400001928E-02 0. -1.
        1   -1    0    0  501    0  0.00000000000E+00  0.00000000000E+00 -0.15050600807E+03  0.15050600816E+03  0.50400001928E-02 0.  1.
    10030    2    1    2    0    0  0.00000000000E+00  0.00000000000E+00  0.15136282242E+04  0.18146402404E+04  0.10009239737E+04 0.  0.
        2    1    3    3  502    0  0.20803746949E+03  0.16826636599E+03  0.15235698523E+04  0.15468866324E+04  0.25500000920E-02 0. -1.
       -2    1    3    3    0  502 -0.20803746949E+03 -0.16826636599E+03 -0.99416281212E+01  0.26775360802E+03  0.25500000920E-02 0.  1.
</event>
<event>
 5   0  0.5768102E-04  0.9994574E+03  0.7818609E-02  0.9309140E-01
       -1   -1    0    0    0  501  0.00000000000E+00  0.00000000000E+00  0.10908791630E+03  0.10908791641E+03  0.50400001928E-02 0. -1.
        1   -1    0    0  501    0  0.00000000000E+00  0.00000000000E+00 -0.22892433576E+04  0.22892433576E+04  0.50400001928E-02 0.  1.
    10030    2    1    2    0    0  0.00000000000E+00  0.00000000000E+00 -0.21801554413E+04  0.23983312740E+04  0.99945742866E+03 0.  0.
        4    1    3    3  502    0 -0.39774251431E+03  0.12035843425E+03 -0.42402531075E+03  0.59370391395E+03  0.12699999809E+01 0. -1.
       -4    1    3    3    0  502  0.39774251431E+03 -0.12035843425E+03 -0.17561301305E+04  0.18046273601E+04  0.12699999809E+01 0.  1.
</event>
<event>
 5   0  0.9674819E-04  0.1001418E+04  0.7818609E-02  0.9306991E-01
        2   -1    0    0  501    0  0.00000000000E+00  0.00000000000E+00  0.36021103622E+03  0.36021103623E+03  0.25500000920E-02 0.  1.
       -2   -1    0    0    0  501  0.00000000000E+00  0.00000000000E+00 -0.69600778597E+03  0.69600778597E+03  0.25500000920E-02 0. -1.
    10030    2    1    2    0    0  0.00000000000E+00  0.00000000000E+00 -0.33579674975E+03  0.10562188222E+04  0.10014183657E+04 0.  0.
        4    1    3    3  502    0  0.48611680111E+03  0.55822033101E+02 -0.55867001697E+02  0.49249200854E+03  0.12699999809E+01 0.  1.
       -4    1    3    3    0  502 -0.48611680111E+03 -0.55822033101E+02 -0.27992974805E+03  0.56372681366E+03  0.12699999809E+01 0. -1.
</event>
<event>
 5   0  0.1020150E-03  0.1001452E+04  0.7818609E-02  0.9306954E-01
       -2   -1    0    0    0  501  0.00000000000E+00  0.00000000000E+00  0.15666282331E+03  0.15666282333E+03  0.25500000920E-02 0. -1.
        2   -1    0    0  501    0  0.00000000000E+00  0.00000000000E+00 -0.16004206840E+04  0.16004206840E+04  0.25500000920E-02 0.  1.
    10030    2    1    2    0    0  0.00000000000E+00  0.00000000000E+00 -0.14437578607E+04  0.17570835073E+04  0.10014517919E+04 0.  0.
        5    1    3    3  502    0 -0.11341948690E+03 -0.44321081910E+03 -0.36486410942E+03  0.58519032675E+03  0.46999998093E+01 0. -1.
       -5    1    3    3    0  502  0.11341948690E+03  0.44321081910E+03 -0.10788937512E+04  0.11718931806E+04  0.46999998093E+01 0.  1.
</event>
<event>
 5   0  0.5768102E-04  0.9862077E+03  0.7818609E-02  0.9323803E-01
       -1   -1    0    0    0  501  0.00000000000E+00  0.00000000000E+00  0.34203690538E+03  0.34203690542E+03  0.50400001928E-02 0.  1.
        1   -1    0    0  501    0  0.00000000000E+00  0.00000000000E+00 -0.71089225818E+03  0.71089225820E+03  0.50400001928E-02 0. -1.
    10030    2    1    2    0    0  0.00000000000E+00  0.00000000000E+00 -0.36885535280E+03  0.10529291636E+04  0.98620766186E+03 0.  0.
        4    1    3    3  502    0 -0.42182066043E+02 -0.10247079845E+03 -0.69742453659E+03  0.70617433284E+03  0.12699999809E+01 0. -1.
       -4    1    3    3    0  502  0.42182066043E+02  0.10247079845E+03  0.32856918379E+03  0.34675483078E+03  0.12699999809E+01 0.  1.
</event>
<event>
 5   0  0.9674819E-04  0.1000048E+04  0.7818609E-02  0.9308493E-01
       -2   -1    0    0    0  501  0.00000000000E+00  0.00000000000E+00  0.10543898214E+03  0.10543898217E+03  0.25500000920E-02 0.  1.
        2   -1    0    0  501    0  0.00000000000E+00  0.00000000000E+00 -0.23712650478E+04  0.23712650478E+04  0.25500000920E-02 0. -1.
    10030    2    1    2    0    0  0.00000000000E+00  0.00000000000E+00 -0.22658260656E+04  0.24767040299E+04  0.10000475450E+04 0.  0.
        4    1    3    3  502    0 -0.43337375644E+02 -0.19791167859E+01  0.10076534321E+03  0.10971468600E+03  0.12699999809E+01 0.  1.
       -4    1    3    3    0  502  0.43337375644E+02  0.19791167859E+01 -0.23665914088E+04  0.23669893439E+04  0.12699999809E+01 0. -1.
</event>
<event>
 5   0  0.9741826E-04  0.9976199E+03  0.7818609E-02  0.9311159E-01
        2   -1    0    0  501    0  0.00000000000E+00  0.00000000000E+00  0.73753884965E+03  0.73753884965E+03  0.25500000920E-02 0. -1.
       -2   -1    0    0    0  501  0.00000000000E+00  0.00000000000E+00 -0.33735359956E+03  0.33735359957E+03  0.25500000920E-02 0.  1.
    10030    2    1    2    0    0  0.00000000000E+00  0.00000000000E+00  0.40018525009E+03  0.10748924492E+04  0.99761993915E+03 0.  0.
        3    1    3    3  502    0  0.14327224344E+03 -0.44595115252E+03  0.15309529080E+02  0.46865099814E+03  0.10100000352E+00 0.  1.
       -3    1    3    3    0  502 -0.14327224344E+03  0.44595115252E+03  0.38487572101E+03  0.60624145108E+03  0.10100000352E+00 0. -1.
</event>
<event>
 5   0  0.5960102E-04  0.1015727E+04  0.7818609E-02  0.9291461E-01
        1   -1    0    0  501    0  0.00000000000E+00  0.00000000000E+00  0.11942556251E+04  0.11942556251E+04  0.50400001928E-02 0. -1.
       -1   -1    0    0    0  501  0.00000000000E+00  0.00000000000E+00 -0.21597180601E+03  0.21597180607E+03  0.50400001928E-02 0.  1.
    10030    2    1    2    0    0  0.00000000000E+00  0.00000000000E+00  0.97828381905E+03  0.14102274311E+04  0.10157274127E+04 0.  0.
        5    1    3    3  502    0  0.41764783016E+03 -0.24030549803E+03  0.26644886246E+03  0.55063011970E+03  0.46999998093E+01 0.  1.
       -5    1    3    3    0  502 -0.41764783016E+03  0.24030549803E+03  0.71183495659E+03  0.85959731144E+03  0.46999998093E+01 0. -1.
</event>
<event>
 5   0  0.1006006E-03  0.9999760E+03  0.7818609E-02  0.9308571E-01
       -2   -1    0    0    0  501  0.00000000000E+00  0.00000000000E+00  0.61490905400E+03  0.61490905400E+03  0.25500000920E-02 0.  1.
        2   -1    0    0  501    0  0.00000000000E+00  0.00000000000E+00 -0.40654466587E+03  0.40654466588E+03  0.25500000920E-02 0. -1.
    10030    2    1    2    0    0  0.00000000000E+00  0.00000000000E+00  0.20836438813E+03  0.10214537199E+04  0.99997599152E+03 0.  0.
        2    1    3    3  502    0 -0.41590723178E+03  0.22957449388E+03  0.26343036470E+03  0.54321158929E+03  0.25500000920E-02 0.  1.
       -2    1    3    3    0  502  0.41590723178E+03 -0.22957449388E+03 -0.55065976570E+02  0.47824213059E+03  0.25500000920E-02 0. -1.
</event>
<event>
 5   0  0.5960102E-04  0.9997156E+03  0.7818609E-02  0.9308857E-01
       -1   -1    0    0    0  501  0.00000000000E+00  0.00000000000E+00  0.52672215721E+03  0.52672215723E+03  0.50400001928E-02 0.  1.
        1   -1    0    0  501    0  0.00000000000E+00  0.00000000000E+00 -0.47436361506E+03  0.47436361509E+03  0.50400001928E-02 0. -1.
    10030    2    1    2    0    0  0.00000000000E+00  0.00000000000E+00  0.52358542142E+02  0.10010857723E+04  0.99971561287E+03 0.  0.
        5    1    3    3  502    0 -0.41853558027E+03  0.27297304058E+03  0.38419928071E+02  0.50118309400E+03  0.46999998093E+01 0.  1.
       -5    1    3    3    0  502  0.41853558027E+03 -0.27297304058E+03  0.13938614072E+02  0.49990267832E+03  0.46999998093E+01 0. -1.
</event>
<event>
 5   0  0.1006006E-03  0.9994330E+03  0.7818609E-02  0.9309167E-01
        2   -1    0    0  501    0  0.00000000000E+00  0.00000000000E+00  0.56248493456E+03  0.56248493457E+03  0.25500000920E-02 0. -1.
       -2   -1    0    0    0  501  0.00000000000E+00  0.00000000000E+00 -0.44395243974E+03  0.44395243975E+03  0.25500000920E-02 0.  1.
    10030    2    1    2    0    0  0.00000000000E+00  0.00000000000E+00  0.11853249482E+03  0.10064373743E+04  0.99943295728E+03 0.  0.
        2    1    3    3  502    0  0.87833224495E+02 -0.47990546088E+03 -0.49624063015E+02  0.49039420301E+03  0.25500000920E-02 0. -1.
       -2    1    3    3    0  502 -0.87833224495E+02  0.47990546088E+03  0.16815655784E+03  0.51604317131E+03  0.25500000920E-02 0.  1.
</event>
<event>
 5   0  0.5758786E-04  0.1000692E+04  0.7818609E-02  0.9307786E-01
       -1   -1    0    0    0  501  0.00000000000E+00  0.00000000000E+00  0.34486843955E+03  0.34486843959E+03  0.50400001928E-02 0. -1.
        1   -1    0    0  501    0  0.00000000000E+00  0.00000000000E+00 -0.72591768912E+03  0.72591768914E+03  0.50400001928E-02 0.  1.
    10030    2    1    2    0    0  0.00000000000E+00  0.00000000000E+00 -0.38104924957E+03  0.10707861287E+04  0.10006919620E+04 0.  0.
        3    1    3    3  502    0  0.25155471325E+03 -0.43009002578E+03 -0.23943035476E+03  0.55279662536E+03  0.10100000352E+00 0.  1.
       -3    1    3    3    0  502 -0.25155471325E+03  0.43009002578E+03 -0.14161889481E+03  0.51798950337E+03  0.10100000352E+00 0. -1.
</event>
<event>
 5   0  0.9741826E-04  0.9995565E+03  0.7818609E-02  0.9309031E-01
       -2   -1    0    0    0  501  0.00000000000E+00  0.00000000000E+00  0.27672219955E+03  0.27672219957E+03  0.25500000920E-02 0. -1.
        2   -1    0    0  501    0  0.00000000000E+00  0.00000000000E+00 -0.90263193028E+03  0.90263193029E+03  0.25500000920E-02 0.  1.
    10030    2    1    2    0    0  0.00000000000E+00  0.00000000000E+00 -0.62590973073E+03  0.11793541299E+04  0.99955648794E+03 0.  0.
        3    1    3    3  502    0 -0.33251329568E+03  0.15566256517E+03 -0.71304007173E+03  0.80201127180E+03  0.10100000352E+00 0.  1.
       -3    1    3    3    0  502  0.33251329568E+03 -0.15566256517E+03  0.87130341004E+02  0.37734285805E+03  0.10100000352E+00 0. -1.
</event>
<event>
 5   0  0.5888774E-04  0.9992714E+03  0.7818609E-02  0.9309344E-01
       -1   -1    0    0    0  501  0.00000000000E+00  0.00000000000E+00  0.84697196091E+03  0.84697196093E+03  0.50400001928E-02 0.  1.
        1   -1    0    0  501    0  0.00000000000E+00  0.00000000000E+00 -0.29473921900E+03  0.29473921904E+03  0.50400001928E-02 0. -1.
    10030    2    1    2    0    0  0.00000000000E+00  0.00000000000E+00  0.55223274192E+03  0.11417111800E+04  0.99927144321E+03 0.  0.
        2    1    3    3  502    0  0.64350457570E+02 -0.49229135158E+03  0.21205137257E+03  0.53986807726E+03  0.25500000920E-02 0.  1.
       -2    1    3    3    0  502 -0.64350457570E+02  0.49229135158E+03  0.34018136934E+03  0.60184310271E+03  0.25500000920E-02 0. -1.
</event>
<event>
 5   0  0.5826939E-04  0.1000668E+04  0.7818609E-02  0.9307812E-01
       -1   -1    0    0    0  501  0.00000000000E+00  0.00000000000E+00  0.34176736293E+03  0.34176736296E+03  0.50400001928E-02 0. -1.
        1   -1    0    0  501    0  0.00000000000E+00  0.00000000000E+00 -0.73246940116E+03  0.73246940118E+03  0.50400001928E-02 0.  1.
    10030    2    1    2    0    0  0.00000000000E+00  0.00000000000E+00 -0.39070203823E+03  0.10742367641E+04  0.10006680482E+04 0.  0.
        1    1    3    3  502    0 -0.15216469255E+03  0.47626605430E+03 -0.21545444801E+03  0.54443003897E+03  0.50400001928E-02 0. -1.
       -1    1    3    3    0  502  0.15216469255E+03 -0.47626605430E+03 -0.17524759022E+03  0.52980672517E+03  0.50400001928E-02 0.  1.
</event>
<event>
 5   0  0.1006006E-03  0.9925640E+03  0.7818609E-02  0.9316738E-01
       -2   -1    0    0    0  501  0.00000000000E+00  0.00000000000E+00  0.12361443746E+04  0.12361443746E+04  0.25500000920E-02 0. -1.
        2   -1    0    0  501    0  0.00000000000E+00  0.00000000000E+00 -0.19924519681E+03  0.19924519682E+03  0.25500000920E-02 0.  1.
    10030    2    1    2    0    0  0.00000000000E+00  0.00000000000E+00  0.10368991778E+04  0.14353895714E+04  0.99256401145E+03 0.  0.
        2    1    3    3  502    0 -0.27255953233E+03  0.20906730012E+03  0.45980293032E+00  0.34350843668E+03  0.25500000920E-02 0.  1.
       -2    1    3    3    0  502  0.27255953233E+03 -0.20906730012E+03  0.10364393748E+04  0.10918811347E+04  0.25500000920E-02 0. -1.
</event>
<event>
 5   0  0.5758786E-04  0.1000591E+04  0.7818609E-02  0.9307897E-01
       -1   -1    0    0    0  501  0.00000000000E+00  0.00000000000E+00  0.11290299024E+04  0.11290299024E+04  0.50400001928E-02 0. -1.
        1   -1    0    0  501    0  0.00000000000E+00  0.00000000000E+00 -0.22169081971E+03  0.22169081977E+03  0.50400001928E-02 0.  1.
    10030    2    1    2    0    0  0.00000000000E+00  0.00000000000E+00  0.90733908272E+03  0.13507207222E+04  0.10005909546E+04 0.  0.
        3    1    3    3  502    0  0.38653995519E+03  0.12320615292E+03  0.84885972131E+03  0.94082715189E+03  0.10100000352E+00 0. -1.
       -3    1    3    3    0  502 -0.38653995519E+03 -0.12320615292E+03  0.58479361411E+02  0.40989357032E+03  0.10100000352E+00 0.  1.
</event>
<event>
 5   0  0.9674819E-04  0.9968840E+03  0.7818609E-02  0.9311969E-01
        2   -1    0    0  501    0  0.00000000000E+00  0.00000000000E+00  0.10111058961E+04  0.10111058961E+04  0.25500000920E-02 0. -1.
       -2   -1    0    0    0  501  0.00000000000E+00  0.00000000000E+00 -0.24571552493E+03  0.24571552495E+03  0.25500000920E-02 0.  1.
    10030    2    1    2    0    0  0.00000000000E+00  0.00000000000E+00  0.76539037115E+03  0.12568214210E+04  0.99688397726E+03 0.  0.
        4    1    3    3  502    0  0.23019232653E+03  0.42114174358E+03  0.21310708172E+03  0.52513342738E+03  0.12699999809E+01 0. -1.
       -4    1    3    3    0  502 -0.23019232653E+03 -0.42114174358E+03  0.55228328943E+03  0.73168799365E+03  0.12699999809E+01 0.  1.
</event>
<event>
 5   0  0.9741826E-04  0.1001436E+04  0.7818609E-02  0.9306971E-01
       -2   -1    0    0    0  501  0.00000000000E+00  0.00000000000E+00  0.63942792450E+03  0.63942792450E+03  0.25500000920E-02 0.  1.
        2   -1    0    0  501    0  0.00000000000E+00  0.00000000000E+00 -0.39209850223E+03  0.39209850224E+03  0.25500000920E-02 0. -1.
    10030    2    1    2    0    0  0.00000000000E+00  0.00000000000E+00  0.24732942227E+03  0.10315264267E+04  0.10014364313E+04 0.  0.
        3    1    3    3  502    0 -0.26416339369E+03  0.36825780060E+03 -0.95623079509E+02  0.46318450946E+03  0.10100000352E+00 0. -1.
       -3    1    3    3    0  502  0.26416339369E+03 -0.36825780060E+03  0.34295250177E+03  0.56834191729E+03  0.10100000352E+00 0.  1.
</event>
<event>
 5   0  0.1020150E-03  0.1001417E+04  0.7818609E-02  0.9306992E-01
        2   -1    0    0  501    0  0.00000000000E+00  0.00000000000E+00  0.64355666528E+03  0.64355666529E+03  0.25500000920E-02 0. -1.
       -2   -1    0    0    0  501  0.00000000000E+00  0.00000000000E+00 -0.38956804655E+03  0.38956804656E+03  0.25500000920E-02 0.  1.
    10030    2    1    2    0    0  0.00000000000E+00  0.00000000000E+00  0.25398861873E+03  0.10331247118E+04  0.10014172216E+04 0.  0.
        5    1    3    3  502    0  0.84473876056E+02  0.15913353657E+03  0.60893393552E+03  0.63504483781E+03  0.46999998093E+01 0. -1.
       -5    1    3    3    0  502 -0.84473876056E+02 -0.15913353657E+03 -0.35494531679E+03  0.39807987403E+03  0.46999998093E+01 0.  1.
</event>
<event>
 5   0  0.5768102E-04  0.9864136E+03  0.7818609E-02  0.9323573E-01
        1   -1    0    0  501    0  0.00000000000E+00  0.00000000000E+00  0.11589283773E+04  0.11589283773E+04  0.50400001928E-02 0. -1.
       -1   -1    0    0    0  501  0.00000000000E+00  0.00000000000E+00 -0.20989472878E+03  0.20989472885E+03  0.50400001928E-02 0.  1.
    10030    2    1    2    0    0  0.00000000000E+00  0.00000000000E+00  0.94903364852E+03  0.13688231062E+04  0.98641362011E+03 0.  0.
        4    1    3    3  502    0 -0.19108187374E+03  0.37846988363E+03  0.82419924017E+03  0.92685367544E+03  0.12699999809E+01 0. -1.
       -4    1    3    3    0  502  0.19108187374E+03 -0.37846988363E+03  0.12483440835E+03  0.44196943072E+03  0.12699999809E+01 0.  1.
</event>
<event>
 5   0  0.5758786E-04  0.1000364E+04  0.7818609E-02  0.9308145E-01
       -1   -1    0    0    0  501  0.00000000000E+00  0.00000000000E+00  0.39249475357E+03  0.39249475360E+03  0.50400001928E-02 0.  1.
        1   -1    0    0  501    0  0.00000000000E+00  0.00000000000E+00 -0.63741519100E+03  0.63741519102E+03  0.50400001928E-02 0. -1.
    10030    2    1    2    0    0  0.00000000000E+00  0.00000000000E+00 -0.24492043743E+03  0.10299099446E+04  0.10003641704E+04 0.  0.
        3    1    3    3  502    0 -0.27405685395E+03 -0.10052164099E+03  0.29570130476E+03  0.41551297373E+03  0.10100000352E+00 0.  1.
       -3    1    3    3    0  502  0.27405685395E+03  0.10052164099E+03 -0.54062174219E+03  0.61439697089E+03  0.10100000352E+00 0. -1.
</event>
<event>
 5   0  0.5960102E-04  0.1000659E+04  0.7818609E-02  0.9307823E-01
        1   -1    0    0  501    0  0.00000000000E+00  0.00000000000E+00  0.13816883312E+04  0.13816883312E+04  0.50400001928E-02 0.  1.
       -1   -1    0    0    0  501  0.00000000000E+00  0.00000000000E+00 -0.18117651627E+03  0.18117651634E+03  0.50400001928E-02 0. -1.
    10030    2    1    2    0    0  0.00000000000E+00  0.00000000000E+00  0.12005118149E+04  0.15628648475E+04  0.10006587400E+04 0.  0.
        5    1    3    3  502    0 -0.13691850876E+03 -0.16930722927E+03  0.13037685870E+04  0.13218344202E+04  0.46999998093E+01 0.  1.
       -5    1    3    3    0  502  0.13691850876E+03  0.16930722927E+03 -0.10325677210E+03  0.24103042734E+03  0.46999998093E+01 0. -1.
</event>
<event>
 5   0  0.9674819E-04  0.1007855E+04  0.7818609E-02  0.9299971E-01
       -2   -1    0    0    0  501  0.00000000000E+00  0.00000000000E+00  0.15206141294E+03  0.15206141297E+03  0.25500000920E-02 0. -1.
        2   -1    0    0  501    0  0.00000000000E+00  0.00000000000E+00 -0.16700035095E+04  0.16700035095E+04  0.25500000920E-02 0.  1.
    10030    2    1    2    0    0  0.00000000000E+00  0.00000000000E+00 -0.15179420966E+04  0.18220649225E+04  0.10078553335E+04 0.  0.
        4    1    3    3  502    0 -0.60865615588E+02  0.46912336623E+03 -0.44500534183E+03  0.64947111026E+03  0.12699999809E+01 0. -1.
       -4    1    3    3    0  502  0.60865615588E+02 -0.46912336623E+03 -0.10729367548E+04  0.11725938123E+04  0.12699999809E+01 0.  1.
</event>
<event>
 5   0  0.1006749E-03  0.9996301E+03  0.7818609E-02  0.9308951E-01
       -2   -1    0    0    0  501  0.00000000000E+00  0.00000000000E+00  0.45815857826E+03  0.45815857827E+03  0.25500000920E-02 0. -1.
        2   -1    0    0  501    0  0.00000000000E+00  0.00000000000E+00 -0.54525895226E+03  0.54525895226E+03  0.25500000920E-02 0.  1.
    10030    2    1    2    0    0  0.00000000000E+00  0.00000000000E+00 -0.87100373996E+02  0.10034175305E+04  0.99963006428E+03 0.  0.
        1    1    3    3  502    0  0.48943105963E+03 -0.10052601818E+03 -0.30585218451E+02  0.50058335777E+03  0.50400001928E-02 0.  1.
       -1    1    3    3    0  502 -0.48943105963E+03  0.10052601818E+03 -0.56515155545E+02  0.50283417276E+03  0.50400001928E-02 0. -1.
</event>
<event>
 5   0  0.1020150E-03  0.9994083E+03  0.7818609E-02  0.9309194E-01
       -2   -1    0    0    0  501  0.00000000000E+00  0.00000000000E+00  0.32071331357E+03  0.32071331358E+03  0.25500000920E-02 0.  1.
        2   -1    0    0  501    0  0.00000000000E+00  0.00000000000E+00 -0.77859011848E+03  0.77859011848E+03  0.25500000920E-02 0. -1.
    10030    2    1    2    0    0  0.00000000000E+00  0.00000000000E+00 -0.45787680491E+03  0.10993034321E+04  0.99940825856E+03 0.  0.
        5    1    3    3  502    0 -0.43552334608E+03  0.87824074339E+02  0.22584556147E+02  0.44488853120E+03  0.46999998093E+01 0.  1.
       -5    1    3    3    0  502  0.43552334608E+03 -0.87824074339E+02 -0.48046136105E+03  0.65441490087E+03  0.46999998093E+01 0. -1.
</event>
<event>
 5   0  0.9674819E-04  0.9980985E+03  0.7818609E-02  0.9310633E-01
       -2   -1    0    0    0  501  0.00000000000E+00  0.00000000000E+00  0.20208350235E+03  0.20208350237E+03  0.25500000920E-02 0. -1.
        2   -1    0    0  501    0  0.00000000000E+00  0.00000000000E+00 -0.12324120552E+04  0.12324120552E+04  0.25500000920E-02 0.  1.
    10030    2    1    2    0    0  0.00000000000E+00  0.00000000000E+00 -0.10303285529E+04  0.14344955576E+04  0.99809848106E+03 0.  0.
        4    1    3    3  502    0 -0.46789755506E+03 -0.13478732329E+02 -0.76384522994E+03  0.89586324093E+03  0.12699999809E+01 0.  1.
       -4    1    3    3    0  502  0.46789755506E+03  0.13478732329E+02 -0.26648332294E+03  0.53863231667E+03  0.12699999809E+01 0. -1.
</event>
<event>
 5   0  0.1006006E-03  0.1001013E+04  0.7818609E-02  0.9307434E-01
        2   -1    0    0  501    0  0.00000000000E+00  0.00000000000E+00  0.50070941265E+03  0.50070941265E+03  0.25500000920E-02 0. -1.
       -2   -1    0    0    0  501  0.00000000000E+00  0.00000000000E+00 -0.50030376084E+03  0.50030376085E+03  0.25500000920E-02 0.  1.
    10030    2    1    2    0    0  0.00000000000E+00  0.00000000000E+00  0.40565180475E+00  0.10010131735E+04  0.10010130913E+04 0.  0.
        2    1    3    3  502    0 -0.24825437669E+02  0.22793018048E+03 -0.44469982099E+03  0.50032629386E+03  0.25500000920E-02 0.  1.
       -2    1    3    3    0  502  0.24825437669E+02 -0.22793018048E+03  0.44510547280E+03  0.50068687964E+03  0.25500000920E-02 0. -1.
</event>
<event>
 5   0  0.1020150E-03  0.9989148E+03  0.7818609E-02  0.9309736E-01
       -2   -1    0    0    0  501  0.00000000000E+00  0.00000000000E+00  0.15497431584E+03  0.15497431586E+03  0.25500000920E-02 0. -1.
        2   -1    0    0  501    0  0.00000000000E+00  0.00000000000E+00 -0.16096711172E+04  0.16096711172E+04  0.25500000920E-02 0.  1.
    10030    2    1    2    0    0  0.00000000000E+00  0.00000000000E+00 -0.14546968014E+04  0.17646454331E+04  0.99891477141E+03 0.  0.
        5    1    3    3  502    0 -0.30908690147E+03  0.12782104243E+03 -0.72140234665E+02  0.34219765488E+03  0.46999998093E+01 0. -1.
       -5    1    3    3    0  502  0.30908690147E+03 -0.12782104243E+03 -0.13825565667E+04  0.14224477782E+04  0.46999998093E+01 0.  1.
</event>
<event>
 5   0  0.1020150E-03  0.9989712E+03  0.7818609E-02  0.9309674E-01
        2   -1    0    0  501    0  0.00000000000E+00  0.00000000000E+00  0.76465253425E+03  0.76465253425E+03  0.25500000920E-02 0.  1.
       -2   -1    0    0    0  501  0.00000000000E+00  0.00000000000E+00 -0.32627351281E+03  0.32627351282E+03  0.25500000920E-02 0. -1.
    10030    2    1    2    0    0  0.00000000000E+00  0.00000000000E+00  0.43837902144E+03  0.10909260471E+04  0.99897120767E+03 0.  0.
        5    1    3    3  502    0 -0.46799024939E+03 -0.17412907115E+03  0.20683575631E+03  0.54049877616E+03  0.46999998093E+01 0. -1.
       -5    1    3    3    0  502  0.46799024939E+03  0.17412907115E+03  0.23154326513E+03  0.55042727092E+03  0.46999998093E+01 0.  1.
</event>
<event>
 5   0  0.5888774E-04  0.1001668E+04  0.7818609E-02  0.9306718E-01
       -1   -1    0    0    0  501  0.00000000000E+00  0.00000000000E+00  0.74939528690E+03  0.74939528692E+03  0.50400001928E-02 0.  1.
        1   -1    0    0  501    0  0.00000000000E+00  0.00000000000E+00 -0.33471595049E+03  0.33471595053E+03  0.50400001928E-02 0. -1.
    10030    2    1    2    0    0  0.00000000000E+00  0.00000000000E+00  0.41467933641E+03  0.10841112374E+04  0.10016677209E+04 0.  0.
        2    1    3    3  502    0 -0.21522491252E+03  0.29999555030E+03  0.57359354751E+03  0.68215002083E+03  0.25500000920E-02 0.  1.
       -2    1    3    3    0  502  0.21522491252E+03 -0.29999555030E+03 -0.15891421110E+03  0.40196121662E+03  0.25500000920E-02 0. -1.
</event>
<event>
 5   0  0.5888774E-04  0.9937694E+03  0.7818609E-02  0.9315405E-01
        1   -1    0    0  501    0  0.00000000000E+00  0.00000000000E+00  0.77876049405E+03  0.77876049406E+03  0.50400001928E-02 0. -1.
       -1   -1    0    0    0  501  0.00000000000E+00  0.00000000000E+00 -0.31703508920E+03  0.31703508924E+03  0.50400001928E-02 0.  1.
    10030    2    1    2    0    0  0.00000000000E+00  0.00000000000E+00  0.46172540485E+03  0.10957955833E+04  0.99376939524E+03 0.  0.
        2    1    3    3  502    0 -0.24483743588E+03 -0.42066973877E+03  0.12067331038E+03  0.50146829109E+03  0.25500000920E-02 0.  1.
       -2    1    3    3    0  502  0.24483743588E+03  0.42066973877E+03  0.34105209447E+03  0.59432729222E+03  0.25500000920E-02 0. -1.
</event>
<event>
 5   0  0.3854625E-04  0.9962232E+03  0.7818609E-02  0.9312697E-01
       -4   -1    0    0    0  501  0.00000000000E+00  0.00000000000E+00  0.61990714479E+03  0.61990844571E+03  0.12699999809E+01 0. -1.
        4   -1    0    0  501    0  0.00000000000E+00  0.00000000000E+00 -0.40024294033E+03  0.40024495522E+03  0.12699999809E+01 0.  1.
    10030    2    1    2    0    0  0.00000000000E+00  0.00000000000E+00  0.21966420447E+03  0.10201534009E+04  0.99622316713E+03 0.  0.
        1    1    3    3  502    0 -0.30384557852E+03 -0.38540897835E+03  0.19704198282E+03  0.52885514009E+03  0.50400001928E-02 0. -1.
       -1    1    3    3    0  502  0.30384557852E+03  0.38540897835E+03  0.22622221645E+02  0.49129826085E+03  0.50400001928E-02 0.  1.
</event>
<event>
 5   0  0.5960102E-04  0.9971636E+03  0.7818609E-02  0.9311661E-01
       -1   -1    0    0    0  501  0.00000000000E+00  0.00000000000E+00  0.18445483346E+03  0.18445483352E+03  0.50400001928E-02 0.  1.
        1   -1    0    0  501    0  0.00000000000E+00  0.00000000000E+00 -0.13476675676E+04  0.13476675676E+04  0.50400001928E-02 0. -1.
    10030    2    1    2    0    0  0.00000000000E+00  0.00000000000E+00 -0.11632127341E+04  0.15321224011E+04  0.99716357092E+03 0.  0.
        5    1    3    3  502    0  0.37823674876E+03  0.66343347464E+02 -0.93070241148E+02  0.39515647236E+03  0.46999998093E+01 0.  1.
       -5    1    3    3    0  502 -0.37823674876E+03 -0.66343347464E+02 -0.10701424930E+04  0.11369659288E+04  0.46999998093E+01 0. -1.
</event>
<event>
 5   0  0.9741826E-04  0.1000248E+04  0.7818609E-02  0.9308272E-01
        2   -1    0    0  501    0  0.00000000000E+00  0.00000000000E+00  0.30942007535E+03  0.30942007536E+03  0.25500000920E-02 0. -1.
       -2   -1    0    0    0  501  0.00000000000E+00  0.00000000000E+00 -0.80836441736E+03  0.80836441736E+03  0.25500000920E-02 0.  1.
    10030    2    1    2    0    0  0.00000000000E+00  0.00000000000E+00 -0.49894434201E+03  0.11177844927E+04  0.10002483270E+04 0.  0.
        3    1    3    3  502    0  0.10592263910E+02 -0.30865949128E+03 -0.68906778906E+03  0.75511410114E+03  0.10100000352E+00 0.  1.
       -3    1    3    3    0  502 -0.10592263910E+02  0.30865949128E+03  0.19012344705E+03  0.36267039158E+03  0.10100000352E+00 0. -1.
</event>
<event>
 5   0  0.5826939E-04  0.1004095E+04  0.7818609E-02  0.9304064E-01
        1   -1    0    0  501    0  0.00000000000E+00  0.00000000000E+00  0.44682620328E+03  0.44682620331E+03  0.50400001928E-02 0.  1.
       -1   -1    0    0    0  501  0.00000000000E+00  0.00000000000E+00 -0.56409390430E+03  0.56409390432E+03  0.50400001928E-02 0. -1.
    10030    2    1    2    0    0  0.00000000000E+00  0.00000000000E+00 -0.11726770101E+03  0.10109201076E+04  0.10040954886E+04 0.  0.
        1    1    3    3  502    0 -0.31125045854E+03 -0.10776914565E+03 -0.44010342645E+03  0.54971089010E+03  0.50400001928E-02 0. -1.
       -1    1    3    3    0  502  0.31125045854E+03  0.10776914565E+03  0.32283572543E+03  0.46120921753E+03  0.50400001928E-02 0.  1.
</event>
<event>
 5   0  0.5888774E-04  0.1006358E+04  0.7818609E-02  0.9301599E-01
       -1   -1    0    0    0  501  0.00000000000E+00  0.00000000000E+00  0.29887996905E+03  0.29887996909E+03  0.50400001928E-02 0. -1.
        1   -1    0    0  501    0  0.00000000000E+00  0.00000000000E+00 -0.84712588018E+03  0.84712588019E+03  0.50400001928E-02 0.  1.
    10030    2    1    2    0    0  0.00000000000E+00  0.00000000000E+00 -0.54824591113E+03  0.11460058493E+04  0.10063577036E+04 0.  0.
        2    1    3    3  502    0  0.28633390261E+03  0.38177903810E+03 -0.45577885391E+03  0.65990658535E+03  0.25500000920E-02 0.  1.
       -2    1    3    3    0  502 -0.28633390261E+03 -0.38177903810E+03 -0.92467057225E+02  0.48609926393E+03  0.25500000920E-02 0. -1.
</event>
<event>
 5   0  0.5960102E-04  0.1000319E+04  0.7818609E-02  0.9308195E-01
       -1   -1    0    0    0  501  0.00000000000E+00  0.00000000000E+00  0.10132884382E+04  0.10132884383E+04  0.50400001928E-02 0. -1.
        1   -1    0    0  501    0  0.00000000000E+00  0.00000000000E+00 -0.24687908793E+03  0.24687908799E+03  0.50400001928E-02 0.  1.
    10030    2    1    2    0    0  0.00000000000E+00  0.00000000000E+00  0.76640935031E+03  0.12601675262E+04  0.10003194000E+04 0.  0.
        5    1    3    3  502    0 -0.41436513118E+02 -0.47323357584E+03  0.58027090107E+03  0.74993560427E+03  0.46999998093E+01 0. -1.
       -5    1    3    3    0  502  0.41436513118E+02  0.47323357584E+03  0.18613844923E+03  0.51023192197E+03  0.46999998093E+01 0.  1.
</event>
<event>
 5   0  0.1006006E-03  0.1001006E+04  0.7818609E-02  0.9307443E-01
        2   -1    0    0  501    0  0.00000000000E+00  0.00000000000E+00  0.87675435584E+03  0.87675435584E+03  0.25500000920E-02 0. -1.
       -2   -1    0    0    0  501  0.00000000000E+00  0.00000000000E+00 -0.28571637387E+03  0.28571637388E+03  0.25500000920E-02 0.  1.
    10030    2    1    2    0    0  0.00000000000E+00  0.00000000000E+00  0.59103798197E+03  0.11624707297E+04  0.10010056450E+04 0.  0.
        2    1    3    3  502    0 -0.15280809068E+03 -0.35894274101E+03  0.65964415242E+03  0.76636845690E+03  0.25500000920E-02 0. -1.
       -2    1    3    3    0  502  0.15280809068E+03  0.35894274101E+03 -0.68606170451E+02  0.39610227282E+03  0.25500000920E-02 0.  1.
</event>
<event>
 5   0  0.9674819E-04  0.1000083E+04  0.7818609E-02  0.9308454E-01
       -2   -1    0    0    0  501  0.00000000000E+00  0.00000000000E+00  0.93447619408E+03  0.93447619408E+03  0.25500000920E-02 0.  1.
        2   -1    0    0  501    0  0.00000000000E+00  0.00000000000E+00 -0.26757398658E+03  0.26757398659E+03  0.25500000920E-02 0. -1.
    10030    2    1    2    0    0  0.00000000000E+00  0.00000000000E+00  0.66690220750E+03  0.12020501807E+04  0.10000830378E+04 0.  0.
        4    1    3    3  502    0 -0.46783695593E+02 -0.42155015036E+03  0.65179025096E+03  0.77764091172E+03  0.12699999809E+01 0.  1.
       -4    1    3    3    0  502  0.46783695593E+02  0.42155015036E+03  0.15111956537E+02  0.42440926895E+03  0.12699999809E+01 0. -1.
</event>
<event>
 5   0  0.5758786E-04  0.9999041E+03  0.7818609E-02  0.9308650E-01
        1   -1    0    0  501    0  0.00000000000E+00  0.00000000000E+00  0.48307630936E+03  0.48307630938E+03  0.50400001928E-02 0.  1.
       -1   -1    0    0    0  501  0.00000000000E+00  0.00000000000E+00 -0.51741735718E+03  0.51741735721E+03  0.50400001928E-02 0. -1.
    10030    2    1    2    0    0  0.00000000000E+00  0.00000000000E+00 -0.34341047825E+02  0.10004936666E+04  0.99990413007E+03 0.  0.
        3    1    3    3  502    0 -0.22666044051E+03 -0.29972215041E+03  0.31278705108E+03  0.48892133545E+03  0.10100000352E+00 0.  1.
       -3    1    3    3    0  502  0.22666044051E+03  0.29972215041E+03 -0.34712809890E+03  0.51157233114E+03  0.10100000352E+00 0. -1.
</event>
<event>
 5   0  0.1006006E-03  0.1001044E+04  0.7818609E-02  0.9307401E-01
        2   -1    0    0  501    0  0.00000000000E+00  0.00000000000E+00  0.48222522786E+03  0.48222522786E+03  0.25500000920E-02 0. -1.
       -2   -1    0    0    0  501  0.00000000000E+00  0.00000000000E+00 -0.51951268580E+03  0.51951268580E+03  0.25500000920E-02 0.  1.
    10030    2    1    2    0    0  0.00000000000E+00  0.00000000000E+00 -0.37287457940E+02  0.10017379137E+04  0.10010437019E+04 0.  0.
        2    1    3    3  502    0 -0.15481432081E+03  0.29504946487E+03 -0.39240035232E+03  0.51478121291E+03  0.25500000920E-02 0.  1.
       -2    1    3    3    0  502  0.15481432081E+03 -0.29504946487E+03  0.35511289438E+03  0.48695670076E+03  0.25500000920E-02 0. -1.
</event>
<event>
 5   0  0.5960102E-04  0.1023406E+04  0.7818609E-02  0.9283240E-01
        1   -1    0    0  501    0  0.00000000000E+00  0.00000000000E+00  0.50489389618E+03  0.50489389620E+03  0.50400001928E-02 0.  1.
       -1   -1    0    0    0  501  0.00000000000E+00  0.00000000000E+00 -0.51860397896E+03  0.51860397899E+03  0.50400001928E-02 0. -1.
    10030    2    1    2    0    0  0.00000000000E+00  0.00000000000E+00 -0.13710082785E+02  0.10234978752E+04  0.10234060456E+04 0.  0.
        5    1    3    3  502    0  0.78006149399E+02 -0.11910833381E+03 -0.49837257774E+03  0.51833297287E+03  0.46999998093E+01 0. -1.
       -5    1    3    3    0  502 -0.78006149399E+02  0.11910833381E+03  0.48466249495E+03  0.50516490232E+03  0.46999998093E+01 0.  1.
</event>
<event>
 5   0  0.3854625E-04  0.1000825E+04  0.7818609E-02  0.9307640E-01
        3   -1    0    0  501    0  0.00000000000E+00  0.00000000000E+00  0.70777221253E+03  0.70777221973E+03  0.10100000352E+00 0.  1.
       -3   -1    0    0    0  501  0.00000000000E+00  0.00000000000E+00 -0.35380412722E+03  0.35380414163E+03  0.10100000352E+00 0. -1.
    10030    2    1    2    0    0  0.00000000000E+00  0.00000000000E+00  0.35396808531E+03  0.10615763614E+04  0.10008251424E+04 0.  0.
        1    1    3    3  502    0 -0.21274303993E+02 -0.17674058371E+03 -0.31908276784E+03  0.36538150295E+03  0.50400001928E-02 0. -1.
       -1    1    3    3    0  502  0.21274303993E+02  0.17674058371E+03  0.67305085314E+03  0.69619485842E+03  0.50400001928E-02 0.  1.
</event>
<event>
 5   0  0.5768102E-04  0.9986535E+03  0.7818609E-02  0.9310023E-01
        1   -1    0    0  501    0  0.00000000000E+00  0.00000000000E+00  0.18733056650E+04  0.18733056650E+04  0.50400001928E-02 0.  1.
       -1   -1    0    0    0  501  0.00000000000E+00  0.00000000000E+00 -0.13309479206E+03  0.13309479216E+03  0.50400001928E-02 0. -1.
    10030    2    1    2    0    0  0.00000000000E+00  0.00000000000E+00  0.17402108729E+04  0.20064004571E+04  0.99865354964E+03 0.  0.
        4    1    3    3  502    0  0.28709226235E+03 -0.25766595378E+03  0.23314637733E+03  0.45074666610E+03  0.12699999809E+01 0. -1.
       -4    1    3    3    0  502 -0.28709226235E+03  0.25766595378E+03  0.15070644956E+04  0.15556537910E+04  0.12699999809E+01 0.  1.
</event>
<event>
 5   0  0.5888774E-04  0.9999297E+03  0.7818609E-02  0.9308622E-01
        1   -1    0    0  501    0  0.00000000000E+00  0.00000000000E+00  0.99986548477E+03  0.99986548478E+03  0.50400001928E-02 0. -1.
       -1   -1    0    0    0  501  0.00000000000E+00  0.00000000000E+00 -0.24999846270E+03  0.24999846275E+03  0.50400001928E-02 0.  1.
    10030    2    1    2    0    0  0.00000000000E+00  0.00000000000E+00  0.74986702207E+03  0.12498639475E+04  0.99992966580E+03 0.  0.
        2    1    3    3  502    0  0.15343139672E+03  0.44782237848E+03  0.57601171720E+03  0.74557063684E+03  0.25500000920E-02 0. -1.
       -2    1    3    3    0  502 -0.15343139672E+03 -0.44782237848E+03  0.17385530487E+03  0.50429331069E+03  0.25500000920E-02 0.  1.
</event>
<event>
 5   0  0.5960102E-04  0.1000322E+04  0.7818609E-02  0.9308192E-01
       -1   -1    0    0    0  501  0.00000000000E+00  0.00000000000E+00  0.16541181949E+03  0.16541181956E+03  0.50400001928E-02 0. -1.
        1   -1    0    0  501    0  0.00000000000E+00  0.00000000000E+00 -0.15123523526E+04  0.15123523526E+04  0.50400001928E-02 0.  1.
    10030    2    1    2    0    0  0.00000000000E+00  0.00000000000E+00 -0.13469405331E+04  0.16777641721E+04  0.10003218570E+04 0.  0.
        5    1    3    3  502    0 -0.26012281611E+03  0.32396983497E+03 -0.20649495043E+03  0.46398554717E+03  0.46999998093E+01 0. -1.
       -5    1    3    3    0  502  0.26012281611E+03 -0.32396983497E+03 -0.11404455826E+04  0.12137786250E+04  0.46999998093E+01 0.  1.
</event>
<event>
 5   0  0.5826939E-04  0.9994716E+03  0.7818609E-02  0.9309125E-01
       -1   -1    0    0    0  501  0.00000000000E+00  0.00000000000E+00  0.17089985000E+03  0.17089985008E+03  0.50400001928E-02 0.  1.
        1   -1    0    0  501    0  0.00000000000E+00  0.00000000000E+00 -0.14612993865E+04  0.14612993865E+04  0.50400001928E-02 0. -1.
    10030    2    1    2    0    0  0.00000000000E+00  0.00000000000E+00 -0.12903995365E+04  0.16321992365E+04  0.99947155242E+03 0.  0.
        1    1    3    3  502    0 -0.16196708354E+03  0.44230277559E+03 -0.91783198456E+03  0.10316397789E+04  0.50400001928E-02 0. -1.
       -1    1    3    3    0  502  0.16196708354E+03 -0.44230277559E+03 -0.37256755190E+03  0.60055945768E+03  0.50400001928E-02 0.  1.
</event>
<event>
 5   0  0.9741826E-04  0.9982381E+03  0.7818609E-02  0.9310479E-01
       -2   -1    0    0    0  501  0.00000000000E+00  0.00000000000E+00  0.31291296967E+03  0.31291296969E+03  0.25500000920E-02 0. -1.
        2   -1    0    0  501    0  0.00000000000E+00  0.00000000000E+00 -0.79613139333E+03  0.79613139333E+03  0.25500000920E-02 0.  1.
    10030    2    1    2    0    0  0.00000000000E+00  0.00000000000E+00 -0.48321842366E+03  0.11090443630E+04  0.99823812499E+03 0.  0.
        3    1    3    3  502    0 -0.25633046978E+03  0.35508366037E+03 -0.50762423505E+03  0.67042679676E+03  0.10100000352E+00 0.  1.
       -3    1    3    3    0  502  0.25633046978E+03 -0.35508366037E+03  0.24405811395E+02  0.43861756626E+03  0.10100000352E+00 0. -1.
</event>
<event>
 5   0  0.9741826E-04  0.1000717E+04  0.7818609E-02  0.9307759E-01
       -2   -1    0    0    0  501  0.00000000000E+00  0.00000000000E+00  0.70200896713E+03  0.70200896714E+03  0.25500000920E-02 0.  1.
        2   -1    0    0  501    0  0.00000000000E+00  0.00000000000E+00 -0.35663167535E+03  0.35663167536E+03  0.25500000920E-02 0. -1.
    10030    2    1    2    0    0  0.00000000000E+00  0.00000000000E+00  0.34537729178E+03  0.10586406425E+04  0.10007170111E+04 0.  0.
        3    1    3    3  502    0 -0.14539923250E+03  0.17869261515E+03  0.64256773142E+03  0.68261650081E+03  0.10100000352E+00 0.  1.
       -3    1    3    3    0  502  0.14539923250E+03 -0.17869261515E+03 -0.29719043964E+03  0.37602414169E+03  0.10100000352E+00 0. -1.
</event>
<event>
 5   0  0.5960102E-04  0.9982125E+03  0.7818609E-02  0.9310507E-01
        1   -1    0    0  501    0  0.00000000000E+00  0.00000000000E+00  0.34235148726E+03  0.34235148729E+03  0.50400001928E-02 0. -1.
       -1   -1    0    0    0  501  0.00000000000E+00  0.00000000000E+00 -0.72763538775E+03  0.72763538777E+03  0.50400001928E-02 0.  1.
    10030    2    1    2    0    0  0.00000000000E+00  0.00000000000E+00 -0.38528390050E+03  0.10699868751E+04  0.99821251686E+03 0.  0.
        5    1    3    3  502    0 -0.44059674377E+03  0.20293370796E+03 -0.66825083920E+02  0.48968894442E+03  0.46999998093E+01 0.  1.
       -5    1    3    3    0  502  0.44059674377E+03 -0.20293370796E+03 -0.31845881658E+03  0.58029793064E+03  0.46999998093E+01 0. -1.
</event>
<event>
 5   0  0.5758786E-04  0.1002604E+04  0.7818609E-02  0.9305693E-01
        1   -1    0    0  501    0  0.00000000000E+00  0.00000000000E+00  0.10912198840E+04  0.10912198840E+04  0.50400001928E-02 0.  1.
       -1   -1    0    0    0  501  0.00000000000E+00  0.00000000000E+00 -0.23029617294E+03  0.23029617300E+03  0.50400001928E-02 0. -1.
    10030    2    1    2    0    0  0.00000000000E+00  0.00000000000E+00  0.86092371102E+03  0.13215160570E+04  0.10026041356E+04 0.  0.
        3    1    3    3  502    0 -0.30569591811E+03  0.26780750692E+03  0.81729838835E+03  0.91276914984E+03  0.10100000352E+00 0.  1.
       -3    1    3    3    0  502  0.30569591811E+03 -0.26780750692E+03  0.43625322675E+02  0.40874690713E+03  0.10100000352E+00 0. -1.
</event>
<event>
 5   0  0.5758786E-04  0.9986818E+03  0.7818609E-02  0.9309992E-01
        1   -1    0    0  501    0  0.00000000000E+00  0.00000000000E+00  0.72016390275E+03  0.72016390277E+03  0.50400001928E-02 0.  1.
       -1   -1    0    0    0  501  0.00000000000E+00  0.00000000000E+00 -0.34622859873E+03  0.34622859876E+03  0.50400001928E-02 0. -1.
    10030    2    1    2    0    0  0.00000000000E+00  0.00000000000E+00  0.37393530402E+03  0.10663925015E+04  0.99868180905E+03 0.  0.
        3    1    3    3  502    0  0.31892219612E+03  0.65266373045E+02  0.59128230668E+03  0.67497099421E+03  0.10100000352E+00 0.  1.
       -3    1    3    3    0  502 -0.31892219612E+03 -0.65266373045E+02 -0.21734700266E+03  0.39142150732E+03  0.10100000352E+00 0. -1.
</event>
<event>
 5   0  0.1006006E-03  0.9998595E+03  0.7818609E-02  0.9308699E-01
       -2   -1    0    0    0  501  0.00000000000E+00  0.00000000000E+00  0.10314413361E+04  0.10314413361E+04  0.25500000920E-02 0. -1.
        2   -1    0    0  501    0  0.00000000000E+00  0.00000000000E+00 -0.24231119144E+03  0.24231119145E+03  0.25500000920E-02 0.  1.
    10030    2    1    2    0    0  0.00000000000E+00  0.00000000000E+00  0.78913014468E+03  0.12737525276E+04  0.99985954826E+03 0.  0.
        2    1    3    3  502    0  0.26804849793E+03 -0.32358633125E+03  0.49492646647E+02  0.42309293671E+03  0.25500000920E-02 0.  1.
       -2    1    3    3    0  502 -0.26804849793E+03  0.32358633125E+03  0.73963749804E+03  0.85065959086E+03  0.25500000920E-02 0. -1.
</event>
<event>
 5   0  0.1006006E-03  0.9978201E+03  0.7818609E-02  0.9310939E-01
        2   -1    0    0  501    0  0.00000000000E+00  0.00000000000E+00  0.10188406008E+04  0.10188406008E+04  0.25500000920E-02 0. -1.
       -2   -1    0    0    0  501  0.00000000000E+00  0.00000000000E+00 -0.24430830016E+03  0.24430830017E+03  0.25500000920E-02 0.  1.
    10030    2    1    2    0    0  0.00000000000E+00  0.00000000000E+00  0.77453230061E+03  0.12631489009E+04  0.99782005455E+03 0.  0.
        2    1    3    3  502    0 -0.25251831825E+03  0.41816076878E+03  0.25886978753E+03  0.55284491180E+03  0.25500000920E-02 0.  1.
       -2    1    3    3    0  502  0.25251831825E+03 -0.41816076878E+03  0.51566251307E+03  0.71030398914E+03  0.25500000920E-02 0. -1.
</event>
<event>
 5   0  0.5768102E-04  0.1002494E+04  0.7818609E-02  0.9305813E-01
        1   -1    0    0  501    0  0.00000000000E+00  0.00000000000E+00  0.49925388769E+03  0.49925388771E+03  0.50400001928E-02 0.  1.
       -1   -1    0    0    0  501  0.00000000000E+00  0.00000000000E+00 -0.50324848218E+03  0.50324848221E+03  0.50400001928E-02 0. -1.
    10030    2    1    2    0    0  0.00000000000E+00  0.00000000000E+00 -0.39945944950E+01  0.10025023699E+04  0.10024944114E+04 0.  0.
        4    1    3    3  502    0  0.47240726909E+03  0.15484615539E+03 -0.66038328774E+02  0.50150636436E+03  0.12699999809E+01 0. -1.
       -4    1    3    3    0  502 -0.47240726909E+03 -0.15484615539E+03  0.62043734279E+02  0.50099600556E+03  0.12699999809E+01 0.  1.
</event>
<event>
 5   0  0.1006749E-03  0.1000433E+04  0.7818609E-02  0.9308070E-01
       -2   -1    0    0    0  501  0.00000000000E+00  0.00000000000E+00  0.88555822939E+02  0.88555822975E+02  0.25500000920E-02 0. -1.
        2   -1    0    0  501    0  0.00000000000E+00  0.00000000000E+00 -0.28255231874E+04  0.28255231874E+04  0.25500000920E-02 0.  1.
    10030    2    1    2    0    0  0.00000000000E+00  0.00000000000E+00 -0.27369673644E+04  0.29140790104E+04  0.10004329686E+04 0.  0.
        1    1    3    3  502    0  0.61584509047E+02 -0.13499239093E+03  0.22980514605E+02  0.15014560080E+03  0.50400001928E-02 0. -1.
       -1    1    3    3    0  502 -0.61584509047E+02  0.13499239093E+03 -0.27599478790E+04  0.27639334095E+04  0.50400001928E-02 0.  1.
</event>
<event>
 5   0  0.3854625E-04  0.1000638E+04  0.7818609E-02  0.9307845E-01
       -3   -1    0    0    0  501  0.00000000000E+00  0.00000000000E+00  0.57011222285E+03  0.57011223180E+03  0.10100000352E+00 0. -1.
        3   -1    0    0  501    0  0.00000000000E+00  0.00000000000E+00 -0.43907014593E+03  0.43907015755E+03  0.10100000352E+00 0.  1.
    10030    2    1    2    0    0  0.00000000000E+00  0.00000000000E+00  0.13104207692E+03  0.10091823893E+04  0.10006383308E+04 0.  0.
        4    1    3    3  502    0 -0.12029992518E+03  0.36439286096E+02  0.55392637164E+03  0.56801050313E+03  0.12699999809E+01 0. -1.
       -4    1    3    3    0  502  0.12029992518E+03 -0.36439286096E+02 -0.42288429472E+03  0.44117188622E+03  0.12699999809E+01 0.  1.
</event>
<event>
 5   0  0.1020150E-03  0.1009576E+04  0.7818609E-02  0.9298104E-01
       -2   -1    0    0    0  501  0.00000000000E+00  0.00000000000E+00  0.60062493231E+03  0.60062493232E+03  0.25500000920E-02 0.  1.
        2   -1    0    0  501    0  0.00000000000E+00  0.00000000000E+00 -0.42424314556E+03  0.42424314557E+03  0.25500000920E-02 0. -1.
    10030    2    1    2    0    0  0.00000000000E+00  0.00000000000E+00  0.17638178675E+03  0.10248680779E+04  0.10095761697E+04 0.  0.
        5    1    3    3  502    0 -0.32453656964E+03 -0.28511704847E+03  0.35324572712E+03  0.55805049063E+03  0.46999998093E+01 0.  1.
       -5    1    3    3    0  502  0.32453656964E+03  0.28511704847E+03 -0.17686394037E+03  0.46681758725E+03  0.46999998093E+01 0. -1.
</event>
<event>
 5   0  0.1020150E-03  0.1001008E+04  0.7818609E-02  0.9307440E-01
       -2   -1    0    0    0  501  0.00000000000E+00  0.00000000000E+00  0.94609348340E+03  0.94609348340E+03  0.25500000920E-02 0. -1.
        2   -1    0    0  501    0  0.00000000000E+00  0.00000000000E+00 -0.26477760829E+03  0.26477760830E+03  0.25500000920E-02 0.  1.
    10030    2    1    2    0    0  0.00000000000E+00  0.00000000000E+00  0.68131587511E+03  0.12108710917E+04  0.10010082313E+04 0.  0.
        5    1    3    3  502    0 -0.16311599652E+03 -0.19652318648E+03  0.86130588810E+03  0.89838639461E+03  0.46999998093E+01 0. -1.
       -5    1    3    3    0  502  0.16311599652E+03  0.19652318648E+03 -0.17999001298E+03  0.31248469709E+03  0.46999998093E+01 0.  1.
</event>
<event>
 5   0  0.1006006E-03  0.1000275E+04  0.7818609E-02  0.9308244E-01
        2   -1    0    0  501    0  0.00000000000E+00  0.00000000000E+00  0.24599310171E+04  0.24599310171E+04  0.25500000920E-02 0.  1.
       -2   -1    0    0    0  501  0.00000000000E+00  0.00000000000E+00 -0.10168468064E+03  0.10168468067E+03  0.25500000920E-02 0. -1.
    10030    2    1    2    0    0  0.00000000000E+00  0.00000000000E+00  0.23582463365E+04  0.25616156978E+04  0.10002745621E+04 0.  0.
        2    1    3    3  502    0 -0.11782150000E+03  0.31439827887E+03  0.22982525804E+03  0.40687569706E+03  0.25500000920E-02 0. -1.
       -2    1    3    3    0  502  0.11782150000E+03 -0.31439827887E+03  0.21284210784E+04  0.21547400007E+04  0.25500000920E-02 0.  1.
</event>
<event>
 5   0  0.5960102E-04  0.1001394E+04  0.7818609E-02  0.9307017E-01
       -1   -1    0    0    0  501  0.00000000000E+00  0.00000000000E+00  0.84816168363E+03  0.84816168365E+03  0.50400001928E-02 0. -1.
        1   -1    0    0  501    0  0.00000000000E+00  0.00000000000E+00 -0.29557753561E+03  0.29557753565E+03  0.50400001928E-02 0.  1.
    10030    2    1    2    0    0  0.00000000000E+00  0.00000000000E+00  0.55258414802E+03  0.11437392193E+04  0.10013941088E+04 0.  0.
        5    1    3    3  502    0 -0.35976098564E+03  0.13396289261E+02 -0.12111601855E+03  0.37986656513E+03  0.46999998093E+01 0.  1.
       -5    1    3    3    0  502  0.35976098564E+03 -0.13396289261E+02  0.67370016657E+03  0.76387265417E+03  0.46999998093E+01 0. -1.
</event>
<event>
 5   0  0.9741826E-04  0.1000438E+04  0.7818609E-02  0.9308065E-01
        2   -1    0    0  501    0  0.00000000000E+00  0.00000000000E+00  0.29874068148E+03  0.29874068149E+03  0.25500000920E-02 0. -1.
       -2   -1    0    0    0  501  0.00000000000E+00  0.00000000000E+00 -0.83757878424E+03  0.83757878425E+03  0.25500000920E-02 0.  1.
    10030    2    1    2    0    0  0.00000000000E+00  0.00000000000E+00 -0.53883810276E+03  0.11363194657E+04  0.10004376179E+04 0.  0.
        3    1    3    3  502    0 -0.29678397788E+03 -0.32401325234E+03  0.21197897390E+01  0.43939711075E+03  0.10100000352E+00 0. -1.
       -3    1    3    3    0  502  0.29678397788E+03  0.32401325234E+03 -0.54095789250E+03  0.69692235499E+03  0.10100000352E+00 0.  1.
</event>
<event>
 5   0  0.5758786E-04  0.9886159E+03  0.7818609E-02  0.9321120E-01
        1   -1    0    0  501    0  0.00000000000E+00  0.00000000000E+00  0.15601778790E+04  0.15601778790E+04  0.50400001928E-02 0.  1.
       -1   -1    0    0    0  501  0.00000000000E+00  0.00000000000E+00 -0.15661057922E+03  0.15661057931E+03  0.50400001928E-02 0. -1.
    10030    2    1    2    0    0  0.00000000000E+00  0.00000000000E+00  0.14035672998E+04  0.17167884583E+04  0.98861592421E+03 0.  0.
        3    1    3    3  502    0 -0.39676826514E+02  0.24009594039E+03  0.14489475856E+04  0.14692411059E+04  0.10100000352E+00 0.  1.
       -3    1    3    3    0  502  0.39676826514E+02 -0.24009594039E+03 -0.45380285839E+02  0.24754735243E+03  0.10100000352E+00 0. -1.
</event>
<event>
 5   0  0.9674819E-04  0.9993648E+03  0.7818609E-02  0.9309242E-01
       -2   -1    0    0    0  501  0.00000000000E+00  0.00000000000E+00  0.45367459351E+03  0.45367459351E+03  0.25500000920E-02 0.  1.
        2   -1    0    0  501    0  0.00000000000E+00  0.00000000000E+00 -0.55035595673E+03  0.55035595673E+03  0.25500000920E-02 0. -1.
    10030    2    1    2    0    0  0.00000000000E+00  0.00000000000E+00 -0.96681363219E+02  0.10040305502E+04  0.99936482819E+03 0.  0.
        4    1    3    3  502    0  0.96572851734E+02 -0.24310194383E+03 -0.47607007921E+03  0.54320272827E+03  0.12699999809E+01 0. -1.
       -4    1    3    3    0  502 -0.96572851734E+02  0.24310194383E+03  0.37938871599E+03  0.46082782197E+03  0.12699999809E+01 0.  1.
</event>
<event>
 5   0  0.5888774E-04  0.1000007E+04  0.7818609E-02  0.9308537E-01
        1   -1    0    0  501    0  0.00000000000E+00  0.00000000000E+00  0.10491116210E+04  0.10491116210E+04  0.50400001928E-02 0. -1.
       -1   -1    0    0    0  501  0.00000000000E+00  0.00000000000E+00 -0.23830003754E+03  0.23830003759E+03  0.50400001928E-02 0.  1.
    10030    2    1    2    0    0  0.00000000000E+00  0.00000000000E+00  0.81081158349E+03  0.12874116586E+04  0.10000066774E+04 0.  0.
        2    1    3    3  502    0  0.37550753978E+03  0.18634864745E+03  0.54552180728E+02  0.42273830116E+03  0.25500000920E-02 0.  1.
       -2    1    3    3    0  502 -0.37550753978E+03 -0.18634864745E+03  0.75625940276E+03  0.86467335747E+03  0.25500000920E-02 0. -1.
</event>
<event>
 5   0  0.5826939E-04  0.9955807E+03  0.7818609E-02  0.9313405E-01
       -1   -1    0    0    0  501  0.00000000000E+00  0.00000000000E+00  0.15896293636E+03  0.15896293644E+03  0.50400001928E-02 0.  1.
        1   -1    0    0  501    0  0.00000000000E+00  0.00000000000E+00 -0.15588240471E+04  0.15588240471E+04  0.50400001928E-02 0. -1.
    10030    2    1    2    0    0  0.00000000000E+00  0.00000000000E+00 -0.13998611107E+04  0.17177869835E+04  0.99558073075E+03 0.  0.
        1    1    3    3  502    0  0.30275500394E+03 -0.78488247669E+01 -0.13815732520E+04  0.14143786081E+04  0.50400001928E-02 0. -1.
       -1    1    3    3    0  502 -0.30275500394E+03  0.78488247669E+01 -0.18287858725E+02  0.30340837540E+03  0.50400001928E-02 0.  1.
</event>
<event>
 5   0  0.1020150E-03  0.9978416E+03  0.7818609E-02  0.9310915E-01
       -2   -1    0    0    0  501  0.00000000000E+00  0.00000000000E+00  0.44741208307E+03  0.44741208307E+03  0.25500000920E-02 0.  1.
        2   -1    0    0  501    0  0.00000000000E+00  0.00000000000E+00 -0.55635949880E+03  0.55635949880E+03  0.25500000920E-02 0. -1.
    10030    2    1    2    0    0  0.00000000000E+00  0.00000000000E+00 -0.10894741573E+03  0.10037715819E+04  0.99784159524E+03 0.  0.
        5    1    3    3  502    0  0.12711118139E+03 -0.22988182194E+03 -0.48113693518E+03  0.54819498801E+03  0.46999998093E+01 0. -1.
       -5    1    3    3    0  502 -0.12711118139E+03  0.22988182194E+03  0.37218951945E+03  0.45557659386E+03  0.46999998093E+01 0.  1.
</event>
<event>
 5   0  0.5960102E-04  0.1002619E+04  0.7818609E-02  0.9305677E-01
       -1   -1    0    0    0  501  0.00000000000E+00  0.00000000000E+00  0.73573471880E+03  0.73573471882E+03  0.50400001928E-02 0. -1.
        1   -1    0    0  501    0  0.00000000000E+00  0.00000000000E+00 -0.34157862586E+03  0.34157862590E+03  0.50400001928E-02 0.  1.
    10030    2    1    2    0    0  0.00000000000E+00  0.00000000000E+00  0.39415609294E+03  0.10773133447E+04  0.10026190788E+04 0.  0.
        5    1    3    3  502    0 -0.25762119702E+03  0.17843350719E+03  0.61748325835E+03  0.69247011631E+03  0.46999998093E+01 0. -1.
       -5    1    3    3    0  502  0.25762119702E+03 -0.17843350719E+03 -0.22332716541E+03  0.38484322841E+03  0.46999998093E+01 0.  1.
</event>
<event>
 5   0  0.9741826E-04  0.1002886E+04  0.7818609E-02  0.9305385E-01
        2   -1    0    0  501    0  0.00000000000E+00  0.00000000000E+00  0.15361498263E+04  0.15361498263E+04  0.25500000920E-02 0. -1.
       -2   -1    0    0    0  501  0.00000000000E+00  0.00000000000E+00 -0.16368528197E+03  0.16368528199E+03  0.25500000920E-02 0.  1.
    10030    2    1    2    0    0  0.00000000000E+00  0.00000000000E+00  0.13724645444E+04  0.16998351083E+04  0.10028860703E+04 0.  0.
        3    1    3    3  502    0 -0.94941305017E+02 -0.38626951481E+03  0.12037513028E+04  0.12677678016E+04  0.10100000352E+00 0. -1.
       -3    1    3    3    0  502  0.94941305017E+02  0.38626951481E+03  0.16871324152E+03  0.43206730672E+03  0.10100000352E+00 0.  1.
</event>
<event>
 5   0  0.1006749E-03  0.9824395E+03  0.7818609E-02  0.9328017E-01
        2   -1    0    0  501    0  0.00000000000E+00  0.00000000000E+00  0.31731160089E+03  0.31731160090E+03  0.25500000920E-02 0.  1.
       -2   -1    0    0    0  501  0.00000000000E+00  0.00000000000E+00 -0.76044129856E+03  0.76044129857E+03  0.25500000920E-02 0. -1.
    10030    2    1    2    0    0  0.00000000000E+00  0.00000000000E+00 -0.44312969767E+03  0.10777528995E+04  0.98243950621E+03 0.  0.
        1    1    3    3  502    0  0.30090663300E+03 -0.29531085502E+03  0.54969507073E+02  0.42517637471E+03  0.50400001928E-02 0.  1.
       -1    1    3    3    0  502 -0.30090663300E+03  0.29531085502E+03 -0.49809920474E+03  0.65257652476E+03  0.50400001928E-02 0. -1.
</event>
<event>
 5   0  0.5888774E-04  0.1000200E+04  0.7818609E-02  0.9308325E-01
        1   -1    0    0  501    0  0.00000000000E+00  0.00000000000E+00  0.64093146630E+03  0.64093146632E+03  0.50400001928E-02 0.  1.
       -1   -1    0    0    0  501  0.00000000000E+00  0.00000000000E+00 -0.39021337320E+03  0.39021337323E+03  0.50400001928E-02 0. -1.
    10030    2    1    2    0    0  0.00000000000E+00  0.00000000000E+00  0.25071809310E+03  0.10311448396E+04  0.10002000390E+04 0.  0.
        2    1    3    3  502    0 -0.23791903913E+03  0.10657697654E+03  0.56533667407E+03  0.62255094263E+03  0.25500000920E-02 0.  1.
       -2    1    3    3    0  502  0.23791903913E+03 -0.10657697654E+03 -0.31461858097E+03  0.40859389693E+03  0.25500000920E-02 0. -1.
</event>
<event>
 5   0  0.5888774E-04  0.1001668E+04  0.7818609E-02  0.9306717E-01
        1   -1    0    0  501    0  0.00000000000E+00  0.00000000000E+00  0.74432243900E+03  0.74432243902E+03  0.50400001928E-02 0.  1.
       -1   -1    0    0    0  501  0.00000000000E+00  0.00000000000E+00 -0.33699753639E+03  0.33699753643E+03  0.50400001928E-02 0. -1.
    10030    2    1    2    0    0  0.00000000000E+00  0.00000000000E+00  0.40732490261E+03  0.10813199754E+04  0.10016682649E+04 0.  0.
        2    1    3    3  502    0 -0.99816655214E+00  0.50083052326E+03  0.20540943220E+03  0.54131806196E+03  0.25500000920E-02 0.  1.
       -2    1    3    3    0  502  0.99816655214E+00 -0.50083052326E+03  0.20191547041E+03  0.54000191348E+03  0.25500000920E-02 0. -1.
</event>
<event>
 5   0  0.9741826E-04  0.1002297E+04  0.7818609E-02  0.9306029E-01
        2   -1    0    0  501    0  0.00000000000E+00  0.00000000000E+00  0.39514286072E+03  0.39514286072E+03  0.25500000920E-02 0.  1.
       -2   -1    0    0    0  501  0.00000000000E+00  0.00000000000E+00 -0.63559241719E+03  0.63559241719E+03  0.25500000920E-02 0. -1.
    10030    2    1    2    0    0  0.00000000000E+00  0.00000000000E+00 -0.24044955647E+03  0.10307352779E+04  0.10022969739E+04 0.  0.
        3    1    3    3  502    0 -0.28179637511E+00  0.32714423520E+03  0.27018657554E+03  0.42429261818E+03  0.10100000352E+00 0.  1.
       -3    1    3    3    0  502  0.28179637511E+00 -0.32714423520E+03 -0.51063613201E+03  0.60644265974E+03  0.10100000352E+00 0. -1.
</event>
<event>
 5   0  0.9741826E-04  0.1000603E+04  0.7818609E-02  0.9307884E-01
        2   -1    0    0  501    0  0.00000000000E+00  0.00000000000E+00  0.28659176289E+03  0.28659176291E+03  0.25500000920E-02 0.  1.
       -2   -1    0    0    0  501  0.00000000000E+00  0.00000000000E+00 -0.87337351776E+03  0.87337351777E+03  0.25500000920E-02 0. -1.
    10030    2    1    2    0    0  0.00000000000E+00  0.00000000000E+00 -0.58678175487E+03  0.11599652807E+04  0.10006031304E+04 0.  0.
        3    1    3    3  502    0  0.25285067150E+03  0.38625535261E+03 -0.51690683920E+03  0.69305075580E+03  0.10100000352E+00 0. -1.
       -3    1    3    3    0  502 -0.25285067150E+03 -0.38625535261E+03 -0.69874915663E+02  0.46691452487E+03  0.10100000352E+00 0.  1.
</event>
<event>
 5   0  0.5768102E-04  0.9998939E+03  0.7818609E-02  0.9308661E-01
       -1   -1    0    0    0  501  0.00000000000E+00  0.00000000000E+00  0.28307387267E+03  0.28307387272E+03  0.50400001928E-02 0. -1.
        1   -1    0    0  501    0  0.00000000000E+00  0.00000000000E+00 -0.88297427913E+03  0.88297427914E+03  0.50400001928E-02 0.  1.
    10030    2    1    2    0    0  0.00000000000E+00  0.00000000000E+00 -0.59990040646E+03  0.11660481519E+04  0.99989389177E+03 0.  0.
        4    1    3    3  502    0  0.11112120051E+03 -0.35353307426E+02 -0.86689154806E+03  0.87470014665E+03  0.12699999809E+01 0.  1.
       -4    1    3    3    0  502 -0.11112120051E+03  0.35353307426E+02  0.26699114160E+03  0.29134800521E+03  0.12699999809E+01 0. -1.
</event>
<event>
 5   0  0.5768102E-04  0.1000430E+04  0.7818609E-02  0.9308074E-01
       -1   -1    0    0    0  501  0.00000000000E+00  0.00000000000E+00  0.27808560479E+03  0.27808560484E+03  0.50400001928E-02 0.  1.
        1   -1    0    0  501    0  0.00000000000E+00  0.00000000000E+00 -0.89977673893E+03  0.89977673895E+03  0.50400001928E-02 0. -1.
    10030    2    1    2    0    0  0.00000000000E+00  0.00000000000E+00 -0.62169113414E+03  0.11778623438E+04  0.10004298249E+04 0.  0.
        4    1    3    3  502    0  0.12929939454E+03 -0.64709815057E+02 -0.87463532366E+03  0.88650677149E+03  0.12699999809E+01 0. -1.
       -4    1    3    3    0  502 -0.12929939454E+03  0.64709815057E+02  0.25294418953E+03  0.29135557229E+03  0.12699999809E+01 0.  1.
</event>
<event>
 5   0  0.5826939E-04  0.9998653E+03  0.7818609E-02  0.9308692E-01
        1   -1    0    0  501    0  0.00000000000E+00  0.00000000000E+00  0.80495529787E+03  0.80495529789E+03  0.50400001928E-02 0. -1.
       -1   -1    0    0    0  501  0.00000000000E+00  0.00000000000E+00 -0.31049261753E+03  0.31049261757E+03  0.50400001928E-02 0.  1.
    10030    2    1    2    0    0  0.00000000000E+00  0.00000000000E+00  0.49446268035E+03  0.11154479155E+04  0.99986534585E+03 0.  0.
        1    1    3    3  502    0  0.25236606560E+02 -0.29198392475E+03  0.69907086723E+03  0.75801818979E+03  0.50400001928E-02 0. -1.
       -1    1    3    3    0  502 -0.25236606560E+02  0.29198392475E+03 -0.20460818688E+03  0.35742972566E+03  0.50400001928E-02 0.  1.
</event>
<event>
 5   0  0.5826939E-04  0.9947452E+03  0.7818609E-02  0.9314327E-01
        1   -1    0    0  501    0  0.00000000000E+00  0.00000000000E+00  0.10850217592E+04  0.10850217592E+04  0.50400001928E-02 0.  1.
       -1   -1    0    0    0  501  0.00000000000E+00  0.00000000000E+00 -0.22799497722E+03  0.22799497728E+03  0.50400001928E-02 0. -1.
    10030    2    1    2    0    0  0.00000000000E+00  0.00000000000E+00  0.85702678201E+03  0.13130167365E+04  0.99474521627E+03 0.  0.
        1    1    3    3  502    0  0.39010094619E+03 -0.30546458553E+03  0.48592982178E+03  0.69398498035E+03  0.50400001928E-02 0.  1.
       -1    1    3    3    0  502 -0.39010094619E+03  0.30546458553E+03  0.37109696023E+03  0.61903175617E+03  0.50400001928E-02 0. -1.
</event>
<event>
 5   0  0.5888774E-04  0.1002827E+04  0.7818609E-02  0.9305450E-01
        1   -1    0    0  501    0  0.00000000000E+00  0.00000000000E+00  0.85864928498E+03  0.85864928499E+03  0.50400001928E-02 0. -1.
       -1   -1    0    0    0  501  0.00000000000E+00  0.00000000000E+00 -0.29280344651E+03  0.29280344655E+03  0.50400001928E-02 0.  1.
    10030    2    1    2    0    0  0.00000000000E+00  0.00000000000E+00  0.56584583847E+03  0.11514527315E+04  0.10028269442E+04 0.  0.
        2    1    3    3  502    0 -0.79368875276E+02 -0.18323534193E+03 -0.24517840213E+03  0.31620730190E+03  0.25500000920E-02 0.  1.
       -2    1    3    3    0  502  0.79368875276E+02  0.18323534193E+03  0.81102424061E+03  0.83524542965E+03  0.25500000920E-02 0. -1.
</event>
<event>
 5   0  0.5960102E-04  0.1000246E+04  0.7818609E-02  0.9308275E-01
        1   -1    0    0  501    0  0.00000000000E+00  0.00000000000E+00  0.25662264263E+03  0.25662264268E+03  0.50400001928E-02 0.  1.
       -1   -1    0    0    0  501  0.00000000000E+00  0.00000000000E+00 -0.97467184572E+03  0.97467184573E+03  0.50400001928E-02 0. -1.
    10030    2    1    2    0    0  0.00000000000E+00  0.00000000000E+00 -0.71804920308E+03  0.12312944884E+04  0.10002456994E+04 0.  0.
        5    1    3    3  502    0  0.31473308741E+03 -0.33689713621E+03 -0.59754555862E+03  0.75474458019E+03  0.46999998093E+01 0.  1.
       -5    1    3    3    0  502 -0.31473308741E+03  0.33689713621E+03 -0.12050364446E+03  0.47654990822E+03  0.46999998093E+01 0. -1.
</event>
<event>
 5   0  0.5888774E-04  0.1000167E+04  0.7818609E-02  0.9308361E-01
        1   -1    0    0  501    0  0.00000000000E+00  0.00000000000E+00  0.20190142871E+04  0.20190142871E+04  0.50400001928E-02 0. -1.
       -1   -1    0    0    0  501  0.00000000000E+00  0.00000000000E+00 -0.12386426752E+03  0.12386426762E+03  0.50400001928E-02 0.  1.
    10030    2    1    2    0    0  0.00000000000E+00  0.00000000000E+00  0.18951500196E+04  0.21428785547E+04  0.10001674378E+04 0.  0.
        2    1    3    3  502    0 -0.16088364272E+03 -0.13992943335E+03  0.19167424527E+04  0.19285656387E+04  0.25500000920E-02 0. -1.
       -2    1    3    3    0  502  0.16088364272E+03  0.13992943335E+03 -0.21592433090E+02  0.21431291605E+03  0.25500000920E-02 0.  1.
</event>
<event>
 5   0  0.1006749E-03  0.9999496E+03  0.7818609E-02  0.9308600E-01
       -2   -1    0    0    0  501  0.00000000000E+00  0.00000000000E+00  0.22869330861E+03  0.22869330863E+03  0.25500000920E-02 0.  1.
        2   -1    0    0  501    0  0.00000000000E+00  0.00000000000E+00 -0.10930568635E+04  0.10930568635E+04  0.25500000920E-02 0. -1.
    10030    2    1    2    0    0  0.00000000000E+00  0.00000000000E+00 -0.86436355488E+03  0.13217501721E+04  0.99994957998E+03 0.  0.
        1    1    3    3  502    0  0.80386731459E+02  0.17636985692E+03  0.17701151222E+03  0.26249081605E+03  0.50400001928E-02 0.  1.
       -1    1    3    3    0  502 -0.80386731459E+02 -0.17636985692E+03 -0.10413750671E+04  0.10592593561E+04  0.50400001928E-02 0. -1.
</event>
<event>
 5   0  0.1006749E-03  0.9997687E+03  0.7818609E-02  0.9308798E-01
       -2   -1    0    0    0  501  0.00000000000E+00  0.00000000000E+00  0.61079967538E+03  0.61079967538E+03  0.25500000920E-02 0. -1.
        2   -1    0    0  501    0  0.00000000000E+00  0.00000000000E+00 -0.40911019522E+03  0.40911019522E+03  0.25500000920E-02 0.  1.
    10030    2    1    2    0    0  0.00000000000E+00  0.00000000000E+00  0.20168948016E+03  0.10199098706E+04  0.99976872213E+03 0.  0.
        1    1    3    3  502    0 -0.25685643502E+02  0.98492054858E+02  0.60011616455E+03  0.60868698699E+03  0.50400001928E-02 0. -1.
       -1    1    3    3    0  502  0.25685643502E+02 -0.98492054858E+02 -0.39842668439E+03  0.41122288362E+03  0.50400001928E-02 0.  1.
</event>
<event>
 5   0  0.1006006E-03  0.1002190E+04  0.7818609E-02  0.9306146E-01
       -2   -1    0    0    0  501  0.00000000000E+00  0.00000000000E+00  0.50404280259E+03  0.50404280259E+03  0.25500000920E-02 0.  1.
        2   -1    0    0  501    0  0.00000000000E+00  0.00000000000E+00 -0.49816430699E+03  0.49816430699E+03  0.25500000920E-02 0. -1.
    10030    2    1    2    0    0  0.00000000000E+00  0.00000000000E+00  0.58784956016E+01  0.10022071096E+04  0.10021898691E+04 0.  0.
        2    1    3    3  502    0 -0.33635729793E+03  0.33312111815E+03 -0.16135059009E+03  0.50013990458E+03  0.25500000920E-02 0.  1.
       -2    1    3    3    0  502  0.33635729793E+03 -0.33312111815E+03  0.16722908569E+03  0.50206720500E+03  0.25500000920E-02 0. -1.
</event>
<event>
 5   0  0.5768102E-04  0.1017048E+04  0.7818609E-02  0.9290042E-01
        1   -1    0    0  501    0  0.00000000000E+00  0.00000000000E+00  0.17964056366E+03  0.17964056373E+03  0.50400001928E-02 0. -1.
       -1   -1    0    0    0  501  0.00000000000E+00  0.00000000000E+00 -0.14395215738E+04  0.14395215739E+04  0.50400001928E-02 0.  1.
    10030    2    1    2    0    0  0.00000000000E+00  0.00000000000E+00 -0.12598810102E+04  0.16191621376E+04  0.10170476233E+04 0.  0.
        4    1    3    3  502    0  0.81906342346E+02  0.50133806344E+03 -0.59272833054E+03  0.78062602409E+03  0.12699999809E+01 0.  1.
       -4    1    3    3    0  502 -0.81906342346E+02 -0.50133806344E+03 -0.66715267965E+03  0.83853611349E+03  0.12699999809E+01 0. -1.
</event>
<event>
 5   0  0.5768102E-04  0.9998478E+03  0.7818609E-02  0.9308712E-01
       -1   -1    0    0    0  501  0.00000000000E+00  0.00000000000E+00  0.29284978856E+03  0.29284978860E+03  0.50400001928E-02 0.  1.
        1   -1    0    0  501    0  0.00000000000E+00  0.00000000000E+00 -0.85342011672E+03  0.85342011673E+03  0.50400001928E-02 0. -1.
    10030    2    1    2    0    0  0.00000000000E+00  0.00000000000E+00 -0.56057032816E+03  0.11462699053E+04  0.99984778995E+03 0.  0.
        4    1    3    3  502    0 -0.48679491235E+03 -0.70276388873E+02 -0.17765289996E+03  0.52294380509E+03  0.12699999809E+01 0.  1.
       -4    1    3    3    0  502  0.48679491235E+03  0.70276388873E+02 -0.38291742820E+03  0.62332610024E+03  0.12699999809E+01 0. -1.
</event>
<event>
 5   0  0.5826939E-04  0.1002461E+04  0.7818609E-02  0.9305850E-01
       -1   -1    0    0    0  501  0.00000000000E+00  0.00000000000E+00  0.13690265532E+03  0.13690265541E+03  0.50400001928E-02 0. -1.
        1   -1    0    0  501    0  0.00000000000E+00  0.00000000000E+00 -0.18351146915E+04  0.18351146915E+04  0.50400001928E-02 0.  1.
    10030    2    1    2    0    0  0.00000000000E+00  0.00000000000E+00 -0.16982120362E+04  0.19720173469E+04  0.10024611198E+04 0.  0.
        1    1    3    3  502    0  0.30607595343E+03  0.12290962786E+03 -0.15915495993E+04  0.16253674639E+04  0.50400001928E-02 0.  1.
       -1    1    3    3    0  502 -0.30607595343E+03 -0.12290962786E+03 -0.10666243689E+03  0.34664988296E+03  0.50400001928E-02 0. -1.
</event>
<event>
 5   0  0.5888774E-04  0.1001967E+04  0.7818609E-02  0.9306390E-01
       -1   -1    0    0    0  501  0.00000000000E+00  0.00000000000E+00  0.82766380610E+03  0.82766380612E+03  0.50400001928E-02 0.  1.
        1   -1    0    0  501    0  0.00000000000E+00  0.00000000000E+00 -0.30324430836E+03  0.30324430840E+03  0.50400001928E-02 0. -1.
    10030    2    1    2    0    0  0.00000000000E+00  0.00000000000E+00  0.52441949774E+03  0.11309081145E+04  0.10019667429E+04 0.  0.
        2    1    3    3  502    0 -0.19722981159E+03  0.43001761850E+03  0.76165805057E+02  0.47918261724E+03  0.25500000920E-02 0. -1.
       -2    1    3    3    0  502  0.19722981159E+03 -0.43001761850E+03  0.44825369268E+03  0.65172549728E+03  0.25500000920E-02 0.  1.
</event>
<event>
 5   0  0.5888774E-04  0.1007907E+04  0.7818609E-02  0.9299915E-01
        1   -1    0    0  501    0  0.00000000000E+00  0.00000000000E+00  0.11370505528E+04  0.11370505528E+04  0.50400001928E-02 0.  1.
       -1   -1    0    0    0  501  0.00000000000E+00  0.00000000000E+00 -0.22335788401E+03  0.22335788407E+03  0.50400001928E-02 0. -1.
    10030    2    1    2    0    0  0.00000000000E+00  0.00000000000E+00  0.91369266878E+03  0.13604084369E+04  0.10079071496E+04 0.  0.
        2    1    3    3  502    0 -0.16704145884E+03  0.47449281436E+03  0.41584177461E+03  0.65266427922E+03  0.25500000920E-02 0.  1.
       -2    1    3    3    0  502  0.16704145884E+03 -0.47449281436E+03  0.49785089418E+03  0.70774415765E+03  0.25500000920E-02 0. -1.
</event>
<event>
 5   0  0.9741826E-04  0.1003057E+04  0.7818609E-02  0.9305198E-01
       -2   -1    0    0    0  501  0.00000000000E+00  0.00000000000E+00  0.27146915924E+03  0.27146915925E+03  0.25500000920E-02 0. -1.
        2   -1    0    0  501    0  0.00000000000E+00  0.00000000000E+00 -0.92655464908E+03  0.92655464909E+03  0.25500000920E-02 0.  1.
    10030    2    1    2    0    0  0.00000000000E+00  0.00000000000E+00 -0.65508548984E+03  0.11980238083E+04  0.10030573495E+04 0.  0.
        3    1    3    3  502    0  0.14049119376E+03 -0.47568465842E+03 -0.41625920976E+03  0.64752251675E+03  0.10100000352E+00 0.  1.
       -3    1    3    3    0  502 -0.14049119376E+03  0.47568465842E+03 -0.23882628009E+03  0.55050129159E+03  0.10100000352E+00 0. -1.
</event>
<event>
 5   0  0.1006749E-03  0.1000376E+04  0.7818609E-02  0.9308132E-01
        2   -1    0    0  501    0  0.00000000000E+00  0.00000000000E+00  0.37650955214E+03  0.37650955214E+03  0.25500000920E-02 0. -1.
       -2   -1    0    0    0  501  0.00000000000E+00  0.00000000000E+00 -0.66449323793E+03  0.66449323793E+03  0.25500000920E-02 0.  1.
    10030    2    1    2    0    0  0.00000000000E+00  0.00000000000E+00 -0.28798368579E+03  0.10410027901E+04  0.10003760321E+04 0.  0.
        1    1    3    3  502    0  0.37907849692E+03 -0.32622336961E+03 -0.15243669097E+03  0.52283758328E+03  0.50400001928E-02 0. -1.
       -1    1    3    3    0  502 -0.37907849692E+03  0.32622336961E+03 -0.13554699482E+03  0.51816520680E+03  0.50400001928E-02 0.  1.
</event>
<event>
 5   0  0.9741826E-04  0.1008161E+04  0.7818609E-02  0.9299639E-01
        2   -1    0    0  501    0  0.00000000000E+00  0.00000000000E+00  0.27158872896E+03  0.27158872897E+03  0.25500000920E-02 0. -1.
       -2   -1    0    0    0  501  0.00000000000E+00  0.00000000000E+00 -0.93559511987E+03  0.93559511988E+03  0.25500000920E-02 0.  1.
    10030    2    1    2    0    0  0.00000000000E+00  0.00000000000E+00 -0.66400639092E+03  0.12071838488E+04  0.10081608789E+04 0.  0.
        3    1    3    3  502    0 -0.46583192305E+03  0.19166353575E+03 -0.30919610478E+03  0.59104698027E+03  0.10100000352E+00 0.  1.
       -3    1    3    3    0  502  0.46583192305E+03 -0.19166353575E+03 -0.35481028614E+03  0.61613686858E+03  0.10100000352E+00 0. -1.
</event>
<event>
 5   0  0.5826939E-04  0.9978498E+03  0.7818609E-02  0.9310906E-01
       -1   -1    0    0    0  501  0.00000000000E+00  0.00000000000E+00  0.10426072252E+04  0.10426072252E+04  0.50400001928E-02 0. -1.
        1   -1    0    0  501    0  0.00000000000E+00  0.00000000000E+00 -0.23875345768E+03  0.23875345774E+03  0.50400001928E-02 0.  1.
    10030    2    1    2    0    0  0.00000000000E+00  0.00000000000E+00  0.80385376755E+03  0.12813606830E+04  0.99784984857E+03 0.  0.
        1    1    3    3  502    0 -0.17364808843E+03 -0.64751945776E+02 -0.19291346696E+03  0.26751089484E+03  0.50400001928E-02 0.  1.
       -1    1    3    3    0  502  0.17364808843E+03  0.64751945776E+02  0.99676723451E+03  0.10138497881E+04  0.50400001928E-02 0. -1.
</event>
<event>
 5   0  0.1006006E-03  0.1000518E+04  0.7818609E-02  0.9307977E-01
        2   -1    0    0  501    0  0.00000000000E+00  0.00000000000E+00  0.36245646890E+03  0.36245646891E+03  0.25500000920E-02 0.  1.
       -2   -1    0    0    0  501  0.00000000000E+00  0.00000000000E+00 -0.69045287409E+03  0.69045287410E+03  0.25500000920E-02 0. -1.
    10030    2    1    2    0    0  0.00000000000E+00  0.00000000000E+00 -0.32799640519E+03  0.10529093430E+04  0.10005180872E+04 0.  0.
        2    1    3    3  502    0 -0.16916632122E+03 -0.43161432603E+02 -0.65735269763E+03  0.68014169302E+03  0.25500000920E-02 0. -1.
       -2    1    3    3    0  502  0.16916632122E+03  0.43161432603E+02  0.32935629244E+03  0.37276764999E+03  0.25500000920E-02 0.  1.
</event>
<event>
 5   0  0.1006006E-03  0.9994530E+03  0.7818609E-02  0.9309145E-01
       -2   -1    0    0    0  501  0.00000000000E+00  0.00000000000E+00  0.20544516311E+03  0.20544516312E+03  0.25500000920E-02 0.  1.
        2   -1    0    0  501    0  0.00000000000E+00  0.00000000000E+00 -0.12155389274E+04  0.12155389274E+04  0.25500000920E-02 0. -1.
    10030    2    1    2    0    0  0.00000000000E+00  0.00000000000E+00 -0.10100937643E+04  0.14209840905E+04  0.99945303686E+03 0.  0.
        2    1    3    3  502    0  0.48187549607E+03  0.23218417492E+02 -0.69033197527E+03  0.84220028777E+03  0.25500000920E-02 0.  1.
       -2    1    3    3    0  502 -0.48187549607E+03 -0.23218417492E+02 -0.31976178904E+03  0.57878380278E+03  0.25500000920E-02 0. -1.
</event>
<event>
 5   0  0.5768102E-04  0.1001863E+04  0.7818609E-02  0.9306504E-01
        1   -1    0    0  501    0  0.00000000000E+00  0.00000000000E+00  0.27919721012E+03  0.27919721016E+03  0.50400001928E-02 0. -1.
       -1   -1    0    0    0  501  0.00000000000E+00  0.00000000000E+00 -0.89876331693E+03  0.89876331694E+03  0.50400001928E-02 0.  1.
    10030    2    1    2    0    0  0.00000000000E+00  0.00000000000E+00 -0.61956610681E+03  0.11779605271E+04  0.10018626866E+04 0.  0.
        4    1    3    3  502    0 -0.19884273659E+03 -0.42977689076E+03 -0.11771819766E+03  0.48796085569E+03  0.12699999809E+01 0. -1.
       -4    1    3    3    0  502  0.19884273659E+03  0.42977689076E+03 -0.50184790915E+03  0.68999967141E+03  0.12699999809E+01 0.  1.
</event>
<event>
 5   0  0.5888774E-04  0.1000465E+04  0.7818609E-02  0.9308035E-01
       -1   -1    0    0    0  501  0.00000000000E+00  0.00000000000E+00  0.43096708321E+03  0.43096708324E+03  0.50400001928E-02 0. -1.
        1   -1    0    0  501    0  0.00000000000E+00  0.00000000000E+00 -0.58063076404E+03  0.58063076406E+03  0.50400001928E-02 0.  1.
    10030    2    1    2    0    0  0.00000000000E+00  0.00000000000E+00 -0.14966368083E+03  0.10115978473E+04  0.10004653854E+04 0.  0.
        2    1    3    3  502    0  0.12179164701E+03 -0.31859493470E+03  0.29515897467E+03  0.45105959477E+03  0.25500000920E-02 0. -1.
       -2    1    3    3    0  502 -0.12179164701E+03  0.31859493470E+03 -0.44482265550E+03  0.56053825253E+03  0.25500000920E-02 0.  1.
</event>
<event>
 5   0  0.5960102E-04  0.1000594E+04  0.7818609E-02  0.9307894E-01
        1   -1    0    0  501    0  0.00000000000E+00  0.00000000000E+00  0.10650977472E+04  0.10650977472E+04  0.50400001928E-02 0.  1.
       -1   -1    0    0    0  501  0.00000000000E+00  0.00000000000E+00 -0.23499914426E+03  0.23499914431E+03  0.50400001928E-02 0. -1.
    10030    2    1    2    0    0  0.00000000000E+00  0.00000000000E+00  0.83009860298E+03  0.13000968916E+04  0.10005939420E+04 0.  0.
        5    1    3    3  502    0 -0.30664420403E+03  0.37546462299E+03  0.25448604773E+03  0.54753044616E+03  0.46999998093E+01 0.  1.
       -5    1    3    3    0  502  0.30664420403E+03 -0.37546462299E+03  0.57561255525E+03  0.75256644540E+03  0.46999998093E+01 0. -1.
</event>
<event>
 5   0  0.9674819E-04  0.1001320E+04  0.7818609E-02  0.9307099E-01
       -2   -1    0    0    0  501  0.00000000000E+00  0.00000000000E+00  0.15447386694E+03  0.15447386696E+03  0.25500000920E-02 0. -1.
        2   -1    0    0  501    0  0.00000000000E+00  0.00000000000E+00 -0.16226708484E+04  0.16226708484E+04  0.25500000920E-02 0.  1.
    10030    2    1    2    0    0  0.00000000000E+00  0.00000000000E+00 -0.14681969815E+04  0.17771447154E+04  0.10013196108E+04 0.  0.
        4    1    3    3  502    0 -0.33857869508E+03 -0.47709904621E+02 -0.85027992175E+02  0.35233952392E+03  0.12699999809E+01 0. -1.
       -4    1    3    3    0  502  0.33857869508E+03  0.47709904621E+02 -0.13831689893E+04  0.14248051915E+04  0.12699999809E+01 0.  1.
</event>
<event>
 5   0  0.5960102E-04  0.1002143E+04  0.7818609E-02  0.9306197E-01
        1   -1    0    0  501    0  0.00000000000E+00  0.00000000000E+00  0.58849489399E+03  0.58849489402E+03  0.50400001928E-02 0.  1.
       -1   -1    0    0    0  501  0.00000000000E+00  0.00000000000E+00 -0.42663556847E+03  0.42663556850E+03  0.50400001928E-02 0. -1.
    10030    2    1    2    0    0  0.00000000000E+00  0.00000000000E+00  0.16185932552E+03  0.10151304625E+04  0.10021434102E+04 0.  0.
        5    1    3    3  502    0  0.15726075004E+03 -0.16586081983E+03 -0.37072979365E+03  0.43554956659E+03  0.46999998093E+01 0. -1.
       -5    1    3    3    0  502 -0.15726075004E+03  0.16586081983E+03  0.53258911918E+03  0.57958089593E+03  0.46999998093E+01 0.  1.
</event>
<event>
 5   0  0.1006749E-03  0.9994000E+03  0.7818609E-02  0.9309203E-01
        2   -1    0    0  501    0  0.00000000000E+00  0.00000000000E+00  0.15494690966E+04  0.15494690966E+04  0.25500000920E-02 0. -1.
       -2   -1    0    0    0  501  0.00000000000E+00  0.00000000000E+00 -0.16115201541E+03  0.16115201543E+03  0.25500000920E-02 0.  1.
    10030    2    1    2    0    0  0.00000000000E+00  0.00000000000E+00  0.13883170812E+04  0.17106211120E+04  0.99939995548E+03 0.  0.
        1    1    3    3  502    0  0.41305375867E+03 -0.11125501733E+03  0.25207264812E+03  0.49651959316E+03  0.50400001928E-02 0.  1.
       -1    1    3    3    0  502 -0.41305375867E+03  0.11125501733E+03  0.11362444331E+04  0.12141015189E+04  0.50400001928E-02 0. -1.
</event>
<event>
 5   0  0.5960102E-04  0.1000424E+04  0.7818609E-02  0.9308080E-01
       -1   -1    0    0    0  501  0.00000000000E+00  0.00000000000E+00  0.64362323522E+03  0.64362323524E+03  0.50400001928E-02 0.  1.
        1   -1    0    0  501    0  0.00000000000E+00  0.00000000000E+00 -0.38875529087E+03  0.38875529090E+03  0.50400001928E-02 0. -1.
    10030    2    1    2    0    0  0.00000000000E+00  0.00000000000E+00  0.25486794436E+03  0.10323785261E+04  0.10004237863E+04 0.  0.
        5    1    3    3  502    0 -0.46020440895E+03 -0.26255996546E+02  0.32783358673E+03  0.56566282002E+03  0.46999998093E+01 0.  1.
       -5    1    3    3    0  502  0.46020440895E+03  0.26255996546E+02 -0.72965642371E+02  0.46671570612E+03  0.46999998093E+01 0. -1.
</event>
<event>
 5   0  0.5758786E-04  0.1001076E+04  0.7818609E-02  0.9307366E-01
       -1   -1    0    0    0  501  0.00000000000E+00  0.00000000000E+00  0.50896326981E+03  0.50896326984E+03  0.50400001928E-02 0. -1.
        1   -1    0    0  501    0  0.00000000000E+00  0.00000000000E+00 -0.49225211317E+03  0.49225211320E+03  0.50400001928E-02 0.  1.
    10030    2    1    2    0    0  0.00000000000E+00  0.00000000000E+00  0.16711156636E+02  0.10012153830E+04  0.10010759114E+04 0.  0.
        3    1    3    3  502    0 -0.19528719388E+03  0.41497522232E+03 -0.19216353052E+03  0.49726085297E+03  0.10100000352E+00 0.  1.
       -3    1    3    3    0  502  0.19528719388E+03 -0.41497522232E+03  0.20887468716E+03  0.50395453006E+03  0.10100000352E+00 0. -1.
</event>
<event>
 5   0  0.5758786E-04  0.9979921E+03  0.7818609E-02  0.9310750E-01
        1   -1    0    0  501    0  0.00000000000E+00  0.00000000000E+00  0.72801938609E+03  0.72801938610E+03  0.50400001928E-02 0.  1.
       -1   -1    0    0    0  501  0.00000000000E+00  0.00000000000E+00 -0.34201982721E+03  0.34201982724E+03  0.50400001928E-02 0. -1.
    10030    2    1    2    0    0  0.00000000000E+00  0.00000000000E+00  0.38599955888E+03  0.10700392133E+04  0.99799211352E+03 0.  0.
        3    1    3    3  502    0  0.27671025614E+03  0.39949886484E+03  0.31444248976E+03  0.57882812512E+03  0.10100000352E+00 0.  1.
       -3    1    3    3    0  502 -0.27671025614E+03 -0.39949886484E+03  0.71557069120E+02  0.49121108823E+03  0.10100000352E+00 0. -1.
</event>
<event>
 5   0  0.5960102E-04  0.1005407E+04  0.7818609E-02  0.9302634E-01
        1   -1    0    0  501    0  0.00000000000E+00  0.00000000000E+00  0.26213967475E+03  0.26213967480E+03  0.50400001928E-02 0.  1.
       -1   -1    0    0    0  501  0.00000000000E+00  0.00000000000E+00 -0.96403159442E+03  0.96403159443E+03  0.50400001928E-02 0. -1.
    10030    2    1    2    0    0  0.00000000000E+00  0.00000000000E+00 -0.70189191966E+03  0.12261712692E+04  0.10054072382E+04 0.  0.
        5    1    3    3  502    0  0.33238984437E+03 -0.29596061289E+03 -0.63595440198E+03  0.77623178524E+03  0.46999998093E+01 0. -1.
       -5    1    3    3    0  502 -0.33238984437E+03  0.29596061289E+03 -0.65937517681E+02  0.44993948399E+03  0.46999998093E+01 0.  1.
</event>
<event>
 5   0  0.9674819E-04  0.9981314E+03  0.7818609E-02  0.9310597E-01
        2   -1    0    0  501    0  0.00000000000E+00  0.00000000000E+00  0.12042758050E+04  0.12042758050E+04  0.25500000920E-02 0. -1.
       -2   -1    0    0    0  501  0.00000000000E+00  0.00000000000E+00 -0.20681855636E+03  0.20681855637E+03  0.25500000920E-02 0.  1.
    10030    2    1    2    0    0  0.00000000000E+00  0.00000000000E+00  0.99745724867E+03  0.14110943614E+04  0.99813142114E+03 0.  0.
        4    1    3    3  502    0 -0.69437547228E+02 -0.49332687707E+03  0.45698173970E+03  0.67603764979E+03  0.12699999809E+01 0. -1.
       -4    1    3    3    0  502  0.69437547228E+02  0.49332687707E+03  0.54047550896E+03  0.73505671162E+03  0.12699999809E+01 0.  1.
</event>
<event>
 5   0  0.9741826E-04  0.1001592E+04  0.7818609E-02  0.9306801E-01
       -2   -1    0    0    0  501  0.00000000000E+00  0.00000000000E+00  0.78904313878E+03  0.78904313878E+03  0.25500000920E-02 0.  1.
        2   -1    0    0  501    0  0.00000000000E+00  0.00000000000E+00 -0.31784876090E+03  0.31784876091E+03  0.25500000920E-02 0. -1.
    10030    2    1    2    0    0  0.00000000000E+00  0.00000000000E+00  0.47119437788E+03  0.11068918997E+04  0.10015915015E+04 0.  0.
        3    1    3    3  502    0 -0.49028121954E+03  0.77484640153E+02  0.16215088869E+03  0.52218049044E+03  0.10100000352E+00 0. -1.
       -3    1    3    3    0  502  0.49028121954E+03 -0.77484640153E+02  0.30904348919E+03  0.58471140925E+03  0.10100000352E+00 0.  1.
</event>
<event>
 5   0  0.1006006E-03  0.9990277E+03  0.7818609E-02  0.9309612E-01
        2   -1    0    0  501    0  0.00000000000E+00  0.00000000000E+00  0.21448165123E+03  0.21448165125E+03  0.25500000920E-02 0.  1.
       -2   -1    0    0    0  501  0.00000000000E+00  0.00000000000E+00 -0.11633353294E+04  0.11633353294E+04  0.25500000920E-02 0. -1.
    10030    2    1    2    0    0  0.00000000000E+00  0.00000000000E+00 -0.94885367815E+03  0.13778169806E+04  0.99902769210E+03 0.  0.
        2    1    3    3  502    0  0.63898770409E+02 -0.23046351830E+02 -0.11569357184E+04  0.11589281443E+04  0.25500000920E-02 0. -1.
       -2    1    3    3    0  502 -0.63898770409E+02  0.23046351830E+02  0.20808204023E+03  0.21888883632E+03  0.25500000920E-02 0.  1.
</event>
<event>
 5   0  0.1006749E-03  0.9860339E+03  0.7818609E-02  0.9323997E-01
        2   -1    0    0  501    0  0.00000000000E+00  0.00000000000E+00  0.17808134939E+04  0.17808134939E+04  0.25500000920E-02 0.  1.
       -2   -1    0    0    0  501  0.00000000000E+00  0.00000000000E+00 -0.13649140501E+03  0.13649140503E+03  0.25500000920E-02 0. -1.
    10030    2    1    2    0    0  0.00000000000E+00  0.00000000000E+00  0.16443220889E+04  0.19173048989E+04  0.98603394639E+03 0.  0.
        1    1    3    3  502    0  0.41908656512E+03 -0.22870992252E+03  0.58303215435E+03  0.75357034891E+03  0.50400001928E-02 0. -1.
       -1    1    3    3    0  502 -0.41908656512E+03  0.22870992252E+03  0.10612899345E+04  0.11637345500E+04  0.50400001928E-02 0.  1.
</event>
<event>
 5   0  0.1020150E-03  0.1000535E+04  0.7818609E-02  0.9307958E-01
       -2   -1    0    0    0  501  0.00000000000E+00  0.00000000000E+00  0.13377984233E+03  0.13377984236E+03  0.25500000920E-02 0. -1.
        2   -1    0    0  501    0  0.00000000000E+00  0.00000000000E+00 -0.18707410987E+04  0.18707410987E+04  0.25500000920E-02 0.  1.
    10030    2    1    2    0    0  0.00000000000E+00  0.00000000000E+00 -0.17369612564E+04  0.20045209411E+04  0.10005347555E+04 0.  0.
        5    1    3    3  502    0  0.26593233619E+03  0.35575191928E+02 -0.22607800645E+02  0.26929315691E+03  0.46999998093E+01 0. -1.
       -5    1    3    3    0  502 -0.26593233619E+03 -0.35575191928E+02 -0.17143534558E+04  0.17352277842E+04  0.46999998093E+01 0.  1.
</event>
<event>
 5   0  0.9741826E-04  0.9997876E+03  0.7818609E-02  0.9308778E-01
       -2   -1    0    0    0  501  0.00000000000E+00  0.00000000000E+00  0.94036164289E+02  0.94036164324E+02  0.25500000920E-02 0.  1.
        2   -1    0    0  501    0  0.00000000000E+00  0.00000000000E+00 -0.26574226068E+04  0.26574226068E+04  0.25500000920E-02 0. -1.
    10030    2    1    2    0    0  0.00000000000E+00  0.00000000000E+00 -0.25633864425E+04  0.27514587711E+04  0.99978763522E+03 0.  0.
        3    1    3    3  502    0 -0.31170627833E+03 -0.85568376942E+02 -0.23311244404E+04  0.23534281204E+04  0.10100000352E+00 0. -1.
       -3    1    3    3    0  502  0.31170627833E+03  0.85568376942E+02 -0.23226200210E+03  0.39803065071E+03  0.10100000352E+00 0.  1.
</event>
<event>
 5   0  0.5826939E-04  0.1002634E+04  0.7818609E-02  0.9305661E-01
       -1   -1    0    0    0  501  0.00000000000E+00  0.00000000000E+00  0.17205600303E+03  0.17205600311E+03  0.50400001928E-02 0. -1.
        1   -1    0    0  501    0  0.00000000000E+00  0.00000000000E+00 -0.14606793919E+04  0.14606793919E+04  0.50400001928E-02 0.  1.
    10030    2    1    2    0    0  0.00000000000E+00  0.00000000000E+00 -0.12886233889E+04  0.16327353951E+04  0.10026338473E+04 0.  0.
        1    1    3    3  502    0 -0.70246901179E+02  0.40485629512E+03 -0.11119775796E+04  0.11854692676E+04  0.50400001928E-02 0.  1.
       -1    1    3    3    0  502  0.70246901179E+02 -0.40485629512E+03 -0.17664580932E+03  0.44726612749E+03  0.50400001928E-02 0. -1.
</event>
<event>
 5   0  0.5758786E-04  0.1000879E+04  0.7818609E-02  0.9307581E-01
       -1   -1    0    0    0  501  0.00000000000E+00  0.00000000000E+00  0.37212961574E+03  0.37212961577E+03  0.50400001928E-02 0.  1.
        1   -1    0    0  501    0  0.00000000000E+00  0.00000000000E+00 -0.67299072102E+03  0.67299072104E+03  0.50400001928E-02 0. -1.
    10030    2    1    2    0    0  0.00000000000E+00  0.00000000000E+00 -0.30086110528E+03  0.10451203368E+04  0.10008791704E+04 0.  0.
        3    1    3    3  502    0  0.12699668875E+03  0.27595065404E+03  0.26484549534E+03  0.40301373304E+03  0.10100000352E+00 0.  1.
       -3    1    3    3    0  502 -0.12699668875E+03 -0.27595065404E+03 -0.56570660062E+03  0.64210660377E+03  0.10100000352E+00 0. -1.
</event>
<event>
 5   0  0.5960102E-04  0.1000369E+04  0.7818609E-02  0.9308140E-01
        1   -1    0    0  501    0  0.00000000000E+00  0.00000000000E+00  0.14661558365E+04  0.14661558365E+04  0.50400001928E-02 0.  1.
       -1   -1    0    0    0  501  0.00000000000E+00  0.00000000000E+00 -0.17063984614E+03  0.17063984621E+03  0.50400001928E-02 0. -1.
    10030    2    1    2    0    0  0.00000000000E+00  0.00000000000E+00  0.12955159904E+04  0.16367956828E+04  0.10003691447E+04 0.  0.
        5    1    3    3  502    0  0.28296097583E+03 -0.14160379437E+03  0.12815451798E+04  0.13200373806E+04  0.46999998093E+01 0.  1.
       -5    1    3    3    0  502 -0.28296097583E+03  0.14160379437E+03  0.13970810609E+02  0.31675830213E+03  0.46999998093E+01 0. -1.
</event>
<event>
 5   0  0.5758786E-04  0.1000070E+04  0.7818609E-02  0.9308468E-01
       -1   -1    0    0    0  501  0.00000000000E+00  0.00000000000E+00  0.27137670082E+03  0.27137670087E+03  0.50400001928E-02 0.  1.
        1   -1    0    0  501    0  0.00000000000E+00  0.00000000000E+00 -0.92135789229E+03  0.92135789230E+03  0.50400001928E-02 0. -1.
    10030    2    1    2    0    0  0.00000000000E+00  0.00000000000E+00 -0.64998119146E+03  0.11927345932E+04  0.10000701278E+04 0.  0.
        3    1    3    3  502    0 -0.25449913167E+03  0.23352315638E+03  0.10623508441E+03  0.36137069049E+03  0.10100000352E+00 0. -1.
       -3    1    3    3    0  502  0.25449913167E+03 -0.23352315638E+03 -0.75621627587E+03  0.83136390268E+03  0.10100000352E+00 0.  1.
</event>
<event>
 5   0  0.1006006E-03  0.1006781E+04  0.7818609E-02  0.9301139E-01
        2   -1    0    0  501    0  0.00000000000E+00  0.00000000000E+00  0.12240378602E+04  0.12240378602E+04  0.25500000920E-02 0. -1.
       -2   -1    0    0    0  501  0.00000000000E+00  0.00000000000E+00 -0.20702128990E+03  0.20702128992E+03  0.25500000920E-02 0.  1.
    10030    2    1    2    0    0  0.00000000000E+00  0.00000000000E+00  0.10170165703E+04  0.14310591501E+04  0.10067808038E+04 0.  0.
        2    1    3    3  502    0 -0.25462108561E+03 -0.13999214090E+03  0.10928007530E+04  0.11307710566E+04  0.25500000920E-02 0. -1.
       -2    1    3    3    0  502  0.25462108561E+03  0.13999214090E+03 -0.75784182683E+02  0.30028809351E+03  0.25500000920E-02 0.  1.
</event>
<event>
 5   0  0.9741826E-04  0.9990099E+03  0.7818609E-02  0.9309631E-01
        2   -1    0    0  501    0  0.00000000000E+00  0.00000000000E+00  0.14024250943E+04  0.14024250943E+04  0.25500000920E-02 0.  1.
       -2   -1    0    0    0  501  0.00000000000E+00  0.00000000000E+00 -0.17790980851E+03  0.17790980853E+03  0.25500000920E-02 0. -1.
    10030    2    1    2    0    0  0.00000000000E+00  0.00000000000E+00  0.12245152858E+04  0.15803349028E+04  0.99900986980E+03 0.  0.
        3    1    3    3  502    0  0.15900683950E+03  0.15359886658E+03  0.13208176267E+04  0.13391919205E+04  0.10100000352E+00 0.  1.
       -3    1    3    3    0  502 -0.15900683950E+03 -0.15359886658E+03 -0.96302340945E+02  0.24114298226E+03  0.10100000352E+00 0. -1.
</event>
<event>
 5   0  0.5758786E-04  0.1000245E+04  0.7818609E-02  0.9308276E-01
        1   -1    0    0  501    0  0.00000000000E+00  0.00000000000E+00  0.99299363306E+03  0.99299363307E+03  0.50400001928E-02 0.  1.
       -1   -1    0    0    0  501  0.00000000000E+00  0.00000000000E+00 -0.25188757965E+03  0.25188757970E+03  0.50400001928E-02 0. -1.
    10030    2    1    2    0    0  0.00000000000E+00  0.00000000000E+00  0.74110605341E+03  0.12448812128E+04  0.10002454956E+04 0.  0.
        3    1    3    3  502    0  0.29359883653E+03 -0.25665609817E+03 -0.19160410326E+02  0.39043534812E+03  0.10100000352E+00 0. -1.
       -3    1    3    3    0  502 -0.29359883653E+03  0.25665609817E+03  0.76026646373E+03  0.85444586465E+03  0.10100000352E+00 0.  1.
</event>
<event>
 5   0  0.5888774E-04  0.9984573E+03  0.7818609E-02  0.9310238E-01
       -1   -1    0    0    0  501  0.00000000000E+00  0.00000000000E+00  0.71920809905E+03  0.71920809907E+03  0.50400001928E-02 0. -1.
        1   -1    0    0  501    0  0.00000000000E+00  0.00000000000E+00 -0.34653285027E+03  0.34653285031E+03  0.50400001928E-02 0.  1.
    10030    2    1    2    0    0  0.00000000000E+00  0.00000000000E+00  0.37267524878E+03  0.10657409494E+04  0.99845727506E+03 0.  0.
        2    1    3    3  502    0  0.34284233284E+03 -0.32663006631E+03  0.35511036742E+03  0.59188802866E+03  0.25500000920E-02 0. -1.
       -2    1    3    3    0  502 -0.34284233284E+03  0.32663006631E+03  0.17564881359E+02  0.47385292072E+03  0.25500000920E-02 0.  1.
</event>
<event>
 5   0  0.1006006E-03  0.1001150E+04  0.7818609E-02  0.9307284E-01
       -2   -1    0    0    0  501  0.00000000000E+00  0.00000000000E+00  0.47315013551E+03  0.47315013552E+03  0.25500000920E-02 0.  1.
        2   -1    0    0  501    0  0.00000000000E+00  0.00000000000E+00 -0.52958955939E+03  0.52958955940E+03  0.25500000920E-02 0. -1.
    10030    2    1    2    0    0  0.00000000000E+00  0.00000000000E+00 -0.56439423882E+02  0.10027396949E+04  0.10011500823E+04 0.  0.
        2    1    3    3  502    0  0.17957409862E+02 -0.27439490586E+03  0.39072703802E+03  0.47778933766E+03  0.25500000920E-02 0.  1.
       -2    1    3    3    0  502 -0.17957409862E+02  0.27439490586E+03 -0.44716646190E+03  0.52495035726E+03  0.25500000920E-02 0. -1.
</event>
<event>
 5   0  0.5768102E-04  0.1001647E+04  0.7818609E-02  0.9306740E-01
       -1   -1    0    0    0  501  0.00000000000E+00  0.00000000000E+00  0.14643663514E+04  0.14643663514E+04  0.50400001928E-02 0. -1.
        1   -1    0    0  501    0  0.00000000000E+00  0.00000000000E+00 -0.17128512878E+03  0.17128512886E+03  0.50400001928E-02 0.  1.
    10030    2    1    2    0    0  0.00000000000E+00  0.00000000000E+00  0.12930812226E+04  0.16356514803E+04  0.10016470020E+04 0.  0.
        4    1    3    3  502    0 -0.76004079197E+02  0.20601489420E+03 -0.88480611740E+02  0.23674709764E+03  0.12699999809E+01 0.  1.
       -4    1    3    3    0  502  0.76004079197E+02 -0.20601489420E+03  0.13815618344E+04  0.13989043826E+04  0.12699999809E+01 0. -1.
</event>
<event>
 5   0  0.3854625E-04  0.1000102E+04  0.7818609E-02  0.9308433E-01
        3   -1    0    0  501    0  0.00000000000E+00  0.00000000000E+00  0.71433743225E+03  0.71433743939E+03  0.10100000352E+00 0.  1.
       -3   -1    0    0    0  501  0.00000000000E+00  0.00000000000E+00 -0.35004591366E+03  0.35004592823E+03  0.10100000352E+00 0. -1.
    10030    2    1    2    0    0  0.00000000000E+00  0.00000000000E+00  0.36429151859E+03  0.10643833676E+04  0.10001018162E+04 0.  0.
        1    1    3    3  502    0 -0.24474850875E+03 -0.41394642363E+03  0.32806184693E+03  0.58213232998E+03  0.50400001928E-02 0. -1.
       -1    1    3    3    0  502  0.24474850875E+03  0.41394642363E+03  0.36229671657E+02  0.48225103764E+03  0.50400001928E-02 0.  1.
</event>
<event>
 5   0  0.1006749E-03  0.1004317E+04  0.7818609E-02  0.9303823E-01
       -2   -1    0    0    0  501  0.00000000000E+00  0.00000000000E+00  0.13247330251E+03  0.13247330254E+03  0.25500000920E-02 0. -1.
        2   -1    0    0  501    0  0.00000000000E+00  0.00000000000E+00 -0.19035005059E+04  0.19035005059E+04  0.25500000920E-02 0.  1.
    10030    2    1    2    0    0  0.00000000000E+00  0.00000000000E+00 -0.17710272034E+04  0.20359738084E+04  0.10043166799E+04 0.  0.
        1    1    3    3  502    0  0.45965246008E+03 -0.11143949039E+03 -0.12275311305E+04  0.13154967961E+04  0.50400001928E-02 0.  1.
       -1    1    3    3    0  502 -0.45965246008E+03  0.11143949039E+03 -0.54349607284E+03  0.72047701233E+03  0.50400001928E-02 0. -1.
</event>
<event>
 5   0  0.5768102E-04  0.1000799E+04  0.7818609E-02  0.9307669E-01
       -1   -1    0    0    0  501  0.00000000000E+00  0.00000000000E+00  0.78825004435E+03  0.78825004437E+03  0.50400001928E-02 0.  1.
        1   -1    0    0  501    0  0.00000000000E+00  0.00000000000E+00 -0.31766544867E+03  0.31766544871E+03  0.50400001928E-02 0. -1.
    10030    2    1    2    0    0  0.00000000000E+00  0.00000000000E+00  0.47058459568E+03  0.11059154931E+04  0.10007992886E+04 0.  0.
        4    1    3    3  502    0 -0.22777226806E+03  0.43225725065E+03  0.35467493330E+03  0.60375695280E+03  0.12699999809E+01 0. -1.
       -4    1    3    3    0  502  0.22777226806E+03 -0.43225725065E+03  0.11590966238E+03  0.50215854028E+03  0.12699999809E+01 0.  1.
</event>
<event>
 5   0  0.5826939E-04  0.9965127E+03  0.7818609E-02  0.9312378E-01
       -1   -1    0    0    0  501  0.00000000000E+00  0.00000000000E+00  0.36767164951E+03  0.36767164955E+03  0.50400001928E-02 0. -1.
        1   -1    0    0  501    0  0.00000000000E+00  0.00000000000E+00 -0.67522033509E+03  0.67522033511E+03  0.50400001928E-02 0.  1.
    10030    2    1    2    0    0  0.00000000000E+00  0.00000000000E+00 -0.30754868558E+03  0.10428919847E+04  0.99651266808E+03 0.  0.
        1    1    3    3  502    0  0.95717550400E+02  0.22216301933E+03 -0.60964037499E+03  0.65588081498E+03  0.50400001928E-02 0.  1.
       -1    1    3    3    0  502 -0.95717550400E+02 -0.22216301933E+03  0.30209168942E+03  0.38701116967E+03  0.50400001928E-02 0. -1.
</event>
<event>
 5   0  0.5888774E-04  0.1000570E+04  0.7818609E-02  0.9307920E-01
        1   -1    0    0  501    0  0.00000000000E+00  0.00000000000E+00  0.52783565779E+03  0.52783565781E+03  0.50400001928E-02 0.  1.
       -1   -1    0    0    0  501  0.00000000000E+00  0.00000000000E+00 -0.47417243052E+03  0.47417243054E+03  0.50400001928E-02 0. -1.
    10030    2    1    2    0    0  0.00000000000E+00  0.00000000000E+00  0.53663227273E+02  0.10020080884E+04  0.10005700711E+04 0.  0.
        2    1    3    3  502    0  0.31769195166E+03 -0.38186921223E+03 -0.32691553960E+02  0.49781624030E+03  0.25500000920E-02 0. -1.
       -2    1    3    3    0  502 -0.31769195166E+03  0.38186921223E+03  0.86354781233E+02  0.50419184806E+03  0.25500000920E-02 0.  1.
</event>
<event>
 5   0  0.1006749E-03  0.1001731E+04  0.7818609E-02  0.9306648E-01
        2   -1    0    0  501    0  0.00000000000E+00  0.00000000000E+00  0.15963346510E+04  0.15963346510E+04  0.25500000920E-02 0.  1.
       -2   -1    0    0    0  501  0.00000000000E+00  0.00000000000E+00 -0.15715140994E+03  0.15715140996E+03  0.25500000920E-02 0. -1.
    10030    2    1    2    0    0  0.00000000000E+00  0.00000000000E+00  0.14391832410E+04  0.17534860609E+04  0.10017309841E+04 0.  0.
        1    1    3    3  502    0  0.37886772431E+03  0.33410920860E+02  0.12900609204E+04  0.13449588174E+04  0.50400001928E-02 0.  1.
       -1    1    3    3    0  502 -0.37886772431E+03 -0.33410920860E+02  0.14912232062E+03  0.40852724351E+03  0.50400001928E-02 0. -1.
</event>
<event>
 5   0  0.1020150E-03  0.9981883E+03  0.7818609E-02  0.9310534E-01
       -2   -1    0    0    0  501  0.00000000000E+00  0.00000000000E+00  0.33128430691E+03  0.33128430692E+03  0.25500000920E-02 0.  1.
        2   -1    0    0  501    0  0.00000000000E+00  0.00000000000E+00 -0.75190693349E+03  0.75190693349E+03  0.25500000920E-02 0. -1.
    10030    2    1    2    0    0  0.00000000000E+00  0.00000000000E+00 -0.42062262658E+03  0.10831912404E+04  0.99818829352E+03 0.  0.
        5    1    3    3  502    0  0.47072434975E+03 -0.26549912512E+01 -0.30409344968E+02  0.47173645257E+03  0.46999998093E+01 0. -1.
       -5    1    3    3    0  502 -0.47072434975E+03  0.26549912512E+01 -0.39021328161E+03  0.61145478784E+03  0.46999998093E+01 0.  1.
</event>
<event>
 5   0  0.5960102E-04  0.1002565E+04  0.7818609E-02  0.9305736E-01
       -1   -1    0    0    0  501  0.00000000000E+00  0.00000000000E+00  0.13716861563E+03  0.13716861572E+03  0.50400001928E-02 0.  1.
        1   -1    0    0  501    0  0.00000000000E+00  0.00000000000E+00 -0.18319368894E+04  0.18319368894E+04  0.50400001928E-02 0. -1.
    10030    2    1    2    0    0  0.00000000000E+00  0.00000000000E+00 -0.16947682738E+04  0.19691055051E+04  0.10025652041E+04 0.  0.
        5    1    3    3  502    0  0.19261315175E+03 -0.72013352378E+02  0.50468347727E+02  0.21178973835E+03  0.46999998093E+01 0.  1.
       -5    1    3    3    0  502 -0.19261315175E+03  0.72013352378E+02 -0.17452366215E+04  0.17573157668E+04  0.46999998093E+01 0. -1.
</event>
<event>
 5   0  0.9674819E-04  0.1000367E+04  0.7818609E-02  0.9308142E-01
       -2   -1    0    0    0  501  0.00000000000E+00  0.00000000000E+00  0.25729092249E+03  0.25729092250E+03  0.25500000920E-02 0. -1.
        2   -1    0    0  501    0  0.00000000000E+00  0.00000000000E+00 -0.97237693304E+03  0.97237693305E+03  0.25500000920E-02 0.  1.
    10030    2    1    2    0    0  0.00000000000E+00  0.00000000000E+00 -0.71508601055E+03  0.12296678556E+04  0.10003674487E+04 0.  0.
        4    1    3    3  502    0 -0.43186661233E+03 -0.24005448736E+03 -0.26195441375E+03  0.55924650694E+03  0.12699999809E+01 0. -1.
       -4    1    3    3    0  502  0.43186661233E+03  0.24005448736E+03 -0.45313159681E+03  0.67042134861E+03  0.12699999809E+01 0.  1.
</event>
<event>
 5   0  0.5768102E-04  0.1001286E+04  0.7818609E-02  0.9307136E-01
        1   -1    0    0  501    0  0.00000000000E+00  0.00000000000E+00  0.75140215710E+03  0.75140215712E+03  0.50400001928E-02 0. -1.
       -1   -1    0    0    0  501  0.00000000000E+00  0.00000000000E+00 -0.33356729312E+03  0.33356729316E+03  0.50400001928E-02 0.  1.
    10030    2    1    2    0    0  0.00000000000E+00  0.00000000000E+00  0.41783486398E+03  0.10849694503E+04  0.10012855409E+04 0.  0.
        4    1    3    3  502    0  0.20815122363E+03  0.37505195710E+03  0.48866210109E+03  0.65021778226E+03  0.12699999809E+01 0. -1.
       -4    1    3    3    0  502 -0.20815122363E+03 -0.37505195710E+03 -0.70827237103E+02  0.43475166802E+03  0.12699999809E+01 0.  1.
</event>
<event>
 5   0  0.5960102E-04  0.1003197E+04  0.7818609E-02  0.9305045E-01
        1   -1    0    0  501    0  0.00000000000E+00  0.00000000000E+00  0.31875162450E+03  0.31875162454E+03  0.50400001928E-02 0.  1.
       -1   -1    0    0    0  501  0.00000000000E+00  0.00000000000E+00 -0.78933248450E+03  0.78933248451E+03  0.50400001928E-02 0. -1.
    10030    2    1    2    0    0  0.00000000000E+00  0.00000000000E+00 -0.47058086000E+03  0.11080841091E+04  0.10031969133E+04 0.  0.
        5    1    3    3  502    0  0.44784291051E+03  0.18928995582E+03 -0.99179377463E+02  0.49623844952E+03  0.46999998093E+01 0. -1.
       -5    1    3    3    0  502 -0.44784291051E+03 -0.18928995582E+03 -0.37140148253E+03  0.61184565954E+03  0.46999998093E+01 0.  1.
</event>
<event>
 5   0  0.5888774E-04  0.1000547E+04  0.7818609E-02  0.9307945E-01
       -1   -1    0    0    0  501  0.00000000000E+00  0.00000000000E+00  0.31962057288E+03  0.31962057292E+03  0.50400001928E-02 0. -1.
        1   -1    0    0  501    0  0.00000000000E+00  0.00000000000E+00 -0.78303352084E+03  0.78303352086E+03  0.50400001928E-02 0.  1.
    10030    2    1    2    0    0  0.00000000000E+00  0.00000000000E+00 -0.46341294796E+03  0.11026540938E+04  0.10005470954E+04 0.  0.
        2    1    3    3  502    0  0.32790056799E+03 -0.17042357381E+03 -0.60332924828E+03  0.70750912279E+03  0.25500000920E-02 0.  1.
       -2    1    3    3    0  502 -0.32790056799E+03  0.17042357381E+03  0.13991630031E+03  0.39514497099E+03  0.25500000920E-02 0. -1.
</event>
<event>
 5   0  0.5888774E-04  0.9964627E+03  0.7818609E-02  0.9312433E-01
       -1   -1    0    0    0  501  0.00000000000E+00  0.00000000000E+00  0.54471856196E+03  0.54471856198E+03  0.50400001928E-02 0.  1.
        1   -1    0    0  501    0  0.00000000000E+00  0.00000000000E+00 -0.45571141343E+03  0.45571141346E+03  0.50400001928E-02 0. -1.
    10030    2    1    2    0    0  0.00000000000E+00  0.00000000000E+00  0.89007148524E+02  0.10004299754E+04  0.99646267530E+03 0.  0.
        2    1    3    3  502    0 -0.16016707027E+03 -0.11165903087E+03  0.50470966897E+03  0.54115901502E+03  0.25500000920E-02 0.  1.
       -2    1    3    3    0  502  0.16016707027E+03  0.11165903087E+03 -0.41570252045E+03  0.45927096042E+03  0.25500000920E-02 0. -1.
</event>
<event>
 5   0  0.5960102E-04  0.9993695E+03  0.7818609E-02  0.9309237E-01
        1   -1    0    0  501    0  0.00000000000E+00  0.00000000000E+00  0.55094547451E+03  0.55094547454E+03  0.50400001928E-02 0.  1.
       -1   -1    0    0    0  501  0.00000000000E+00  0.00000000000E+00 -0.45319337206E+03  0.45319337208E+03  0.50400001928E-02 0. -1.
    10030    2    1    2    0    0  0.00000000000E+00  0.00000000000E+00  0.97752102457E+02  0.10041388466E+04  0.99936947610E+03 0.  0.
        5    1    3    3  502    0 -0.48885049130E+03 -0.76014701549E+02  0.11927976966E+03  0.50892316821E+03  0.46999998093E+01 0.  1.
       -5    1    3    3    0  502  0.48885049130E+03  0.76014701549E+02 -0.21527667200E+02  0.49521567841E+03  0.46999998093E+01 0. -1.
</event>
<event>
 5   0  0.5960102E-04  0.9992556E+03  0.7818609E-02  0.9309362E-01
        1   -1    0    0  501    0  0.00000000000E+00  0.00000000000E+00  0.29113554631E+03  0.29113554635E+03  0.50400001928E-02 0.  1.
       -1   -1    0    0    0  501  0.00000000000E+00  0.00000000000E+00 -0.85742861457E+03  0.85742861458E+03  0.50400001928E-02 0. -1.
    10030    2    1    2    0    0  0.00000000000E+00  0.00000000000E+00 -0.56629306826E+03  0.11485641609E+04  0.99925561926E+03 0.  0.
        5    1    3    3  502    0 -0.26861532565E+03  0.98505121120E+02 -0.75391554035E+03  0.80639207836E+03  0.46999998093E+01 0. -1.
       -5    1    3    3    0  502  0.26861532565E+03 -0.98505121120E+02  0.18762247210E+03  0.34217208257E+03  0.46999998093E+01 0.  1.
</event>
<event>
 5   0  0.5888774E-04  0.9996038E+03  0.7818609E-02  0.9308980E-01
       -1   -1    0    0    0  501  0.00000000000E+00  0.00000000000E+00  0.62479382753E+03  0.62479382755E+03  0.50400001928E-02 0.  1.
        1   -1    0    0  501    0  0.00000000000E+00  0.00000000000E+00 -0.39981495412E+03  0.39981495415E+03  0.50400001928E-02 0. -1.
    10030    2    1    2    0    0  0.00000000000E+00  0.00000000000E+00  0.22497887342E+03  0.10246087817E+04  0.99960375252E+03 0.  0.
        2    1    3    3  502    0 -0.90151916016E+02  0.36471071338E+03  0.45037242889E+03  0.58649518082E+03  0.25500000920E-02 0.  1.
       -2    1    3    3    0  502  0.90151916016E+02 -0.36471071338E+03 -0.22539355547E+03  0.43811360088E+03  0.25500000920E-02 0. -1.
</event>
<event>
 5   0  0.5888774E-04  0.9975386E+03  0.7818609E-02  0.9311249E-01
       -1   -1    0    0    0  501  0.00000000000E+00  0.00000000000E+00  0.41104249807E+03  0.41104249810E+03  0.50400001928E-02 0.  1.
        1   -1    0    0  501    0  0.00000000000E+00  0.00000000000E+00 -0.60521915894E+03  0.60521915896E+03  0.50400001928E-02 0. -1.
    10030    2    1    2    0    0  0.00000000000E+00  0.00000000000E+00 -0.19417666086E+03  0.10162616571E+04  0.99753856065E+03 0.  0.
        2    1    3    3  502    0 -0.11880005176E+03 -0.47511320786E+03 -0.84410852200E+00  0.48974148804E+03  0.25500000920E-02 0.  1.
       -2    1    3    3    0  502  0.11880005176E+03  0.47511320786E+03 -0.19333255234E+03  0.52652016902E+03  0.25500000920E-02 0. -1.
</event>
<event>
 5   0  0.3854625E-04  0.9965411E+03  0.7818609E-02  0.9312347E-01
        4   -1    0    0  501    0  0.00000000000E+00  0.00000000000E+00  0.65158076139E+03  0.65158199907E+03  0.12699999809E+01 0. -1.
       -4   -1    0    0    0  501  0.00000000000E+00  0.00000000000E+00 -0.38102997082E+03  0.38103208731E+03  0.12699999809E+01 0.  1.
    10030    2    1    2    0    0  0.00000000000E+00  0.00000000000E+00  0.27055079057E+03  0.10326140864E+04  0.99654107849E+03 0.  0.
        1    1    3    3  502    0  0.39481674034E+03  0.30166219084E+03  0.17395203214E+03  0.52644054303E+03  0.50400001928E-02 0. -1.
       -1    1    3    3    0  502 -0.39481674034E+03 -0.30166219084E+03  0.96598758430E+02  0.50617354335E+03  0.50400001928E-02 0.  1.
</event>
<event>
 5   0  0.1006749E-03  0.1000657E+04  0.7818609E-02  0.9307825E-01
        2   -1    0    0  501    0  0.00000000000E+00  0.00000000000E+00  0.67317648083E+03  0.67317648083E+03  0.25500000920E-02 0. -1.
       -2   -1    0    0    0  501  0.00000000000E+00  0.00000000000E+00 -0.37186174089E+03  0.37186174090E+03  0.25500000920E-02 0.  1.
    10030    2    1    2    0    0  0.00000000000E+00  0.00000000000E+00  0.30131473994E+03  0.10450382217E+04  0.10006569404E+04 0.  0.
        1    1    3    3  502    0 -0.15331952695E+03  0.33019233345E+03 -0.20777719364E+03  0.41917206090E+03  0.50400001928E-02 0.  1.
       -1    1    3    3    0  502  0.15331952695E+03 -0.33019233345E+03  0.50909193358E+03  0.62586616083E+03  0.50400001928E-02 0. -1.
</event>
<event>
 5   0  0.5960102E-04  0.9996066E+03  0.7818609E-02  0.9308976E-01
        1   -1    0    0  501    0  0.00000000000E+00  0.00000000000E+00  0.14735621378E+04  0.14735621378E+04  0.50400001928E-02 0.  1.
       -1   -1    0    0    0  501  0.00000000000E+00  0.00000000000E+00 -0.16952345047E+03  0.16952345055E+03  0.50400001928E-02 0. -1.
    10030    2    1    2    0    0  0.00000000000E+00  0.00000000000E+00  0.13040386873E+04  0.16430855883E+04  0.99960659891E+03 0.  0.
        5    1    3    3  502    0 -0.32272935526E+03  0.72821638674E+02  0.12677589382E+04  0.13102259512E+04  0.46999998093E+01 0.  1.
       -5    1    3    3    0  502  0.32272935526E+03 -0.72821638674E+02  0.36279749044E+02  0.33285963708E+03  0.46999998093E+01 0. -1.
</event>
<event>
 5   0  0.5888774E-04  0.9991673E+03  0.7818609E-02  0.9309459E-01
       -1   -1    0    0    0  501  0.00000000000E+00  0.00000000000E+00  0.25905098572E+03  0.25905098577E+03  0.50400001928E-02 0. -1.
        1   -1    0    0  501    0  0.00000000000E+00  0.00000000000E+00 -0.96345448805E+03  0.96345448806E+03  0.50400001928E-02 0.  1.
    10030    2    1    2    0    0  0.00000000000E+00  0.00000000000E+00 -0.70440350232E+03  0.12225054738E+04  0.99916732306E+03 0.  0.
        2    1    3    3  502    0 -0.18667848935E+03  0.18047769655E+03 -0.87440841533E+03  0.91214644337E+03  0.25500000920E-02 0.  1.
       -2    1    3    3    0  502  0.18667848935E+03 -0.18047769655E+03  0.17000491301E+03  0.31035903047E+03  0.25500000920E-02 0. -1.
</event>
<event>
 5   0  0.5826939E-04  0.1001920E+04  0.7818609E-02  0.9306441E-01
       -1   -1    0    0    0  501  0.00000000000E+00  0.00000000000E+00  0.10188044732E+03  0.10188044744E+03  0.50400001928E-02 0.  1.
        1   -1    0    0  501    0  0.00000000000E+00  0.00000000000E+00 -0.24632904544E+04  0.24632904544E+04  0.50400001928E-02 0. -1.
    10030    2    1    2    0    0  0.00000000000E+00  0.00000000000E+00 -0.23614100071E+04  0.25651709018E+04  0.10019204231E+04 0.  0.
        1    1    3    3  502    0  0.27469568424E+03 -0.32185970892E+03 -0.18672625447E+04  0.19146072188E+04  0.50400001928E-02 0. -1.
       -1    1    3    3    0  502 -0.27469568424E+03  0.32185970892E+03 -0.49414746233E+03  0.65056368306E+03  0.50400001928E-02 0.  1.
</event>
<event>
 5   0  0.1020150E-03  0.1001656E+04  0.7818609E-02  0.9306730E-01
       -2   -1    0    0    0  501  0.00000000000E+00  0.00000000000E+00  0.29166836714E+03  0.29166836716E+03  0.25500000920E-02 0.  1.
        2   -1    0    0  501    0  0.00000000000E+00  0.00000000000E+00 -0.85997934506E+03  0.85997934507E+03  0.25500000920E-02 0. -1.
    10030    2    1    2    0    0  0.00000000000E+00  0.00000000000E+00 -0.56831097792E+03  0.11516477122E+04  0.10016561713E+04 0.  0.
        5    1    3    3  502    0  0.36373257396E+03  0.21857193681E+03 -0.58993454307E+03  0.72671860580E+03  0.46999998093E+01 0. -1.
       -5    1    3    3    0  502 -0.36373257396E+03 -0.21857193681E+03  0.21623565147E+02  0.42492910642E+03  0.46999998093E+01 0.  1.
</event>
<event>
 5   0  0.1020150E-03  0.9986659E+03  0.7818609E-02  0.9310009E-01
       -2   -1    0    0    0  501  0.00000000000E+00  0.00000000000E+00  0.23408640900E+03  0.23408640901E+03  0.25500000920E-02 0. -1.
        2   -1    0    0  501    0  0.00000000000E+00  0.00000000000E+00 -0.10651339848E+04  0.10651339848E+04  0.25500000920E-02 0.  1.
    10030    2    1    2    0    0  0.00000000000E+00  0.00000000000E+00 -0.83104757581E+03  0.12992203938E+04  0.99866588930E+03 0.  0.
        5    1    3    3  502    0  0.44161298063E+03  0.23234813763E+03 -0.43819247112E+03  0.66411024195E+03  0.46999998093E+01 0. -1.
       -5    1    3    3    0  502 -0.44161298063E+03 -0.23234813763E+03 -0.39285510470E+03  0.63511015187E+03  0.46999998093E+01 0.  1.
</event>
<event>
 5   0  0.9674819E-04  0.9989725E+03  0.7818609E-02  0.9309672E-01
        2   -1    0    0  501    0  0.00000000000E+00  0.00000000000E+00  0.31875922699E+03  0.31875922700E+03  0.25500000920E-02 0. -1.
       -2   -1    0    0    0  501  0.00000000000E+00  0.00000000000E+00 -0.78268008248E+03  0.78268008248E+03  0.25500000920E-02 0.  1.
    10030    2    1    2    0    0  0.00000000000E+00  0.00000000000E+00 -0.46392085549E+03  0.11014393095E+04  0.99897246824E+03 0.  0.
        4    1    3    3  502    0 -0.35897872328E+03  0.33704042446E+03 -0.13956175806E+03  0.51180178653E+03  0.12699999809E+01 0. -1.
       -4    1    3    3    0  502  0.35897872328E+03 -0.33704042446E+03 -0.32435909743E+03  0.58963752295E+03  0.12699999809E+01 0.  1.
</event>
<event>
 5   0  0.5960102E-04  0.1001033E+04  0.7818609E-02  0.9307412E-01
        1   -1    0    0  501    0  0.00000000000E+00  0.00000000000E+00  0.67687251241E+03  0.67687251243E+03  0.50400001928E-02 0.  1.
       -1   -1    0    0    0  501  0.00000000000E+00  0.00000000000E+00 -0.37010959601E+03  0.37010959604E+03  0.50400001928E-02 0. -1.
    10030    2    1    2    0    0  0.00000000000E+00  0.00000000000E+00  0.30676291640E+03  0.10469821085E+04  0.10010334902E+04 0.  0.
        5    1    3    3  502    0  0.27120370207E+03 -0.15586323505E+02 -0.28627108738E+03  0.39467405154E+03  0.46999998093E+01 0. -1.
       -5    1    3    3    0  502 -0.27120370207E+03  0.15586323505E+02  0.59303400378E+03  0.65230805692E+03  0.46999998093E+01 0.  1.
</event>
<event>
 5   0  0.1006006E-03  0.1001833E+04  0.7818609E-02  0.9306536E-01
        2   -1    0    0  501    0  0.00000000000E+00  0.00000000000E+00  0.24980188093E+04  0.24980188093E+04  0.25500000920E-02 0. -1.
       -2   -1    0    0    0  501  0.00000000000E+00  0.00000000000E+00 -0.10044658437E+03  0.10044658440E+03  0.25500000920E-02 0.  1.
    10030    2    1    2    0    0  0.00000000000E+00  0.00000000000E+00  0.23975722249E+04  0.25984653937E+04  0.10018332339E+04 0.  0.
        2    1    3    3  502    0 -0.49011905507E+03 -0.42768966380E+02  0.14430853431E+04  0.15246446078E+04  0.25500000920E-02 0.  1.
       -2    1    3    3    0  502  0.49011905507E+03  0.42768966380E+02  0.95448688180E+03  0.10738207859E+04  0.25500000920E-02 0. -1.
</event>
<event>
 5   0  0.5888774E-04  0.9901311E+03  0.7818609E-02  0.9319436E-01
       -1   -1    0    0    0  501  0.00000000000E+00  0.00000000000E+00  0.27754038137E+03  0.27754038142E+03  0.50400001928E-02 0. -1.
        1   -1    0    0  501    0  0.00000000000E+00  0.00000000000E+00 -0.88307835639E+03  0.88307835641E+03  0.50400001928E-02 0.  1.
    10030    2    1    2    0    0  0.00000000000E+00  0.00000000000E+00 -0.60553797502E+03  0.11606187378E+04  0.99013111021E+03 0.  0.
        2    1    3    3  502    0 -0.44048479814E+03 -0.22027262924E+03 -0.36188040234E+03  0.61114999320E+03  0.25500000920E-02 0.  1.
       -2    1    3    3    0  502  0.44048479814E+03  0.22027262924E+03 -0.24365757268E+03  0.54946874462E+03  0.25500000920E-02 0. -1.
</event>
<event>
 5   0  0.1006006E-03  0.1000417E+04  0.7818609E-02  0.9308087E-01
       -2   -1    0    0    0  501  0.00000000000E+00  0.00000000000E+00  0.24191727994E+03  0.24191727995E+03  0.25500000920E-02 0.  1.
        2   -1    0    0  501    0  0.00000000000E+00  0.00000000000E+00 -0.10342738763E+04  0.10342738763E+04  0.25500000920E-02 0. -1.
    10030    2    1    2    0    0  0.00000000000E+00  0.00000000000E+00 -0.79235659636E+03  0.12761911563E+04  0.10004173587E+04 0.  0.
        2    1    3    3  502    0  0.29535837827E+03 -0.26422392204E+03 -0.68246147244E+01  0.39635517906E+03  0.25500000920E-02 0.  1.
       -2    1    3    3    0  502 -0.29535837827E+03  0.26422392204E+03 -0.78553198163E+03  0.87983597720E+03  0.25500000920E-02 0. -1.
</event>
<event>
 5   0  0.5960102E-04  0.9968729E+03  0.7818609E-02  0.9311981E-01
       -1   -1    0    0    0  501  0.00000000000E+00  0.00000000000E+00  0.26748131117E+03  0.26748131122E+03  0.50400001928E-02 0.  1.
        1   -1    0    0  501    0  0.00000000000E+00  0.00000000000E+00 -0.92880843357E+03  0.92880843359E+03  0.50400001928E-02 0. -1.
    10030    2    1    2    0    0  0.00000000000E+00  0.00000000000E+00 -0.66132712240E+03  0.11962897448E+04  0.99687290600E+03 0.  0.
        5    1    3    3  502    0 -0.27241724765E+03 -0.31091390501E+03 -0.66482353596E+03  0.78287357671E+03  0.46999998093E+01 0. -1.
       -5    1    3    3    0  502  0.27241724765E+03  0.31091390501E+03  0.34964135559E+01  0.41341616810E+03  0.46999998093E+01 0.  1.
</event>
<event>
 5   0  0.9674819E-04  0.1001473E+04  0.7818609E-02  0.9306931E-01
       -2   -1    0    0    0  501  0.00000000000E+00  0.00000000000E+00  0.20198213227E+03  0.20198213229E+03  0.25500000920E-02 0.  1.
        2   -1    0    0  501    0  0.00000000000E+00  0.00000000000E+00 -0.12413815640E+04  0.12413815640E+04  0.25500000920E-02 0. -1.
    10030    2    1    2    0    0  0.00000000000E+00  0.00000000000E+00 -0.10393994317E+04  0.14433636963E+04  0.10014727061E+04 0.  0.
        4    1    3    3  502    0 -0.31416780518E+03 -0.24044998524E+03 -0.77312206339E+02  0.40310841639E+03  0.12699999809E+01 0.  1.
       -4    1    3    3    0  502  0.31416780518E+03  0.24044998524E+03 -0.96208722537E+03  0.10402552799E+04  0.12699999809E+01 0. -1.
</event>
<event>
 5   0  0.5826939E-04  0.9983192E+03  0.7818609E-02  0.9310390E-01
       -1   -1    0    0    0  501  0.00000000000E+00  0.00000000000E+00  0.31626843758E+03  0.31626843762E+03  0.50400001928E-02 0.  1.
        1   -1    0    0  501    0  0.00000000000E+00  0.00000000000E+00 -0.78781280420E+03  0.78781280422E+03  0.50400001928E-02 0. -1.
    10030    2    1    2    0    0  0.00000000000E+00  0.00000000000E+00 -0.47154436662E+03  0.11040812418E+04  0.99831923697E+03 0.  0.
        1    1    3    3  502    0  0.42306127417E+03 -0.18010187039E+02  0.56529085924E+02  0.42720106053E+03  0.50400001928E-02 0. -1.
       -1    1    3    3    0  502 -0.42306127417E+03  0.18010187039E+02 -0.52807345255E+03  0.67688018131E+03  0.50400001928E-02 0.  1.
</event>
<event>
 5   0  0.5960102E-04  0.1000737E+04  0.7818609E-02  0.9307737E-01
       -1   -1    0    0    0  501  0.00000000000E+00  0.00000000000E+00  0.22013059912E+03  0.22013059918E+03  0.50400001928E-02 0. -1.
        1   -1    0    0  501    0  0.00000000000E+00  0.00000000000E+00 -0.11373635688E+04  0.11373635688E+04  0.50400001928E-02 0.  1.
    10030    2    1    2    0    0  0.00000000000E+00  0.00000000000E+00 -0.91723296970E+03  0.13574941680E+04  0.10007367763E+04 0.  0.
        5    1    3    3  502    0  0.22473933912E+03  0.35366129658E+03 -0.87714133756E+02  0.42813542543E+03  0.46999998093E+01 0. -1.
       -5    1    3    3    0  502 -0.22473933912E+03 -0.35366129658E+03 -0.82951883595E+03  0.92935874259E+03  0.46999998093E+01 0.  1.
</event>
<event>
 5   0  0.5768102E-04  0.9977723E+03  0.7818609E-02  0.9310991E-01
       -1   -1    0    0    0  501  0.00000000000E+00  0.00000000000E+00  0.46355175693E+03  0.46355175696E+03  0.50400001928E-02 0. -1.
        1   -1    0    0  501    0  0.00000000000E+00  0.00000000000E+00 -0.53691389856E+03  0.53691389859E+03  0.50400001928E-02 0.  1.
    10030    2    1    2    0    0  0.00000000000E+00  0.00000000000E+00 -0.73362141634E+02  0.10004656555E+04  0.99777228068E+03 0.  0.
        4    1    3    3  502    0  0.24421176425E+03 -0.16907222207E+03  0.36522626852E+03  0.47076176798E+03  0.12699999809E+01 0. -1.
       -4    1    3    3    0  502 -0.24421176425E+03  0.16907222207E+03 -0.43858841016E+03  0.52970388756E+03  0.12699999809E+01 0.  1.
</event>
<event>
 5   0  0.1006006E-03  0.9999386E+03  0.7818609E-02  0.9308612E-01
        2   -1    0    0  501    0  0.00000000000E+00  0.00000000000E+00  0.65233825583E+03  0.65233825583E+03  0.25500000920E-02 0. -1.
       -2   -1    0    0    0  501  0.00000000000E+00  0.00000000000E+00 -0.38318968413E+03  0.38318968414E+03  0.25500000920E-02 0.  1.
    10030    2    1    2    0    0  0.00000000000E+00  0.00000000000E+00  0.26914857169E+03  0.10355279400E+04  0.99993857852E+03 0.  0.
        2    1    3    3  502    0  0.12341197024E+03  0.36099287478E+03 -0.20007231193E+03  0.43078451696E+03  0.25500000920E-02 0.  1.
       -2    1    3    3    0  502 -0.12341197024E+03 -0.36099287478E+03  0.46922088362E+03  0.60474342301E+03  0.25500000920E-02 0. -1.
</event>
<event>
 5   0  0.9741826E-04  0.9794540E+03  0.7818609E-02  0.9331371E-01
       -2   -1    0    0    0  501  0.00000000000E+00  0.00000000000E+00  0.24330868850E+03  0.24330868851E+03  0.25500000920E-02 0. -1.
        2   -1    0    0  501    0  0.00000000000E+00  0.00000000000E+00 -0.98571305826E+03  0.98571305826E+03  0.25500000920E-02 0.  1.
    10030    2    1    2    0    0  0.00000000000E+00  0.00000000000E+00 -0.74240436976E+03  0.12290217468E+04  0.97945403455E+03 0.  0.
        3    1    3    3  502    0  0.45235686410E+03  0.16505279545E+03 -0.25922634654E+03  0.54687061242E+03  0.10100000352E+00 0. -1.
       -3    1    3    3    0  502 -0.45235686410E+03 -0.16505279545E+03 -0.48317802321E+03  0.68215113435E+03  0.10100000352E+00 0.  1.
</event>
<event>
 5   0  0.5960102E-04  0.9992247E+03  0.7818609E-02  0.9309396E-01
        1   -1    0    0  501    0  0.00000000000E+00  0.00000000000E+00  0.97874761935E+03  0.97874761937E+03  0.50400001928E-02 0.  1.
       -1   -1    0    0    0  501  0.00000000000E+00  0.00000000000E+00 -0.25503252629E+03  0.25503252634E+03  0.50400001928E-02 0. -1.
    10030    2    1    2    0    0  0.00000000000E+00  0.00000000000E+00  0.72371509306E+03  0.12337801457E+04  0.99922465544E+03 0.  0.
        5    1    3    3  502    0 -0.47156228375E+03  0.16316888700E+03  0.39198399934E+03  0.63456175340E+03  0.46999998093E+01 0. -1.
       -5    1    3    3    0  502  0.47156228375E+03 -0.16316888700E+03  0.33173109372E+03  0.59921839231E+03  0.46999998093E+01 0.  1.
</event>
<event>
 5   0  0.1020150E-03  0.9994742E+03  0.7818609E-02  0.9309122E-01
       -2   -1    0    0    0  501  0.00000000000E+00  0.00000000000E+00  0.48952173750E+03  0.48952173751E+03  0.25500000920E-02 0. -1.
        2   -1    0    0  501    0  0.00000000000E+00  0.00000000000E+00 -0.51016564182E+03  0.51016564183E+03  0.25500000920E-02 0.  1.
    10030    2    1    2    0    0  0.00000000000E+00  0.00000000000E+00 -0.20643904321E+02  0.99968737934E+03  0.99947420458E+03 0.  0.
        5    1    3    3  502    0 -0.13520524693E+03 -0.21472867379E+02 -0.49102152190E+03  0.50977030886E+03  0.46999998093E+01 0.  1.
       -5    1    3    3    0  502  0.13520524693E+03  0.21472867379E+02  0.47037761758E+03  0.48991707048E+03  0.46999998093E+01 0. -1.
</event>
<event>
 5   0  0.1020150E-03  0.1000658E+04  0.7818609E-02  0.9307824E-01
        2   -1    0    0  501    0  0.00000000000E+00  0.00000000000E+00  0.42323151168E+03  0.42323151169E+03  0.25500000920E-02 0. -1.
       -2   -1    0    0    0  501  0.00000000000E+00  0.00000000000E+00 -0.59147056708E+03  0.59147056709E+03  0.25500000920E-02 0.  1.
    10030    2    1    2    0    0  0.00000000000E+00  0.00000000000E+00 -0.16823905540E+03  0.10147020788E+04  0.10006577481E+04 0.  0.
        5    1    3    3  502    0 -0.23037193173E+03  0.44405191552E+03 -0.76698230142E+02  0.50612057764E+03  0.46999998093E+01 0.  1.
       -5    1    3    3    0  502  0.23037193173E+03 -0.44405191552E+03 -0.91540825259E+02  0.50858150113E+03  0.46999998093E+01 0. -1.
</event>
<event>
 5   0  0.1020150E-03  0.9997502E+03  0.7818609E-02  0.9308819E-01
        2   -1    0    0  501    0  0.00000000000E+00  0.00000000000E+00  0.10121543271E+04  0.10121543271E+04  0.25500000920E-02 0. -1.
       -2   -1    0    0    0  501  0.00000000000E+00  0.00000000000E+00 -0.24687454516E+03  0.24687454517E+03  0.25500000920E-02 0.  1.
    10030    2    1    2    0    0  0.00000000000E+00  0.00000000000E+00  0.76527978191E+03  0.12590288722E+04  0.99975024709E+03 0.  0.
        5    1    3    3  502    0 -0.27624967117E+03 -0.31927998614E+03  0.71961594397E+03  0.83433973127E+03  0.46999998093E+01 0. -1.
       -5    1    3    3    0  502  0.27624967117E+03  0.31927998614E+03  0.45663837943E+02  0.42468914098E+03  0.46999998093E+01 0.  1.
</event>
<event>
 5   0  0.5768102E-04  0.9990323E+03  0.7818609E-02  0.9309607E-01
       -1   -1    0    0    0  501  0.00000000000E+00  0.00000000000E+00  0.48271024289E+03  0.48271024292E+03  0.50400001928E-02 0.  1.
        1   -1    0    0  501    0  0.00000000000E+00  0.00000000000E+00 -0.51690715968E+03  0.51690715971E+03  0.50400001928E-02 0. -1.
    10030    2    1    2    0    0  0.00000000000E+00  0.00000000000E+00 -0.34196916794E+02  0.99961740262E+03  0.99903229303E+03 0.  0.
        4    1    3    3  502    0 -0.47838646319E+02 -0.45923022100E+03  0.17362754394E+03  0.49328396373E+03  0.12699999809E+01 0.  1.
       -4    1    3    3    0  502  0.47838646319E+02  0.45923022100E+03 -0.20782446073E+03  0.50633343889E+03  0.12699999809E+01 0. -1.
</event>
<event>
 5   0  0.9674819E-04  0.1000977E+04  0.7818609E-02  0.9307474E-01
       -2   -1    0    0    0  501  0.00000000000E+00  0.00000000000E+00  0.24915590735E+03  0.24915590736E+03  0.25500000920E-02 0.  1.
        2   -1    0    0  501    0  0.00000000000E+00  0.00000000000E+00 -0.10053491097E+04  0.10053491097E+04  0.25500000920E-02 0. -1.
    10030    2    1    2    0    0  0.00000000000E+00  0.00000000000E+00 -0.75619320236E+03  0.12545050171E+04  0.10009768622E+04 0.  0.
        4    1    3    3  502    0 -0.27313554885E+03  0.22120979814E+03  0.68448316302E+02  0.35808321344E+03  0.12699999809E+01 0.  1.
       -4    1    3    3    0  502  0.27313554885E+03 -0.22120979814E+03 -0.82464151866E+03  0.89642180364E+03  0.12699999809E+01 0. -1.
</event>
<event>
 5   0  0.5826939E-04  0.1000167E+04  0.7818609E-02  0.9308361E-01
        1   -1    0    0  501    0  0.00000000000E+00  0.00000000000E+00  0.11621121663E+04  0.11621121663E+04  0.50400001928E-02 0. -1.
       -1   -1    0    0    0  501  0.00000000000E+00  0.00000000000E+00 -0.21519750231E+03  0.21519750237E+03  0.50400001928E-02 0.  1.
    10030    2    1    2    0    0  0.00000000000E+00  0.00000000000E+00  0.94691466401E+03  0.13773096687E+04  0.10001672573E+04 0.  0.
        1    1    3    3  502    0  0.38353224244E+03 -0.23255338457E+03  0.77799299693E+03  0.89802625850E+03  0.50400001928E-02 0. -1.
       -1    1    3    3    0  502 -0.38353224244E+03  0.23255338457E+03  0.16892166708E+03  0.47928341020E+03  0.50400001928E-02 0.  1.
</event>
<event>
 5   0  0.3854625E-04  0.9993462E+03  0.7818609E-02  0.9309262E-01
        3   -1    0    0  501    0  0.00000000000E+00  0.00000000000E+00  0.30963312134E+03  0.30963313782E+03  0.10100000352E+00 0. -1.
       -3   -1    0    0    0  501  0.00000000000E+00  0.00000000000E+00 -0.80635164093E+03  0.80635164725E+03  0.10100000352E+00 0.  1.
    10030    2    1    2    0    0  0.00000000000E+00  0.00000000000E+00 -0.49671851959E+03  0.11159847851E+04  0.99934616265E+03 0.  0.
        5    1    3    3  502    0  0.10992249368E+03 -0.48527840523E+03 -0.29920368445E+03  0.58062295855E+03  0.46999998093E+01 0.  1.
       -5    1    3    3    0  502 -0.10992249368E+03  0.48527840523E+03 -0.19751483513E+03  0.53536182652E+03  0.46999998093E+01 0. -1.
</event>
<event>
 5   0  0.5826939E-04  0.1000172E+04  0.7818609E-02  0.9308356E-01
       -1   -1    0    0    0  501  0.00000000000E+00  0.00000000000E+00  0.59691072277E+03  0.59691072279E+03  0.50400001928E-02 0.  1.
        1   -1    0    0  501    0  0.00000000000E+00  0.00000000000E+00 -0.41896706763E+03  0.41896706766E+03  0.50400001928E-02 0. -1.
    10030    2    1    2    0    0  0.00000000000E+00  0.00000000000E+00  0.17794365514E+03  0.10158777904E+04  0.10001718556E+04 0.  0.
        1    1    3    3  502    0  0.70499948577E+02  0.31148806063E+03 -0.30189696192E+03  0.43947335563E+03  0.50400001928E-02 0. -1.
       -1    1    3    3    0  502 -0.70499948577E+02 -0.31148806063E+03  0.47984061707E+03  0.57640443482E+03  0.50400001928E-02 0.  1.
</event>
<event>
 5   0  0.5888774E-04  0.9997479E+03  0.7818609E-02  0.9308821E-01
        1   -1    0    0  501    0  0.00000000000E+00  0.00000000000E+00  0.76280821313E+03  0.76280821315E+03  0.50400001928E-02 0.  1.
       -1   -1    0    0    0  501  0.00000000000E+00  0.00000000000E+00 -0.32757113043E+03  0.32757113047E+03  0.50400001928E-02 0. -1.
    10030    2    1    2    0    0  0.00000000000E+00  0.00000000000E+00  0.43523708270E+03  0.10903793436E+04  0.99974786563E+03 0.  0.
        2    1    3    3  502    0 -0.45827811832E+03  0.13428593997E+03  0.37873444030E+03  0.60950088079E+03  0.25500000920E-02 0.  1.
       -2    1    3    3    0  502  0.45827811832E+03 -0.13428593997E+03  0.56502642404E+02  0.48087846283E+03  0.25500000920E-02 0. -1.
</event>
<event>
 5   0  0.9674819E-04  0.9985069E+03  0.7818609E-02  0.9310184E-01
        2   -1    0    0  501    0  0.00000000000E+00  0.00000000000E+00  0.56727167349E+03  0.56727167350E+03  0.25500000920E-02 0.  1.
       -2   -1    0    0    0  501  0.00000000000E+00  0.00000000000E+00 -0.43939088625E+03  0.43939088626E+03  0.25500000920E-02 0. -1.
    10030    2    1    2    0    0  0.00000000000E+00  0.00000000000E+00  0.12788078724E+03  0.10066625598E+04  0.99850689205E+03 0.  0.
        4    1    3    3  502    0  0.78948438637E+02 -0.44211527200E+03  0.28378946958E+03  0.53125967817E+03  0.12699999809E+01 0.  1.
       -4    1    3    3    0  502 -0.78948438637E+02  0.44211527200E+03 -0.15590868234E+03  0.47540288159E+03  0.12699999809E+01 0. -1.
</event>
<event>
 5   0  0.5768102E-04  0.9905891E+03  0.7818609E-02  0.9318927E-01
       -1   -1    0    0    0  501  0.00000000000E+00  0.00000000000E+00  0.16340334190E+03  0.16340334198E+03  0.50400001928E-02 0.  1.
        1   -1    0    0  501    0  0.00000000000E+00  0.00000000000E+00 -0.15012953459E+04  0.15012953459E+04  0.50400001928E-02 0. -1.
    10030    2    1    2    0    0  0.00000000000E+00  0.00000000000E+00 -0.13378920040E+04  0.16646986879E+04  0.99058907075E+03 0.  0.
        4    1    3    3  502    0  0.13933935213E+03 -0.42612957547E+03 -0.31518607881E+03  0.54803808929E+03  0.12699999809E+01 0.  1.
       -4    1    3    3    0  502 -0.13933935213E+03  0.42612957547E+03 -0.10227059252E+04  0.11166605986E+04  0.12699999809E+01 0. -1.
</event>
<event>
 5   0  0.5758786E-04  0.1005898E+04  0.7818609E-02  0.9302099E-01
       -1   -1    0    0    0  501  0.00000000000E+00  0.00000000000E+00  0.16877699323E+03  0.16877699330E+03  0.50400001928E-02 0.  1.
        1   -1    0    0  501    0  0.00000000000E+00  0.00000000000E+00 -0.14987698828E+04  0.14987698828E+04  0.50400001928E-02 0. -1.
    10030    2    1    2    0    0  0.00000000000E+00  0.00000000000E+00 -0.13299928895E+04  0.16675468761E+04  0.10058983536E+04 0.  0.
        3    1    3    3  502    0 -0.22836156599E+03  0.41737841992E+03 -0.39460163332E+03  0.61811342767E+03  0.10100000352E+00 0.  1.
       -3    1    3    3    0  502  0.22836156599E+03 -0.41737841992E+03 -0.93539125622E+03  0.10494334484E+04  0.10100000352E+00 0. -1.
</event>
<event>
 5   0  0.1006749E-03  0.9998567E+03  0.7818609E-02  0.9308702E-01
       -2   -1    0    0    0  501  0.00000000000E+00  0.00000000000E+00  0.68033717275E+03  0.68033717275E+03  0.25500000920E-02 0.  1.
        2   -1    0    0  501    0  0.00000000000E+00  0.00000000000E+00 -0.36735956362E+03  0.36735956363E+03  0.25500000920E-02 0. -1.
    10030    2    1    2    0    0  0.00000000000E+00  0.00000000000E+00  0.31297760913E+03  0.10476967364E+04  0.99985672354E+03 0.  0.
        1    1    3    3  502    0  0.17270099963E+03  0.46613209133E+03  0.10080873186E+03  0.50721510455E+03  0.50400001928E-02 0.  1.
       -1    1    3    3    0  502 -0.17270099963E+03 -0.46613209133E+03  0.21216887726E+03  0.54048163183E+03  0.50400001928E-02 0. -1.
</event>
<event>
 5   0  0.1020150E-03  0.1001519E+04  0.7818609E-02  0.9306880E-01
       -2   -1    0    0    0  501  0.00000000000E+00  0.00000000000E+00  0.33053228322E+03  0.33053228323E+03  0.25500000920E-02 0.  1.
        2   -1    0    0  501    0  0.00000000000E+00  0.00000000000E+00 -0.75865591550E+03  0.75865591551E+03  0.25500000920E-02 0. -1.
    10030    2    1    2    0    0  0.00000000000E+00  0.00000000000E+00 -0.42812363229E+03  0.10891881987E+04  0.10015193896E+04 0.  0.
        5    1    3    3  502    0 -0.73085121514E+02 -0.59264141491E+02  0.32080738718E+03  0.33435481621E+03  0.46999998093E+01 0.  1.
       -5    1    3    3    0  502  0.73085121514E+02  0.59264141491E+02 -0.74893101947E+03  0.75483338252E+03  0.46999998093E+01 0. -1.
</event>
<event>
 5   0  0.5768102E-04  0.1000263E+04  0.7818609E-02  0.9308257E-01
        1   -1    0    0  501    0  0.00000000000E+00  0.00000000000E+00  0.50853539685E+03  0.50853539688E+03  0.50400001928E-02 0. -1.
       -1   -1    0    0    0  501  0.00000000000E+00  0.00000000000E+00 -0.49186601667E+03  0.49186601669E+03  0.50400001928E-02 0.  1.
    10030    2    1    2    0    0  0.00000000000E+00  0.00000000000E+00  0.16669380185E+02  0.10004014136E+04  0.10002625256E+04 0.  0.
        4    1    3    3  502    0  0.39092795075E+03  0.16751415694E+02 -0.30319595102E+03  0.49500976780E+03  0.12699999809E+01 0.  1.
       -4    1    3    3    0  502 -0.39092795075E+03 -0.16751415694E+02  0.31986533120E+03  0.50539164577E+03  0.12699999809E+01 0. -1.
</event>
<event>
 5   0  0.9674819E-04  0.1013840E+04  0.7818609E-02  0.9293494E-01
        2   -1    0    0  501    0  0.00000000000E+00  0.00000000000E+00  0.15804156168E+04  0.15804156168E+04  0.25500000920E-02 0.  1.
       -2   -1    0    0    0  501  0.00000000000E+00  0.00000000000E+00 -0.16259517060E+03  0.16259517062E+03  0.25500000920E-02 0. -1.
    10030    2    1    2    0    0  0.00000000000E+00  0.00000000000E+00  0.14178204462E+04  0.17430107874E+04  0.10138401192E+04 0.  0.
        4    1    3    3  502    0  0.19913165290E+03 -0.46200382817E+03  0.81579768992E+03  0.95845106093E+03  0.12699999809E+01 0.  1.
       -4    1    3    3    0  502 -0.19913165290E+03  0.46200382817E+03  0.60202275627E+03  0.78455972647E+03  0.12699999809E+01 0. -1.
</event>
<event>
 5   0  0.1006006E-03  0.9999916E+03  0.7818609E-02  0.9308554E-01
       -2   -1    0    0    0  501  0.00000000000E+00  0.00000000000E+00  0.38956018196E+03  0.38956018197E+03  0.25500000920E-02 0.  1.
        2   -1    0    0  501    0  0.00000000000E+00  0.00000000000E+00 -0.64173860891E+03  0.64173860892E+03  0.25500000920E-02 0. -1.
    10030    2    1    2    0    0  0.00000000000E+00  0.00000000000E+00 -0.25217842695E+03  0.10312987909E+04  0.99999161850E+03 0.  0.
        2    1    3    3  502    0 -0.43478098322E+03 -0.86277871089E+02 -0.36467017973E+03  0.57398842707E+03  0.25500000920E-02 0. -1.
       -2    1    3    3    0  502  0.43478098322E+03  0.86277871089E+02  0.11249175278E+03  0.45731036383E+03  0.25500000920E-02 0.  1.
</event>
<event>
 5   0  0.5826939E-04  0.1004194E+04  0.7818609E-02  0.9303957E-01
       -1   -1    0    0    0  501  0.00000000000E+00  0.00000000000E+00  0.22212357672E+03  0.22212357678E+03  0.50400001928E-02 0.  1.
        1   -1    0    0  501    0  0.00000000000E+00  0.00000000000E+00 -0.11349603411E+04  0.11349603411E+04  0.50400001928E-02 0. -1.
    10030    2    1    2    0    0  0.00000000000E+00  0.00000000000E+00 -0.91283676434E+03  0.13570839178E+04  0.10041941056E+04 0.  0.
        1    1    3    3  502    0  0.73090459923E+02 -0.27255439366E+03 -0.10176601965E+04  0.10560588943E+04  0.50400001928E-02 0. -1.
       -1    1    3    3    0  502 -0.73090459923E+02  0.27255439366E+03  0.10482343211E+03  0.30102502351E+03  0.50400001928E-02 0.  1.
</event>
<event>
 5   0  0.1006006E-03  0.9980665E+03  0.7818609E-02  0.9310668E-01
       -2   -1    0    0    0  501  0.00000000000E+00  0.00000000000E+00  0.15525920510E+03  0.15525920512E+03  0.25500000920E-02 0. -1.
        2   -1    0    0  501    0  0.00000000000E+00  0.00000000000E+00 -0.16039898937E+04  0.16039898937E+04  0.25500000920E-02 0.  1.
    10030    2    1    2    0    0  0.00000000000E+00  0.00000000000E+00 -0.14487306886E+04  0.17592490988E+04  0.99806652263E+03 0.  0.
        2    1    3    3  502    0  0.43216123193E+03 -0.16665144674E+03 -0.10517556532E+04  0.11492284321E+04  0.25500000920E-02 0.  1.
       -2    1    3    3    0  502 -0.43216123193E+03  0.16665144674E+03 -0.39697503538E+03  0.61002066671E+03  0.25500000920E-02 0. -1.
</event>
<event>
 5   0  0.5888774E-04  0.9990256E+03  0.7818609E-02  0.9309614E-01
        1   -1    0    0  501    0  0.00000000000E+00  0.00000000000E+00  0.40466377313E+03  0.40466377316E+03  0.50400001928E-02 0. -1.
       -1   -1    0    0    0  501  0.00000000000E+00  0.00000000000E+00 -0.61659341399E+03  0.61659341401E+03  0.50400001928E-02 0.  1.
    10030    2    1    2    0    0  0.00000000000E+00  0.00000000000E+00 -0.21192964086E+03  0.10212571872E+04  0.99902556007E+03 0.  0.
        2    1    3    3  502    0  0.23050885954E+03 -0.39526283729E+03 -0.31078819530E+03  0.55313320929E+03  0.25500000920E-02 0.  1.
       -2    1    3    3    0  502 -0.23050885954E+03  0.39526283729E+03  0.98858554442E+02  0.46812397788E+03  0.25500000920E-02 0. -1.
</event>
<event>
 5   0  0.5768102E-04  0.9981449E+03  0.7818609E-02  0.9310582E-01
        1   -1    0    0  501    0  0.00000000000E+00  0.00000000000E+00  0.60898874018E+03  0.60898874020E+03  0.50400001928E-02 0. -1.
       -1   -1    0    0    0  501  0.00000000000E+00  0.00000000000E+00 -0.40899492558E+03  0.40899492561E+03  0.50400001928E-02 0.  1.
    10030    2    1    2    0    0  0.00000000000E+00  0.00000000000E+00  0.19999381460E+03  0.10179836658E+04  0.99814488826E+03 0.  0.
        4    1    3    3  502    0  0.26246155561E+03 -0.15900449708E+03  0.50139694409E+03  0.58785117735E+03  0.12699999809E+01 0. -1.
       -4    1    3    3    0  502 -0.26246155561E+03  0.15900449708E+03 -0.30140312949E+03  0.43013248846E+03  0.12699999809E+01 0.  1.
</event>
<event>
 5   0  0.1006749E-03  0.9996766E+03  0.7818609E-02  0.9308900E-01
       -2   -1    0    0    0  501  0.00000000000E+00  0.00000000000E+00  0.10278321453E+03  0.10278321456E+03  0.25500000920E-02 0.  1.
        2   -1    0    0  501    0  0.00000000000E+00  0.00000000000E+00 -0.24307308973E+04  0.24307308973E+04  0.25500000920E-02 0. -1.
    10030    2    1    2    0    0  0.00000000000E+00  0.00000000000E+00 -0.23279476828E+04  0.25335141119E+04  0.99967661837E+03 0.  0.
        1    1    3    3  502    0 -0.49012586385E+03  0.31759822590E+02 -0.13990841624E+04  0.14827907952E+04  0.50400001928E-02 0. -1.
       -1    1    3    3    0  502  0.49012586385E+03 -0.31759822590E+02 -0.92886352042E+03  0.10507233167E+04  0.50400001928E-02 0.  1.
</event>
<event>
 5   0  0.1006006E-03  0.1014466E+04  0.7818609E-02  0.9292820E-01
        2   -1    0    0  501    0  0.00000000000E+00  0.00000000000E+00  0.13033950593E+04  0.13033950593E+04  0.25500000920E-02 0.  1.
       -2   -1    0    0    0  501  0.00000000000E+00  0.00000000000E+00 -0.19739620324E+03  0.19739620325E+03  0.25500000920E-02 0. -1.
    10030    2    1    2    0    0  0.00000000000E+00  0.00000000000E+00  0.11059988560E+04  0.15007912625E+04  0.10144658418E+04 0.  0.
        2    1    3    3  502    0  0.44447615228E+03  0.11152446134E+03  0.87470645286E+03  0.98747563722E+03  0.25500000920E-02 0.  1.
       -2    1    3    3    0  502 -0.44447615228E+03 -0.11152446134E+03  0.23129240319E+03  0.51331562532E+03  0.25500000920E-02 0. -1.
</event>
<event>
 5   0  0.5826939E-04  0.1000419E+04  0.7818609E-02  0.9308085E-01
       -1   -1    0    0    0  501  0.00000000000E+00  0.00000000000E+00  0.18522777826E+03  0.18522777833E+03  0.50400001928E-02 0. -1.
        1   -1    0    0  501    0  0.00000000000E+00  0.00000000000E+00 -0.13508221230E+04  0.13508221230E+04  0.50400001928E-02 0.  1.
    10030    2    1    2    0    0  0.00000000000E+00  0.00000000000E+00 -0.11655943447E+04  0.15360499013E+04  0.10004194735E+04 0.  0.
        1    1    3    3  502    0 -0.16997450723E+03 -0.20020441175E+03  0.70854219525E+02  0.27201738923E+03  0.50400001928E-02 0. -1.
       -1    1    3    3    0  502  0.16997450723E+03  0.20020441175E+03 -0.12364485642E+04  0.12640325121E+04  0.50400001928E-02 0.  1.
</event>
<event>
 5   0  0.5888774E-04  0.1000091E+04  0.7818609E-02  0.9308445E-01
       -1   -1    0    0    0  501  0.00000000000E+00  0.00000000000E+00  0.67101419057E+03  0.67101419059E+03  0.50400001928E-02 0. -1.
        1   -1    0    0  501    0  0.00000000000E+00  0.00000000000E+00 -0.37263802794E+03  0.37263802797E+03  0.50400001928E-02 0.  1.
    10030    2    1    2    0    0  0.00000000000E+00  0.00000000000E+00  0.29837616264E+03  0.10436522186E+04  0.10000908053E+04 0.  0.
        2    1    3    3  502    0  0.39206292355E+03  0.30011655556E+03  0.66607655049E+02  0.49821668244E+03  0.25500000920E-02 0. -1.
       -2    1    3    3    0  502 -0.39206292355E+03 -0.30011655556E+03  0.23176850759E+03  0.54543553612E+03  0.25500000920E-02 0.  1.
</event>
<event>
 5   0  0.1006749E-03  0.9997619E+03  0.7818609E-02  0.9308806E-01
       -2   -1    0    0    0  501  0.00000000000E+00  0.00000000000E+00  0.37811350700E+03  0.37811350700E+03  0.25500000920E-02 0. -1.
        2   -1    0    0  501    0  0.00000000000E+00  0.00000000000E+00 -0.66086232679E+03  0.66086232679E+03  0.25500000920E-02 0.  1.
    10030    2    1    2    0    0  0.00000000000E+00  0.00000000000E+00 -0.28274881979E+03  0.10389758338E+04  0.99976191572E+03 0.  0.
        1    1    3    3  502    0  0.93477475605E+02  0.43159247702E+03  0.10205876861E+03  0.45323955800E+03  0.50400001928E-02 0. -1.
       -1    1    3    3    0  502 -0.93477475605E+02 -0.43159247702E+03 -0.38480758840E+03  0.58573627579E+03  0.50400001928E-02 0.  1.
</event>
<event>
 5   0  0.5888774E-04  0.9943829E+03  0.7818609E-02  0.9314727E-01
       -1   -1    0    0    0  501  0.00000000000E+00  0.00000000000E+00  0.55766048541E+03  0.55766048543E+03  0.50400001928E-02 0.  1.
        1   -1    0    0  501    0  0.00000000000E+00  0.00000000000E+00 -0.44327926037E+03  0.44327926040E+03  0.50400001928E-02 0. -1.
    10030    2    1    2    0    0  0.00000000000E+00  0.00000000000E+00  0.11438122504E+03  0.10009397458E+04  0.99438287904E+03 0.  0.
        2    1    3    3  502    0 -0.40253362701E+03 -0.24793360733E+02 -0.23550379927E+03  0.46702255950E+03  0.25500000920E-02 0. -1.
       -2    1    3    3    0  502  0.40253362701E+03  0.24793360733E+02  0.34988502431E+03  0.53391718632E+03  0.25500000920E-02 0.  1.
</event>
<event>
 5   0  0.5758786E-04  0.1002191E+04  0.7818609E-02  0.9306145E-01
        1   -1    0    0  501    0  0.00000000000E+00  0.00000000000E+00  0.18600982959E+04  0.18600982959E+04  0.50400001928E-02 0. -1.
       -1   -1    0    0    0  501  0.00000000000E+00  0.00000000000E+00 -0.13499104925E+03  0.13499104935E+03  0.50400001928E-02 0.  1.
    10030    2    1    2    0    0  0.00000000000E+00  0.00000000000E+00  0.17251072466E+04  0.19950893452E+04  0.10021908416E+04 0.  0.
        3    1    3    3  502    0 -0.37654718454E+03 -0.32693041489E+03  0.76451492506E+03  0.91277289575E+03  0.10100000352E+00 0. -1.
       -3    1    3    3    0  502  0.37654718454E+03  0.32693041489E+03  0.96059232154E+03  0.10823164495E+04  0.10100000352E+00 0.  1.
</event>
<event>
 5   0  0.9674819E-04  0.1000127E+04  0.7818609E-02  0.9308406E-01
       -2   -1    0    0    0  501  0.00000000000E+00  0.00000000000E+00  0.57785800891E+03  0.57785800892E+03  0.25500000920E-02 0.  1.
        2   -1    0    0  501    0  0.00000000000E+00  0.00000000000E+00 -0.43274185823E+03  0.43274185824E+03  0.25500000920E-02 0. -1.
    10030    2    1    2    0    0  0.00000000000E+00  0.00000000000E+00  0.14511615068E+03  0.10105998672E+04  0.10001266891E+04 0.  0.
        4    1    3    3  502    0 -0.22896010919E+03 -0.42248075690E+03  0.21238713261E+03  0.52537855738E+03  0.12699999809E+01 0.  1.
       -4    1    3    3    0  502  0.22896010919E+03  0.42248075690E+03 -0.67270981931E+02  0.48522130978E+03  0.12699999809E+01 0. -1.
</event>
<event>
 5   0  0.9674819E-04  0.9950793E+03  0.7818609E-02  0.9313958E-01
       -2   -1    0    0    0  501  0.00000000000E+00  0.00000000000E+00  0.38106838582E+03  0.38106838583E+03  0.25500000920E-02 0.  1.
        2   -1    0    0  501    0  0.00000000000E+00  0.00000000000E+00 -0.64960967066E+03  0.64960967067E+03  0.25500000920E-02 0. -1.
    10030    2    1    2    0    0  0.00000000000E+00  0.00000000000E+00 -0.26854128484E+03  0.10306780565E+04  0.99507931065E+03 0.  0.
        4    1    3    3  502    0  0.49557291067E+03 -0.25538884059E+02 -0.17160671486E+03  0.52506687372E+03  0.12699999809E+01 0.  1.
       -4    1    3    3    0  502 -0.49557291067E+03  0.25538884059E+02 -0.96934569978E+02  0.50561118278E+03  0.12699999809E+01 0. -1.
</event>
<event>
 5   0  0.9674819E-04  0.1003474E+04  0.7818609E-02  0.9304743E-01
        2   -1    0    0  501    0  0.00000000000E+00  0.00000000000E+00  0.61274439780E+03  0.61274439781E+03  0.25500000920E-02 0.  1.
       -2   -1    0    0    0  501  0.00000000000E+00  0.00000000000E+00 -0.41083992521E+03  0.41083992522E+03  0.25500000920E-02 0. -1.
    10030    2    1    2    0    0  0.00000000000E+00  0.00000000000E+00  0.20190447259E+03  0.10235843230E+04  0.10034736919E+04 0.  0.
        4    1    3    3  502    0  0.30983789459E+03  0.11361461859E+03 -0.28455100385E+03  0.43575071907E+03  0.12699999809E+01 0. -1.
       -4    1    3    3    0  502 -0.30983789459E+03 -0.11361461859E+03  0.48645547643E+03  0.58783360395E+03  0.12699999809E+01 0.  1.
</event>
<event>
 5   0  0.9741826E-04  0.1000421E+04  0.7818609E-02  0.9308083E-01
        2   -1    0    0  501    0  0.00000000000E+00  0.00000000000E+00  0.64719819172E+03  0.64719819173E+03  0.25500000920E-02 0.  1.
       -2   -1    0    0    0  501  0.00000000000E+00  0.00000000000E+00 -0.38660563878E+03  0.38660563879E+03  0.25500000920E-02 0. -1.
    10030    2    1    2    0    0  0.00000000000E+00  0.00000000000E+00  0.26059255294E+03  0.10338038305E+04  0.10004208521E+04 0.  0.
        3    1    3    3  502    0 -0.21545700938E+03  0.34755696186E+03 -0.16740168454E+03  0.44186072333E+03  0.10100000352E+00 0. -1.
       -3    1    3    3    0  502  0.21545700938E+03 -0.34755696186E+03  0.42799423748E+03  0.59194310719E+03  0.10100000352E+00 0.  1.
</event>
<event>
 5   0  0.5826939E-04  0.1001380E+04  0.7818609E-02  0.9307033E-01
        1   -1    0    0  501    0  0.00000000000E+00  0.00000000000E+00  0.13223669712E+04  0.13223669713E+04  0.50400001928E-02 0.  1.
       -1   -1    0    0    0  501  0.00000000000E+00  0.00000000000E+00 -0.18957709703E+03  0.18957709710E+03  0.50400001928E-02 0. -1.
    10030    2    1    2    0    0  0.00000000000E+00  0.00000000000E+00  0.11327898742E+04  0.15119440684E+04  0.10013800311E+04 0.  0.
        1    1    3    3  502    0  0.23624477855E+03  0.24909634419E+03  0.11166762110E+04  0.11682578245E+04  0.50400001928E-02 0.  1.
       -1    1    3    3    0  502 -0.23624477855E+03 -0.24909634419E+03  0.16113663176E+02  0.34368624390E+03  0.50400001928E-02 0. -1.
</event>
<event>
 5   0  0.1006006E-03  0.1002916E+04  0.7818609E-02  0.9305352E-01
        2   -1    0    0  501    0  0.00000000000E+00  0.00000000000E+00  0.85248273789E+03  0.85248273789E+03  0.25500000920E-02 0.  1.
       -2   -1    0    0    0  501  0.00000000000E+00  0.00000000000E+00 -0.29497388580E+03  0.29497388581E+03  0.25500000920E-02 0. -1.
    10030    2    1    2    0    0  0.00000000000E+00  0.00000000000E+00  0.55750885209E+03  0.11474566237E+04  0.10029160399E+04 0.  0.
        2    1    3    3  502    0  0.39812069207E+03 -0.23145646639E+03  0.50582113683E+03  0.68405204755E+03  0.25500000920E-02 0.  1.
       -2    1    3    3    0  502 -0.39812069207E+03  0.23145646639E+03  0.51687715257E+02  0.46340457615E+03  0.25500000920E-02 0. -1.
</event>
<event>
 5   0  0.1006749E-03  0.1010794E+04  0.7818609E-02  0.9296785E-01
       -2   -1    0    0    0  501  0.00000000000E+00  0.00000000000E+00  0.31324664826E+03  0.31324664827E+03  0.25500000920E-02 0.  1.
        2   -1    0    0  501    0  0.00000000000E+00  0.00000000000E+00 -0.81541521993E+03  0.81541521994E+03  0.25500000920E-02 0. -1.
    10030    2    1    2    0    0  0.00000000000E+00  0.00000000000E+00 -0.50216857167E+03  0.11286618682E+04  0.10107939149E+04 0.  0.
        1    1    3    3  502    0 -0.15565907502E+03  0.13149524194E+03  0.26534640681E+03  0.33455860760E+03  0.50400001928E-02 0.  1.
       -1    1    3    3    0  502  0.15565907502E+03 -0.13149524194E+03 -0.76751497848E+03  0.79410326061E+03  0.50400001928E-02 0. -1.
</event>
<event>
 5   0  0.5888774E-04  0.1000741E+04  0.7818609E-02  0.9307733E-01
        1   -1    0    0  501    0  0.00000000000E+00  0.00000000000E+00  0.37395011475E+03  0.37395011478E+03  0.50400001928E-02 0. -1.
       -1   -1    0    0    0  501  0.00000000000E+00  0.00000000000E+00 -0.66952889234E+03  0.66952889236E+03  0.50400001928E-02 0.  1.
    10030    2    1    2    0    0  0.00000000000E+00  0.00000000000E+00 -0.29557877760E+03  0.10434790071E+04  0.10007405381E+04 0.  0.
        2    1    3    3  502    0  0.46360863050E+03 -0.12899509868E+03 -0.48293433125E+01  0.48124424185E+03  0.25500000920E-02 0. -1.
       -2    1    3    3    0  502 -0.46360863050E+03  0.12899509868E+03 -0.29074943429E+03  0.56223476529E+03  0.25500000920E-02 0.  1.
</event>
<event>
 5   0  0.5888774E-04  0.9982145E+03  0.7818609E-02  0.9310505E-01
        1   -1    0    0  501    0  0.00000000000E+00  0.00000000000E+00  0.11642698336E+04  0.11642698336E+04  0.50400001928E-02 0.  1.
       -1   -1    0    0    0  501  0.00000000000E+00  0.00000000000E+00 -0.21396075463E+03  0.21396075469E+03  0.50400001928E-02 0. -1.
    10030    2    1    2    0    0  0.00000000000E+00  0.00000000000E+00  0.95030907901E+03  0.13782305883E+04  0.99821451050E+03 0.  0.
        2    1    3    3  502    0 -0.13716064422E+03 -0.42982918605E+03  0.76980253200E+03  0.89227916584E+03  0.25500000920E-02 0. -1.
       -2    1    3    3    0  502  0.13716064422E+03  0.42982918605E+03  0.18050654701E+03  0.48595142249E+03  0.25500000920E-02 0.  1.
</event>
<event>
 5   0  0.1006749E-03  0.1030010E+04  0.7818609E-02  0.9276229E-01
       -2   -1    0    0    0  501  0.00000000000E+00  0.00000000000E+00  0.50442951008E+03  0.50442951009E+03  0.25500000920E-02 0. -1.
        2   -1    0    0  501    0  0.00000000000E+00  0.00000000000E+00 -0.52580209375E+03  0.52580209376E+03  0.25500000920E-02 0.  1.
    10030    2    1    2    0    0  0.00000000000E+00  0.00000000000E+00 -0.21372583668E+02  0.10302316038E+04  0.10300098884E+04 0.  0.
        1    1    3    3  502    0  0.22891190185E+03  0.43212024333E+03 -0.17228074483E+03  0.51846814615E+03  0.50400001928E-02 0.  1.
       -1    1    3    3    0  502 -0.22891190185E+03 -0.43212024333E+03  0.15090816116E+03  0.51176345770E+03  0.50400001928E-02 0. -1.
</event>
<event>
 5   0  0.9674819E-04  0.9955491E+03  0.7818609E-02  0.9313440E-01
       -2   -1    0    0    0  501  0.00000000000E+00  0.00000000000E+00  0.29682811858E+03  0.29682811860E+03  0.25500000920E-02 0. -1.
        2   -1    0    0  501    0  0.00000000000E+00  0.00000000000E+00 -0.83475743644E+03  0.83475743644E+03  0.25500000920E-02 0.  1.
    10030    2    1    2    0    0  0.00000000000E+00  0.00000000000E+00 -0.53792931786E+03  0.11315855550E+04  0.99554905322E+03 0.  0.
        4    1    3    3  502    0  0.13998806053E+03  0.32825843942E+03  0.12548152454E+03  0.37828228354E+03  0.12699999809E+01 0. -1.
       -4    1    3    3    0  502 -0.13998806053E+03 -0.32825843942E+03 -0.66341084240E+03  0.75330327150E+03  0.12699999809E+01 0.  1.
</event>
<event>
 5   0  0.9674819E-04  0.1003139E+04  0.7818609E-02  0.9305109E-01
        2   -1    0    0  501    0  0.00000000000E+00  0.00000000000E+00  0.39108894287E+03  0.39108894288E+03  0.25500000920E-02 0.  1.
       -2   -1    0    0    0  501  0.00000000000E+00  0.00000000000E+00 -0.64325990747E+03  0.64325990748E+03  0.25500000920E-02 0. -1.
    10030    2    1    2    0    0  0.00000000000E+00  0.00000000000E+00 -0.25217096460E+03  0.10343488504E+04  0.10031387485E+04 0.  0.
        4    1    3    3  502    0 -0.18557850791E+03  0.46028997271E+03 -0.51274861639E+02  0.49893583346E+03  0.12699999809E+01 0.  1.
       -4    1    3    3    0  502  0.18557850791E+03 -0.46028997271E+03 -0.20089610296E+03  0.53541301689E+03  0.12699999809E+01 0. -1.
</event>
<event>
 5   0  0.5758786E-04  0.9979663E+03  0.7818609E-02  0.9310778E-01
        1   -1    0    0  501    0  0.00000000000E+00  0.00000000000E+00  0.93533951512E+03  0.93533951514E+03  0.50400001928E-02 0.  1.
       -1   -1    0    0    0  501  0.00000000000E+00  0.00000000000E+00 -0.26619658131E+03  0.26619658135E+03  0.50400001928E-02 0. -1.
    10030    2    1    2    0    0  0.00000000000E+00  0.00000000000E+00  0.66914293382E+03  0.12015360965E+04  0.99796629467E+03 0.  0.
        3    1    3    3  502    0 -0.34559019469E+03 -0.77777712412E+01  0.76782378988E+03  0.84204896467E+03  0.10100000352E+00 0.  1.
       -3    1    3    3    0  502  0.34559019469E+03  0.77777712412E+01 -0.98680856064E+02  0.35948713182E+03  0.10100000352E+00 0. -1.
</event>
<event>
 5   0  0.3854625E-04  0.9965789E+03  0.7818609E-02  0.9312305E-01
        3   -1    0    0  501    0  0.00000000000E+00  0.00000000000E+00  0.83926813934E+03  0.83926814542E+03  0.10100000352E+00 0. -1.
       -3   -1    0    0    0  501  0.00000000000E+00  0.00000000000E+00 -0.29584388754E+03  0.29584390478E+03  0.10100000352E+00 0.  1.
    10030    2    1    2    0    0  0.00000000000E+00  0.00000000000E+00  0.54342425180E+03  0.11351120502E+04  0.99657887248E+03 0.  0.
        3    1    3    3  502    0 -0.29494671810E+02  0.49515566404E+03  0.21776488193E+03  0.54172928783E+03  0.10100000352E+00 0. -1.
       -3    1    3    3    0  502  0.29494671810E+02 -0.49515566404E+03  0.32565936987E+03  0.59338276237E+03  0.10100000352E+00 0.  1.
</event>
<event>
 5   0  0.5758786E-04  0.9999927E+03  0.7818609E-02  0.9308553E-01
        1   -1    0    0  501    0  0.00000000000E+00  0.00000000000E+00  0.20526802066E+04  0.20526802066E+04  0.50400001928E-02 0.  1.
       -1   -1    0    0    0  501  0.00000000000E+00  0.00000000000E+00 -0.12179021441E+03  0.12179021451E+03  0.50400001928E-02 0. -1.
    10030    2    1    2    0    0  0.00000000000E+00  0.00000000000E+00  0.19308899922E+04  0.21744704211E+04  0.99999272515E+03 0.  0.
        3    1    3    3  502    0  0.35054202981E+03  0.13343986464E+03  0.24651354091E+03  0.44883721792E+03  0.10100000352E+00 0. -1.
       -3    1    3    3    0  502 -0.35054202981E+03 -0.13343986464E+03  0.16843764513E+04  0.17256332032E+04  0.10100000352E+00 0.  1.
</event>
<event>
 5   0  0.1006006E-03  0.1000830E+04  0.7818609E-02  0.9307635E-01
        2   -1    0    0  501    0  0.00000000000E+00  0.00000000000E+00  0.19838361702E+04  0.19838361702E+04  0.25500000920E-02 0. -1.
       -2   -1    0    0    0  501  0.00000000000E+00  0.00000000000E+00 -0.12622777181E+03  0.12622777183E+03  0.25500000920E-02 0.  1.
    10030    2    1    2    0    0  0.00000000000E+00  0.00000000000E+00  0.18576083984E+04  0.21100639420E+04  0.10008300943E+04 0.  0.
        2    1    3    3  502    0  0.39778976253E+03 -0.19972922960E+02  0.15675210238E+04  0.16173304464E+04  0.25500000920E-02 0. -1.
       -2    1    3    3    0  502 -0.39778976253E+03  0.19972922960E+02  0.29008737465E+03  0.49273349568E+03  0.25500000920E-02 0.  1.
</event>
<event>
 5   0  0.5888774E-04  0.1000679E+04  0.7818609E-02  0.9307800E-01
        1   -1    0    0  501    0  0.00000000000E+00  0.00000000000E+00  0.17579630799E+03  0.17579630806E+03  0.50400001928E-02 0.  1.
       -1   -1    0    0    0  501  0.00000000000E+00  0.00000000000E+00 -0.14240336152E+04  0.14240336152E+04  0.50400001928E-02 0. -1.
    10030    2    1    2    0    0  0.00000000000E+00  0.00000000000E+00 -0.12482373072E+04  0.15998299233E+04  0.10006794733E+04 0.  0.
        2    1    3    3  502    0  0.42021301732E+03 -0.26915685797E+03 -0.68210387328E+03  0.84515684229E+03  0.25500000920E-02 0. -1.
       -2    1    3    3    0  502 -0.42021301732E+03  0.26915685797E+03 -0.56613343392E+03  0.75467308096E+03  0.25500000920E-02 0.  1.
</event>
<event>
 5   0  0.5888774E-04  0.1000001E+04  0.7818609E-02  0.9308544E-01
        1   -1    0    0  501    0  0.00000000000E+00  0.00000000000E+00  0.12695510366E+04  0.12695510366E+04  0.50400001928E-02 0. -1.
       -1   -1    0    0    0  501  0.00000000000E+00  0.00000000000E+00 -0.19692020927E+03  0.19692020934E+03  0.50400001928E-02 0.  1.
    10030    2    1    2    0    0  0.00000000000E+00  0.00000000000E+00  0.10726308274E+04  0.14664712460E+04  0.10000005117E+04 0.  0.
        2    1    3    3  502    0 -0.46587927172E+02  0.11589713384E+03 -0.17367090451E+03  0.21392560312E+03  0.25500000920E-02 0.  1.
       -2    1    3    3    0  502  0.46587927172E+02 -0.11589713384E+03  0.12463017319E+04  0.12525456429E+04  0.25500000920E-02 0. -1.
</event>
<event>
 5   0  0.5826939E-04  0.9992743E+03  0.7818609E-02  0.9309341E-01
        1   -1    0    0  501    0  0.00000000000E+00  0.00000000000E+00  0.12925552537E+04  0.12925552537E+04  0.50400001928E-02 0. -1.
       -1   -1    0    0    0  501  0.00000000000E+00  0.00000000000E+00 -0.19313471244E+03  0.19313471250E+03  0.50400001928E-02 0.  1.
    10030    2    1    2    0    0  0.00000000000E+00  0.00000000000E+00  0.10994205413E+04  0.14856899662E+04  0.99927431127E+03 0.  0.
        1    1    3    3  502    0 -0.66223755033E+02  0.40344046389E+03  0.12270078634E+03  0.42685510028E+03  0.50400001928E-02 0.  1.
       -1    1    3    3    0  502  0.66223755033E+02 -0.40344046389E+03  0.97671975492E+03  0.10588348659E+04  0.50400001928E-02 0. -1.
</event>
<event>
 5   0  0.1006006E-03  0.1000734E+04  0.7818609E-02  0.9307740E-01
       -2   -1    0    0    0  501  0.00000000000E+00  0.00000000000E+00  0.70102581910E+03  0.70102581910E+03  0.25500000920E-02 0.  1.
        2   -1    0    0  501    0  0.00000000000E+00  0.00000000000E+00 -0.35714403344E+03  0.35714403345E+03  0.25500000920E-02 0. -1.
    10030    2    1    2    0    0  0.00000000000E+00  0.00000000000E+00  0.34388178565E+03  0.10581698526E+04  0.10007341077E+04 0.  0.
        2    1    3    3  502    0 -0.28919873296E+02 -0.33563752165E+02 -0.35506593333E+03  0.35781937000E+03  0.25500000920E-02 0. -1.
       -2    1    3    3    0  502  0.28919873296E+02  0.33563752165E+02  0.69894771898E+03  0.70035048255E+03  0.25500000920E-02 0.  1.
</event>
<event>
 5   0  0.9674819E-04  0.9979540E+03  0.7818609E-02  0.9310792E-01
        2   -1    0    0  501    0  0.00000000000E+00  0.00000000000E+00  0.79235218756E+03  0.79235218757E+03  0.25500000920E-02 0. -1.
       -2   -1    0    0    0  501  0.00000000000E+00  0.00000000000E+00 -0.31422649607E+03  0.31422649608E+03  0.25500000920E-02 0.  1.
    10030    2    1    2    0    0  0.00000000000E+00  0.00000000000E+00  0.47812569149E+03  0.11065786836E+04  0.99795401008E+03 0.  0.
        4    1    3    3  502    0  0.12349222498E+03 -0.29870999643E+03  0.66056845869E+03  0.73541164875E+03  0.12699999809E+01 0.  1.
       -4    1    3    3    0  502 -0.12349222498E+03  0.29870999643E+03 -0.18244276720E+03  0.37116703490E+03  0.12699999809E+01 0. -1.
</event>
<event>
 5   0  0.5826939E-04  0.1000638E+04  0.7818609E-02  0.9307845E-01
       -1   -1    0    0    0  501  0.00000000000E+00  0.00000000000E+00  0.36700648691E+03  0.36700648694E+03  0.50400001928E-02 0.  1.
        1   -1    0    0  501    0  0.00000000000E+00  0.00000000000E+00 -0.68205664473E+03  0.68205664475E+03  0.50400001928E-02 0. -1.
    10030    2    1    2    0    0  0.00000000000E+00  0.00000000000E+00 -0.31505015782E+03  0.10490631317E+04  0.10006382225E+04 0.  0.
        1    1    3    3  502    0 -0.14980116441E+03  0.11411903458E+03  0.32843203714E+03  0.37859100089E+03  0.50400001928E-02 0.  1.
       -1    1    3    3    0  502  0.14980116441E+03 -0.11411903458E+03 -0.64348219496E+03  0.67047213079E+03  0.50400001928E-02 0. -1.
</event>
<event>
 5   0  0.1006749E-03  0.1002085E+04  0.7818609E-02  0.9306261E-01
        2   -1    0    0  501    0  0.00000000000E+00  0.00000000000E+00  0.18049397335E+04  0.18049397335E+04  0.25500000920E-02 0.  1.
       -2   -1    0    0    0  501  0.00000000000E+00  0.00000000000E+00 -0.13908702292E+03  0.13908702294E+03  0.25500000920E-02 0. -1.
    10030    2    1    2    0    0  0.00000000000E+00  0.00000000000E+00  0.16658527106E+04  0.19440267564E+04  0.10020852141E+04 0.  0.
        1    1    3    3  502    0  0.25145468878E+03  0.17907517794E+03  0.15985343728E+04  0.16280692617E+04  0.50400001928E-02 0.  1.
       -1    1    3    3    0  502 -0.25145468878E+03 -0.17907517794E+03  0.67318337796E+02  0.31595749475E+03  0.50400001928E-02 0. -1.
</event>
<event>
 5   0  0.5888774E-04  0.9999833E+03  0.7818609E-02  0.9308563E-01
       -1   -1    0    0    0  501  0.00000000000E+00  0.00000000000E+00  0.49975888131E+03  0.49975888133E+03  0.50400001928E-02 0. -1.
        1   -1    0    0  501    0  0.00000000000E+00  0.00000000000E+00 -0.50022452851E+03  0.50022452854E+03  0.50400001928E-02 0.  1.
    10030    2    1    2    0    0  0.00000000000E+00  0.00000000000E+00 -0.46564720530E+00  0.99998340987E+03  0.99998330145E+03 0.  0.
        2    1    3    3  502    0 -0.30034007736E+03  0.12023089864E+03 -0.38145723422E+03  0.50016922396E+03  0.25500000920E-02 0.  1.
       -2    1    3    3    0  502  0.30034007736E+03 -0.12023089864E+03  0.38099158701E+03  0.49981418591E+03  0.25500000920E-02 0. -1.
</event>
<event>
 5   0  0.5826939E-04  0.9993702E+03  0.7818609E-02  0.9309236E-01
       -1   -1    0    0    0  501  0.00000000000E+00  0.00000000000E+00  0.29189343213E+03  0.29189343217E+03  0.50400001928E-02 0. -1.
        1   -1    0    0  501    0  0.00000000000E+00  0.00000000000E+00 -0.85539841650E+03  0.85539841651E+03  0.50400001928E-02 0.  1.
    10030    2    1    2    0    0  0.00000000000E+00  0.00000000000E+00 -0.56350498437E+03  0.11472918487E+04  0.99937016097E+03 0.  0.
        1    1    3    3  502    0 -0.18722507880E+03 -0.43773735038E+03 -0.45592554349E+03  0.65919293025E+03  0.50400001928E-02 0.  1.
       -1    1    3    3    0  502  0.18722507880E+03  0.43773735038E+03 -0.10757944088E+03  0.48809891844E+03  0.50400001928E-02 0. -1.
</event>
<event>
 5   0  0.5826939E-04  0.9983519E+03  0.7818609E-02  0.9310354E-01
       -1   -1    0    0    0  501  0.00000000000E+00  0.00000000000E+00  0.33549076418E+03  0.33549076422E+03  0.50400001928E-02 0. -1.
        1   -1    0    0  501    0  0.00000000000E+00  0.00000000000E+00 -0.74272270719E+03  0.74272270721E+03  0.50400001928E-02 0.  1.
    10030    2    1    2    0    0  0.00000000000E+00  0.00000000000E+00 -0.40723194301E+03  0.10782134714E+04  0.99835185909E+03 0.  0.
        1    1    3    3  502    0 -0.40676684076E+03 -0.25817915316E+03 -0.62550177062E+02  0.48582739995E+03  0.50400001928E-02 0.  1.
       -1    1    3    3    0  502  0.40676684076E+03  0.25817915316E+03 -0.34468176595E+03  0.59238607147E+03  0.50400001928E-02 0. -1.
</event>
<event>
 5   0  0.5826939E-04  0.1000109E+04  0.7818609E-02  0.9308426E-01
        1   -1    0    0  501    0  0.00000000000E+00  0.00000000000E+00  0.40813137009E+03  0.40813137012E+03  0.50400001928E-02 0.  1.
       -1   -1    0    0    0  501  0.00000000000E+00  0.00000000000E+00 -0.61268095218E+03  0.61268095220E+03  0.50400001928E-02 0. -1.
    10030    2    1    2    0    0  0.00000000000E+00  0.00000000000E+00 -0.20454958210E+03  0.10208123223E+04  0.10001086270E+04 0.  0.
        1    1    3    3  502    0  0.13196631076E+03 -0.48228797650E+03 -0.96022880905E+02  0.50915340825E+03  0.50400001928E-02 0. -1.
       -1    1    3    3    0  502 -0.13196631076E+03  0.48228797650E+03 -0.10852670119E+03  0.51165891407E+03  0.50400001928E-02 0.  1.
</event>
<event>
 5   0  0.5826939E-04  0.9996887E+03  0.7818609E-02  0.9308886E-01
        1   -1    0    0  501    0  0.00000000000E+00  0.00000000000E+00  0.10498347019E+04  0.10498347019E+04  0.50400001928E-02 0. -1.
       -1   -1    0    0    0  501  0.00000000000E+00  0.00000000000E+00 -0.23798450449E+03  0.23798450454E+03  0.50400001928E-02 0.  1.
    10030    2    1    2    0    0  0.00000000000E+00  0.00000000000E+00  0.81185019741E+03  0.12878192065E+04  0.99968873429E+03 0.  0.
        1    1    3    3  502    0  0.42447714751E+03  0.14318887697E+03  0.12029879943E+03  0.46384879478E+03  0.50400001928E-02 0.  1.
       -1    1    3    3    0  502 -0.42447714751E+03 -0.14318887697E+03  0.69155139798E+03  0.82397041167E+03  0.50400001928E-02 0. -1.
</event>
<event>
 5   0  0.5888774E-04  0.9998874E+03  0.7818609E-02  0.9308668E-01
       -1   -1    0    0    0  501  0.00000000000E+00  0.00000000000E+00  0.13045196274E+04  0.13045196274E+04  0.50400001928E-02 0. -1.
        1   -1    0    0  501    0  0.00000000000E+00  0.00000000000E+00 -0.19159826201E+03  0.19159826207E+03  0.50400001928E-02 0.  1.
    10030    2    1    2    0    0  0.00000000000E+00  0.00000000000E+00  0.11129213654E+04  0.14961178895E+04  0.99988738052E+03 0.  0.
        2    1    3    3  502    0  0.42675639670E+03  0.15813259333E+03  0.24684596303E+03  0.51774498420E+03  0.25500000920E-02 0.  1.
       -2    1    3    3    0  502 -0.42675639670E+03 -0.15813259333E+03  0.86607540240E+03  0.97837290532E+03  0.25500000920E-02 0. -1.
</event>
<event>
 5   0  0.5768102E-04  0.1000147E+04  0.7818609E-02  0.9308383E-01
        1   -1    0    0  501    0  0.00000000000E+00  0.00000000000E+00  0.13940894781E+04  0.13940894781E+04  0.50400001928E-02 0.  1.
       -1   -1    0    0    0  501  0.00000000000E+00  0.00000000000E+00 -0.17938141509E+03  0.17938141516E+03  0.50400001928E-02 0. -1.
    10030    2    1    2    0    0  0.00000000000E+00  0.00000000000E+00  0.12147080630E+04  0.15734708932E+04  0.10001474759E+04 0.  0.
        4    1    3    3  502    0 -0.92254452852E+02 -0.48021316269E+03  0.77203062567E+03  0.91386457725E+03  0.12699999809E+01 0.  1.
       -4    1    3    3    0  502  0.92254452852E+02  0.48021316269E+03  0.44267743730E+03  0.65960631598E+03  0.12699999809E+01 0. -1.
</event>
<event>
 5   0  0.1006006E-03  0.9996050E+03  0.7818609E-02  0.9308978E-01
        2   -1    0    0  501    0  0.00000000000E+00  0.00000000000E+00  0.88828706585E+03  0.88828706585E+03  0.25500000920E-02 0.  1.
       -2   -1    0    0    0  501  0.00000000000E+00  0.00000000000E+00 -0.28121826650E+03  0.28121826651E+03  0.25500000920E-02 0. -1.
    10030    2    1    2    0    0  0.00000000000E+00  0.00000000000E+00  0.60706879934E+03  0.11695053324E+04  0.99960501964E+03 0.  0.
        2    1    3    3  502    0 -0.49363566812E+03  0.24318087877E+02  0.39057719879E+03  0.62993498907E+03  0.25500000920E-02 0. -1.
       -2    1    3    3    0  502  0.49363566812E+03 -0.24318087877E+02  0.21649160056E+03  0.53957034329E+03  0.25500000920E-02 0.  1.
</event>
<event>
 5   0  0.5888774E-04  0.1000483E+04  0.7818609E-02  0.9308015E-01
       -1   -1    0    0    0  501  0.00000000000E+00  0.00000000000E+00  0.88018541698E+03  0.88018541700E+03  0.50400001928E-02 0.  1.
        1   -1    0    0  501    0  0.00000000000E+00  0.00000000000E+00 -0.28430550483E+03  0.28430550488E+03  0.50400001928E-02 0. -1.
    10030    2    1    2    0    0  0.00000000000E+00  0.00000000000E+00  0.59587991215E+03  0.11644909219E+04  0.10004830021E+04 0.  0.
        2    1    3    3  502    0  0.18741076422E+03 -0.18543544897E+03 -0.19687688406E+03  0.32904347397E+03  0.25500000920E-02 0. -1.
       -2    1    3    3    0  502 -0.18741076422E+03  0.18543544897E+03  0.79275679620E+03  0.83544744791E+03  0.25500000920E-02 0.  1.
</event>
<event>
 5   0  0.5960102E-04  0.1011959E+04  0.7818609E-02  0.9295525E-01
        1   -1    0    0  501    0  0.00000000000E+00  0.00000000000E+00  0.15607158159E+04  0.15607158159E+04  0.50400001928E-02 0.  1.
       -1   -1    0    0    0  501  0.00000000000E+00  0.00000000000E+00 -0.16403701960E+03  0.16403701968E+03  0.50400001928E-02 0. -1.
    10030    2    1    2    0    0  0.00000000000E+00  0.00000000000E+00  0.13966787963E+04  0.17247528356E+04  0.10119588350E+04 0.  0.
        5    1    3    3  502    0 -0.31093667134E+03  0.33784942770E+03  0.10605701959E+04  0.11557054468E+04  0.46999998093E+01 0.  1.
       -5    1    3    3    0  502  0.31093667134E+03 -0.33784942770E+03  0.33610860039E+03  0.56904738875E+03  0.46999998093E+01 0. -1.
</event>
<event>
 5   0  0.1006749E-03  0.9988059E+03  0.7818609E-02  0.9309855E-01
       -2   -1    0    0    0  501  0.00000000000E+00  0.00000000000E+00  0.39983071534E+03  0.39983071535E+03  0.25500000920E-02 0. -1.
        2   -1    0    0  501    0  0.00000000000E+00  0.00000000000E+00 -0.62377220175E+03  0.62377220176E+03  0.25500000920E-02 0.  1.
    10030    2    1    2    0    0  0.00000000000E+00  0.00000000000E+00 -0.22394148641E+03  0.10236029171E+04  0.99880585830E+03 0.  0.
        1    1    3    3  502    0 -0.89725748984E+02  0.47662107176E+03  0.10086631717E+02  0.48509802746E+03  0.50400001928E-02 0.  1.
       -1    1    3    3    0  502  0.89725748984E+02 -0.47662107176E+03 -0.23402811813E+03  0.53850488965E+03  0.50400001928E-02 0. -1.
</event>
<event>
 5   0  0.1006749E-03  0.9996699E+03  0.7818609E-02  0.9308907E-01
        2   -1    0    0  501    0  0.00000000000E+00  0.00000000000E+00  0.11797484798E+04  0.11797484798E+04  0.25500000920E-02 0.  1.
       -2   -1    0    0    0  501  0.00000000000E+00  0.00000000000E+00 -0.21176968328E+03  0.21176968330E+03  0.25500000920E-02 0. -1.
    10030    2    1    2    0    0  0.00000000000E+00  0.00000000000E+00  0.96797879647E+03  0.13915181631E+04  0.99966986936E+03 0.  0.
        1    1    3    3  502    0  0.15095834427E+03 -0.44832559870E+03  0.70865777990E+03  0.85204466620E+03  0.50400001928E-02 0.  1.
       -1    1    3    3    0  502 -0.15095834427E+03  0.44832559870E+03  0.25932101656E+03  0.53947349686E+03  0.50400001928E-02 0. -1.
</event>
<event>
 5   0  0.1006006E-03  0.1008469E+04  0.7818609E-02  0.9299305E-01
       -2   -1    0    0    0  501  0.00000000000E+00  0.00000000000E+00  0.95852353989E+02  0.95852354023E+02  0.25500000920E-02 0.  1.
        2   -1    0    0  501    0  0.00000000000E+00  0.00000000000E+00 -0.26525421770E+04  0.26525421770E+04  0.25500000920E-02 0. -1.
    10030    2    1    2    0    0  0.00000000000E+00  0.00000000000E+00 -0.25566898230E+04  0.27483945310E+04  0.10084689619E+04 0.  0.
        2    1    3    3  502    0 -0.42891485150E+03 -0.88979588481E+02 -0.19589485967E+04  0.20073278062E+04  0.25500000920E-02 0. -1.
       -2    1    3    3    0  502  0.42891485150E+03  0.88979588481E+02 -0.59774122627E+03  0.74106672479E+03  0.25500000920E-02 0.  1.
</event>
<event>
 5   0  0.1020150E-03  0.1000197E+04  0.7818609E-02  0.9308329E-01
        2   -1    0    0  501    0  0.00000000000E+00  0.00000000000E+00  0.13691207479E+04  0.13691207479E+04  0.25500000920E-02 0.  1.
       -2   -1    0    0    0  501  0.00000000000E+00  0.00000000000E+00 -0.18267096801E+03  0.18267096803E+03  0.25500000920E-02 0. -1.
    10030    2    1    2    0    0  0.00000000000E+00  0.00000000000E+00  0.11864497799E+04  0.15517917159E+04  0.10001972053E+04 0.  0.
        5    1    3    3  502    0 -0.15476826576E+03 -0.95435034868E+02 -0.12953347984E+03  0.22329817367E+03  0.46999998093E+01 0. -1.
       -5    1    3    3    0  502  0.15476826576E+03  0.95435034868E+02  0.13159832597E+04  0.13284935422E+04  0.46999998093E+01 0.  1.
</event>
<event>
 5   0  0.5768102E-04  0.9994526E+03  0.7818609E-02  0.9309145E-01
       -1   -1    0    0    0  501  0.00000000000E+00  0.00000000000E+00  0.30425768147E+03  0.30425768151E+03  0.50400001928E-02 0. -1.
        1   -1    0    0  501    0  0.00000000000E+00  0.00000000000E+00 -0.82077263365E+03  0.82077263366E+03  0.50400001928E-02 0.  1.
    10030    2    1    2    0    0  0.00000000000E+00  0.00000000000E+00 -0.51651495218E+03  0.11250303152E+04  0.99945260729E+03 0.  0.
        4    1    3    3  502    0  0.96071212618E+02  0.12312349564E+01  0.29376118089E+03  0.30907675120E+03  0.12699999809E+01 0. -1.
       -4    1    3    3    0  502 -0.96071212618E+02 -0.12312349564E+01 -0.81027613307E+03  0.81595356397E+03  0.12699999809E+01 0.  1.
</event>
<event>
 5   0  0.1006749E-03  0.1001927E+04  0.7818609E-02  0.9306434E-01
        2   -1    0    0  501    0  0.00000000000E+00  0.00000000000E+00  0.10033726589E+04  0.10033726589E+04  0.25500000920E-02 0. -1.
       -2   -1    0    0    0  501  0.00000000000E+00  0.00000000000E+00 -0.25012062801E+03  0.25012062802E+03  0.25500000920E-02 0.  1.
    10030    2    1    2    0    0  0.00000000000E+00  0.00000000000E+00  0.75325203088E+03  0.12534932869E+04  0.10019265434E+04 0.  0.
        1    1    3    3  502    0 -0.32757940119E+03  0.37895417966E+03  0.36780919163E+03  0.62144841769E+03  0.50400001928E-02 0.  1.
       -1    1    3    3    0  502  0.32757940119E+03 -0.37895417966E+03  0.38544283925E+03  0.63204486923E+03  0.50400001928E-02 0. -1.
</event>
<event>
 5   0  0.5826939E-04  0.9991256E+03  0.7818609E-02  0.9309504E-01
       -1   -1    0    0    0  501  0.00000000000E+00  0.00000000000E+00  0.32548040646E+03  0.32548040650E+03  0.50400001928E-02 0.  1.
        1   -1    0    0  501    0  0.00000000000E+00  0.00000000000E+00 -0.76675270560E+03  0.76675270561E+03  0.50400001928E-02 0. -1.
    10030    2    1    2    0    0  0.00000000000E+00  0.00000000000E+00 -0.44127229913E+03  0.10922331121E+04  0.99912558231E+03 0.  0.
        1    1    3    3  502    0 -0.13370307428E+03 -0.15166024644E+03  0.27875580572E+03  0.34435757821E+03  0.50400001928E-02 0.  1.
       -1    1    3    3    0  502  0.13370307428E+03  0.15166024644E+03 -0.72002810485E+03  0.74787553391E+03  0.50400001928E-02 0. -1.
</event>
<event>
 5   0  0.3854625E-04  0.1000431E+04  0.7818609E-02  0.9308072E-01
       -4   -1    0    0    0  501  0.00000000000E+00  0.00000000000E+00  0.70410965830E+03  0.70411080365E+03  0.12699999809E+01 0. -1.
        4   -1    0    0  501    0  0.00000000000E+00  0.00000000000E+00 -0.35536171456E+03  0.35536398393E+03  0.12699999809E+01 0.  1.
    10030    2    1    2    0    0  0.00000000000E+00  0.00000000000E+00  0.34874794375E+03  0.10594747876E+04  0.10004307558E+04 0.  0.
        5    1    3    3  502    0  0.98139270985E+02 -0.14457863936E+03  0.67071265846E+03  0.69311749342E+03  0.46999998093E+01 0. -1.
       -5    1    3    3    0  502 -0.98139270985E+02  0.14457863936E+03 -0.32196471471E+03  0.36635729416E+03  0.46999998093E+01 0.  1.
</event>
<event>
 5   0  0.5826939E-04  0.9998369E+03  0.7818609E-02  0.9308724E-01
       -1   -1    0    0    0  501  0.00000000000E+00  0.00000000000E+00  0.30117046579E+03  0.30117046583E+03  0.50400001928E-02 0.  1.
        1   -1    0    0  501    0  0.00000000000E+00  0.00000000000E+00 -0.82982397824E+03  0.82982397825E+03  0.50400001928E-02 0. -1.
    10030    2    1    2    0    0  0.00000000000E+00  0.00000000000E+00 -0.52865351245E+03  0.11309944441E+04  0.99983693487E+03 0.  0.
        1    1    3    3  502    0  0.50082063601E+02  0.47361414202E+03 -0.43625071253E+03  0.64585853933E+03  0.50400001928E-02 0.  1.
       -1    1    3    3    0  502 -0.50082063601E+02 -0.47361414202E+03 -0.92402799914E+02  0.48513590475E+03  0.50400001928E-02 0. -1.
</event>
<event>
 5   0  0.5960102E-04  0.9999216E+03  0.7818609E-02  0.9308631E-01
        1   -1    0    0  501    0  0.00000000000E+00  0.00000000000E+00  0.98552105185E+03  0.98552105186E+03  0.50400001928E-02 0. -1.
       -1   -1    0    0    0  501  0.00000000000E+00  0.00000000000E+00 -0.25363311814E+03  0.25363311819E+03  0.50400001928E-02 0.  1.
    10030    2    1    2    0    0  0.00000000000E+00  0.00000000000E+00  0.73188793370E+03  0.12391541701E+04  0.99992155175E+03 0.  0.
        5    1    3    3  502    0 -0.99708352030E+02 -0.48953709186E+03  0.34274752300E+03  0.60587645134E+03  0.46999998093E+01 0.  1.
       -5    1    3    3    0  502  0.99708352030E+02  0.48953709186E+03  0.38914041070E+03  0.63327771871E+03  0.46999998093E+01 0. -1.
</event>
<event>
 5   0  0.5888774E-04  0.1001154E+04  0.7818609E-02  0.9307280E-01
        1   -1    0    0  501    0  0.00000000000E+00  0.00000000000E+00  0.15806643494E+04  0.15806643494E+04  0.50400001928E-02 0.  1.
       -1   -1    0    0    0  501  0.00000000000E+00  0.00000000000E+00 -0.15852656012E+03  0.15852656020E+03  0.50400001928E-02 0. -1.
    10030    2    1    2    0    0  0.00000000000E+00  0.00000000000E+00  0.14221377893E+04  0.17391909096E+04  0.10011538984E+04 0.  0.
        2    1    3    3  502    0  0.62748039059E+01  0.49043319531E+03  0.88490206045E+03  0.10117389727E+04  0.25500000920E-02 0.  1.
       -2    1    3    3    0  502 -0.62748039059E+01 -0.49043319531E+03  0.53723572883E+03  0.72745193694E+03  0.25500000920E-02 0. -1.
</event>
<event>
 5   0  0.1006749E-03  0.1000537E+04  0.7818609E-02  0.9307956E-01
       -2   -1    0    0    0  501  0.00000000000E+00  0.00000000000E+00  0.30356051521E+03  0.30356051522E+03  0.25500000920E-02 0. -1.
        2   -1    0    0  501    0  0.00000000000E+00  0.00000000000E+00 -0.82444331727E+03  0.82444331727E+03  0.25500000920E-02 0.  1.
    10030    2    1    2    0    0  0.00000000000E+00  0.00000000000E+00 -0.52088280206E+03  0.11280038325E+04  0.10005367323E+04 0.  0.
        1    1    3    3  502    0 -0.35901150408E+03  0.33361139349E+03 -0.37364602228E+03  0.61627686304E+03  0.50400001928E-02 0.  1.
       -1    1    3    3    0  502  0.35901150408E+03 -0.33361139349E+03 -0.14723677978E+03  0.51172696946E+03  0.50400001928E-02 0. -1.
</event>
<event>
 5   0  0.9741826E-04  0.9972806E+03  0.7818609E-02  0.9311532E-01
        2   -1    0    0  501    0  0.00000000000E+00  0.00000000000E+00  0.95844733470E+03  0.95844733471E+03  0.25500000920E-02 0. -1.
       -2   -1    0    0    0  501  0.00000000000E+00  0.00000000000E+00 -0.25942183691E+03  0.25942183692E+03  0.25500000920E-02 0.  1.
    10030    2    1    2    0    0  0.00000000000E+00  0.00000000000E+00  0.69902549779E+03  0.12178691716E+04  0.99728063886E+03 0.  0.
        3    1    3    3  502    0 -0.16546189474E+02  0.29651857842E+03  0.83866774965E+03  0.88969694179E+03  0.10100000352E+00 0. -1.
       -3    1    3    3    0  502  0.16546189474E+02 -0.29651857842E+03 -0.13964225186E+03  0.32817222984E+03  0.10100000352E+00 0.  1.
</event>
<event>
 5   0  0.5826939E-04  0.1001342E+04  0.7818609E-02  0.9307074E-01
       -1   -1    0    0    0  501  0.00000000000E+00  0.00000000000E+00  0.11194647723E+04  0.11194647724E+04  0.50400001928E-02 0. -1.
        1   -1    0    0  501    0  0.00000000000E+00  0.00000000000E+00 -0.22392074441E+03  0.22392074447E+03  0.50400001928E-02 0.  1.
    10030    2    1    2    0    0  0.00000000000E+00  0.00000000000E+00  0.89554402794E+03  0.13433855168E+04  0.10013418701E+04 0.  0.
        1    1    3    3  502    0  0.82819765371E+01  0.16860166819E+03 -0.18459196411E+03  0.25013857538E+03  0.50400001928E-02 0.  1.
       -1    1    3    3    0  502 -0.82819765371E+01 -0.16860166819E+03  0.10801359920E+04  0.10932469415E+04  0.50400001928E-02 0. -1.
</event>
<event>
 5   0  0.5888774E-04  0.9968697E+03  0.7818609E-02  0.9311985E-01
        1   -1    0    0  501    0  0.00000000000E+00  0.00000000000E+00  0.28545563277E+03  0.28545563282E+03  0.50400001928E-02 0. -1.
       -1   -1    0    0    0  501  0.00000000000E+00  0.00000000000E+00 -0.87031839405E+03  0.87031839407E+03  0.50400001928E-02 0.  1.
    10030    2    1    2    0    0  0.00000000000E+00  0.00000000000E+00 -0.58486276128E+03  0.11557740269E+04  0.99686967639E+03 0.  0.
        2    1    3    3  502    0 -0.22920847439E+02  0.12453770544E+03 -0.85135793047E+03  0.86072372519E+03  0.25500000920E-02 0.  1.
       -2    1    3    3    0  502  0.22920847439E+02 -0.12453770544E+03  0.26649516919E+03  0.29505030170E+03  0.25500000920E-02 0. -1.
</event>
<event>
 5   0  0.3854625E-04  0.9991765E+03  0.7818609E-02  0.9309448E-01
       -3   -1    0    0    0  501  0.00000000000E+00  0.00000000000E+00  0.21740332231E+03  0.21740334577E+03  0.10100000352E+00 0.  1.
        3   -1    0    0  501    0  0.00000000000E+00  0.00000000000E+00 -0.11480431380E+04  0.11480431424E+04  0.10100000352E+00 0. -1.
    10030    2    1    2    0    0  0.00000000000E+00  0.00000000000E+00 -0.93063981570E+03  0.13654464882E+04  0.99917648373E+03 0.  0.
        1    1    3    3  502    0  0.38657712803E+02 -0.22064070339E+02  0.21468819620E+03  0.21925387927E+03  0.50400001928E-02 0.  1.
       -1    1    3    3    0  502 -0.38657712803E+02  0.22064070339E+02 -0.11453280119E+04  0.11461926090E+04  0.50400001928E-02 0. -1.
</event>
<event>
 5   0  0.5768102E-04  0.1002336E+04  0.7818609E-02  0.9305987E-01
       -1   -1    0    0    0  501  0.00000000000E+00  0.00000000000E+00  0.12618280362E+03  0.12618280372E+03  0.50400001928E-02 0. -1.
        1   -1    0    0  501    0  0.00000000000E+00  0.00000000000E+00 -0.19905185715E+04  0.19905185715E+04  0.50400001928E-02 0.  1.
    10030    2    1    2    0    0  0.00000000000E+00  0.00000000000E+00 -0.18643357679E+04  0.21167013752E+04  0.10023357005E+04 0.  0.
        4    1    3    3  502    0 -0.22265887305E+03 -0.42785872672E+03 -0.12196132043E+04  0.13115250835E+04  0.12699999809E+01 0. -1.
       -4    1    3    3    0  502  0.22265887305E+03  0.42785872672E+03 -0.64472256361E+03  0.80517629170E+03  0.12699999809E+01 0.  1.
</event>
<event>
 5   0  0.5888774E-04  0.1000280E+04  0.7818609E-02  0.9308237E-01
       -1   -1    0    0    0  501  0.00000000000E+00  0.00000000000E+00  0.11762182270E+03  0.11762182281E+03  0.50400001928E-02 0. -1.
        1   -1    0    0  501    0  0.00000000000E+00  0.00000000000E+00 -0.21266473474E+04  0.21266473474E+04  0.50400001928E-02 0.  1.
    10030    2    1    2    0    0  0.00000000000E+00  0.00000000000E+00 -0.20090255247E+04  0.22442691703E+04  0.10002802355E+04 0.  0.
        2    1    3    3  502    0 -0.39532453550E+03  0.58017140177E+02 -0.32958089502E+03  0.51794888097E+03  0.25500000920E-02 0. -1.
       -2    1    3    3    0  502  0.39532453550E+03 -0.58017140177E+02 -0.16794446297E+04  0.17263202893E+04  0.25500000920E-02 0.  1.
</event>
<event>
 5   0  0.5758786E-04  0.1003020E+04  0.7818609E-02  0.9305239E-01
        1   -1    0    0  501    0  0.00000000000E+00  0.00000000000E+00  0.33485194137E+03  0.33485194141E+03  0.50400001928E-02 0.  1.
       -1   -1    0    0    0  501  0.00000000000E+00  0.00000000000E+00 -0.75111462872E+03  0.75111462874E+03  0.50400001928E-02 0. -1.
    10030    2    1    2    0    0  0.00000000000E+00  0.00000000000E+00 -0.41626268735E+03  0.10859665701E+04  0.10030198236E+04 0.  0.
        3    1    3    3  502    0 -0.15005692854E+03  0.40837517140E+03 -0.47820906514E+03  0.64650698573E+03  0.10100000352E+00 0. -1.
       -3    1    3    3    0  502  0.15005692854E+03 -0.40837517140E+03  0.61946377787E+02  0.43945958442E+03  0.10100000352E+00 0.  1.
</event>
<event>
 5   0  0.1006749E-03  0.9968003E+03  0.7818609E-02  0.9312061E-01
        2   -1    0    0  501    0  0.00000000000E+00  0.00000000000E+00  0.27522734360E+04  0.27522734360E+04  0.25500000920E-02 0.  1.
       -2   -1    0    0    0  501  0.00000000000E+00  0.00000000000E+00 -0.90253648013E+02  0.90253648049E+02  0.25500000920E-02 0. -1.
    10030    2    1    2    0    0  0.00000000000E+00  0.00000000000E+00  0.26620197880E+04  0.28425270840E+04  0.99680031697E+03 0.  0.
        1    1    3    3  502    0  0.24315767217E+03  0.42050560018E+03  0.16492228256E+04  0.17192691883E+04  0.50400001928E-02 0.  1.
       -1    1    3    3    0  502 -0.24315767217E+03 -0.42050560018E+03  0.10127969623E+04  0.11232578957E+04  0.50400001928E-02 0. -1.
</event>
<event>
 5   0  0.5960102E-04  0.9964165E+03  0.7818609E-02  0.9312484E-01
        1   -1    0    0  501    0  0.00000000000E+00  0.00000000000E+00  0.68173730963E+03  0.68173730965E+03  0.50400001928E-02 0. -1.
       -1   -1    0    0    0  501  0.00000000000E+00  0.00000000000E+00 -0.36408668995E+03  0.36408668999E+03  0.50400001928E-02 0.  1.
    10030    2    1    2    0    0  0.00000000000E+00  0.00000000000E+00  0.31765061968E+03  0.10458239996E+04  0.99641654043E+03 0.  0.
        5    1    3    3  502    0  0.38504938018E+03 -0.28473199018E+03  0.14706685570E+02  0.47913850607E+03  0.46999998093E+01 0.  1.
       -5    1    3    3    0  502 -0.38504938018E+03  0.28473199018E+03  0.30294393411E+03  0.56668549357E+03  0.46999998093E+01 0. -1.
</event>
<event>
 5   0  0.1006006E-03  0.9999134E+03  0.7818609E-02  0.9308640E-01
        2   -1    0    0  501    0  0.00000000000E+00  0.00000000000E+00  0.27333972196E+03  0.27333972197E+03  0.25500000920E-02 0. -1.
       -2   -1    0    0    0  501  0.00000000000E+00  0.00000000000E+00 -0.91445441172E+03  0.91445441173E+03  0.25500000920E-02 0.  1.
    10030    2    1    2    0    0  0.00000000000E+00  0.00000000000E+00 -0.64111468976E+03  0.11877941337E+04  0.99991342556E+03 0.  0.
        2    1    3    3  502    0  0.31143061872E+03  0.38262658220E+03 -0.22431142066E+03  0.54194810188E+03  0.25500000920E-02 0.  1.
       -2    1    3    3    0  502 -0.31143061872E+03 -0.38262658220E+03 -0.41680326910E+03  0.64584603182E+03  0.25500000920E-02 0. -1.
</event>
<event>
 5   0  0.5888774E-04  0.9987275E+03  0.7818609E-02  0.9309942E-01
       -1   -1    0    0    0  501  0.00000000000E+00  0.00000000000E+00  0.27254575920E+03  0.27254575924E+03  0.50400001928E-02 0.  1.
        1   -1    0    0  501    0  0.00000000000E+00  0.00000000000E+00 -0.91494422132E+03  0.91494422133E+03  0.50400001928E-02 0. -1.
    10030    2    1    2    0    0  0.00000000000E+00  0.00000000000E+00 -0.64239846212E+03  0.11874899806E+04  0.99872752532E+03 0.  0.
        2    1    3    3  502    0  0.13163127487E+03 -0.30357710927E+03  0.12349155247E+03  0.35317986541E+03  0.25500000920E-02 0.  1.
       -2    1    3    3    0  502 -0.13163127487E+03  0.30357710927E+03 -0.76589001460E+03  0.83431011516E+03  0.25500000920E-02 0. -1.
</event>
<event>
 5   0  0.9741826E-04  0.9974675E+03  0.7818609E-02  0.9311327E-01
       -2   -1    0    0    0  501  0.00000000000E+00  0.00000000000E+00  0.33272879571E+03  0.33272879571E+03  0.25500000920E-02 0.  1.
        2   -1    0    0  501    0  0.00000000000E+00  0.00000000000E+00 -0.74756180525E+03  0.74756180525E+03  0.25500000920E-02 0. -1.
    10030    2    1    2    0    0  0.00000000000E+00  0.00000000000E+00 -0.41483300954E+03  0.10802906010E+04  0.99746747151E+03 0.  0.
        3    1    3    3  502    0  0.45735418436E+03 -0.19579508119E+03 -0.24534997564E+03  0.55471180312E+03  0.10100000352E+00 0. -1.
       -3    1    3    3    0  502 -0.45735418436E+03  0.19579508119E+03 -0.16948303390E+03  0.52557879785E+03  0.10100000352E+00 0.  1.
</event>
<event>
 5   0  0.5826939E-04  0.1007372E+04  0.7818609E-02  0.9300496E-01
       -1   -1    0    0    0  501  0.00000000000E+00  0.00000000000E+00  0.12690273206E+03  0.12690273216E+03  0.50400001928E-02 0.  1.
        1   -1    0    0  501    0  0.00000000000E+00  0.00000000000E+00 -0.19991673706E+04  0.19991673706E+04  0.50400001928E-02 0. -1.
    10030    2    1    2    0    0  0.00000000000E+00  0.00000000000E+00 -0.18722646385E+04  0.21260701028E+04  0.10073724263E+04 0.  0.
        1    1    3    3  502    0  0.17340332311E+03  0.47164265305E+03 -0.86350203124E+03  0.99907520369E+03  0.50400001928E-02 0.  1.
       -1    1    3    3    0  502 -0.17340332311E+03 -0.47164265305E+03 -0.10087626073E+04  0.11269948991E+04  0.50400001928E-02 0. -1.
</event>
<event>
 5   0  0.9741826E-04  0.9991382E+03  0.7818609E-02  0.9309490E-01
       -2   -1    0    0    0  501  0.00000000000E+00  0.00000000000E+00  0.50721657551E+03  0.50721657552E+03  0.25500000920E-02 0.  1.
        2   -1    0    0  501    0  0.00000000000E+00  0.00000000000E+00 -0.49203695362E+03  0.49203695362E+03  0.25500000920E-02 0. -1.
    10030    2    1    2    0    0  0.00000000000E+00  0.00000000000E+00  0.15179621892E+02  0.99925352914E+03  0.99913822596E+03 0.  0.
        3    1    3    3  502    0  0.22426381756E+03  0.44238955241E+03  0.67316988276E+02  0.50053407782E+03  0.10100000352E+00 0.  1.
       -3    1    3    3    0  502 -0.22426381756E+03 -0.44238955241E+03 -0.52137366384E+02  0.49871945132E+03  0.10100000352E+00 0. -1.
</event>
<event>
 5   0  0.5758786E-04  0.1000355E+04  0.7818609E-02  0.9308155E-01
        1   -1    0    0  501    0  0.00000000000E+00  0.00000000000E+00  0.43359824230E+03  0.43359824232E+03  0.50400001928E-02 0.  1.
       -1   -1    0    0    0  501  0.00000000000E+00  0.00000000000E+00 -0.57698040729E+03  0.57698040731E+03  0.50400001928E-02 0. -1.
    10030    2    1    2    0    0  0.00000000000E+00  0.00000000000E+00 -0.14338216499E+03  0.10105786496E+04  0.10003553178E+04 0.  0.
        3    1    3    3  502    0 -0.26232974987E+02 -0.15996373329E+03 -0.54970876500E+03  0.57311107253E+03  0.10100000352E+00 0. -1.
       -3    1    3    3    0  502  0.26232974987E+02  0.15996373329E+03  0.40632660000E+03  0.43746757710E+03  0.10100000352E+00 0.  1.
</event>
<event>
 5   0  0.5960102E-04  0.9985380E+03  0.7818609E-02  0.9310150E-01
        1   -1    0    0  501    0  0.00000000000E+00  0.00000000000E+00  0.78024807100E+03  0.78024807102E+03  0.50400001928E-02 0.  1.
       -1   -1    0    0    0  501  0.00000000000E+00  0.00000000000E+00 -0.31947469874E+03  0.31947469878E+03  0.50400001928E-02 0. -1.
    10030    2    1    2    0    0  0.00000000000E+00  0.00000000000E+00  0.46077337226E+03  0.10997227698E+04  0.99853796614E+03 0.  0.
        5    1    3    3  502    0 -0.26292836297E+03  0.39265167805E+03  0.53004497497E+02  0.47553993637E+03  0.46999998093E+01 0. -1.
       -5    1    3    3    0  502  0.26292836297E+03 -0.39265167805E+03  0.40776887476E+03  0.62418283343E+03  0.46999998093E+01 0.  1.
</event>
<event>
 5   0  0.5758786E-04  0.1025346E+04  0.7818609E-02  0.9281174E-01
        1   -1    0    0  501    0  0.00000000000E+00  0.00000000000E+00  0.81908364667E+03  0.81908364669E+03  0.50400001928E-02 0. -1.
       -1   -1    0    0    0  501  0.00000000000E+00  0.00000000000E+00 -0.32088767726E+03  0.32088767730E+03  0.50400001928E-02 0.  1.
    10030    2    1    2    0    0  0.00000000000E+00  0.00000000000E+00  0.49819596942E+03  0.11399713240E+04  0.10253464759E+04 0.  0.
        3    1    3    3  502    0 -0.50094861607E+02  0.47232030044E+03  0.46364167284E+03  0.66374661759E+03  0.10100000352E+00 0.  1.
       -3    1    3    3    0  502  0.50094861607E+02 -0.47232030044E+03  0.34554296575E+02  0.47622470640E+03  0.10100000352E+00 0. -1.
</event>
<event>
 5   0  0.1020150E-03  0.1000783E+04  0.7818609E-02  0.9307686E-01
        2   -1    0    0  501    0  0.00000000000E+00  0.00000000000E+00  0.10154915102E+04  0.10154915102E+04  0.25500000920E-02 0.  1.
       -2   -1    0    0    0  501  0.00000000000E+00  0.00000000000E+00 -0.24657187197E+03  0.24657187199E+03  0.25500000920E-02 0. -1.
    10030    2    1    2    0    0  0.00000000000E+00  0.00000000000E+00  0.76891963820E+03  0.12620633822E+04  0.10007829788E+04 0.  0.
        5    1    3    3  502    0 -0.47216762544E+02  0.43162528429E+03  0.70860509994E+02  0.43996944278E+03  0.46999998093E+01 0. -1.
       -5    1    3    3    0  502  0.47216762544E+02 -0.43162528429E+03  0.69805912821E+03  0.82209393939E+03  0.46999998093E+01 0.  1.
</event>
<event>
 5   0  0.1006749E-03  0.1001189E+04  0.7818609E-02  0.9307242E-01
        2   -1    0    0  501    0  0.00000000000E+00  0.00000000000E+00  0.56323671775E+03  0.56323671775E+03  0.25500000920E-02 0. -1.
       -2   -1    0    0    0  501  0.00000000000E+00  0.00000000000E+00 -0.44491910024E+03  0.44491910025E+03  0.25500000920E-02 0.  1.
    10030    2    1    2    0    0  0.00000000000E+00  0.00000000000E+00  0.11831761751E+03  0.10081558180E+04  0.10011888407E+04 0.  0.
        1    1    3    3  502    0 -0.29029829373E+03  0.25066084643E+03  0.38309730565E+03  0.54209547582E+03  0.50400001928E-02 0. -1.
       -1    1    3    3    0  502  0.29029829373E+03 -0.25066084643E+03 -0.26477968815E+03  0.46606034219E+03  0.50400001928E-02 0.  1.
</event>
<event>
 5   0  0.1006749E-03  0.9986778E+03  0.7818609E-02  0.9309996E-01
       -2   -1    0    0    0  501  0.00000000000E+00  0.00000000000E+00  0.47733762399E+03  0.47733762400E+03  0.25500000920E-02 0.  1.
        2   -1    0    0  501    0  0.00000000000E+00  0.00000000000E+00 -0.52235425888E+03  0.52235425889E+03  0.25500000920E-02 0. -1.
    10030    2    1    2    0    0  0.00000000000E+00  0.00000000000E+00 -0.45016634893E+02  0.99969188289E+03  0.99867780755E+03 0.  0.
        1    1    3    3  502    0 -0.43199476591E+03 -0.13361396522E+03 -0.23454212477E+03  0.50939393183E+03  0.50400001928E-02 0. -1.
       -1    1    3    3    0  502  0.43199476591E+03  0.13361396522E+03  0.18952548987E+03  0.49029795106E+03  0.50400001928E-02 0.  1.
</event>
<event>
 5   0  0.5888774E-04  0.1000150E+04  0.7818609E-02  0.9308380E-01
       -1   -1    0    0    0  501  0.00000000000E+00  0.00000000000E+00  0.17039441060E+03  0.17039441067E+03  0.50400001928E-02 0.  1.
        1   -1    0    0  501    0  0.00000000000E+00  0.00000000000E+00 -0.14676250137E+04  0.14676250137E+04  0.50400001928E-02 0. -1.
    10030    2    1    2    0    0  0.00000000000E+00  0.00000000000E+00 -0.12972306031E+04  0.16380194244E+04  0.10001501872E+04 0.  0.
        2    1    3    3  502    0 -0.34550616091E+02  0.12797225035E+02 -0.14653990221E+04  0.14658621382E+04  0.25500000920E-02 0. -1.
       -2    1    3    3    0  502  0.34550616091E+02 -0.12797225035E+02  0.16816841901E+03  0.17215728623E+03  0.25500000920E-02 0.  1.
</event>
<event>
 5   0  0.3854625E-04  0.9994827E+03  0.7818609E-02  0.9309112E-01
       -4   -1    0    0    0  501  0.00000000000E+00  0.00000000000E+00  0.43622887802E+03  0.43623072671E+03  0.12699999809E+01 0.  1.
        4   -1    0    0  501    0  0.00000000000E+00  0.00000000000E+00 -0.57249712844E+03  0.57249853710E+03  0.12699999809E+01 0. -1.
    10030    2    1    2    0    0  0.00000000000E+00  0.00000000000E+00 -0.13626825042E+03  0.10087292638E+04  0.99948271199E+03 0.  0.
        4    1    3    3  502    0 -0.29072080853E+03 -0.23929902089E+03 -0.39974223248E+03  0.54916124703E+03  0.12699999809E+01 0. -1.
       -4    1    3    3    0  502  0.29072080853E+03  0.23929902089E+03  0.26347398206E+03  0.45956801677E+03  0.12699999809E+01 0.  1.
</event>
<event>
 5   0  0.1006006E-03  0.9995796E+03  0.7818609E-02  0.9309006E-01
        2   -1    0    0  501    0  0.00000000000E+00  0.00000000000E+00  0.96922420128E+03  0.96922420128E+03  0.25500000920E-02 0.  1.
       -2   -1    0    0    0  501  0.00000000000E+00  0.00000000000E+00 -0.25772141779E+03  0.25772141781E+03  0.25500000920E-02 0. -1.
    10030    2    1    2    0    0  0.00000000000E+00  0.00000000000E+00  0.71150278348E+03  0.12269456191E+04  0.99957958227E+03 0.  0.
        2    1    3    3  502    0  0.36918446597E+03  0.18791086183E+03  0.12539910634E+02  0.41444530553E+03  0.25500000920E-02 0. -1.
       -2    1    3    3    0  502 -0.36918446597E+03 -0.18791086183E+03  0.69896287285E+03  0.81250031356E+03  0.25500000920E-02 0.  1.
</event>
<event>
 5   0  0.5960102E-04  0.1001978E+04  0.7818609E-02  0.9306378E-01
        1   -1    0    0  501    0  0.00000000000E+00  0.00000000000E+00  0.94036289552E+03  0.94036289553E+03  0.50400001928E-02 0. -1.
       -1   -1    0    0    0  501  0.00000000000E+00  0.00000000000E+00 -0.26690761871E+03  0.26690761876E+03  0.50400001928E-02 0.  1.
    10030    2    1    2    0    0  0.00000000000E+00  0.00000000000E+00  0.67345527680E+03  0.12072705143E+04  0.10019780860E+04 0.  0.
        5    1    3    3  502    0 -0.28639643268E+03  0.13185955295E+03  0.80579574797E+03  0.86529690616E+03  0.46999998093E+01 0. -1.
       -5    1    3    3    0  502  0.28639643268E+03 -0.13185955295E+03 -0.13234047117E+03  0.34197360814E+03  0.46999998093E+01 0.  1.
</event>
<event>
 5   0  0.5768102E-04  0.1001608E+04  0.7818609E-02  0.9306783E-01
        1   -1    0    0  501    0  0.00000000000E+00  0.00000000000E+00  0.10722438783E+04  0.10722438783E+04  0.50400001928E-02 0. -1.
       -1   -1    0    0    0  501  0.00000000000E+00  0.00000000000E+00 -0.23390618032E+03  0.23390618038E+03  0.50400001928E-02 0.  1.
    10030    2    1    2    0    0  0.00000000000E+00  0.00000000000E+00  0.83833769800E+03  0.13061500587E+04  0.10016076477E+04 0.  0.
        4    1    3    3  502    0  0.27289842245E+03 -0.50988681477E+02  0.96270968791E+03  0.10019405924E+04  0.12699999809E+01 0. -1.
       -4    1    3    3    0  502 -0.27289842245E+03  0.50988681477E+02 -0.12437198991E+03  0.30420946630E+03  0.12699999809E+01 0.  1.
</event>
<event>
 5   0  0.5758786E-04  0.9998472E+03  0.7818609E-02  0.9308712E-01
       -1   -1    0    0    0  501  0.00000000000E+00  0.00000000000E+00  0.87356201805E+03  0.87356201806E+03  0.50400001928E-02 0.  1.
        1   -1    0    0  501    0  0.00000000000E+00  0.00000000000E+00 -0.28609717972E+03  0.28609717976E+03  0.50400001928E-02 0. -1.
    10030    2    1    2    0    0  0.00000000000E+00  0.00000000000E+00  0.58746483833E+03  0.11596591978E+04  0.99984724774E+03 0.  0.
        3    1    3    3  502    0 -0.11237132265E+03  0.84568281386E+02  0.85014511679E+03  0.86169938968E+03  0.10100000352E+00 0.  1.
       -3    1    3    3    0  502  0.11237132265E+03 -0.84568281386E+02 -0.26268027846E+03  0.29795980814E+03  0.10100000352E+00 0. -1.
</event>
<event>
 5   0  0.5960102E-04  0.1000257E+04  0.7818609E-02  0.9308263E-01
       -1   -1    0    0    0  501  0.00000000000E+00  0.00000000000E+00  0.68380883233E+03  0.68380883235E+03  0.50400001928E-02 0. -1.
        1   -1    0    0  501    0  0.00000000000E+00  0.00000000000E+00 -0.36578733912E+03  0.36578733915E+03  0.50400001928E-02 0.  1.
    10030    2    1    2    0    0  0.00000000000E+00  0.00000000000E+00  0.31802149322E+03  0.10495961715E+04  0.10002571935E+04 0.  0.
        5    1    3    3  502    0  0.28083449858E+03 -0.46653888165E+02  0.59046370983E+03  0.65552580689E+03  0.46999998093E+01 0. -1.
       -5    1    3    3    0  502 -0.28083449858E+03  0.46653888165E+02 -0.27244221661E+03  0.39407036461E+03  0.46999998093E+01 0.  1.
</event>
<event>
 5   0  0.1006006E-03  0.1001945E+04  0.7818609E-02  0.9306414E-01
       -2   -1    0    0    0  501  0.00000000000E+00  0.00000000000E+00  0.26254247880E+03  0.26254247881E+03  0.25500000920E-02 0. -1.
        2   -1    0    0  501    0  0.00000000000E+00  0.00000000000E+00 -0.95593504058E+03  0.95593504058E+03  0.25500000920E-02 0.  1.
    10030    2    1    2    0    0  0.00000000000E+00  0.00000000000E+00 -0.69339256178E+03  0.12184775194E+04  0.10019452183E+04 0.  0.
        2    1    3    3  502    0  0.38774117234E+03 -0.30567068697E+03 -0.24353608305E+03  0.55053393116E+03  0.25500000920E-02 0. -1.
       -2    1    3    3    0  502 -0.38774117234E+03  0.30567068697E+03 -0.44985647873E+03  0.66794358824E+03  0.25500000920E-02 0.  1.
</event>
<event>
 5   0  0.1006006E-03  0.9993009E+03  0.7818609E-02  0.9309312E-01
        2   -1    0    0  501    0  0.00000000000E+00  0.00000000000E+00  0.11686303800E+04  0.11686303800E+04  0.25500000920E-02 0.  1.
       -2   -1    0    0    0  501  0.00000000000E+00  0.00000000000E+00 -0.21362662906E+03  0.21362662908E+03  0.25500000920E-02 0. -1.
    10030    2    1    2    0    0  0.00000000000E+00  0.00000000000E+00  0.95500375091E+03  0.13822570091E+04  0.99930089304E+03 0.  0.
        2    1    3    3  502    0  0.19636779901E+03  0.40911904811E+03  0.18830594850E+03  0.49132253995E+03  0.25500000920E-02 0. -1.
       -2    1    3    3    0  502 -0.19636779901E+03 -0.40911904811E+03  0.76669780241E+03  0.89093446910E+03  0.25500000920E-02 0.  1.
</event>
<event>
 5   0  0.5768102E-04  0.1001285E+04  0.7818609E-02  0.9307137E-01
        1   -1    0    0  501    0  0.00000000000E+00  0.00000000000E+00  0.10335660850E+04  0.10335660850E+04  0.50400001928E-02 0. -1.
       -1   -1    0    0    0  501  0.00000000000E+00  0.00000000000E+00 -0.24250282421E+03  0.24250282426E+03  0.50400001928E-02 0.  1.
    10030    2    1    2    0    0  0.00000000000E+00  0.00000000000E+00  0.79106326082E+03  0.12760689093E+04  0.10012845643E+04 0.  0.
        4    1    3    3  502    0 -0.10465080179E+03  0.26460329882E+03 -0.12942659999E+03  0.31260126958E+03  0.12699999809E+01 0.  1.
       -4    1    3    3    0  502  0.10465080179E+03 -0.26460329882E+03  0.92048986081E+03  0.96346763973E+03  0.12699999809E+01 0. -1.
</event>
<event>
 5   0  0.5826939E-04  0.9801433E+03  0.7818609E-02  0.9330595E-01
       -1   -1    0    0    0  501  0.00000000000E+00  0.00000000000E+00  0.36196717085E+03  0.36196717089E+03  0.50400001928E-02 0. -1.
        1   -1    0    0  501    0  0.00000000000E+00  0.00000000000E+00 -0.66351381652E+03  0.66351381653E+03  0.50400001928E-02 0.  1.
    10030    2    1    2    0    0  0.00000000000E+00  0.00000000000E+00 -0.30154664566E+03  0.10254809874E+04  0.98014329363E+03 0.  0.
        1    1    3    3  502    0 -0.42697175404E+03  0.10577697737E+01  0.10090342706E+03  0.43873397321E+03  0.50400001928E-02 0. -1.
       -1    1    3    3    0  502  0.42697175404E+03 -0.10577697737E+01 -0.40245007273E+03  0.58674701422E+03  0.50400001928E-02 0.  1.
</event>
<event>
 5   0  0.5826939E-04  0.1003252E+04  0.7818609E-02  0.9304986E-01
       -1   -1    0    0    0  501  0.00000000000E+00  0.00000000000E+00  0.18976579021E+03  0.18976579027E+03  0.50400001928E-02 0.  1.
        1   -1    0    0  501    0  0.00000000000E+00  0.00000000000E+00 -0.13259949688E+04  0.13259949689E+04  0.50400001928E-02 0. -1.
    10030    2    1    2    0    0  0.00000000000E+00  0.00000000000E+00 -0.11362291786E+04  0.15157607591E+04  0.10032516796E+04 0.  0.
        1    1    3    3  502    0 -0.43436207244E+03 -0.21925581339E+03 -0.75244399420E+03  0.89605551508E+03  0.50400001928E-02 0.  1.
       -1    1    3    3    0  502  0.43436207244E+03  0.21925581339E+03 -0.38378518444E+03  0.61970524404E+03  0.50400001928E-02 0. -1.
</event>
<event>
 5   0  0.3854625E-04  0.1001017E+04  0.7818609E-02  0.9307430E-01
       -3   -1    0    0    0  501  0.00000000000E+00  0.00000000000E+00  0.30516022828E+03  0.30516024499E+03  0.10100000352E+00 0. -1.
        3   -1    0    0  501    0  0.00000000000E+00  0.00000000000E+00 -0.82090848368E+03  0.82090848990E+03  0.10100000352E+00 0.  1.
    10030    2    1    2    0    0  0.00000000000E+00  0.00000000000E+00 -0.51574825541E+03  0.11260687349E+04  0.10010167495E+04 0.  0.
        3    1    3    3  502    0  0.46312612311E+03  0.62712558899E+02 -0.56358797690E+02  0.47073877600E+03  0.10100000352E+00 0.  1.
       -3    1    3    3    0  502 -0.46312612311E+03 -0.62712558899E+02 -0.45938945772E+03  0.65532995889E+03  0.10100000352E+00 0. -1.
</event>
<event>
 5   0  0.5960102E-04  0.9991390E+03  0.7818609E-02  0.9309490E-01
       -1   -1    0    0    0  501  0.00000000000E+00  0.00000000000E+00  0.38516991928E+03  0.38516991932E+03  0.50400001928E-02 0. -1.
        1   -1    0    0  501    0  0.00000000000E+00  0.00000000000E+00 -0.64794692701E+03  0.64794692703E+03  0.50400001928E-02 0.  1.
    10030    2    1    2    0    0  0.00000000000E+00  0.00000000000E+00 -0.26277700773E+03  0.10331168463E+04  0.99913896051E+03 0.  0.
        5    1    3    3  502    0 -0.23016734391E+02 -0.18176711240E+03 -0.61192771595E+03  0.63878531038E+03  0.46999998093E+01 0.  1.
       -5    1    3    3    0  502  0.23016734391E+02  0.18176711240E+03  0.34915070822E+03  0.39433153597E+03  0.46999998093E+01 0. -1.
</event>
<event>
 5   0  0.1006749E-03  0.9999987E+03  0.7818609E-02  0.9308546E-01
        2   -1    0    0  501    0  0.00000000000E+00  0.00000000000E+00  0.77450571411E+03  0.77450571411E+03  0.25500000920E-02 0.  1.
       -2   -1    0    0    0  501  0.00000000000E+00  0.00000000000E+00 -0.32278570388E+03  0.32278570389E+03  0.25500000920E-02 0. -1.
    10030    2    1    2    0    0  0.00000000000E+00  0.00000000000E+00  0.45172001022E+03  0.10972914180E+04  0.99999874419E+03 0.  0.
        1    1    3    3  502    0  0.48450681122E+03 -0.11500923391E+03  0.17647697617E+03  0.52831628514E+03  0.50400001928E-02 0. -1.
       -1    1    3    3    0  502 -0.48450681122E+03  0.11500923391E+03  0.27524303405E+03  0.56897513286E+03  0.50400001928E-02 0.  1.
</event>
<event>
 5   0  0.9741826E-04  0.1000598E+04  0.7818609E-02  0.9307889E-01
        2   -1    0    0  501    0  0.00000000000E+00  0.00000000000E+00  0.61634197210E+03  0.61634197210E+03  0.25500000920E-02 0. -1.
       -2   -1    0    0    0  501  0.00000000000E+00  0.00000000000E+00 -0.40610400834E+03  0.40610400834E+03  0.25500000920E-02 0.  1.
    10030    2    1    2    0    0  0.00000000000E+00  0.00000000000E+00  0.21023796376E+03  0.10224459804E+04  0.10005977121E+04 0.  0.
        3    1    3    3  502    0  0.33073661311E+03  0.22142529534E+03 -0.20462195444E+03  0.44753326481E+03  0.10100000352E+00 0.  1.
       -3    1    3    3    0  502 -0.33073661311E+03 -0.22142529534E+03  0.41485991820E+03  0.57491271564E+03  0.10100000352E+00 0. -1.
</event>
<event>
 5   0  0.1006749E-03  0.9991914E+03  0.7818609E-02  0.9309432E-01
       -2   -1    0    0    0  501  0.00000000000E+00  0.00000000000E+00  0.28384623914E+03  0.28384623916E+03  0.25500000920E-02 0. -1.
        2   -1    0    0  501    0  0.00000000000E+00  0.00000000000E+00 -0.87933475442E+03  0.87933475442E+03  0.25500000920E-02 0.  1.
    10030    2    1    2    0    0  0.00000000000E+00  0.00000000000E+00 -0.59548851527E+03  0.11631809936E+04  0.99919139908E+03 0.  0.
        1    1    3    3  502    0  0.33866741309E+03  0.36149159156E+03 -0.37340392834E+03  0.62032433548E+03  0.50400001928E-02 0.  1.
       -1    1    3    3    0  502 -0.33866741309E+03 -0.36149159156E+03 -0.22208458694E+03  0.54285665810E+03  0.50400001928E-02 0. -1.
</event>
<event>
 5   0  0.9741826E-04  0.1000910E+04  0.7818609E-02  0.9307547E-01
       -2   -1    0    0    0  501  0.00000000000E+00  0.00000000000E+00  0.13486535419E+03  0.13486535421E+03  0.25500000920E-02 0.  1.
        2   -1    0    0  501    0  0.00000000000E+00  0.00000000000E+00 -0.18570766643E+04  0.18570766643E+04  0.25500000920E-02 0. -1.
    10030    2    1    2    0    0  0.00000000000E+00  0.00000000000E+00 -0.17222113101E+04  0.19919420186E+04  0.10009101900E+04 0.  0.
        3    1    3    3  502    0 -0.16699774140E+03  0.41833843411E+03 -0.12951184260E+04  0.13712137100E+04  0.10100000352E+00 0. -1.
       -3    1    3    3    0  502  0.16699774140E+03 -0.41833843411E+03 -0.42709288419E+03  0.62072830854E+03  0.10100000352E+00 0.  1.
</event>
<event>
 5   0  0.1020150E-03  0.1000757E+04  0.7818609E-02  0.9307715E-01
        2   -1    0    0  501    0  0.00000000000E+00  0.00000000000E+00  0.11529025817E+04  0.11529025817E+04  0.25500000920E-02 0.  1.
       -2   -1    0    0    0  501  0.00000000000E+00  0.00000000000E+00 -0.21717228957E+03  0.21717228959E+03  0.25500000920E-02 0. -1.
    10030    2    1    2    0    0  0.00000000000E+00  0.00000000000E+00  0.93573029215E+03  0.13700748713E+04  0.10007567004E+04 0.  0.
        5    1    3    3  502    0  0.26844773166E+03  0.28526655268E+03  0.89406350280E+03  0.97612131815E+03  0.46999998093E+01 0.  1.
       -5    1    3    3    0  502 -0.26844773166E+03 -0.28526655268E+03  0.41666789350E+02  0.39395355316E+03  0.46999998093E+01 0. -1.
</event>
<event>
 5   0  0.3854625E-04  0.1002760E+04  0.7818609E-02  0.9305523E-01
        4   -1    0    0  501    0  0.00000000000E+00  0.00000000000E+00  0.37305348965E+03  0.37305565140E+03  0.12699999809E+01 0. -1.
       -4   -1    0    0    0  501  0.00000000000E+00  0.00000000000E+00 -0.67384491551E+03  0.67384611230E+03  0.12699999809E+01 0.  1.
    10030    2    1    2    0    0  0.00000000000E+00  0.00000000000E+00 -0.30079142586E+03  0.10469017637E+04  0.10027601014E+04 0.  0.
        4    1    3    3  502    0  0.36608763222E+03  0.24725940460E+03 -0.39794734614E+03  0.59457637930E+03  0.12699999809E+01 0.  1.
       -4    1    3    3    0  502 -0.36608763222E+03 -0.24725940460E+03  0.97155920271E+02  0.45232538440E+03  0.12699999809E+01 0. -1.
</event>
<event>
 5   0  0.5826939E-04  0.9927909E+03  0.7818609E-02  0.9316487E-01
        1   -1    0    0  501    0  0.00000000000E+00  0.00000000000E+00  0.12821760495E+04  0.12821760495E+04  0.50400001928E-02 0. -1.
       -1   -1    0    0    0  501  0.00000000000E+00  0.00000000000E+00 -0.19217988584E+03  0.19217988590E+03  0.50400001928E-02 0.  1.
    10030    2    1    2    0    0  0.00000000000E+00  0.00000000000E+00  0.10899961636E+04  0.14743559354E+04  0.99279090823E+03 0.  0.
        1    1    3    3  502    0 -0.27305930058E+03 -0.34954127147E+03  0.87596358805E+03  0.98186184859E+03  0.50400001928E-02 0. -1.
       -1    1    3    3    0  502  0.27305930058E+03  0.34954127147E+03  0.21403257557E+03  0.49249408679E+03  0.50400001928E-02 0.  1.
</event>
<event>
 5   0  0.1006749E-03  0.9953968E+03  0.7818609E-02  0.9313608E-01
       -2   -1    0    0    0  501  0.00000000000E+00  0.00000000000E+00  0.49433509302E+03  0.49433509303E+03  0.25500000920E-02 0.  1.
        2   -1    0    0  501    0  0.00000000000E+00  0.00000000000E+00 -0.50108461521E+03  0.50108461521E+03  0.25500000920E-02 0. -1.
    10030    2    1    2    0    0  0.00000000000E+00  0.00000000000E+00 -0.67495221887E+01  0.99541970824E+03  0.99539682514E+03 0.  0.
        1    1    3    3  502    0 -0.21632447202E+03 -0.44814736822E+03 -0.11822973490E+02  0.49776713789E+03  0.50400001928E-02 0.  1.
       -1    1    3    3    0  502  0.21632447202E+03  0.44814736822E+03  0.50734513010E+01  0.49765257035E+03  0.50400001928E-02 0. -1.
</event>
<event>
 5   0  0.5758786E-04  0.9991891E+03  0.7818609E-02  0.9309435E-01
        1   -1    0    0  501    0  0.00000000000E+00  0.00000000000E+00  0.86006407333E+03  0.86006407335E+03  0.50400001928E-02 0.  1.
       -1   -1    0    0    0  501  0.00000000000E+00  0.00000000000E+00 -0.29020479092E+03  0.29020479096E+03  0.50400001928E-02 0. -1.
    10030    2    1    2    0    0  0.00000000000E+00  0.00000000000E+00  0.56985928241E+03  0.11502688643E+04  0.99918910044E+03 0.  0.
        3    1    3    3  502    0 -0.47372845691E+03 -0.15207427977E+03  0.33704576856E+03  0.60095349051E+03  0.10100000352E+00 0.  1.
       -3    1    3    3    0  502  0.47372845691E+03  0.15207427977E+03  0.23281351385E+03  0.54931537379E+03  0.10100000352E+00 0. -1.
</event>
<event>
 5   0  0.5888774E-04  0.1001236E+04  0.7818609E-02  0.9307190E-01
       -1   -1    0    0    0  501  0.00000000000E+00  0.00000000000E+00  0.67615628810E+03  0.67615628812E+03  0.50400001928E-02 0.  1.
        1   -1    0    0  501    0  0.00000000000E+00  0.00000000000E+00 -0.37065178505E+03  0.37065178508E+03  0.50400001928E-02 0. -1.
    10030    2    1    2    0    0  0.00000000000E+00  0.00000000000E+00  0.30550450305E+03  0.10468080732E+04  0.10012363061E+04 0.  0.
        2    1    3    3  502    0 -0.26943171780E+03  0.15329228370E+03  0.56374299717E+03  0.64334915999E+03  0.25500000920E-02 0.  1.
       -2    1    3    3    0  502  0.26943171780E+03 -0.15329228370E+03 -0.25823849412E+03  0.40345891321E+03  0.25500000920E-02 0. -1.
</event>
<event>
 5   0  0.5768102E-04  0.9989886E+03  0.7818609E-02  0.9309655E-01
       -1   -1    0    0    0  501  0.00000000000E+00  0.00000000000E+00  0.99019452605E+02  0.99019452733E+02  0.50400001928E-02 0.  1.
        1   -1    0    0  501    0  0.00000000000E+00  0.00000000000E+00 -0.25196517684E+04  0.25196517684E+04  0.50400001928E-02 0. -1.
    10030    2    1    2    0    0  0.00000000000E+00  0.00000000000E+00 -0.24206323158E+04  0.26186712211E+04  0.99898856657E+03 0.  0.
        4    1    3    3  502    0 -0.28286021796E+03  0.32818645660E+03 -0.55878871215E+03  0.70708039919E+03  0.12699999809E+01 0.  1.
       -4    1    3    3    0  502  0.28286021796E+03 -0.32818645660E+03 -0.18618436036E+04  0.19115908219E+04  0.12699999809E+01 0. -1.
</event>
<event>
 5   0  0.9674819E-04  0.9998044E+03  0.7818609E-02  0.9308759E-01
       -2   -1    0    0    0  501  0.00000000000E+00  0.00000000000E+00  0.39488883933E+03  0.39488883934E+03  0.25500000920E-02 0. -1.
        2   -1    0    0  501    0  0.00000000000E+00  0.00000000000E+00 -0.63284189753E+03  0.63284189753E+03  0.25500000920E-02 0.  1.
    10030    2    1    2    0    0  0.00000000000E+00  0.00000000000E+00 -0.23795305820E+03  0.10277307369E+04  0.99980438567E+03 0.  0.
        4    1    3    3  502    0 -0.20420135326E+03  0.45409864468E+03 -0.16491045014E+03  0.52450056362E+03  0.12699999809E+01 0.  1.
       -4    1    3    3    0  502  0.20420135326E+03 -0.45409864468E+03 -0.73042608059E+02  0.50323017325E+03  0.12699999809E+01 0. -1.
</event>
<event>
 5   0  0.5960102E-04  0.9998969E+03  0.7818609E-02  0.9308658E-01
        1   -1    0    0  501    0  0.00000000000E+00  0.00000000000E+00  0.47855013612E+03  0.47855013615E+03  0.50400001928E-02 0. -1.
       -1   -1    0    0    0  501  0.00000000000E+00  0.00000000000E+00 -0.52230353699E+03  0.52230353701E+03  0.50400001928E-02 0.  1.
    10030    2    1    2    0    0  0.00000000000E+00  0.00000000000E+00 -0.43753400861E+02  0.10008536732E+04  0.99989685218E+03 0.  0.
        5    1    3    3  502    0  0.10826556994E+03  0.30086951394E+03 -0.40653917117E+03  0.51724277255E+03  0.46999998093E+01 0.  1.
       -5    1    3    3    0  502 -0.10826556994E+03 -0.30086951394E+03  0.36278577031E+03  0.48361090062E+03  0.46999998093E+01 0. -1.
</event>
<event>
 5   0  0.5960102E-04  0.9997776E+03  0.7818609E-02  0.9308789E-01
       -1   -1    0    0    0  501  0.00000000000E+00  0.00000000000E+00  0.29475958254E+03  0.29475958258E+03  0.50400001928E-02 0.  1.
        1   -1    0    0  501    0  0.00000000000E+00  0.00000000000E+00 -0.84777167327E+03  0.84777167328E+03  0.50400001928E-02 0. -1.
    10030    2    1    2    0    0  0.00000000000E+00  0.00000000000E+00 -0.55301209073E+03  0.11425312559E+04  0.99977762435E+03 0.  0.
        5    1    3    3  502    0 -0.27053897941E+03 -0.68926046285E+02 -0.75034818683E+03  0.80061640673E+03  0.46999998093E+01 0. -1.
       -5    1    3    3    0  502  0.27053897941E+03  0.68926046285E+02  0.19733609611E+03  0.34191484914E+03  0.46999998093E+01 0.  1.
</event>
<event>
 5   0  0.5960102E-04  0.9981463E+03  0.7818609E-02  0.9310580E-01
       -1   -1    0    0    0  501  0.00000000000E+00  0.00000000000E+00  0.13445690362E+03  0.13445690371E+03  0.50400001928E-02 0. -1.
        1   -1    0    0  501    0  0.00000000000E+00  0.00000000000E+00 -0.18524449290E+04  0.18524449290E+04  0.50400001928E-02 0.  1.
    10030    2    1    2    0    0  0.00000000000E+00  0.00000000000E+00 -0.17179880254E+04  0.19869018327E+04  0.99814630065E+03 0.  0.
        5    1    3    3  502    0  0.26327716080E+03 -0.40407792911E+03 -0.11143651645E+04  0.12142592994E+04  0.46999998093E+01 0.  1.
       -5    1    3    3    0  502 -0.26327716080E+03  0.40407792911E+03 -0.60362286087E+03  0.77264253336E+03  0.46999998093E+01 0. -1.
</event>
<event>
 5   0  0.1020150E-03  0.1000789E+04  0.7818609E-02  0.9307680E-01
       -2   -1    0    0    0  501  0.00000000000E+00  0.00000000000E+00  0.32120219578E+03  0.32120219579E+03  0.25500000920E-02 0. -1.
        2   -1    0    0  501    0  0.00000000000E+00  0.00000000000E+00 -0.77955465372E+03  0.77955465372E+03  0.25500000920E-02 0.  1.
    10030    2    1    2    0    0  0.00000000000E+00  0.00000000000E+00 -0.45835245794E+03  0.11007568495E+04  0.10007890217E+04 0.  0.
        5    1    3    3  502    0  0.33299636164E+03  0.17571749756E+03 -0.59165492976E+03  0.70131366857E+03  0.46999998093E+01 0.  1.
       -5    1    3    3    0  502 -0.33299636164E+03 -0.17571749756E+03  0.13330247181E+03  0.39944318095E+03  0.46999998093E+01 0. -1.
</event>
<event>
 5   0  0.1006749E-03  0.9998410E+03  0.7818609E-02  0.9308719E-01
       -2   -1    0    0    0  501  0.00000000000E+00  0.00000000000E+00  0.18179637898E+03  0.18179637899E+03  0.25500000920E-02 0. -1.
        2   -1    0    0  501    0  0.00000000000E+00  0.00000000000E+00 -0.13747277268E+04  0.13747277268E+04  0.25500000920E-02 0.  1.
    10030    2    1    2    0    0  0.00000000000E+00  0.00000000000E+00 -0.11929313478E+04  0.15565241058E+04  0.99984103302E+03 0.  0.
        1    1    3    3  502    0 -0.42626131561E+03  0.26019206328E+03 -0.63203045455E+03  0.80551915836E+03  0.50400001928E-02 0.  1.
       -1    1    3    3    0  502  0.42626131561E+03 -0.26019206328E+03 -0.56090089330E+03  0.75100494746E+03  0.50400001928E-02 0. -1.
</event>
<event>
 5   0  0.5888774E-04  0.9989392E+03  0.7818609E-02  0.9309709E-01
        1   -1    0    0  501    0  0.00000000000E+00  0.00000000000E+00  0.16223437218E+04  0.16223437218E+04  0.50400001928E-02 0. -1.
       -1   -1    0    0    0  501  0.00000000000E+00  0.00000000000E+00 -0.15377127388E+03  0.15377127396E+03  0.50400001928E-02 0.  1.
    10030    2    1    2    0    0  0.00000000000E+00  0.00000000000E+00  0.14685724479E+04  0.17761149957E+04  0.99893915900E+03 0.  0.
        2    1    3    3  502    0  0.43945206315E+03  0.15852230134E+03  0.10484566917E+04  0.11478278922E+04  0.25500000920E-02 0. -1.
       -2    1    3    3    0  502 -0.43945206315E+03 -0.15852230134E+03  0.42011575620E+03  0.62828710351E+03  0.25500000920E-02 0.  1.
</event>
<event>
 5   0  0.3854625E-04  0.1001612E+04  0.7818609E-02  0.9306779E-01
       -4   -1    0    0    0  501  0.00000000000E+00  0.00000000000E+00  0.57795511928E+03  0.57795651463E+03  0.12699999809E+01 0. -1.
        4   -1    0    0  501    0  0.00000000000E+00  0.00000000000E+00 -0.43395204877E+03  0.43395390715E+03  0.12699999809E+01 0.  1.
    10030    2    1    2    0    0  0.00000000000E+00  0.00000000000E+00  0.14400307051E+03  0.10119104218E+04  0.10016116100E+04 0.  0.
        2    1    3    3  502    0 -0.57893722984E+02 -0.17935916401E+03  0.54076058641E+03  0.57266343055E+03  0.25500000920E-02 0. -1.
       -2    1    3    3    0  502  0.57893722984E+02  0.17935916401E+03 -0.39675751589E+03  0.43924699122E+03  0.25500000920E-02 0.  1.
</event>
<event>
 5   0  0.1006749E-03  0.9988285E+03  0.7818609E-02  0.9309831E-01
        2   -1    0    0  501    0  0.00000000000E+00  0.00000000000E+00  0.63597561252E+03  0.63597561253E+03  0.25500000920E-02 0. -1.
       -2   -1    0    0    0  501  0.00000000000E+00  0.00000000000E+00 -0.39217637072E+03  0.39217637073E+03  0.25500000920E-02 0.  1.
    10030    2    1    2    0    0  0.00000000000E+00  0.00000000000E+00  0.24379924181E+03  0.10281519833E+04  0.99882852901E+03 0.  0.
        1    1    3    3  502    0  0.91029966195E+02 -0.37962136361E+02  0.62585100850E+03  0.63357482857E+03  0.50400001928E-02 0. -1.
       -1    1    3    3    0  502 -0.91029966195E+02  0.37962136361E+02 -0.38205176669E+03  0.39457715468E+03  0.50400001928E-02 0.  1.
</event>
<event>
 5   0  0.3854625E-04  0.9976034E+03  0.7818609E-02  0.9311177E-01
       -3   -1    0    0    0  501  0.00000000000E+00  0.00000000000E+00  0.74070616676E+03  0.74070617364E+03  0.10100000352E+00 0.  1.
        3   -1    0    0  501    0  0.00000000000E+00  0.00000000000E+00 -0.33589988930E+03  0.33589990448E+03  0.10100000352E+00 0. -1.
    10030    2    1    2    0    0  0.00000000000E+00  0.00000000000E+00  0.40480627746E+03  0.10766060781E+04  0.99760339073E+03 0.  0.
        1    1    3    3  502    0  0.18518102568E+03  0.45400279247E+03  0.10353718860E+03  0.50112922215E+03  0.50400001928E-02 0. -1.
       -1    1    3    3    0  502 -0.18518102568E+03 -0.45400279247E+03  0.30126908886E+03  0.57547685598E+03  0.50400001928E-02 0.  1.
</event>
<event>
 5   0  0.1006749E-03  0.1000192E+04  0.7818609E-02  0.9308334E-01
        2   -1    0    0  501    0  0.00000000000E+00  0.00000000000E+00  0.58332519697E+03  0.58332519698E+03  0.25500000920E-02 0. -1.
       -2   -1    0    0    0  501  0.00000000000E+00  0.00000000000E+00 -0.42874207786E+03  0.42874207787E+03  0.25500000920E-02 0.  1.
    10030    2    1    2    0    0  0.00000000000E+00  0.00000000000E+00  0.15458311911E+03  0.10120672748E+04  0.10001920956E+04 0.  0.
        1    1    3    3  502    0 -0.33212520280E+03 -0.34664511863E+03 -0.64464821739E+02  0.48438177285E+03  0.50400001928E-02 0.  1.
       -1    1    3    3    0  502  0.33212520280E+03  0.34664511863E+03  0.21904794085E+03  0.52768550200E+03  0.50400001928E-02 0. -1.
</event>
<event>
 5   0  0.9741826E-04  0.1000759E+04  0.7818609E-02  0.9307713E-01
        2   -1    0    0  501    0  0.00000000000E+00  0.00000000000E+00  0.87745753475E+03  0.87745753476E+03  0.25500000920E-02 0.  1.
       -2   -1    0    0    0  501  0.00000000000E+00  0.00000000000E+00 -0.28534679444E+03  0.28534679445E+03  0.25500000920E-02 0. -1.
    10030    2    1    2    0    0  0.00000000000E+00  0.00000000000E+00  0.59211074031E+03  0.11628043292E+04  0.10007591015E+04 0.  0.
        3    1    3    3  502    0  0.42255455854E+03 -0.16658107064E+03  0.52112342891E+02  0.45718411446E+03  0.10100000352E+00 0. -1.
       -3    1    3    3    0  502 -0.42255455854E+03  0.16658107064E+03  0.53999839742E+03  0.70562021474E+03  0.10100000352E+00 0.  1.
</event>
<event>
 5   0  0.5768102E-04  0.1001571E+04  0.7818609E-02  0.9306823E-01
       -1   -1    0    0    0  501  0.00000000000E+00  0.00000000000E+00  0.23359441362E+03  0.23359441367E+03  0.50400001928E-02 0.  1.
        1   -1    0    0  501    0  0.00000000000E+00  0.00000000000E+00 -0.10735968123E+04  0.10735968123E+04  0.50400001928E-02 0. -1.
    10030    2    1    2    0    0  0.00000000000E+00  0.00000000000E+00 -0.84000239865E+03  0.13071912260E+04  0.10015712014E+04 0.  0.
        4    1    3    3  502    0  0.31941868272E+03 -0.26165804625E+03 -0.50180046170E+02  0.41594816740E+03  0.12699999809E+01 0.  1.
       -4    1    3    3    0  502 -0.31941868272E+03  0.26165804625E+03 -0.78982235248E+03  0.89124305855E+03  0.12699999809E+01 0. -1.
</event>
<event>
 5   0  0.5768102E-04  0.9996224E+03  0.7818609E-02  0.9308959E-01
        1   -1    0    0  501    0  0.00000000000E+00  0.00000000000E+00  0.59084046272E+03  0.59084046274E+03  0.50400001928E-02 0. -1.
       -1   -1    0    0    0  501  0.00000000000E+00  0.00000000000E+00 -0.42280658667E+03  0.42280658670E+03  0.50400001928E-02 0.  1.
    10030    2    1    2    0    0  0.00000000000E+00  0.00000000000E+00  0.16803387605E+03  0.10136470494E+04  0.99962240739E+03 0.  0.
        4    1    3    3  502    0 -0.40362090735E+03 -0.21654322648E+03  0.28684528574E+03  0.54044670101E+03  0.12699999809E+01 0. -1.
       -4    1    3    3    0  502  0.40362090735E+03  0.21654322648E+03 -0.11881140969E+03  0.47320034843E+03  0.12699999809E+01 0.  1.
</event>
<event>
 5   0  0.5826939E-04  0.9976894E+03  0.7818609E-02  0.9311083E-01
        1   -1    0    0  501    0  0.00000000000E+00  0.00000000000E+00  0.80770959625E+03  0.80770959627E+03  0.50400001928E-02 0. -1.
       -1   -1    0    0    0  501  0.00000000000E+00  0.00000000000E+00 -0.30808850715E+03  0.30808850719E+03  0.50400001928E-02 0.  1.
    10030    2    1    2    0    0  0.00000000000E+00  0.00000000000E+00  0.49962108910E+03  0.11157981035E+04  0.99768941812E+03 0.  0.
        1    1    3    3  502    0 -0.43022543728E+03 -0.25242197117E+03  0.25645201392E+03  0.56087290350E+03  0.50400001928E-02 0. -1.
       -1    1    3    3    0  502  0.43022543728E+03  0.25242197117E+03  0.24316907518E+03  0.55492519997E+03  0.50400001928E-02 0.  1.
</event>
<event>
 5   0  0.1020150E-03  0.9993564E+03  0.7818609E-02  0.9309251E-01
       -2   -1    0    0    0  501  0.00000000000E+00  0.00000000000E+00  0.43446905363E+03  0.43446905364E+03  0.25500000920E-02 0. -1.
        2   -1    0    0  501    0  0.00000000000E+00  0.00000000000E+00 -0.57467454723E+03  0.57467454724E+03  0.25500000920E-02 0.  1.
    10030    2    1    2    0    0  0.00000000000E+00  0.00000000000E+00 -0.14020549361E+03  0.10091436009E+04  0.99935640627E+03 0.  0.
        5    1    3    3  502    0  0.39121109608E+03  0.21955931410E+03 -0.29226604299E+03  0.53543808605E+03  0.46999998093E+01 0.  1.
       -5    1    3    3    0  502 -0.39121109608E+03 -0.21955931410E+03  0.15206054938E+03  0.47370551483E+03  0.46999998093E+01 0. -1.
</event>
<event>
 5   0  0.5826939E-04  0.1000842E+04  0.7818609E-02  0.9307622E-01
        1   -1    0    0  501    0  0.00000000000E+00  0.00000000000E+00  0.67484127264E+03  0.67484127266E+03  0.50400001928E-02 0. -1.
       -1   -1    0    0    0  501  0.00000000000E+00  0.00000000000E+00 -0.37108177649E+03  0.37108177652E+03  0.50400001928E-02 0.  1.
    10030    2    1    2    0    0  0.00000000000E+00  0.00000000000E+00  0.30375949615E+03  0.10459230492E+04  0.10008422420E+04 0.  0.
        1    1    3    3  502    0  0.19108315850E+03 -0.29326122874E+03  0.52562889035E+03  0.63150665249E+03  0.50400001928E-02 0. -1.
       -1    1    3    3    0  502 -0.19108315850E+03  0.29326122874E+03 -0.22186939419E+03  0.41441639669E+03  0.50400001928E-02 0.  1.
</event>
<event>
 5   0  0.3854625E-04  0.1000604E+04  0.7818609E-02  0.9307883E-01
       -3   -1    0    0    0  501  0.00000000000E+00  0.00000000000E+00  0.33014344772E+03  0.33014346317E+03  0.10100000352E+00 0. -1.
        3   -1    0    0  501    0  0.00000000000E+00  0.00000000000E+00 -0.75816113086E+03  0.75816113759E+03  0.10100000352E+00 0.  1.
    10030    2    1    2    0    0  0.00000000000E+00  0.00000000000E+00 -0.42801768313E+03  0.10883046008E+04  0.10006037013E+04 0.  0.
        1    1    3    3  502    0  0.69649850538E+02 -0.21331857310E+03  0.27233648723E+03  0.35287827591E+03  0.50400001928E-02 0. -1.
       -1    1    3    3    0  502 -0.69649850538E+02  0.21331857310E+03 -0.70035417036E+03  0.73542632485E+03  0.50400001928E-02 0.  1.
</event>
<event>
 5   0  0.1020150E-03  0.1003513E+04  0.7818609E-02  0.9304700E-01
        2   -1    0    0  501    0  0.00000000000E+00  0.00000000000E+00  0.57137391320E+03  0.57137391321E+03  0.25500000920E-02 0. -1.
       -2   -1    0    0    0  501  0.00000000000E+00  0.00000000000E+00 -0.44062133695E+03  0.44062133696E+03  0.25500000920E-02 0.  1.
    10030    2    1    2    0    0  0.00000000000E+00  0.00000000000E+00  0.13075257625E+03  0.10119952502E+04  0.10035129048E+04 0.  0.
        5    1    3    3  502    0 -0.46038245615E+03  0.33627959316E+01 -0.13574399624E+03  0.48001232988E+03  0.46999998093E+01 0. -1.
       -5    1    3    3    0  502  0.46038245615E+03 -0.33627959316E+01  0.26649657249E+03  0.53198292028E+03  0.46999998093E+01 0.  1.
</event>
<event>
 5   0  0.1006749E-03  0.9978230E+03  0.7818609E-02  0.9310936E-01
        2   -1    0    0  501    0  0.00000000000E+00  0.00000000000E+00  0.15957926699E+03  0.15957926701E+03  0.25500000920E-02 0. -1.
       -2   -1    0    0    0  501  0.00000000000E+00  0.00000000000E+00 -0.15598060450E+04  0.15598060450E+04  0.25500000920E-02 0.  1.
    10030    2    1    2    0    0  0.00000000000E+00  0.00000000000E+00 -0.14002267780E+04  0.17193853120E+04  0.99782304107E+03 0.  0.
        1    1    3    3  502    0 -0.48860601076E+03  0.59157970140E+01 -0.52658169402E+03  0.71837254325E+03  0.50400001928E-02 0. -1.
       -1    1    3    3    0  502  0.48860601076E+03 -0.59157970140E+01 -0.87364508395E+03  0.10010127687E+04  0.50400001928E-02 0.  1.
</event>
<event>
 5   0  0.9674819E-04  0.1000363E+04  0.7818609E-02  0.9308146E-01
       -2   -1    0    0    0  501  0.00000000000E+00  0.00000000000E+00  0.17834646438E+03  0.17834646440E+03  0.25500000920E-02 0. -1.
        2   -1    0    0  501    0  0.00000000000E+00  0.00000000000E+00 -0.14027848278E+04  0.14027848278E+04  0.25500000920E-02 0.  1.
    10030    2    1    2    0    0  0.00000000000E+00  0.00000000000E+00 -0.12244383634E+04  0.15811312922E+04  0.10003633627E+04 0.  0.
        4    1    3    3  502    0  0.27758819563E+03  0.37920233209E+03 -0.34153069208E+03  0.58094271796E+03  0.12699999809E+01 0. -1.
       -4    1    3    3    0  502 -0.27758819563E+03 -0.37920233209E+03 -0.88290767131E+03  0.10001885742E+04  0.12699999809E+01 0.  1.
</event>
<event>
 5   0  0.1020150E-03  0.9992959E+03  0.7818609E-02  0.9309317E-01
        2   -1    0    0  501    0  0.00000000000E+00  0.00000000000E+00  0.43158091057E+03  0.43158091058E+03  0.25500000920E-02 0.  1.
       -2   -1    0    0    0  501  0.00000000000E+00  0.00000000000E+00 -0.57845022611E+03  0.57845022611E+03  0.25500000920E-02 0. -1.
    10030    2    1    2    0    0  0.00000000000E+00  0.00000000000E+00 -0.14686931554E+03  0.10100311367E+04  0.99929590274E+03 0.  0.
        5    1    3    3  502    0  0.46078496224E+03  0.17516697502E+03  0.88011474309E+01  0.49305760390E+03  0.46999998093E+01 0.  1.
       -5    1    3    3    0  502 -0.46078496224E+03 -0.17516697502E+03 -0.15567046297E+03  0.51697353279E+03  0.46999998093E+01 0. -1.
</event>
<event>
 5   0  0.5768102E-04  0.1000850E+04  0.7818609E-02  0.9307613E-01
        1   -1    0    0  501    0  0.00000000000E+00  0.00000000000E+00  0.20039184594E+03  0.20039184600E+03  0.50400001928E-02 0. -1.
       -1   -1    0    0    0  501  0.00000000000E+00  0.00000000000E+00 -0.12496771631E+04  0.12496771631E+04  0.50400001928E-02 0.  1.
    10030    2    1    2    0    0  0.00000000000E+00  0.00000000000E+00 -0.10492853171E+04  0.14500690091E+04  0.10008498660E+04 0.  0.
        4    1    3    3  502    0 -0.34101029571E+03  0.24904936349E+03 -0.13558213899E+03  0.44350618547E+03  0.12699999809E+01 0. -1.
       -4    1    3    3    0  502  0.34101029571E+03 -0.24904936349E+03 -0.91370317813E+03  0.10065628236E+04  0.12699999809E+01 0.  1.
</event>
<event>
 5   0  0.1006749E-03  0.1000226E+04  0.7818609E-02  0.9308297E-01
       -2   -1    0    0    0  501  0.00000000000E+00  0.00000000000E+00  0.55457007381E+03  0.55457007381E+03  0.25500000920E-02 0. -1.
        2   -1    0    0  501    0  0.00000000000E+00  0.00000000000E+00 -0.45100338076E+03  0.45100338077E+03  0.25500000920E-02 0.  1.
    10030    2    1    2    0    0  0.00000000000E+00  0.00000000000E+00  0.10356669305E+03  0.10055734546E+04  0.10002259308E+04 0.  0.
        1    1    3    3  502    0  0.43550561191E+03  0.11166689888E+03  0.27199399558E+03  0.52546680958E+03  0.50400001928E-02 0. -1.
       -1    1    3    3    0  502 -0.43550561191E+03 -0.11166689888E+03 -0.16842730253E+03  0.48010664500E+03  0.50400001928E-02 0.  1.
</event>
<event>
 5   0  0.5768102E-04  0.9996693E+03  0.7818609E-02  0.9308908E-01
        1   -1    0    0  501    0  0.00000000000E+00  0.00000000000E+00  0.10167330959E+04  0.10167330959E+04  0.50400001928E-02 0. -1.
       -1   -1    0    0    0  501  0.00000000000E+00  0.00000000000E+00 -0.24572296625E+03  0.24572296630E+03  0.50400001928E-02 0.  1.
    10030    2    1    2    0    0  0.00000000000E+00  0.00000000000E+00  0.77101012966E+03  0.12624560622E+04  0.99966928981E+03 0.  0.
        4    1    3    3  502    0  0.29914942979E+03  0.12643562461E+03  0.86532513569E+03  0.92426487106E+03  0.12699999809E+01 0. -1.
       -4    1    3    3    0  502 -0.29914942979E+03 -0.12643562461E+03 -0.94315006030E+02  0.33819119116E+03  0.12699999809E+01 0.  1.
</event>
<event>
 5   0  0.5888774E-04  0.9998045E+03  0.7818609E-02  0.9308759E-01
       -1   -1    0    0    0  501  0.00000000000E+00  0.00000000000E+00  0.33519329170E+03  0.33519329174E+03  0.50400001928E-02 0.  1.
        1   -1    0    0  501    0  0.00000000000E+00  0.00000000000E+00 -0.74554665568E+03  0.74554665570E+03  0.50400001928E-02 0. -1.
    10030    2    1    2    0    0  0.00000000000E+00  0.00000000000E+00 -0.41035336398E+03  0.10807399474E+04  0.99980445621E+03 0.  0.
        2    1    3    3  502    0 -0.43768864801E+03 -0.18826461875E+03 -0.36870899975E+03  0.60246265094E+03  0.25500000920E-02 0. -1.
       -2    1    3    3    0  502  0.43768864801E+03  0.18826461875E+03 -0.41644364232E+02  0.47827729650E+03  0.25500000920E-02 0.  1.
</event>
<event>
 5   0  0.3854625E-04  0.1003940E+04  0.7818609E-02  0.9304234E-01
       -4   -1    0    0    0  501  0.00000000000E+00  0.00000000000E+00  0.21892268640E+03  0.21892637008E+03  0.12699999809E+01 0. -1.
        4   -1    0    0  501    0  0.00000000000E+00  0.00000000000E+00 -0.11509576846E+04  0.11509583853E+04  0.12699999809E+01 0.  1.
    10030    2    1    2    0    0  0.00000000000E+00  0.00000000000E+00 -0.93203499824E+03  0.13698847554E+04  0.10039397418E+04 0.  0.
        3    1    3    3  502    0 -0.39161713680E+03 -0.40003950448E+02 -0.89101207978E+03  0.97409795934E+03  0.10100000352E+00 0.  1.
       -3    1    3    3    0  502  0.39161713680E+03  0.40003950448E+02 -0.41022918461E+02  0.39578679605E+03  0.10100000352E+00 0. -1.
</event>
<event>
 5   0  0.5826939E-04  0.9825008E+03  0.7818609E-02  0.9327949E-01
       -1   -1    0    0    0  501  0.00000000000E+00  0.00000000000E+00  0.58828577156E+03  0.58828577158E+03  0.50400001928E-02 0.  1.
        1   -1    0    0  501    0  0.00000000000E+00  0.00000000000E+00 -0.41022064696E+03  0.41022064699E+03  0.50400001928E-02 0. -1.
    10030    2    1    2    0    0  0.00000000000E+00  0.00000000000E+00  0.17806512460E+03  0.99850641857E+03  0.98250082917E+03 0.  0.
        1    1    3    3  502    0  0.38736162308E+02  0.89378543617E+02 -0.40030685949E+03  0.41198858735E+03  0.50400001928E-02 0. -1.
       -1    1    3    3    0  502 -0.38736162308E+02 -0.89378543617E+02  0.57837198409E+03  0.58651783122E+03  0.50400001928E-02 0.  1.
</event>
<event>
 5   0  0.5768102E-04  0.1000508E+04  0.7818609E-02  0.9307987E-01
       -1   -1    0    0    0  501  0.00000000000E+00  0.00000000000E+00  0.24138116813E+03  0.24138116818E+03  0.50400001928E-02 0.  1.
        1   -1    0    0  501    0  0.00000000000E+00  0.00000000000E+00 -0.10367596379E+04  0.10367596379E+04  0.50400001928E-02 0. -1.
    10030    2    1    2    0    0  0.00000000000E+00  0.00000000000E+00 -0.79537846975E+03  0.12781408061E+04  0.10005083758E+04 0.  0.
        4    1    3    3  502    0  0.27642913238E+01 -0.38343693381E+03 -0.80812221122E+03  0.89448009742E+03  0.12699999809E+01 0. -1.
       -4    1    3    3    0  502 -0.27642913238E+01  0.38343693381E+03  0.12743741467E+02  0.38366070865E+03  0.12699999809E+01 0.  1.
</event>
<event>
 5   0  0.9674819E-04  0.1000626E+04  0.7818609E-02  0.9307859E-01
        2   -1    0    0  501    0  0.00000000000E+00  0.00000000000E+00  0.17008046732E+04  0.17008046732E+04  0.25500000920E-02 0. -1.
       -2   -1    0    0    0  501  0.00000000000E+00  0.00000000000E+00 -0.14717328966E+03  0.14717328968E+03  0.25500000920E-02 0.  1.
    10030    2    1    2    0    0  0.00000000000E+00  0.00000000000E+00  0.15536313835E+04  0.18479779629E+04  0.10006258418E+04 0.  0.
        4    1    3    3  502    0  0.30560283262E+03 -0.72218713649E+02  0.57496195244E+02  0.31924294710E+03  0.12699999809E+01 0.  1.
       -4    1    3    3    0  502 -0.30560283262E+03  0.72218713649E+02  0.14961351883E+04  0.15287350158E+04  0.12699999809E+01 0. -1.
</event>
<event>
 5   0  0.9674819E-04  0.9993247E+03  0.7818609E-02  0.9309286E-01
        2   -1    0    0  501    0  0.00000000000E+00  0.00000000000E+00  0.12347499083E+04  0.12347499083E+04  0.25500000920E-02 0.  1.
       -2   -1    0    0    0  501  0.00000000000E+00  0.00000000000E+00 -0.20219679863E+03  0.20219679865E+03  0.25500000920E-02 0. -1.
    10030    2    1    2    0    0  0.00000000000E+00  0.00000000000E+00  0.10325531096E+04  0.14369467069E+04  0.99932472915E+03 0.  0.
        4    1    3    3  502    0  0.16967604467E+03 -0.23763876511E+03 -0.66743167935E+02  0.29953030929E+03  0.12699999809E+01 0. -1.
       -4    1    3    3    0  502 -0.16967604467E+03  0.23763876511E+03  0.10992962776E+04  0.11374163976E+04  0.12699999809E+01 0.  1.
</event>
<event>
 5   0  0.5960102E-04  0.1001829E+04  0.7818609E-02  0.9306541E-01
       -1   -1    0    0    0  501  0.00000000000E+00  0.00000000000E+00  0.11460577863E+03  0.11460577874E+03  0.50400001928E-02 0. -1.
        1   -1    0    0  501    0  0.00000000000E+00  0.00000000000E+00 -0.21893795761E+04  0.21893795762E+04  0.50400001928E-02 0.  1.
    10030    2    1    2    0    0  0.00000000000E+00  0.00000000000E+00 -0.20747737975E+04  0.23039853549E+04  0.10018294289E+04 0.  0.
        5    1    3    3  502    0 -0.16597752842E+03  0.24326434390E+03 -0.19692011817E+04  0.19911055886E+04  0.46999998093E+01 0.  1.
       -5    1    3    3    0  502  0.16597752842E+03 -0.24326434390E+03 -0.10557261585E+03  0.31287976631E+03  0.46999998093E+01 0. -1.
</event>
<event>
 5   0  0.1006006E-03  0.1000154E+04  0.7818609E-02  0.9308376E-01
        2   -1    0    0  501    0  0.00000000000E+00  0.00000000000E+00  0.19943391233E+04  0.19943391233E+04  0.25500000920E-02 0. -1.
       -2   -1    0    0    0  501  0.00000000000E+00  0.00000000000E+00 -0.12539346072E+03  0.12539346074E+03  0.25500000920E-02 0.  1.
    10030    2    1    2    0    0  0.00000000000E+00  0.00000000000E+00  0.18689456626E+04  0.21197325840E+04  0.10001541572E+04 0.  0.
        2    1    3    3  502    0  0.29050634191E+03  0.17378299090E+03  0.17145829797E+04  0.17476811084E+04  0.25500000920E-02 0. -1.
       -2    1    3    3    0  502 -0.29050634191E+03 -0.17378299090E+03  0.15436268290E+03  0.37205147560E+03  0.25500000920E-02 0.  1.
</event>
<event>
 5   0  0.5960102E-04  0.9997749E+03  0.7818609E-02  0.9308792E-01
        1   -1    0    0  501    0  0.00000000000E+00  0.00000000000E+00  0.25320735038E+03  0.25320735043E+03  0.50400001928E-02 0. -1.
       -1   -1    0    0    0  501  0.00000000000E+00  0.00000000000E+00 -0.98688874560E+03  0.98688874561E+03  0.50400001928E-02 0.  1.
    10030    2    1    2    0    0  0.00000000000E+00  0.00000000000E+00 -0.73368139522E+03  0.12400960960E+04  0.99977494354E+03 0.  0.
        5    1    3    3  502    0 -0.17906194518E+03 -0.27347653759E+03  0.10223241875E+03  0.34252905609E+03  0.46999998093E+01 0. -1.
       -5    1    3    3    0  502  0.17906194518E+03  0.27347653759E+03 -0.83591381397E+03  0.89756703995E+03  0.46999998093E+01 0.  1.
</event>
<event>
 5   0  0.1006749E-03  0.9992555E+03  0.7818609E-02  0.9309362E-01
       -2   -1    0    0    0  501  0.00000000000E+00  0.00000000000E+00  0.95368122921E+03  0.95368122922E+03  0.25500000920E-02 0. -1.
        2   -1    0    0  501    0  0.00000000000E+00  0.00000000000E+00 -0.26175190138E+03  0.26175190139E+03  0.25500000920E-02 0.  1.
    10030    2    1    2    0    0  0.00000000000E+00  0.00000000000E+00  0.69192932783E+03  0.12154331306E+04  0.99925547297E+03 0.  0.
        1    1    3    3  502    0  0.23364713731E+03 -0.41838601430E+03  0.17399125759E+03  0.50981447555E+03  0.50400001928E-02 0. -1.
       -1    1    3    3    0  502 -0.23364713731E+03  0.41838601430E+03  0.51793807024E+03  0.70561865506E+03  0.50400001928E-02 0.  1.
</event>
<event>
 5   0  0.9674819E-04  0.9994602E+03  0.7818609E-02  0.9309137E-01
        2   -1    0    0  501    0  0.00000000000E+00  0.00000000000E+00  0.38978595277E+03  0.38978595278E+03  0.25500000920E-02 0. -1.
       -2   -1    0    0    0  501  0.00000000000E+00  0.00000000000E+00 -0.64068542909E+03  0.64068542910E+03  0.25500000920E-02 0.  1.
    10030    2    1    2    0    0  0.00000000000E+00  0.00000000000E+00 -0.25089947632E+03  0.10304713819E+04  0.99946021514E+03 0.  0.
        4    1    3    3  502    0  0.25971251109E+03  0.27786906905E+03 -0.45964715831E+03  0.59660617747E+03  0.12699999809E+01 0.  1.
       -4    1    3    3    0  502 -0.25971251109E+03 -0.27786906905E+03  0.20874768199E+03  0.43386520440E+03  0.12699999809E+01 0. -1.
</event>
<event>
 5   0  0.5758786E-04  0.1015816E+04  0.7818609E-02  0.9291366E-01
        1   -1    0    0  501    0  0.00000000000E+00  0.00000000000E+00  0.45964805198E+03  0.45964805200E+03  0.50400001928E-02 0. -1.
       -1   -1    0    0    0  501  0.00000000000E+00  0.00000000000E+00 -0.56123495268E+03  0.56123495271E+03  0.50400001928E-02 0.  1.
    10030    2    1    2    0    0  0.00000000000E+00  0.00000000000E+00 -0.10158690071E+03  0.10208830047E+04  0.10158160320E+04 0.  0.
        3    1    3    3  502    0  0.19542085950E+02  0.50655754456E+03 -0.82384359102E+02  0.51358507757E+03  0.10100000352E+00 0.  1.
       -3    1    3    3    0  502 -0.19542085950E+02 -0.50655754456E+03 -0.19202541605E+02  0.50729792714E+03  0.10100000352E+00 0. -1.
</event>
<event>
 5   0  0.9674819E-04  0.9979023E+03  0.7818609E-02  0.9310849E-01
        2   -1    0    0  501    0  0.00000000000E+00  0.00000000000E+00  0.13017209410E+04  0.13017209410E+04  0.25500000920E-02 0.  1.
       -2   -1    0    0    0  501  0.00000000000E+00  0.00000000000E+00 -0.19124854945E+03  0.19124854947E+03  0.25500000920E-02 0. -1.
    10030    2    1    2    0    0  0.00000000000E+00  0.00000000000E+00  0.11104723915E+04  0.14929694904E+04  0.99790228332E+03 0.  0.
        4    1    3    3  502    0  0.25024510276E+03 -0.23596222301E+03  0.10960121455E+04  0.11487145068E+04  0.12699999809E+01 0.  1.
       -4    1    3    3    0  502 -0.25024510276E+03  0.23596222301E+03  0.14460246005E+02  0.34425498363E+03  0.12699999809E+01 0. -1.
</event>
<event>
 5   0  0.1020150E-03  0.1000463E+04  0.7818609E-02  0.9308037E-01
       -2   -1    0    0    0  501  0.00000000000E+00  0.00000000000E+00  0.21402449039E+03  0.21402449041E+03  0.25500000920E-02 0. -1.
        2   -1    0    0  501    0  0.00000000000E+00  0.00000000000E+00 -0.11691718872E+04  0.11691718872E+04  0.25500000920E-02 0.  1.
    10030    2    1    2    0    0  0.00000000000E+00  0.00000000000E+00 -0.95514739678E+03  0.13831963776E+04  0.10004627276E+04 0.  0.
        5    1    3    3  502    0 -0.16990743748E+03  0.33460837303E+03 -0.93481765210E+03  0.10073417659E+04  0.46999998093E+01 0.  1.
       -5    1    3    3    0  502  0.16990743748E+03 -0.33460837303E+03 -0.20329744681E+02  0.37585461170E+03  0.46999998093E+01 0. -1.
</event>
<event>
 5   0  0.1006749E-03  0.1000183E+04  0.7818609E-02  0.9308344E-01
       -2   -1    0    0    0  501  0.00000000000E+00  0.00000000000E+00  0.18234196132E+03  0.18234196134E+03  0.25500000920E-02 0. -1.
        2   -1    0    0  501    0  0.00000000000E+00  0.00000000000E+00 -0.13715516579E+04  0.13715516579E+04  0.25500000920E-02 0.  1.
    10030    2    1    2    0    0  0.00000000000E+00  0.00000000000E+00 -0.11892096966E+04  0.15538936192E+04  0.10001828220E+04 0.  0.
        1    1    3    3  502    0  0.22877127959E+03 -0.31215224078E+03 -0.10866752139E+04  0.11535329819E+04  0.50400001928E-02 0.  1.
       -1    1    3    3    0  502 -0.22877127959E+03  0.31215224078E+03 -0.10253448271E+03  0.40036063738E+03  0.50400001928E-02 0. -1.
</event>
<event>
 5   0  0.5768102E-04  0.9969021E+03  0.7818609E-02  0.9311949E-01
       -1   -1    0    0    0  501  0.00000000000E+00  0.00000000000E+00  0.19695074548E+03  0.19695074554E+03  0.50400001928E-02 0. -1.
        1   -1    0    0  501    0  0.00000000000E+00  0.00000000000E+00 -0.12615005416E+04  0.12615005416E+04  0.50400001928E-02 0.  1.
    10030    2    1    2    0    0  0.00000000000E+00  0.00000000000E+00 -0.10645497961E+04  0.14584512871E+04  0.99690214593E+03 0.  0.
        4    1    3    3  502    0  0.41943319257E+03  0.26651014846E+03 -0.47561385182E+03  0.68786772798E+03  0.12699999809E+01 0.  1.
       -4    1    3    3    0  502 -0.41943319257E+03 -0.26651014846E+03 -0.58893594428E+03  0.77058355914E+03  0.12699999809E+01 0. -1.
</event>
<event>
 5   0  0.1006749E-03  0.1000051E+04  0.7818609E-02  0.9308488E-01
        2   -1    0    0  501    0  0.00000000000E+00  0.00000000000E+00  0.13395838775E+04  0.13395838775E+04  0.25500000920E-02 0.  1.
       -2   -1    0    0    0  501  0.00000000000E+00  0.00000000000E+00 -0.18664432706E+03  0.18664432707E+03  0.25500000920E-02 0. -1.
    10030    2    1    2    0    0  0.00000000000E+00  0.00000000000E+00  0.11529395504E+04  0.15262282046E+04  0.10000514614E+04 0.  0.
        1    1    3    3  502    0 -0.13086883818E+02  0.42335611661E+03  0.17089262747E+03  0.45673401247E+03  0.50400001928E-02 0. -1.
       -1    1    3    3    0  502  0.13086883818E+02 -0.42335611661E+03  0.98204692297E+03  0.10694941921E+04  0.50400001928E-02 0.  1.
</event>
<event>
 5   0  0.5888774E-04  0.9999150E+03  0.7818609E-02  0.9308638E-01
        1   -1    0    0  501    0  0.00000000000E+00  0.00000000000E+00  0.99384629696E+03  0.99384629698E+03  0.50400001928E-02 0.  1.
       -1   -1    0    0    0  501  0.00000000000E+00  0.00000000000E+00 -0.25150517291E+03  0.25150517296E+03  0.50400001928E-02 0. -1.
    10030    2    1    2    0    0  0.00000000000E+00  0.00000000000E+00  0.74234112405E+03  0.12453514699E+04  0.99991496599E+03 0.  0.
        2    1    3    3  502    0 -0.24817218888E+03 -0.42971242837E+03  0.44708502926E+03  0.66792756331E+03  0.25500000920E-02 0. -1.
       -2    1    3    3    0  502  0.24817218888E+03  0.42971242837E+03  0.29525609479E+03  0.57742390663E+03  0.25500000920E-02 0.  1.
</event>
<event>
 5   0  0.9741826E-04  0.1001072E+04  0.7818609E-02  0.9307369E-01
       -2   -1    0    0    0  501  0.00000000000E+00  0.00000000000E+00  0.34093936967E+03  0.34093936968E+03  0.25500000920E-02 0.  1.
        2   -1    0    0  501    0  0.00000000000E+00  0.00000000000E+00 -0.73484185870E+03  0.73484185871E+03  0.25500000920E-02 0. -1.
    10030    2    1    2    0    0  0.00000000000E+00  0.00000000000E+00 -0.39390248903E+03  0.10757812284E+04  0.10010724651E+04 0.  0.
        3    1    3    3  502    0  0.38052875956E+02 -0.16267919839E+03  0.31009130360E+03  0.35223453796E+03  0.10100000352E+00 0.  1.
       -3    1    3    3    0  502 -0.38052875956E+02  0.16267919839E+03 -0.70399379264E+03  0.72354669043E+03  0.10100000352E+00 0. -1.
</event>
<event>
 5   0  0.5768102E-04  0.1007331E+04  0.7818609E-02  0.9300541E-01
       -1   -1    0    0    0  501  0.00000000000E+00  0.00000000000E+00  0.40998349155E+03  0.40998349158E+03  0.50400001928E-02 0.  1.
        1   -1    0    0  501    0  0.00000000000E+00  0.00000000000E+00 -0.61875404354E+03  0.61875404356E+03  0.50400001928E-02 0. -1.
    10030    2    1    2    0    0  0.00000000000E+00  0.00000000000E+00 -0.20877055200E+03  0.10287375351E+04  0.10073310145E+04 0.  0.
        4    1    3    3  502    0  0.16540242199E+03  0.37230552441E+03  0.19806354736E+03  0.45299022771E+03  0.12699999809E+01 0.  1.
       -4    1    3    3    0  502 -0.16540242199E+03 -0.37230552441E+03 -0.40683409936E+03  0.57574730743E+03  0.12699999809E+01 0. -1.
</event>
<event>
 5   0  0.5768102E-04  0.9981629E+03  0.7818609E-02  0.9310562E-01
        1   -1    0    0  501    0  0.00000000000E+00  0.00000000000E+00  0.58388590520E+03  0.58388590523E+03  0.50400001928E-02 0. -1.
       -1   -1    0    0    0  501  0.00000000000E+00  0.00000000000E+00 -0.42659415922E+03  0.42659415925E+03  0.50400001928E-02 0.  1.
    10030    2    1    2    0    0  0.00000000000E+00  0.00000000000E+00  0.15729174598E+03  0.10104800645E+04  0.99816294629E+03 0.  0.
        4    1    3    3  502    0 -0.25215852320E+02  0.44717603711E+03 -0.14424931776E+03  0.47054407439E+03  0.12699999809E+01 0.  1.
       -4    1    3    3    0  502  0.25215852320E+02 -0.44717603711E+03  0.30154106374E+03  0.53993599009E+03  0.12699999809E+01 0. -1.
</event>
<event>
 5   0  0.1006749E-03  0.9991721E+03  0.7818609E-02  0.9309453E-01
        2   -1    0    0  501    0  0.00000000000E+00  0.00000000000E+00  0.16396163724E+03  0.16396163726E+03  0.25500000920E-02 0. -1.
       -2   -1    0    0    0  501  0.00000000000E+00  0.00000000000E+00 -0.15222233415E+04  0.15222233415E+04  0.25500000920E-02 0.  1.
    10030    2    1    2    0    0  0.00000000000E+00  0.00000000000E+00 -0.13582617043E+04  0.16861849788E+04  0.99917211999E+03 0.  0.
        1    1    3    3  502    0  0.39633033876E+03 -0.22432682219E+03 -0.33251459185E+03  0.56388493010E+03  0.50400001928E-02 0. -1.
       -1    1    3    3    0  502 -0.39633033876E+03  0.22432682219E+03 -0.10257471125E+04  0.11223000487E+04  0.50400001928E-02 0.  1.
</event>
<event>
 5   0  0.9674819E-04  0.9948994E+03  0.7818609E-02  0.9314157E-01
        2   -1    0    0  501    0  0.00000000000E+00  0.00000000000E+00  0.94399063699E+03  0.94399063699E+03  0.25500000920E-02 0.  1.
       -2   -1    0    0    0  501  0.00000000000E+00  0.00000000000E+00 -0.26213843283E+03  0.26213843284E+03  0.25500000920E-02 0. -1.
    10030    2    1    2    0    0  0.00000000000E+00  0.00000000000E+00  0.68185220416E+03  0.12061290698E+04  0.99489944455E+03 0.  0.
        4    1    3    3  502    0 -0.15799566641E+03 -0.32156429424E+02  0.91143212140E+03  0.92558456738E+03  0.12699999809E+01 0.  1.
       -4    1    3    3    0  502  0.15799566641E+03  0.32156429424E+02 -0.22957991723E+03  0.28054450245E+03  0.12699999809E+01 0. -1.
</event>
<event>
 5   0  0.5960102E-04  0.1003140E+04  0.7818609E-02  0.9305107E-01
        1   -1    0    0  501    0  0.00000000000E+00  0.00000000000E+00  0.52658943250E+03  0.52658943253E+03  0.50400001928E-02 0. -1.
       -1   -1    0    0    0  501  0.00000000000E+00  0.00000000000E+00 -0.47773970951E+03  0.47773970953E+03  0.50400001928E-02 0.  1.
    10030    2    1    2    0    0  0.00000000000E+00  0.00000000000E+00  0.48849722995E+02  0.10043291421E+04  0.10031404339E+04 0.  0.
        5    1    3    3  502    0 -0.15298775216E+03  0.44840788024E+03  0.18916684131E+03  0.51017748208E+03  0.46999998093E+01 0. -1.
       -5    1    3    3    0  502  0.15298775216E+03 -0.44840788024E+03 -0.14031711832E+03  0.49415165998E+03  0.46999998093E+01 0.  1.
</event>
<event>
 5   0  0.1006749E-03  0.1000017E+04  0.7818609E-02  0.9308526E-01
        2   -1    0    0  501    0  0.00000000000E+00  0.00000000000E+00  0.67213198572E+03  0.67213198572E+03  0.25500000920E-02 0.  1.
       -2   -1    0    0    0  501  0.00000000000E+00  0.00000000000E+00 -0.37196368682E+03  0.37196368683E+03  0.25500000920E-02 0. -1.
    10030    2    1    2    0    0  0.00000000000E+00  0.00000000000E+00  0.30016829890E+03  0.10440956725E+04  0.10000173827E+04 0.  0.
        1    1    3    3  502    0  0.24874177450E+03  0.43334959360E+03  0.13070952592E+03  0.51647780286E+03  0.50400001928E-02 0.  1.
       -1    1    3    3    0  502 -0.24874177450E+03 -0.43334959360E+03  0.16945877298E+03  0.52761786969E+03  0.50400001928E-02 0. -1.
</event>
<event>
 5   0  0.9741826E-04  0.1002634E+04  0.7818609E-02  0.9305660E-01
        2   -1    0    0  501    0  0.00000000000E+00  0.00000000000E+00  0.14448052765E+04  0.14448052765E+04  0.25500000920E-02 0.  1.
       -2   -1    0    0    0  501  0.00000000000E+00  0.00000000000E+00 -0.17394648673E+03  0.17394648675E+03  0.25500000920E-02 0. -1.
    10030    2    1    2    0    0  0.00000000000E+00  0.00000000000E+00  0.12708587898E+04  0.16187517633E+04  0.10026341344E+04 0.  0.
        3    1    3    3  502    0 -0.48379297228E+03  0.10797642276E+03  0.51456558568E+03  0.71448743871E+03  0.10100000352E+00 0. -1.
       -3    1    3    3    0  502  0.48379297228E+03 -0.10797642276E+03  0.75629320413E+03  0.90426432459E+03  0.10100000352E+00 0.  1.
</event>
<event>
 5   0  0.5826939E-04  0.1002508E+04  0.7818609E-02  0.9305798E-01
       -1   -1    0    0    0  501  0.00000000000E+00  0.00000000000E+00  0.40877317817E+03  0.40877317821E+03  0.50400001928E-02 0.  1.
        1   -1    0    0  501    0  0.00000000000E+00  0.00000000000E+00 -0.61465790774E+03  0.61465790776E+03  0.50400001928E-02 0. -1.
    10030    2    1    2    0    0  0.00000000000E+00  0.00000000000E+00 -0.20588472956E+03  0.10234310860E+04  0.10025081874E+04 0.  0.
        1    1    3    3  502    0 -0.26069848619E+03 -0.10895983316E+03  0.31972728828E+03  0.42668663541E+03  0.50400001928E-02 0.  1.
       -1    1    3    3    0  502  0.26069848619E+03  0.10895983316E+03 -0.52561201784E+03  0.59674445055E+03  0.50400001928E-02 0. -1.
</event>
<event>
 5   0  0.5768102E-04  0.1000172E+04  0.7818609E-02  0.9308356E-01
        1   -1    0    0  501    0  0.00000000000E+00  0.00000000000E+00  0.13197767204E+04  0.13197767204E+04  0.50400001928E-02 0.  1.
       -1   -1    0    0    0  501  0.00000000000E+00  0.00000000000E+00 -0.18949116549E+03  0.18949116555E+03  0.50400001928E-02 0. -1.
    10030    2    1    2    0    0  0.00000000000E+00  0.00000000000E+00  0.11302855549E+04  0.15092678859E+04  0.10001720432E+04 0.  0.
        4    1    3    3  502    0 -0.25166521603E+03 -0.30814863831E+03  0.10795198955E+03  0.41224532648E+03  0.12699999809E+01 0. -1.
       -4    1    3    3    0  502  0.25166521603E+03  0.30814863831E+03  0.10223335653E+04  0.10970225595E+04  0.12699999809E+01 0.  1.
</event>
<event>
 5   0  0.5758786E-04  0.1003378E+04  0.7818609E-02  0.9304847E-01
        1   -1    0    0  501    0  0.00000000000E+00  0.00000000000E+00  0.71009970908E+03  0.71009970909E+03  0.50400001928E-02 0. -1.
       -1   -1    0    0    0  501  0.00000000000E+00  0.00000000000E+00 -0.35444587336E+03  0.35444587339E+03  0.50400001928E-02 0.  1.
    10030    2    1    2    0    0  0.00000000000E+00  0.00000000000E+00  0.35565383572E+03  0.10645455825E+04  0.10033781173E+04 0.  0.
        3    1    3    3  502    0  0.32404478658E+03 -0.18640772926E+03 -0.17714207502E+03  0.41368126641E+03  0.10100000352E+00 0.  1.
       -3    1    3    3    0  502 -0.32404478658E+03  0.18640772926E+03  0.53279591074E+03  0.65086431607E+03  0.10100000352E+00 0. -1.
</event>
<event>
 5   0  0.5960102E-04  0.9983416E+03  0.7818609E-02  0.9310366E-01
       -1   -1    0    0    0  501  0.00000000000E+00  0.00000000000E+00  0.16207750779E+03  0.16207750787E+03  0.50400001928E-02 0.  1.
        1   -1    0    0  501    0  0.00000000000E+00  0.00000000000E+00 -0.15373601908E+04  0.15373601909E+04  0.50400001928E-02 0. -1.
    10030    2    1    2    0    0  0.00000000000E+00  0.00000000000E+00 -0.13752826831E+04  0.16994376987E+04  0.99834164170E+03 0.  0.
        5    1    3    3  502    0 -0.26494370689E+03 -0.27383194570E+03 -0.13875712338E+03  0.40553018580E+03  0.46999998093E+01 0. -1.
       -5    1    3    3    0  502  0.26494370689E+03  0.27383194570E+03 -0.12365255597E+04  0.12939075129E+04  0.46999998093E+01 0.  1.
</event>
<event>
 5   0  0.3854625E-04  0.1000943E+04  0.7818609E-02  0.9307512E-01
       -3   -1    0    0    0  501  0.00000000000E+00  0.00000000000E+00  0.80799546234E+03  0.80799546866E+03  0.10100000352E+00 0. -1.
        3   -1    0    0  501    0  0.00000000000E+00  0.00000000000E+00 -0.30999125696E+03  0.30999127341E+03  0.10100000352E+00 0.  1.
    10030    2    1    2    0    0  0.00000000000E+00  0.00000000000E+00  0.49800420539E+03  0.11179867421E+04  0.10009426391E+04 0.  0.
        5    1    3    3  502    0  0.25523846325E+03 -0.35393891798E+03  0.52266234719E+03  0.68089459533E+03  0.46999998093E+01 0. -1.
       -5    1    3    3    0  502 -0.25523846325E+03  0.35393891798E+03 -0.24658141800E+02  0.43709214674E+03  0.46999998093E+01 0.  1.
</event>
<event>
 5   0  0.5758786E-04  0.1000784E+04  0.7818609E-02  0.9307686E-01
        1   -1    0    0  501    0  0.00000000000E+00  0.00000000000E+00  0.80615898179E+03  0.80615898181E+03  0.50400001928E-02 0. -1.
       -1   -1    0    0    0  501  0.00000000000E+00  0.00000000000E+00 -0.31059876397E+03  0.31059876401E+03  0.50400001928E-02 0.  1.
    10030    2    1    2    0    0  0.00000000000E+00  0.00000000000E+00  0.49556021782E+03  0.11167577458E+04  0.10007836596E+04 0.  0.
        3    1    3    3  502    0  0.16346781257E+02  0.24494305810E+03 -0.23878550379E+03  0.34246583186E+03  0.10100000352E+00 0.  1.
       -3    1    3    3    0  502 -0.16346781257E+02 -0.24494305810E+03  0.73434572161E+03  0.77429191396E+03  0.10100000352E+00 0. -1.
</event>
<event>
 5   0  0.9674819E-04  0.9895256E+03  0.7818609E-02  0.9320108E-01
       -2   -1    0    0    0  501  0.00000000000E+00  0.00000000000E+00  0.67733651406E+03  0.67733651406E+03  0.25500000920E-02 0.  1.
        2   -1    0    0  501    0  0.00000000000E+00  0.00000000000E+00 -0.36140117377E+03  0.36140117378E+03  0.25500000920E-02 0. -1.
    10030    2    1    2    0    0  0.00000000000E+00  0.00000000000E+00  0.31593534029E+03  0.10387376878E+04  0.98952556556E+03 0.  0.
        4    1    3    3  502    0 -0.26579898249E+02 -0.12799681481E+03 -0.34294193310E+03  0.36701560998E+03  0.12699999809E+01 0. -1.
       -4    1    3    3    0  502  0.26579898249E+02  0.12799681481E+03  0.65887727339E+03  0.67172207786E+03  0.12699999809E+01 0.  1.
</event>
<event>
 5   0  0.1006749E-03  0.1003800E+04  0.7818609E-02  0.9304387E-01
        2   -1    0    0  501    0  0.00000000000E+00  0.00000000000E+00  0.18088722784E+04  0.18088722784E+04  0.25500000920E-02 0. -1.
       -2   -1    0    0    0  501  0.00000000000E+00  0.00000000000E+00 -0.13925999119E+03  0.13925999121E+03  0.25500000920E-02 0.  1.
    10030    2    1    2    0    0  0.00000000000E+00  0.00000000000E+00  0.16696122872E+04  0.19481322696E+04  0.10037998557E+04 0.  0.
        1    1    3    3  502    0 -0.60734179198E+02 -0.28087672619E+03  0.16334064932E+04  0.16584924323E+04  0.50400001928E-02 0. -1.
       -1    1    3    3    0  502  0.60734179198E+02  0.28087672619E+03  0.36205794017E+02  0.28963983735E+03  0.50400001928E-02 0.  1.
</event>
<event>
 5   0  0.5888774E-04  0.1000948E+04  0.7818609E-02  0.9307506E-01
       -1   -1    0    0    0  501  0.00000000000E+00  0.00000000000E+00  0.29185256546E+03  0.29185256550E+03  0.50400001928E-02 0. -1.
        1   -1    0    0  501    0  0.00000000000E+00  0.00000000000E+00 -0.85822094618E+03  0.85822094619E+03  0.50400001928E-02 0.  1.
    10030    2    1    2    0    0  0.00000000000E+00  0.00000000000E+00 -0.56636838072E+03  0.11500735117E+04  0.10009475209E+04 0.  0.
        2    1    3    3  502    0  0.48737925867E+03 -0.11341306789E+03 -0.29299568327E+03  0.57986855077E+03  0.25500000920E-02 0. -1.
       -2    1    3    3    0  502 -0.48737925867E+03  0.11341306789E+03 -0.27337269745E+03  0.57020496093E+03  0.25500000920E-02 0.  1.
</event>
<event>
 5   0  0.1020150E-03  0.1005336E+04  0.7818609E-02  0.9302711E-01
        2   -1    0    0  501    0  0.00000000000E+00  0.00000000000E+00  0.97997860559E+03  0.97997860560E+03  0.25500000920E-02 0.  1.
       -2   -1    0    0    0  501  0.00000000000E+00  0.00000000000E+00 -0.25783756736E+03  0.25783756738E+03  0.25500000920E-02 0. -1.
    10030    2    1    2    0    0  0.00000000000E+00  0.00000000000E+00  0.72214103823E+03  0.12378161730E+04  0.10053363611E+04 0.  0.
        5    1    3    3  502    0  0.19973139234E+03 -0.21718470505E+01  0.92898838548E+03  0.95023094896E+03  0.46999998093E+01 0.  1.
       -5    1    3    3    0  502 -0.19973139234E+03  0.21718470505E+01 -0.20684734725E+03  0.28758522401E+03  0.46999998093E+01 0. -1.
</event>
<event>
 5   0  0.5888774E-04  0.9996867E+03  0.7818609E-02  0.9308888E-01
       -1   -1    0    0    0  501  0.00000000000E+00  0.00000000000E+00  0.50545988583E+03  0.50545988586E+03  0.50400001928E-02 0.  1.
        1   -1    0    0  501    0  0.00000000000E+00  0.00000000000E+00 -0.49428921666E+03  0.49428921668E+03  0.50400001928E-02 0. -1.
    10030    2    1    2    0    0  0.00000000000E+00  0.00000000000E+00  0.11170669176E+02  0.99974910254E+03  0.99968669301E+03 0.  0.
        2    1    3    3  502    0  0.15564102231E+03 -0.29939737230E+03  0.37436363584E+03  0.50399508550E+03  0.25500000920E-02 0.  1.
       -2    1    3    3    0  502 -0.15564102231E+03  0.29939737230E+03 -0.36319296666E+03  0.49575401704E+03  0.25500000920E-02 0. -1.
</event>
<event>
 5   0  0.1006006E-03  0.1000182E+04  0.7818609E-02  0.9308345E-01
       -2   -1    0    0    0  501  0.00000000000E+00  0.00000000000E+00  0.50043489003E+03  0.50043489004E+03  0.25500000920E-02 0. -1.
        2   -1    0    0  501    0  0.00000000000E+00  0.00000000000E+00 -0.49974767577E+03  0.49974767578E+03  0.25500000920E-02 0.  1.
    10030    2    1    2    0    0  0.00000000000E+00  0.00000000000E+00  0.68721426003E+00  0.10001825658E+04  0.10001823297E+04 0.  0.
        2    1    3    3  502    0 -0.74771376239E+02 -0.26828450052E+03  0.41570359881E+03  0.50037667211E+03  0.25500000920E-02 0. -1.
       -2    1    3    3    0  502  0.74771376239E+02  0.26828450052E+03 -0.41501638455E+03  0.49980589370E+03  0.25500000920E-02 0.  1.
</event>
<event>
 5   0  0.9741826E-04  0.9987821E+03  0.7818609E-02  0.9309882E-01
        2   -1    0    0  501    0  0.00000000000E+00  0.00000000000E+00  0.84536317192E+03  0.84536317192E+03  0.25500000920E-02 0.  1.
       -2   -1    0    0    0  501  0.00000000000E+00  0.00000000000E+00 -0.29501097717E+03  0.29501097718E+03  0.25500000920E-02 0. -1.
    10030    2    1    2    0    0  0.00000000000E+00  0.00000000000E+00  0.55035219475E+03  0.11403741491E+04  0.99878208918E+03 0.  0.
        3    1    3    3  502    0 -0.46345863585E+03 -0.12280912685E+03  0.43467787577E+03  0.64716370005E+03  0.10100000352E+00 0.  1.
       -3    1    3    3    0  502  0.46345863585E+03  0.12280912685E+03  0.11567431898E+03  0.49321044905E+03  0.10100000352E+00 0. -1.
</event>
<event>
 5   0  0.3854625E-04  0.1004191E+04  0.7818609E-02  0.9303960E-01
        3   -1    0    0  501    0  0.00000000000E+00  0.00000000000E+00  0.47432352811E+03  0.47432353886E+03  0.10100000352E+00 0.  1.
       -3   -1    0    0    0  501  0.00000000000E+00  0.00000000000E+00 -0.53149393119E+03  0.53149394079E+03  0.10100000352E+00 0. -1.
    10030    2    1    2    0    0  0.00000000000E+00  0.00000000000E+00 -0.57170403083E+02  0.10058174796E+04  0.10041913898E+04 0.  0.
        1    1    3    3  502    0  0.21091749776E+03  0.39830690041E+03 -0.25022503867E+03  0.51550669033E+03  0.50400001928E-02 0. -1.
       -1    1    3    3    0  502 -0.21091749776E+03 -0.39830690041E+03  0.19305463559E+03  0.49031078932E+03  0.50400001928E-02 0.  1.
</event>
<event>
 5   0  0.1006749E-03  0.1003624E+04  0.7818609E-02  0.9304579E-01
        2   -1    0    0  501    0  0.00000000000E+00  0.00000000000E+00  0.70477970483E+03  0.70477970483E+03  0.25500000920E-02 0. -1.
       -2   -1    0    0    0  501  0.00000000000E+00  0.00000000000E+00 -0.35729617741E+03  0.35729617742E+03  0.25500000920E-02 0.  1.
    10030    2    1    2    0    0  0.00000000000E+00  0.00000000000E+00  0.34748352742E+03  0.10620758823E+04  0.10036236236E+04 0.  0.
        1    1    3    3  502    0  0.24819118052E+03  0.42903717538E+03  0.90797424294E+02  0.50390071664E+03  0.50400001928E-02 0. -1.
       -1    1    3    3    0  502 -0.24819118052E+03 -0.42903717538E+03  0.25668610312E+03  0.55817516561E+03  0.50400001928E-02 0.  1.
</event>
<event>
 5   0  0.9674819E-04  0.1000488E+04  0.7818609E-02  0.9308010E-01
        2   -1    0    0  501    0  0.00000000000E+00  0.00000000000E+00  0.73397466502E+03  0.73397466502E+03  0.25500000920E-02 0.  1.
       -2   -1    0    0    0  501  0.00000000000E+00  0.00000000000E+00 -0.34094379931E+03  0.34094379932E+03  0.25500000920E-02 0. -1.
    10030    2    1    2    0    0  0.00000000000E+00  0.00000000000E+00  0.39303086571E+03  0.10749184643E+04  0.10004881027E+04 0.  0.
        4    1    3    3  502    0 -0.18056075830E+03 -0.23316219439E+03 -0.23761914102E+03  0.37872320422E+03  0.12699999809E+01 0. -1.
       -4    1    3    3    0  502  0.18056075830E+03  0.23316219439E+03  0.63065000673E+03  0.69619526012E+03  0.12699999809E+01 0.  1.
</event>
<event>
 5   0  0.5960102E-04  0.9995248E+03  0.7818609E-02  0.9309066E-01
        1   -1    0    0  501    0  0.00000000000E+00  0.00000000000E+00  0.15102994650E+04  0.15102994650E+04  0.50400001928E-02 0. -1.
       -1   -1    0    0    0  501  0.00000000000E+00  0.00000000000E+00 -0.16537281906E+03  0.16537281914E+03  0.50400001928E-02 0.  1.
    10030    2    1    2    0    0  0.00000000000E+00  0.00000000000E+00  0.13449266460E+04  0.16756722842E+04  0.99952484759E+03 0.  0.
        5    1    3    3  502    0  0.17821850769E+02  0.36610614921E+03  0.12419424467E+04  0.12949109861E+04  0.46999998093E+01 0. -1.
       -5    1    3    3    0  502 -0.17821850769E+02 -0.36610614921E+03  0.10298419924E+03  0.38076129811E+03  0.46999998093E+01 0.  1.
</event>
<event>
 5   0  0.5888774E-04  0.1002039E+04  0.7818609E-02  0.9306312E-01
       -1   -1    0    0    0  501  0.00000000000E+00  0.00000000000E+00  0.16969590158E+03  0.16969590166E+03  0.50400001928E-02 0. -1.
        1   -1    0    0  501    0  0.00000000000E+00  0.00000000000E+00 -0.14792363860E+04  0.14792363860E+04  0.50400001928E-02 0.  1.
    10030    2    1    2    0    0  0.00000000000E+00  0.00000000000E+00 -0.13095404844E+04  0.16489322877E+04  0.10020386265E+04 0.  0.
        2    1    3    3  502    0  0.43069745664E+03 -0.44536645872E+02 -0.10695620212E+04  0.11538833257E+04  0.25500000920E-02 0.  1.
       -2    1    3    3    0  502 -0.43069745664E+03  0.44536645872E+02 -0.23997846320E+03  0.49504896201E+03  0.25500000920E-02 0. -1.
</event>
<event>
 5   0  0.5960102E-04  0.1009744E+04  0.7818609E-02  0.9297922E-01
        1   -1    0    0  501    0  0.00000000000E+00  0.00000000000E+00  0.11245084335E+04  0.11245084335E+04  0.50400001928E-02 0.  1.
       -1   -1    0    0    0  501  0.00000000000E+00  0.00000000000E+00 -0.22667297688E+03  0.22667297694E+03  0.50400001928E-02 0. -1.
    10030    2    1    2    0    0  0.00000000000E+00  0.00000000000E+00  0.89783545660E+03  0.13511814104E+04  0.10097438768E+04 0.  0.
        5    1    3    3  502    0  0.90550415440E+01 -0.29336320331E+03 -0.10074729095E+03  0.31034830347E+03  0.46999998093E+01 0. -1.
       -5    1    3    3    0  502 -0.90550415440E+01  0.29336320331E+03  0.99858274755E+03  0.10408331070E+04  0.46999998093E+01 0.  1.
</event>
<event>
 5   0  0.9741826E-04  0.9953191E+03  0.7818609E-02  0.9313694E-01
        2   -1    0    0  501    0  0.00000000000E+00  0.00000000000E+00  0.19222087689E+04  0.19222087689E+04  0.25500000920E-02 0. -1.
       -2   -1    0    0    0  501  0.00000000000E+00  0.00000000000E+00 -0.12884396712E+03  0.12884396715E+03  0.25500000920E-02 0.  1.
    10030    2    1    2    0    0  0.00000000000E+00  0.00000000000E+00  0.17933648018E+04  0.20510527361E+04  0.99531905127E+03 0.  0.
        3    1    3    3  502    0  0.56763871784E+02 -0.21792431842E+03  0.18112052057E+04  0.18251513507E+04  0.10100000352E+00 0. -1.
       -3    1    3    3    0  502 -0.56763871784E+02  0.21792431842E+03 -0.17840403888E+02  0.22590138536E+03  0.10100000352E+00 0.  1.
</event>
<event>
 5   0  0.1006006E-03  0.9991932E+03  0.7818609E-02  0.9309430E-01
       -2   -1    0    0    0  501  0.00000000000E+00  0.00000000000E+00  0.12041059565E+03  0.12041059567E+03  0.25500000920E-02 0. -1.
        2   -1    0    0  501    0  0.00000000000E+00  0.00000000000E+00 -0.20728805860E+04  0.20728805860E+04  0.25500000920E-02 0.  1.
    10030    2    1    2    0    0  0.00000000000E+00  0.00000000000E+00 -0.19524699904E+04  0.21932911817E+04  0.99919324677E+03 0.  0.
        2    1    3    3  502    0  0.22045902803E+03 -0.74629063077E+02 -0.19466041441E+04  0.19604691719E+04  0.25500000920E-02 0.  1.
       -2    1    3    3    0  502 -0.22045902803E+03  0.74629063077E+02 -0.58658462811E+01  0.23282200981E+03  0.25500000920E-02 0. -1.
</event>
<event>
 5   0  0.1020150E-03  0.9994142E+03  0.7818609E-02  0.9309187E-01
        2   -1    0    0  501    0  0.00000000000E+00  0.00000000000E+00  0.10925251619E+04  0.10925251619E+04  0.25500000920E-02 0.  1.
       -2   -1    0    0    0  501  0.00000000000E+00  0.00000000000E+00 -0.22855968636E+03  0.22855968637E+03  0.25500000920E-02 0. -1.
    10030    2    1    2    0    0  0.00000000000E+00  0.00000000000E+00  0.86396547555E+03  0.13210848483E+04  0.99941424516E+03 0.  0.
        5    1    3    3  502    0  0.37342862806E+02 -0.39113470813E+03  0.23906455794E+02  0.39366795391E+03  0.46999998093E+01 0. -1.
       -5    1    3    3    0  502 -0.37342862806E+02  0.39113470813E+03  0.84005901975E+03  0.92741689438E+03  0.46999998093E+01 0.  1.
</event>
<event>
 5   0  0.5768102E-04  0.9990572E+03  0.7818609E-02  0.9309579E-01
       -1   -1    0    0    0  501  0.00000000000E+00  0.00000000000E+00  0.51492954030E+03  0.51492954033E+03  0.50400001928E-02 0. -1.
        1   -1    0    0  501    0  0.00000000000E+00  0.00000000000E+00 -0.48458827701E+03  0.48458827704E+03  0.50400001928E-02 0.  1.
    10030    2    1    2    0    0  0.00000000000E+00  0.00000000000E+00  0.30341263288E+02  0.99951781737E+03  0.99905719305E+03 0.  0.
        4    1    3    3  502    0 -0.11178689745E+03 -0.29191137876E+03 -0.37464813309E+03  0.48792560910E+03  0.12699999809E+01 0.  1.
       -4    1    3    3    0  502  0.11178689745E+03  0.29191137876E+03  0.40498939637E+03  0.51159220827E+03  0.12699999809E+01 0. -1.
</event>
<event>
 5   0  0.5826939E-04  0.9973462E+03  0.7818609E-02  0.9311460E-01
        1   -1    0    0  501    0  0.00000000000E+00  0.00000000000E+00  0.28496181354E+03  0.28496181358E+03  0.50400001928E-02 0. -1.
       -1   -1    0    0    0  501  0.00000000000E+00  0.00000000000E+00 -0.87266032759E+03  0.87266032760E+03  0.50400001928E-02 0.  1.
    10030    2    1    2    0    0  0.00000000000E+00  0.00000000000E+00 -0.58769851405E+03  0.11576221412E+04  0.99734621789E+03 0.  0.
        1    1    3    3  502    0  0.32411623230E+03  0.29125673668E+03 -0.57528799723E+03  0.72169113787E+03  0.50400001928E-02 0.  1.
       -1    1    3    3    0  502 -0.32411623230E+03 -0.29125673668E+03 -0.12410516826E+02  0.43593100332E+03  0.50400001928E-02 0. -1.
</event>
<event>
 5   0  0.1006006E-03  0.1001148E+04  0.7818609E-02  0.9307287E-01
        2   -1    0    0  501    0  0.00000000000E+00  0.00000000000E+00  0.36047095397E+03  0.36047095398E+03  0.25500000920E-02 0. -1.
       -2   -1    0    0    0  501  0.00000000000E+00  0.00000000000E+00 -0.69512980433E+03  0.69512980433E+03  0.25500000920E-02 0.  1.
    10030    2    1    2    0    0  0.00000000000E+00  0.00000000000E+00 -0.33465885035E+03  0.10556007583E+04  0.10011475490E+04 0.  0.
        2    1    3    3  502    0  0.30795002007E+03 -0.63984661647E+02  0.24326996935E+03  0.39762737554E+03  0.25500000920E-02 0. -1.
       -2    1    3    3    0  502 -0.30795002007E+03  0.63984661647E+02 -0.57792881970E+03  0.65797338277E+03  0.25500000920E-02 0.  1.
</event>
<event>
 5   0  0.3854625E-04  0.9999494E+03  0.7818609E-02  0.9308600E-01
        3   -1    0    0  501    0  0.00000000000E+00  0.00000000000E+00  0.12217528163E+04  0.12217528204E+04  0.10100000352E+00 0. -1.
       -3   -1    0    0    0  501  0.00000000000E+00  0.00000000000E+00 -0.20460332240E+03  0.20460334733E+03  0.10100000352E+00 0.  1.
    10030    2    1    2    0    0  0.00000000000E+00  0.00000000000E+00  0.10171494939E+04  0.14263561678E+04  0.99994941095E+03 0.  0.
        4    1    3    3  502    0 -0.29596690776E+03 -0.37018449673E+01  0.10833439118E+04  0.11230519838E+04  0.12699999809E+01 0. -1.
       -4    1    3    3    0  502  0.29596690776E+03  0.37018449673E+01 -0.66194417953E+02  0.30330418397E+03  0.12699999809E+01 0.  1.
</event>
<event>
 5   0  0.5768102E-04  0.9996996E+03  0.7818609E-02  0.9308874E-01
       -1   -1    0    0    0  501  0.00000000000E+00  0.00000000000E+00  0.40275147202E+03  0.40275147205E+03  0.50400001928E-02 0.  1.
        1   -1    0    0  501    0  0.00000000000E+00  0.00000000000E+00 -0.62035732373E+03  0.62035732375E+03  0.50400001928E-02 0. -1.
    10030    2    1    2    0    0  0.00000000000E+00  0.00000000000E+00 -0.21760585171E+03  0.10231087958E+04  0.99969960556E+03 0.  0.
        4    1    3    3  502    0 -0.17532457689E+03 -0.29287819138E+03 -0.48249964331E+03  0.59103626026E+03  0.12699999809E+01 0. -1.
       -4    1    3    3    0  502  0.17532457689E+03  0.29287819138E+03  0.26489379160E+03  0.43207253555E+03  0.12699999809E+01 0.  1.
</event>
<event>
 5   0  0.9674819E-04  0.1002913E+04  0.7818609E-02  0.9305356E-01
        2   -1    0    0  501    0  0.00000000000E+00  0.00000000000E+00  0.12528453677E+04  0.12528453677E+04  0.25500000920E-02 0. -1.
       -2   -1    0    0    0  501  0.00000000000E+00  0.00000000000E+00 -0.20071005839E+03  0.20071005841E+03  0.25500000920E-02 0.  1.
    10030    2    1    2    0    0  0.00000000000E+00  0.00000000000E+00  0.10521353093E+04  0.14535554261E+04  0.10029130908E+04 0.  0.
        4    1    3    3  502    0 -0.48699800979E+03 -0.10799866706E+03  0.60034200165E+03  0.78054013701E+03  0.12699999809E+01 0. -1.
       -4    1    3    3    0  502  0.48699800979E+03  0.10799866706E+03  0.45179330767E+03  0.67301528911E+03  0.12699999809E+01 0.  1.
</event>
<event>
 5   0  0.5960102E-04  0.1000837E+04  0.7818609E-02  0.9307627E-01
        1   -1    0    0  501    0  0.00000000000E+00  0.00000000000E+00  0.14262554576E+04  0.14262554576E+04  0.50400001928E-02 0. -1.
       -1   -1    0    0    0  501  0.00000000000E+00  0.00000000000E+00 -0.17557768317E+03  0.17557768324E+03  0.50400001928E-02 0.  1.
    10030    2    1    2    0    0  0.00000000000E+00  0.00000000000E+00  0.12506777744E+04  0.16018331408E+04  0.10008369076E+04 0.  0.
        5    1    3    3  502    0 -0.93904110712E+02 -0.40741037290E+03  0.10653883437E+04  0.11444979715E+04  0.46999998093E+01 0. -1.
       -5    1    3    3    0  502  0.93904110712E+02  0.40741037290E+03  0.18528943074E+03  0.45733516932E+03  0.46999998093E+01 0.  1.
</event>
<event>
 5   0  0.9741826E-04  0.9980066E+03  0.7818609E-02  0.9310734E-01
        2   -1    0    0  501    0  0.00000000000E+00  0.00000000000E+00  0.67003806576E+03  0.67003806577E+03  0.25500000920E-02 0. -1.
       -2   -1    0    0    0  501  0.00000000000E+00  0.00000000000E+00 -0.37162711715E+03  0.37162711716E+03  0.25500000920E-02 0.  1.
    10030    2    1    2    0    0  0.00000000000E+00  0.00000000000E+00  0.29841094862E+03  0.10416651829E+04  0.99800664280E+03 0.  0.
        3    1    3    3  502    0 -0.24825428487E+03 -0.62949848731E+02 -0.29779493026E+03  0.39277818690E+03  0.10100000352E+00 0.  1.
       -3    1    3    3    0  502  0.24825428487E+03  0.62949848731E+02  0.59620587888E+03  0.64888699603E+03  0.10100000352E+00 0. -1.
</event>
<event>
 5   0  0.1006749E-03  0.9991301E+03  0.7818609E-02  0.9309499E-01
       -2   -1    0    0    0  501  0.00000000000E+00  0.00000000000E+00  0.32882476099E+03  0.32882476100E+03  0.25500000920E-02 0.  1.
        2   -1    0    0  501    0  0.00000000000E+00  0.00000000000E+00 -0.75896116905E+03  0.75896116905E+03  0.25500000920E-02 0. -1.
    10030    2    1    2    0    0  0.00000000000E+00  0.00000000000E+00 -0.43013640806E+03  0.10877859301E+04  0.99913007166E+03 0.  0.
        1    1    3    3  502    0  0.40309495975E+03  0.99879084579E+02  0.87246610641E+02  0.42435050277E+03  0.50400001928E-02 0.  1.
       -1    1    3    3    0  502 -0.40309495975E+03 -0.99879084579E+02 -0.51738301870E+03  0.66343542728E+03  0.50400001928E-02 0. -1.
</event>
<event>
 5   0  0.5758786E-04  0.9979470E+03  0.7818609E-02  0.9310799E-01
       -1   -1    0    0    0  501  0.00000000000E+00  0.00000000000E+00  0.11099456225E+03  0.11099456237E+03  0.50400001928E-02 0. -1.
        1   -1    0    0  501    0  0.00000000000E+00  0.00000000000E+00 -0.22431238087E+04  0.22431238087E+04  0.50400001928E-02 0.  1.
    10030    2    1    2    0    0  0.00000000000E+00  0.00000000000E+00 -0.21321292465E+04  0.23541183711E+04  0.99794698330E+03 0.  0.
        3    1    3    3  502    0  0.16811782783E+03 -0.16230975516E+03 -0.21060602319E+04  0.21189850804E+04  0.10100000352E+00 0.  1.
       -3    1    3    3    0  502 -0.16811782783E+03  0.16230975516E+03 -0.26069014606E+02  0.23513329066E+03  0.10100000352E+00 0. -1.
</event>
<event>
 5   0  0.3854625E-04  0.1000397E+04  0.7818609E-02  0.9308110E-01
       -3   -1    0    0    0  501  0.00000000000E+00  0.00000000000E+00  0.87419946251E+03  0.87419946834E+03  0.10100000352E+00 0. -1.
        3   -1    0    0  501    0  0.00000000000E+00  0.00000000000E+00 -0.28620287539E+03  0.28620289321E+03  0.10100000352E+00 0.  1.
    10030    2    1    2    0    0  0.00000000000E+00  0.00000000000E+00  0.58799658712E+03  0.11604023616E+04  0.10003967484E+04 0.  0.
        5    1    3    3  502    0 -0.49006886735E+02  0.95892451015E+02 -0.27257056541E+03  0.29311062798E+03  0.46999998093E+01 0.  1.
       -5    1    3    3    0  502  0.49006886735E+02 -0.95892451015E+02  0.86056715253E+03  0.86729173357E+03  0.46999998093E+01 0. -1.
</event>
<event>
 5   0  0.5888774E-04  0.1001378E+04  0.7818609E-02  0.9307035E-01
        1   -1    0    0  501    0  0.00000000000E+00  0.00000000000E+00  0.13177742109E+04  0.13177742110E+04  0.50400001928E-02 0.  1.
       -1   -1    0    0    0  501  0.00000000000E+00  0.00000000000E+00 -0.19023698212E+03  0.19023698219E+03  0.50400001928E-02 0. -1.
    10030    2    1    2    0    0  0.00000000000E+00  0.00000000000E+00  0.11275372288E+04  0.15080111931E+04  0.10013778289E+04 0.  0.
        2    1    3    3  502    0  0.42622953819E+03  0.25815714483E+03  0.63712268213E+03  0.80885229971E+03  0.25500000920E-02 0. -1.
       -2    1    3    3    0  502 -0.42622953819E+03 -0.25815714483E+03  0.49041454669E+03  0.69915889344E+03  0.25500000920E-02 0.  1.
</event>
<event>
 5   0  0.5768102E-04  0.1000257E+04  0.7818609E-02  0.9308263E-01
       -1   -1    0    0    0  501  0.00000000000E+00  0.00000000000E+00  0.18524643797E+03  0.18524643804E+03  0.50400001928E-02 0.  1.
        1   -1    0    0  501    0  0.00000000000E+00  0.00000000000E+00 -0.13502485006E+04  0.13502485006E+04  0.50400001928E-02 0. -1.
    10030    2    1    2    0    0  0.00000000000E+00  0.00000000000E+00 -0.11650020626E+04  0.15354949386E+04  0.10002574172E+04 0.  0.
        4    1    3    3  502    0  0.86424087628E+02 -0.39862887777E+03 -0.13824143931E+03  0.43068133644E+03  0.12699999809E+01 0.  1.
       -4    1    3    3    0  502 -0.86424087628E+02  0.39862887777E+03 -0.10267606233E+04  0.11048136022E+04  0.12699999809E+01 0. -1.
</event>
<event>
 5   0  0.5768102E-04  0.1008793E+04  0.7818609E-02  0.9298953E-01
        1   -1    0    0  501    0  0.00000000000E+00  0.00000000000E+00  0.10018909013E+04  0.10018909014E+04  0.50400001928E-02 0.  1.
       -1   -1    0    0    0  501  0.00000000000E+00  0.00000000000E+00 -0.25393587424E+03  0.25393587429E+03  0.50400001928E-02 0. -1.
    10030    2    1    2    0    0  0.00000000000E+00  0.00000000000E+00  0.74795502711E+03  0.12558267756E+04  0.10087934218E+04 0.  0.
        4    1    3    3  502    0 -0.34448178829E+03  0.26746693703E+03  0.68942176935E+03  0.81578811822E+03  0.12699999809E+01 0.  1.
       -4    1    3    3    0  502  0.34448178829E+03 -0.26746693703E+03  0.58533257754E+02  0.44003865743E+03  0.12699999809E+01 0. -1.
</event>
<event>
 5   0  0.5826939E-04  0.9999981E+03  0.7818609E-02  0.9308547E-01
       -1   -1    0    0    0  501  0.00000000000E+00  0.00000000000E+00  0.18297153185E+03  0.18297153192E+03  0.50400001928E-02 0. -1.
        1   -1    0    0  501    0  0.00000000000E+00  0.00000000000E+00 -0.13663276757E+04  0.13663276757E+04  0.50400001928E-02 0.  1.
    10030    2    1    2    0    0  0.00000000000E+00  0.00000000000E+00 -0.11833561439E+04  0.15492992077E+04  0.99999813579E+03 0.  0.
        1    1    3    3  502    0  0.41198654165E+03  0.20691916606E+02 -0.10294429733E+04  0.11090148336E+04  0.50400001928E-02 0.  1.
       -1    1    3    3    0  502 -0.41198654165E+03 -0.20691916606E+02 -0.15391317060E+03  0.44028437404E+03  0.50400001928E-02 0. -1.
</event>
<event>
 5   0  0.1020150E-03  0.9999584E+03  0.7818609E-02  0.9308590E-01
       -2   -1    0    0    0  501  0.00000000000E+00  0.00000000000E+00  0.27590045250E+03  0.27590045252E+03  0.25500000920E-02 0. -1.
        2   -1    0    0  501    0  0.00000000000E+00  0.00000000000E+00 -0.90604855720E+03  0.90604855720E+03  0.25500000920E-02 0.  1.
    10030    2    1    2    0    0  0.00000000000E+00  0.00000000000E+00 -0.63014810469E+03  0.11819490097E+04  0.99995841300E+03 0.  0.
        5    1    3    3  502    0  0.43130943632E+03  0.16877001341E+03 -0.53761002959E+03  0.70961805304E+03  0.46999998093E+01 0.  1.
       -5    1    3    3    0  502 -0.43130943632E+03 -0.16877001341E+03 -0.92538075103E+02  0.47233095667E+03  0.46999998093E+01 0. -1.
</event>
<event>
 5   0  0.1006006E-03  0.9985481E+03  0.7818609E-02  0.9310139E-01
       -2   -1    0    0    0  501  0.00000000000E+00  0.00000000000E+00  0.56066970536E+03  0.56066970537E+03  0.25500000920E-02 0. -1.
        2   -1    0    0  501    0  0.00000000000E+00  0.00000000000E+00 -0.44460146076E+03  0.44460146076E+03  0.25500000920E-02 0.  1.
    10030    2    1    2    0    0  0.00000000000E+00  0.00000000000E+00  0.11606824460E+03  0.10052711661E+04  0.99854808600E+03 0.  0.
        2    1    3    3  502    0  0.59197358830E+02  0.36666250438E+03 -0.27787214356E+03  0.46385196732E+03  0.25500000920E-02 0.  1.
       -2    1    3    3    0  502 -0.59197358830E+02 -0.36666250438E+03  0.39394038817E+03  0.54141919881E+03  0.25500000920E-02 0. -1.
</event>
<event>
 5   0  0.5888774E-04  0.9985515E+03  0.7818609E-02  0.9310135E-01
       -1   -1    0    0    0  501  0.00000000000E+00  0.00000000000E+00  0.81732921150E+03  0.81732921152E+03  0.50400001928E-02 0.  1.
        1   -1    0    0  501    0  0.00000000000E+00  0.00000000000E+00 -0.30498884799E+03  0.30498884803E+03  0.50400001928E-02 0. -1.
    10030    2    1    2    0    0  0.00000000000E+00  0.00000000000E+00  0.51234036352E+03  0.11223180595E+04  0.99855154033E+03 0.  0.
        2    1    3    3  502    0  0.15230502011E+03 -0.43588039772E+02 -0.27599134065E+03  0.31822626617E+03  0.25500000920E-02 0. -1.
       -2    1    3    3    0  502 -0.15230502011E+03  0.43588039772E+02  0.78833170417E+03  0.80409179337E+03  0.25500000920E-02 0.  1.
</event>
<event>
 5   0  0.5826939E-04  0.1005300E+04  0.7818609E-02  0.9302751E-01
        1   -1    0    0  501    0  0.00000000000E+00  0.00000000000E+00  0.11550767207E+04  0.11550767207E+04  0.50400001928E-02 0.  1.
       -1   -1    0    0    0  501  0.00000000000E+00  0.00000000000E+00 -0.21873618547E+03  0.21873618553E+03  0.50400001928E-02 0. -1.
    10030    2    1    2    0    0  0.00000000000E+00  0.00000000000E+00  0.93634053522E+03  0.13738129062E+04  0.10053001061E+04 0.  0.
        1    1    3    3  502    0 -0.34084577331E+03  0.23780931822E+03  0.85452055138E+03  0.95022864920E+03  0.50400001928E-02 0.  1.
       -1    1    3    3    0  502  0.34084577331E+03 -0.23780931822E+03  0.81819983845E+02  0.42358425702E+03  0.50400001928E-02 0. -1.
</event>
<event>
 5   0  0.5758786E-04  0.9990846E+03  0.7818609E-02  0.9309549E-01
        1   -1    0    0  501    0  0.00000000000E+00  0.00000000000E+00  0.91134637795E+03  0.91134637796E+03  0.50400001928E-02 0.  1.
       -1   -1    0    0    0  501  0.00000000000E+00  0.00000000000E+00 -0.27381739550E+03  0.27381739554E+03  0.50400001928E-02 0. -1.
    10030    2    1    2    0    0  0.00000000000E+00  0.00000000000E+00  0.63752898245E+03  0.11851637735E+04  0.99908456427E+03 0.  0.
        3    1    3    3  502    0  0.36542491355E+02  0.48869474838E+03  0.20384774428E+03  0.53076531896E+03  0.10100000352E+00 0. -1.
       -3    1    3    3    0  502 -0.36542491355E+02 -0.48869474838E+03  0.43368123817E+03  0.65439845454E+03  0.10100000352E+00 0.  1.
</event>
<event>
 5   0  0.5826939E-04  0.9999072E+03  0.7818609E-02  0.9308647E-01
       -1   -1    0    0    0  501  0.00000000000E+00  0.00000000000E+00  0.47481834633E+03  0.47481834636E+03  0.50400001928E-02 0. -1.
        1   -1    0    0  501    0  0.00000000000E+00  0.00000000000E+00 -0.52641941620E+03  0.52641941623E+03  0.50400001928E-02 0.  1.
    10030    2    1    2    0    0  0.00000000000E+00  0.00000000000E+00 -0.51601069870E+02  0.10012377626E+04  0.99990718910E+03 0.  0.
        1    1    3    3  502    0 -0.16745272195E+03 -0.45033631144E+03 -0.16422482219E+03  0.50775289240E+03  0.50400001928E-02 0.  1.
       -1    1    3    3    0  502  0.16745272195E+03  0.45033631144E+03  0.11262375232E+03  0.49348487019E+03  0.50400001928E-02 0. -1.
</event>
<event>
 5   0  0.5768102E-04  0.9995391E+03  0.7818609E-02  0.9309050E-01
       -1   -1    0    0    0  501  0.00000000000E+00  0.00000000000E+00  0.46022673368E+03  0.46022673371E+03  0.50400001928E-02 0. -1.
        1   -1    0    0  501    0  0.00000000000E+00  0.00000000000E+00 -0.54270990966E+03  0.54270990968E+03  0.50400001928E-02 0.  1.
    10030    2    1    2    0    0  0.00000000000E+00  0.00000000000E+00 -0.82483175980E+02  0.10029366434E+04  0.99953911196E+03 0.  0.
        4    1    3    3  502    0  0.26934125841E+02  0.47370320299E+03  0.11628831408E+03  0.48851280080E+03  0.12699999809E+01 0. -1.
       -4    1    3    3    0  502 -0.26934125841E+02 -0.47370320299E+03 -0.19877149006E+03  0.51442384258E+03  0.12699999809E+01 0.  1.
</event>
<event>
 5   0  0.5768102E-04  0.1001141E+04  0.7818609E-02  0.9307294E-01
       -1   -1    0    0    0  501  0.00000000000E+00  0.00000000000E+00  0.13847612749E+03  0.13847612758E+03  0.50400001928E-02 0. -1.
        1   -1    0    0  501    0  0.00000000000E+00  0.00000000000E+00 -0.18094867905E+04  0.18094867905E+04  0.50400001928E-02 0.  1.
    10030    2    1    2    0    0  0.00000000000E+00  0.00000000000E+00 -0.16710106631E+04  0.19479629181E+04  0.10011407965E+04 0.  0.
        4    1    3    3  502    0 -0.32905428116E+03 -0.37715463913E+03 -0.84881184206E+03  0.98539611217E+03  0.12699999809E+01 0. -1.
       -4    1    3    3    0  502  0.32905428116E+03  0.37715463913E+03 -0.82219882099E+03  0.96256680595E+03  0.12699999809E+01 0.  1.
</event>
<event>
 5   0  0.5758786E-04  0.9974619E+03  0.7818609E-02  0.9311333E-01
       -1   -1    0    0    0  501  0.00000000000E+00  0.00000000000E+00  0.24627331993E+03  0.24627331998E+03  0.50400001928E-02 0.  1.
        1   -1    0    0  501    0  0.00000000000E+00  0.00000000000E+00 -0.10099857356E+04  0.10099857356E+04  0.50400001928E-02 0. -1.
    10030    2    1    2    0    0  0.00000000000E+00  0.00000000000E+00 -0.76371241569E+03  0.12562590556E+04  0.99746185938E+03 0.  0.
        3    1    3    3  502    0 -0.31595608144E+03 -0.12975703354E+03  0.75843585080E+02  0.34988196974E+03  0.10100000352E+00 0.  1.
       -3    1    3    3    0  502  0.31595608144E+03  0.12975703354E+03 -0.83955600077E+03  0.90637708587E+03  0.10100000352E+00 0. -1.
</event>
<event>
 5   0  0.1006006E-03  0.1000592E+04  0.7818609E-02  0.9307896E-01
        2   -1    0    0  501    0  0.00000000000E+00  0.00000000000E+00  0.60927198447E+03  0.60927198448E+03  0.25500000920E-02 0. -1.
       -2   -1    0    0    0  501  0.00000000000E+00  0.00000000000E+00 -0.41081181793E+03  0.41081181794E+03  0.25500000920E-02 0.  1.
    10030    2    1    2    0    0  0.00000000000E+00  0.00000000000E+00  0.19846016654E+03  0.10200838024E+04  0.10005920878E+04 0.  0.
        2    1    3    3  502    0 -0.80860494102E+01 -0.47525010942E+03  0.25837378320E+03  0.54100375465E+03  0.25500000920E-02 0. -1.
       -2    1    3    3    0  502  0.80860494102E+01  0.47525010942E+03 -0.59913616666E+02  0.47908004776E+03  0.25500000920E-02 0.  1.
</event>
<event>
 5   0  0.5960102E-04  0.9999479E+03  0.7818609E-02  0.9308602E-01
       -1   -1    0    0    0  501  0.00000000000E+00  0.00000000000E+00  0.43317710178E+03  0.43317710181E+03  0.50400001928E-02 0.  1.
        1   -1    0    0  501    0  0.00000000000E+00  0.00000000000E+00 -0.57707096238E+03  0.57707096240E+03  0.50400001928E-02 0. -1.
    10030    2    1    2    0    0  0.00000000000E+00  0.00000000000E+00 -0.14389386060E+03  0.10102480642E+04  0.99994785270E+03 0.  0.
        5    1    3    3  502    0 -0.46891629311E+03  0.16825467934E+03 -0.29565928098E+02  0.49908752856E+03  0.46999998093E+01 0.  1.
       -5    1    3    3    0  502  0.46891629311E+03 -0.16825467934E+03 -0.11432793250E+03  0.51116053565E+03  0.46999998093E+01 0. -1.
</event>
<event>
 5   0  0.1006749E-03  0.9999392E+03  0.7818609E-02  0.9308612E-01
        2   -1    0    0  501    0  0.00000000000E+00  0.00000000000E+00  0.59749352583E+03  0.59749352584E+03  0.25500000920E-02 0. -1.
       -2   -1    0    0    0  501  0.00000000000E+00  0.00000000000E+00 -0.41836367369E+03  0.41836367370E+03  0.25500000920E-02 0.  1.
    10030    2    1    2    0    0  0.00000000000E+00  0.00000000000E+00  0.17912985214E+03  0.10158571995E+04  0.99993917111E+03 0.  0.
        1    1    3    3  502    0  0.48059437994E+03 -0.99430126167E+02  0.18654278065E+03  0.52502906306E+03  0.50400001928E-02 0. -1.
       -1    1    3    3    0  502 -0.48059437994E+03  0.99430126167E+02 -0.74129285051E+01  0.49082813648E+03  0.50400001928E-02 0.  1.
</event>
<event>
 5   0  0.5758786E-04  0.9983938E+03  0.7818609E-02  0.9310308E-01
       -1   -1    0    0    0  501  0.00000000000E+00  0.00000000000E+00  0.30689731090E+03  0.30689731094E+03  0.50400001928E-02 0.  1.
        1   -1    0    0  501    0  0.00000000000E+00  0.00000000000E+00 -0.81199000025E+03  0.81199000026E+03  0.50400001928E-02 0. -1.
    10030    2    1    2    0    0  0.00000000000E+00  0.00000000000E+00 -0.50509268935E+03  0.11188873112E+04  0.99839380524E+03 0.  0.
        3    1    3    3  502    0 -0.77501763442E+02 -0.94934833389E+02 -0.79486916614E+03  0.80426124326E+03  0.10100000352E+00 0. -1.
       -3    1    3    3    0  502  0.77501763442E+02  0.94934833389E+02  0.28977647679E+03  0.31462606794E+03  0.10100000352E+00 0.  1.
</event>
<event>
 5   0  0.1006749E-03  0.1001736E+04  0.7818609E-02  0.9306643E-01
        2   -1    0    0  501    0  0.00000000000E+00  0.00000000000E+00  0.94915288015E+03  0.94915288015E+03  0.25500000920E-02 0. -1.
       -2   -1    0    0    0  501  0.00000000000E+00  0.00000000000E+00 -0.26430796629E+03  0.26430796630E+03  0.25500000920E-02 0.  1.
    10030    2    1    2    0    0  0.00000000000E+00  0.00000000000E+00  0.68484491386E+03  0.12134608465E+04  0.10017358284E+04 0.  0.
        1    1    3    3  502    0  0.61411867781E+02 -0.79082053586E+02  0.93690598571E+03  0.94224105981E+03  0.50400001928E-02 0. -1.
       -1    1    3    3    0  502 -0.61411867781E+02  0.79082053586E+02 -0.25206107185E+03  0.27121978665E+03  0.50400001928E-02 0.  1.
</event>
<event>
 5   0  0.5826939E-04  0.1000482E+04  0.7818609E-02  0.9308016E-01
        1   -1    0    0  501    0  0.00000000000E+00  0.00000000000E+00  0.28847516914E+03  0.28847516919E+03  0.50400001928E-02 0.  1.
       -1   -1    0    0    0  501  0.00000000000E+00  0.00000000000E+00 -0.86746162959E+03  0.86746162960E+03  0.50400001928E-02 0. -1.
    10030    2    1    2    0    0  0.00000000000E+00  0.00000000000E+00 -0.57898646044E+03  0.11559367988E+04  0.10004821645E+04 0.  0.
        1    1    3    3  502    0 -0.12822083698E+03 -0.15949122982E+03 -0.81688718675E+03  0.84212986606E+03  0.50400001928E-02 0. -1.
       -1    1    3    3    0  502  0.12822083698E+03  0.15949122982E+03  0.23790072630E+03  0.31380693272E+03  0.50400001928E-02 0.  1.
</event>
<event>
 5   0  0.1020150E-03  0.9988750E+03  0.7818609E-02  0.9309780E-01
        2   -1    0    0  501    0  0.00000000000E+00  0.00000000000E+00  0.68743846344E+03  0.68743846345E+03  0.25500000920E-02 0.  1.
       -2   -1    0    0    0  501  0.00000000000E+00  0.00000000000E+00 -0.36285110407E+03  0.36285110408E+03  0.25500000920E-02 0. -1.
    10030    2    1    2    0    0  0.00000000000E+00  0.00000000000E+00  0.32458735937E+03  0.10502895675E+04  0.99887497806E+03 0.  0.
        5    1    3    3  502    0  0.10777818810E+03 -0.36179177109E+03 -0.18150131601E+03  0.41889645638E+03  0.46999998093E+01 0. -1.
       -5    1    3    3    0  502 -0.10777818810E+03  0.36179177109E+03  0.50608867538E+03  0.63139311115E+03  0.46999998093E+01 0.  1.
</event>
<event>
 5   0  0.5888774E-04  0.1002633E+04  0.7818609E-02  0.9305661E-01
        1   -1    0    0  501    0  0.00000000000E+00  0.00000000000E+00  0.10486311081E+04  0.10486311081E+04  0.50400001928E-02 0.  1.
       -1   -1    0    0    0  501  0.00000000000E+00  0.00000000000E+00 -0.23966327672E+03  0.23966327678E+03  0.50400001928E-02 0. -1.
    10030    2    1    2    0    0  0.00000000000E+00  0.00000000000E+00  0.80896783135E+03  0.12882943849E+04  0.10026332679E+04 0.  0.
        2    1    3    3  502    0  0.13030326151E+03 -0.10732707773E+03  0.10110112889E+04  0.10250082282E+04  0.25500000920E-02 0.  1.
       -2    1    3    3    0  502 -0.13030326151E+03  0.10732707773E+03 -0.20204345752E+03  0.26328615670E+03  0.25500000920E-02 0. -1.
</event>
<event>
 5   0  0.9741826E-04  0.1005328E+04  0.7818609E-02  0.9302721E-01
        2   -1    0    0  501    0  0.00000000000E+00  0.00000000000E+00  0.10556025380E+04  0.10556025380E+04  0.25500000920E-02 0. -1.
       -2   -1    0    0    0  501  0.00000000000E+00  0.00000000000E+00 -0.23936185440E+03  0.23936185441E+03  0.25500000920E-02 0.  1.
    10030    2    1    2    0    0  0.00000000000E+00  0.00000000000E+00  0.81624068361E+03  0.12949643924E+04  0.10053277695E+04 0.  0.
        3    1    3    3  502    0  0.51930264939E+01  0.42493754613E+03  0.62313412489E+02  0.42951351226E+03  0.10100000352E+00 0.  1.
       -3    1    3    3    0  502 -0.51930264939E+01 -0.42493754613E+03  0.75392727112E+03  0.86545088016E+03  0.10100000352E+00 0. -1.
</event>
<event>
 5   0  0.1006006E-03  0.1000148E+04  0.7818609E-02  0.9308382E-01
       -2   -1    0    0    0  501  0.00000000000E+00  0.00000000000E+00  0.13306687257E+03  0.13306687260E+03  0.25500000920E-02 0.  1.
        2   -1    0    0  501    0  0.00000000000E+00  0.00000000000E+00 -0.18793112713E+04  0.18793112713E+04  0.25500000920E-02 0. -1.
    10030    2    1    2    0    0  0.00000000000E+00  0.00000000000E+00 -0.17462443987E+04  0.20123781439E+04  0.10001481360E+04 0.  0.
        2    1    3    3  502    0  0.86270981024E+02  0.46855156846E+03 -0.11788711186E+04  0.12715031926E+04  0.25500000920E-02 0. -1.
       -2    1    3    3    0  502 -0.86270981024E+02 -0.46855156846E+03 -0.56737328011E+03  0.74087495130E+03  0.25500000920E-02 0.  1.
</event>
<event>
 5   0  0.3854625E-04  0.9998299E+03  0.7818609E-02  0.9308731E-01
       -4   -1    0    0    0  501  0.00000000000E+00  0.00000000000E+00  0.45450781188E+03  0.45450958621E+03  0.12699999809E+01 0. -1.
        4   -1    0    0  501    0  0.00000000000E+00  0.00000000000E+00 -0.54985486269E+03  0.54985632935E+03  0.12699999809E+01 0.  1.
    10030    2    1    2    0    0  0.00000000000E+00  0.00000000000E+00 -0.95347050817E+02  0.10043659156E+04  0.99982990166E+03 0.  0.
        5    1    3    3  502    0  0.10685644801E+03  0.12127394463E+03  0.42751293401E+03  0.45707227970E+03  0.46999998093E+01 0. -1.
       -5    1    3    3    0  502 -0.10685644801E+03 -0.12127394463E+03 -0.52285998482E+03  0.54729363586E+03  0.46999998093E+01 0.  1.
</event>
<event>
 5   0  0.1020150E-03  0.9995359E+03  0.7818609E-02  0.9309054E-01
        2   -1    0    0  501    0  0.00000000000E+00  0.00000000000E+00  0.56628413910E+03  0.56628413910E+03  0.25500000920E-02 0. -1.
       -2   -1    0    0    0  501  0.00000000000E+00  0.00000000000E+00 -0.44106480803E+03  0.44106480804E+03  0.25500000920E-02 0.  1.
    10030    2    1    2    0    0  0.00000000000E+00  0.00000000000E+00  0.12521933106E+03  0.10073489471E+04  0.99953590253E+03 0.  0.
        5    1    3    3  502    0 -0.26228955265E+03 -0.31801480015E+03  0.34733650174E+03  0.53906767477E+03  0.46999998093E+01 0. -1.
       -5    1    3    3    0  502  0.26228955265E+03  0.31801480015E+03 -0.22211717067E+03  0.46828127237E+03  0.46999998093E+01 0.  1.
</event>
<event>
 5   0  0.1020150E-03  0.1002307E+04  0.7818609E-02  0.9306019E-01
       -2   -1    0    0    0  501  0.00000000000E+00  0.00000000000E+00  0.60112456843E+03  0.60112456843E+03  0.25500000920E-02 0. -1.
        2   -1    0    0  501    0  0.00000000000E+00  0.00000000000E+00 -0.41780788464E+03  0.41780788465E+03  0.25500000920E-02 0.  1.
    10030    2    1    2    0    0  0.00000000000E+00  0.00000000000E+00  0.18331668378E+03  0.10189324531E+04  0.10023065087E+04 0.  0.
        5    1    3    3  502    0 -0.37458415776E+03  0.31237078533E+03 -0.25331846142E+02  0.48841845910E+03  0.46999998093E+01 0.  1.
       -5    1    3    3    0  502  0.37458415776E+03 -0.31237078533E+03  0.20864852993E+03  0.53051399398E+03  0.46999998093E+01 0. -1.
</event>
<event>
 5   0  0.9741826E-04  0.1003267E+04  0.7818609E-02  0.9304968E-01
        2   -1    0    0  501    0  0.00000000000E+00  0.00000000000E+00  0.67331363860E+03  0.67331363860E+03  0.25500000920E-02 0. -1.
       -2   -1    0    0    0  501  0.00000000000E+00  0.00000000000E+00 -0.37372827202E+03  0.37372827203E+03  0.25500000920E-02 0.  1.
    10030    2    1    2    0    0  0.00000000000E+00  0.00000000000E+00  0.29958536657E+03  0.10470419106E+04  0.10032673476E+04 0.  0.
        3    1    3    3  502    0 -0.29252085322E+03  0.20841024484E+03 -0.21567683237E+03  0.41895081566E+03  0.10100000352E+00 0.  1.
       -3    1    3    3    0  502  0.29252085322E+03 -0.20841024484E+03  0.51526219894E+03  0.62809109497E+03  0.10100000352E+00 0. -1.
</event>
<event>
 5   0  0.1006749E-03  0.1000800E+04  0.7818609E-02  0.9307668E-01
        2   -1    0    0  501    0  0.00000000000E+00  0.00000000000E+00  0.76852974771E+03  0.76852974772E+03  0.25500000920E-02 0. -1.
       -2   -1    0    0    0  501  0.00000000000E+00  0.00000000000E+00 -0.32581700381E+03  0.32581700382E+03  0.25500000920E-02 0.  1.
    10030    2    1    2    0    0  0.00000000000E+00  0.00000000000E+00  0.44271274390E+03  0.10943467515E+04  0.10007997997E+04 0.  0.
        1    1    3    3  502    0 -0.26413391625E+03 -0.18778459472E+03  0.63826948666E+03  0.71583358217E+03  0.50400001928E-02 0. -1.
       -1    1    3    3    0  502  0.26413391625E+03  0.18778459472E+03 -0.19555674276E+03  0.37851316937E+03  0.50400001928E-02 0.  1.
</event>
<event>
 5   0  0.5960102E-04  0.1001085E+04  0.7818609E-02  0.9307356E-01
        1   -1    0    0  501    0  0.00000000000E+00  0.00000000000E+00  0.32875605156E+03  0.32875605160E+03  0.50400001928E-02 0.  1.
       -1   -1    0    0    0  501  0.00000000000E+00  0.00000000000E+00 -0.76209281992E+03  0.76209281993E+03  0.50400001928E-02 0. -1.
    10030    2    1    2    0    0  0.00000000000E+00  0.00000000000E+00 -0.43333676836E+03  0.10908488715E+04  0.10010846646E+04 0.  0.
        5    1    3    3  502    0  0.27835165481E+03 -0.38520461717E+03 -0.38777835034E+03  0.61339740774E+03  0.46999998093E+01 0.  1.
       -5    1    3    3    0  502 -0.27835165481E+03  0.38520461717E+03 -0.45558418011E+02  0.47745146379E+03  0.46999998093E+01 0. -1.
</event>
<event>
 5   0  0.5826939E-04  0.9999263E+03  0.7818609E-02  0.9308626E-01
       -1   -1    0    0    0  501  0.00000000000E+00  0.00000000000E+00  0.12950895130E+04  0.12950895130E+04  0.50400001928E-02 0. -1.
        1   -1    0    0  501    0  0.00000000000E+00  0.00000000000E+00 -0.19300838386E+03  0.19300838393E+03  0.50400001928E-02 0.  1.
    10030    2    1    2    0    0  0.00000000000E+00  0.00000000000E+00  0.11020811291E+04  0.14880978969E+04  0.99992626510E+03 0.  0.
        1    1    3    3  502    0 -0.33841161184E+03  0.32551280076E+03  0.80657119444E+03  0.93329421632E+03  0.50400001928E-02 0. -1.
       -1    1    3    3    0  502  0.33841161184E+03 -0.32551280076E+03  0.29550993469E+03  0.55480368060E+03  0.50400001928E-02 0.  1.
</event>
<event>
 5   0  0.3854625E-04  0.1000378E+04  0.7818609E-02  0.9308130E-01
        3   -1    0    0  501    0  0.00000000000E+00  0.00000000000E+00  0.30482011900E+03  0.30482013573E+03  0.10100000352E+00 0. -1.
       -3   -1    0    0    0  501  0.00000000000E+00  0.00000000000E+00 -0.82077624047E+03  0.82077624668E+03  0.10100000352E+00 0.  1.
    10030    2    1    2    0    0  0.00000000000E+00  0.00000000000E+00 -0.51595612147E+03  0.11255963824E+04  0.10003781769E+04 0.  0.
        3    1    3    3  502    0 -0.35879644493E+03 -0.16722643586E+02 -0.64965160509E+03  0.74233533790E+03  0.10100000352E+00 0.  1.
       -3    1    3    3    0  502  0.35879644493E+03  0.16722643586E+02  0.13369548362E+03  0.38326104451E+03  0.10100000352E+00 0. -1.
</event>
<event>
 5   0  0.1006006E-03  0.9984076E+03  0.7818609E-02  0.9310293E-01
        2   -1    0    0  501    0  0.00000000000E+00  0.00000000000E+00  0.23742016327E+03  0.23742016328E+03  0.25500000920E-02 0. -1.
       -2   -1    0    0    0  501  0.00000000000E+00  0.00000000000E+00 -0.10496345914E+04  0.10496345914E+04  0.25500000920E-02 0.  1.
    10030    2    1    2    0    0  0.00000000000E+00  0.00000000000E+00 -0.81221442816E+03  0.12870547547E+04  0.99840756423E+03 0.  0.
        2    1    3    3  502    0 -0.15101416563E+03 -0.29674367687E+03 -0.88558302308E+03  0.94610748795E+03  0.25500000920E-02 0.  1.
       -2    1    3    3    0  502  0.15101416563E+03  0.29674367687E+03  0.73368594921E+02  0.34094726676E+03  0.25500000920E-02 0. -1.
</event>
<event>
 5   0  0.5888774E-04  0.9988105E+03  0.7818609E-02  0.9309850E-01
       -1   -1    0    0    0  501  0.00000000000E+00  0.00000000000E+00  0.53487358736E+03  0.53487358738E+03  0.50400001928E-02 0.  1.
        1   -1    0    0  501    0  0.00000000000E+00  0.00000000000E+00 -0.46628891861E+03  0.46628891863E+03  0.50400001928E-02 0. -1.
    10030    2    1    2    0    0  0.00000000000E+00  0.00000000000E+00  0.68584668750E+02  0.10011625060E+04  0.99881054593E+03 0.  0.
        2    1    3    3  502    0  0.69533027845E+02  0.15031158421E+03  0.50654634414E+03  0.53293302870E+03  0.25500000920E-02 0.  1.
       -2    1    3    3    0  502 -0.69533027845E+02 -0.15031158421E+03 -0.43796167539E+03  0.46822947732E+03  0.25500000920E-02 0. -1.
</event>
<event>
 5   0  0.1006749E-03  0.9990116E+03  0.7818609E-02  0.9309630E-01
       -2   -1    0    0    0  501  0.00000000000E+00  0.00000000000E+00  0.23257463232E+03  0.23257463233E+03  0.25500000920E-02 0. -1.
        2   -1    0    0  501    0  0.00000000000E+00  0.00000000000E+00 -0.10727998631E+04  0.10727998631E+04  0.25500000920E-02 0.  1.
    10030    2    1    2    0    0  0.00000000000E+00  0.00000000000E+00 -0.84022523076E+03  0.13053744954E+04  0.99901157895E+03 0.  0.
        1    1    3    3  502    0  0.71726139518E+02 -0.39265146741E+03 -0.81251776033E+03  0.90526511301E+03  0.50400001928E-02 0.  1.
       -1    1    3    3    0  502 -0.71726139518E+02  0.39265146741E+03 -0.27707470430E+02  0.40010938241E+03  0.50400001928E-02 0. -1.
</event>
<event>
 5   0  0.1020150E-03  0.1000894E+04  0.7818609E-02  0.9307564E-01
       -2   -1    0    0    0  501  0.00000000000E+00  0.00000000000E+00  0.38318183348E+03  0.38318183348E+03  0.25500000920E-02 0. -1.
        2   -1    0    0  501    0  0.00000000000E+00  0.00000000000E+00 -0.65359924387E+03  0.65359924387E+03  0.25500000920E-02 0.  1.
    10030    2    1    2    0    0  0.00000000000E+00  0.00000000000E+00 -0.27041741039E+03  0.10367810774E+04  0.10008943134E+04 0.  0.
        5    1    3    3  502    0  0.38203209397E+03 -0.30767188227E+03 -0.23783027483E+03  0.54515670920E+03  0.46999998093E+01 0.  1.
       -5    1    3    3    0  502 -0.38203209397E+03  0.30767188227E+03 -0.32587135557E+02  0.49162436815E+03  0.46999998093E+01 0. -1.
</event>
<event>
 5   0  0.3854625E-04  0.1001123E+04  0.7818609E-02  0.9307314E-01
       -3   -1    0    0    0  501  0.00000000000E+00  0.00000000000E+00  0.55331858581E+03  0.55331859503E+03  0.10100000352E+00 0. -1.
        3   -1    0    0  501    0  0.00000000000E+00  0.00000000000E+00 -0.45283486834E+03  0.45283487960E+03  0.10100000352E+00 0.  1.
    10030    2    1    2    0    0  0.00000000000E+00  0.00000000000E+00  0.10048371747E+03  0.10061534746E+04  0.10011232876E+04 0.  0.
        3    1    3    3  502    0  0.27454512825E+03 -0.31125505370E+02 -0.36924980478E+03  0.46118245095E+03  0.10100000352E+00 0.  1.
       -3    1    3    3    0  502 -0.27454512825E+03  0.31125505370E+02  0.46973352225E+03  0.54497102369E+03  0.10100000352E+00 0. -1.
</event>
<event>
 5   0  0.5758786E-04  0.9995221E+03  0.7818609E-02  0.9309069E-01
       -1   -1    0    0    0  501  0.00000000000E+00  0.00000000000E+00  0.65250600634E+03  0.65250600636E+03  0.50400001928E-02 0.  1.
        1   -1    0    0  501    0  0.00000000000E+00  0.00000000000E+00 -0.38277210809E+03  0.38277210813E+03  0.50400001928E-02 0. -1.
    10030    2    1    2    0    0  0.00000000000E+00  0.00000000000E+00  0.26973389825E+03  0.10352781145E+04  0.99952208503E+03 0.  0.
        3    1    3    3  502    0  0.27143759176E+03  0.41803055943E+03  0.97048113744E+02  0.50778564515E+03  0.10100000352E+00 0. -1.
       -3    1    3    3    0  502 -0.27143759176E+03 -0.41803055943E+03  0.17268578451E+03  0.52749246934E+03  0.10100000352E+00 0.  1.
</event>
<event>
 5   0  0.5960102E-04  0.1001148E+04  0.7818609E-02  0.9307286E-01
       -1   -1    0    0    0  501  0.00000000000E+00  0.00000000000E+00  0.12497774246E+04  0.12497774247E+04  0.50400001928E-02 0.  1.
        1   -1    0    0  501    0  0.00000000000E+00  0.00000000000E+00 -0.20049520334E+03  0.20049520340E+03  0.50400001928E-02 0. -1.
    10030    2    1    2    0    0  0.00000000000E+00  0.00000000000E+00  0.10492822213E+04  0.14502726281E+04  0.10011480988E+04 0.  0.
        5    1    3    3  502    0 -0.24262396186E+03 -0.29806741109E+03  0.98919488208E+03  0.10612441628E+04  0.46999998093E+01 0.  1.
       -5    1    3    3    0  502  0.24262396186E+03  0.29806741109E+03  0.60087339231E+02  0.38902846523E+03  0.46999998093E+01 0. -1.
</event>
<event>
 5   0  0.1006749E-03  0.9971049E+03  0.7818609E-02  0.9311726E-01
        2   -1    0    0  501    0  0.00000000000E+00  0.00000000000E+00  0.11663415667E+04  0.11663415667E+04  0.25500000920E-02 0.  1.
       -2   -1    0    0    0  501  0.00000000000E+00  0.00000000000E+00 -0.21310614603E+03  0.21310614605E+03  0.25500000920E-02 0. -1.
    10030    2    1    2    0    0  0.00000000000E+00  0.00000000000E+00  0.95323542066E+03  0.13794477127E+04  0.99710492175E+03 0.  0.
        1    1    3    3  502    0  0.33479981680E+02  0.34507303811E+03 -0.19033612303E+02  0.34721547953E+03  0.50400001928E-02 0. -1.
       -1    1    3    3    0  502 -0.33479981680E+02 -0.34507303811E+03  0.97226903296E+03  0.10322322332E+04  0.50400001928E-02 0.  1.
</event>
<event>
 5   0  0.9674819E-04  0.9975045E+03  0.7818609E-02  0.9311286E-01
        2   -1    0    0  501    0  0.00000000000E+00  0.00000000000E+00  0.13020528320E+04  0.13020528320E+04  0.25500000920E-02 0.  1.
       -2   -1    0    0    0  501  0.00000000000E+00  0.00000000000E+00 -0.19104740715E+03  0.19104740717E+03  0.25500000920E-02 0. -1.
    10030    2    1    2    0    0  0.00000000000E+00  0.00000000000E+00  0.11110054249E+04  0.14931002392E+04  0.99750452139E+03 0.  0.
        4    1    3    3  502    0  0.85477801068E+02 -0.39109366443E+03  0.10007741731E+04  0.10778734932E+04  0.12699999809E+01 0.  1.
       -4    1    3    3    0  502 -0.85477801068E+02  0.39109366443E+03  0.11023125173E+03  0.41522674599E+03  0.12699999809E+01 0. -1.
</event>
<event>
 5   0  0.3854625E-04  0.9981622E+03  0.7818609E-02  0.9310563E-01
       -4   -1    0    0    0  501  0.00000000000E+00  0.00000000000E+00  0.95764872643E+03  0.95764956855E+03  0.12699999809E+01 0.  1.
        4   -1    0    0  501    0  0.00000000000E+00  0.00000000000E+00 -0.26009490557E+03  0.26009800615E+03  0.12699999809E+01 0. -1.
    10030    2    1    2    0    0  0.00000000000E+00  0.00000000000E+00  0.69755382086E+03  0.12177475747E+04  0.99816222262E+03 0.  0.
        1    1    3    3  502    0  0.16679058243E+03 -0.22818439772E+03  0.85059876388E+03  0.89632888768E+03  0.50400001928E-02 0.  1.
       -1    1    3    3    0  502 -0.16679058243E+03  0.22818439772E+03 -0.15304494302E+03  0.32141868701E+03  0.50400001928E-02 0. -1.
</event>
<event>
 5   0  0.5768102E-04  0.9987268E+03  0.7818609E-02  0.9309942E-01
       -1   -1    0    0    0  501  0.00000000000E+00  0.00000000000E+00  0.39912273072E+03  0.39912273076E+03  0.50400001928E-02 0. -1.
        1   -1    0    0  501    0  0.00000000000E+00  0.00000000000E+00 -0.62477974755E+03  0.62477974757E+03  0.50400001928E-02 0.  1.
    10030    2    1    2    0    0  0.00000000000E+00  0.00000000000E+00 -0.22565701683E+03  0.10239024783E+04  0.99872678741E+03 0.  0.
        4    1    3    3  502    0  0.48266655036E+03  0.12697233150E+03 -0.95882649605E+02  0.50821655542E+03  0.12699999809E+01 0.  1.
       -4    1    3    3    0  502 -0.48266655036E+03 -0.12697233150E+03 -0.12977436722E+03  0.51568592291E+03  0.12699999809E+01 0. -1.
</event>
<event>
 5   0  0.9741826E-04  0.9999920E+03  0.7818609E-02  0.9308554E-01
       -2   -1    0    0    0  501  0.00000000000E+00  0.00000000000E+00  0.70972126971E+03  0.70972126971E+03  0.25500000920E-02 0. -1.
        2   -1    0    0  501    0  0.00000000000E+00  0.00000000000E+00 -0.35224530912E+03  0.35224530913E+03  0.25500000920E-02 0.  1.
    10030    2    1    2    0    0  0.00000000000E+00  0.00000000000E+00  0.35747596059E+03  0.10619665788E+04  0.99999197605E+03 0.  0.
        3    1    3    3  502    0  0.31246636599E+03  0.39028051364E+03  0.18560959417E+03  0.53329639119E+03  0.10100000352E+00 0.  1.
       -3    1    3    3    0  502 -0.31246636599E+03 -0.39028051364E+03  0.17186636642E+03  0.52867018765E+03  0.10100000352E+00 0. -1.
</event>
<event>
 5   0  0.5826939E-04  0.9994241E+03  0.7818609E-02  0.9309177E-01
       -1   -1    0    0    0  501  0.00000000000E+00  0.00000000000E+00  0.55392586337E+03  0.55392586339E+03  0.50400001928E-02 0.  1.
        1   -1    0    0  501    0  0.00000000000E+00  0.00000000000E+00 -0.45080426305E+03  0.45080426308E+03  0.50400001928E-02 0. -1.
    10030    2    1    2    0    0  0.00000000000E+00  0.00000000000E+00  0.10312160032E+03  0.10047301265E+04  0.99942411547E+03 0.  0.
        1    1    3    3  502    0 -0.23485674439E+03  0.34480281830E+03  0.32809475056E+03  0.53074743454E+03  0.50400001928E-02 0.  1.
       -1    1    3    3    0  502  0.23485674439E+03 -0.34480281830E+03 -0.22497315024E+03  0.47398269193E+03  0.50400001928E-02 0. -1.
</event>
<event>
 5   0  0.1020150E-03  0.9989918E+03  0.7818609E-02  0.9309651E-01
        2   -1    0    0  501    0  0.00000000000E+00  0.00000000000E+00  0.85947384424E+03  0.85947384424E+03  0.25500000920E-02 0. -1.
       -2   -1    0    0    0  501  0.00000000000E+00  0.00000000000E+00 -0.29028943359E+03  0.29028943360E+03  0.25500000920E-02 0.  1.
    10030    2    1    2    0    0  0.00000000000E+00  0.00000000000E+00  0.56918441065E+03  0.11497632778E+04  0.99899184269E+03 0.  0.
        5    1    3    3  502    0  0.13516928616E+03  0.38580973154E+03 -0.45693189407E+02  0.41137554913E+03  0.46999998093E+01 0.  1.
       -5    1    3    3    0  502 -0.13516928616E+03 -0.38580973154E+03  0.61487760006E+03  0.73838772871E+03  0.46999998093E+01 0. -1.
</event>
<event>
 5   0  0.5888774E-04  0.1016490E+04  0.7818609E-02  0.9290641E-01
       -1   -1    0    0    0  501  0.00000000000E+00  0.00000000000E+00  0.58088516385E+03  0.58088516388E+03  0.50400001928E-02 0.  1.
        1   -1    0    0  501    0  0.00000000000E+00  0.00000000000E+00 -0.44468864575E+03  0.44468864578E+03  0.50400001928E-02 0. -1.
    10030    2    1    2    0    0  0.00000000000E+00  0.00000000000E+00  0.13619651810E+03  0.10255738097E+04  0.10164901119E+04 0.  0.
        2    1    3    3  502    0 -0.14840595033E+03  0.45164809117E+03 -0.11323741857E+03  0.48870547094E+03  0.25500000920E-02 0. -1.
       -2    1    3    3    0  502  0.14840595033E+03 -0.45164809117E+03  0.24943393667E+03  0.53686833872E+03  0.25500000920E-02 0.  1.
</event>
<event>
 5   0  0.1006749E-03  0.9991503E+03  0.7818609E-02  0.9309477E-01
       -2   -1    0    0    0  501  0.00000000000E+00  0.00000000000E+00  0.15388753954E+03  0.15388753956E+03  0.25500000920E-02 0.  1.
        2   -1    0    0  501    0  0.00000000000E+00  0.00000000000E+00 -0.16218032730E+04  0.16218032730E+04  0.25500000920E-02 0. -1.
    10030    2    1    2    0    0  0.00000000000E+00  0.00000000000E+00 -0.14679157334E+04  0.17756908126E+04  0.99915026962E+03 0.  0.
        1    1    3    3  502    0 -0.11844331768E+02 -0.49895085632E+03 -0.77301870910E+03  0.92013595184E+03  0.50400001928E-02 0. -1.
       -1    1    3    3    0  502  0.11844331768E+02  0.49895085632E+03 -0.69489702434E+03  0.85555486071E+03  0.50400001928E-02 0.  1.
</event>
<event>
 5   0  0.1006006E-03  0.9988206E+03  0.7818609E-02  0.9309839E-01
       -2   -1    0    0    0  501  0.00000000000E+00  0.00000000000E+00  0.32272867149E+03  0.32272867150E+03  0.25500000920E-02 0.  1.
        2   -1    0    0  501    0  0.00000000000E+00  0.00000000000E+00 -0.77281842379E+03  0.77281842380E+03  0.25500000920E-02 0. -1.
    10030    2    1    2    0    0  0.00000000000E+00  0.00000000000E+00 -0.45008975230E+03  0.10955470953E+04  0.99882063099E+03 0.  0.
        2    1    3    3  502    0 -0.29867188641E+02 -0.49851410748E+03 -0.22338183191E+03  0.54709030986E+03  0.25500000920E-02 0.  1.
       -2    1    3    3    0  502  0.29867188641E+02  0.49851410748E+03 -0.22670792039E+03  0.54845678543E+03  0.25500000920E-02 0. -1.
</event>
<event>
 5   0  0.3854625E-04  0.1000146E+04  0.7818609E-02  0.9308385E-01
        3   -1    0    0  501    0  0.00000000000E+00  0.00000000000E+00  0.35747614149E+03  0.35747615576E+03  0.10100000352E+00 0. -1.
       -3   -1    0    0    0  501  0.00000000000E+00  0.00000000000E+00 -0.69955096172E+03  0.69955096901E+03  0.10100000352E+00 0.  1.
    10030    2    1    2    0    0  0.00000000000E+00  0.00000000000E+00 -0.34207482023E+03  0.10570271248E+04  0.10001455693E+04 0.  0.
        2    1    3    3  502    0  0.82699846418E+02  0.12282374111E+03  0.33377626444E+03  0.36514590329E+03  0.25500000920E-02 0. -1.
       -2    1    3    3    0  502 -0.82699846418E+02 -0.12282374111E+03 -0.67585108467E+03  0.69188122148E+03  0.25500000920E-02 0.  1.
</event>
<event>
 5   0  0.5768102E-04  0.1006395E+04  0.7818609E-02  0.9301559E-01
       -1   -1    0    0    0  501  0.00000000000E+00  0.00000000000E+00  0.78012074049E+03  0.78012074050E+03  0.50400001928E-02 0.  1.
        1   -1    0    0  501    0  0.00000000000E+00  0.00000000000E+00 -0.32457483826E+03  0.32457483830E+03  0.50400001928E-02 0. -1.
    10030    2    1    2    0    0  0.00000000000E+00  0.00000000000E+00  0.45554590222E+03  0.11046955788E+04  0.10063946804E+04 0.  0.
        4    1    3    3  502    0 -0.13636360731E+03 -0.36164312301E+03 -0.12591934925E+03  0.40649486741E+03  0.12699999809E+01 0. -1.
       -4    1    3    3    0  502  0.13636360731E+03  0.36164312301E+03  0.58146525147E+03  0.69820071139E+03  0.12699999809E+01 0.  1.
</event>
<event>
 5   0  0.3854625E-04  0.1008672E+04  0.7818609E-02  0.9299085E-01
       -3   -1    0    0    0  501  0.00000000000E+00  0.00000000000E+00  0.52664136251E+03  0.52664137220E+03  0.10100000352E+00 0.  1.
        3   -1    0    0  501    0  0.00000000000E+00  0.00000000000E+00 -0.48297517028E+03  0.48297518084E+03  0.10100000352E+00 0. -1.
    10030    2    1    2    0    0  0.00000000000E+00  0.00000000000E+00  0.43666192238E+02  0.10096165530E+04  0.10086718236E+04 0.  0.
        1    1    3    3  502    0 -0.47148487908E+02 -0.19014612471E+03  0.48700074598E+03  0.52492690468E+03  0.50400001928E-02 0.  1.
       -1    1    3    3    0  502  0.47148487908E+02  0.19014612471E+03 -0.44333455374E+03  0.48468964835E+03  0.50400001928E-02 0. -1.
</event>
<event>
 5   0  0.9674819E-04  0.1000414E+04  0.7818609E-02  0.9308091E-01
       -2   -1    0    0    0  501  0.00000000000E+00  0.00000000000E+00  0.11711228030E+03  0.11711228032E+03  0.25500000920E-02 0. -1.
        2   -1    0    0  501    0  0.00000000000E+00  0.00000000000E+00 -0.21364700320E+04  0.21364700320E+04  0.25500000920E-02 0.  1.
    10030    2    1    2    0    0  0.00000000000E+00  0.00000000000E+00 -0.20193577517E+04  0.22535823123E+04  0.10004136690E+04 0.  0.
        4    1    3    3  502    0  0.21890476335E+03 -0.43279086794E+03 -0.73398875218E+03  0.87975469991E+03  0.12699999809E+01 0.  1.
       -4    1    3    3    0  502 -0.21890476335E+03  0.43279086794E+03 -0.12853689995E+04  0.13738276124E+04  0.12699999809E+01 0. -1.
</event>
<event>
 5   0  0.1020150E-03  0.9961929E+03  0.7818609E-02  0.9312730E-01
       -2   -1    0    0    0  501  0.00000000000E+00  0.00000000000E+00  0.17018603742E+03  0.17018603744E+03  0.25500000920E-02 0. -1.
        2   -1    0    0  501    0  0.00000000000E+00  0.00000000000E+00 -0.14578167089E+04  0.14578167089E+04  0.25500000920E-02 0.  1.
    10030    2    1    2    0    0  0.00000000000E+00  0.00000000000E+00 -0.12876306715E+04  0.16280027463E+04  0.99619285080E+03 0.  0.
        5    1    3    3  502    0 -0.15818002708E+03  0.16243129810E+03 -0.13685586317E+04  0.13872201217E+04  0.46999998093E+01 0.  1.
       -5    1    3    3    0  502  0.15818002708E+03 -0.16243129810E+03  0.80927960274E+02  0.24078262463E+03  0.46999998093E+01 0. -1.
</event>
<event>
 5   0  0.5826939E-04  0.1000004E+04  0.7818609E-02  0.9308540E-01
       -1   -1    0    0    0  501  0.00000000000E+00  0.00000000000E+00  0.25443474770E+03  0.25443474775E+03  0.50400001928E-02 0. -1.
        1   -1    0    0  501    0  0.00000000000E+00  0.00000000000E+00 -0.98257840591E+03  0.98257840592E+03  0.50400001928E-02 0.  1.
    10030    2    1    2    0    0  0.00000000000E+00  0.00000000000E+00 -0.72814365821E+03  0.12370131537E+04  0.10000041777E+04 0.  0.
        1    1    3    3  502    0 -0.31190099468E+03 -0.32751305167E+03 -0.10033934964E+03  0.46326559834E+03  0.50400001928E-02 0. -1.
       -1    1    3    3    0  502  0.31190099468E+03  0.32751305167E+03 -0.62780430857E+03  0.77374755533E+03  0.50400001928E-02 0.  1.
</event>
<event>
 5   0  0.9674819E-04  0.9992254E+03  0.7818609E-02  0.9309395E-01
        2   -1    0    0  501    0  0.00000000000E+00  0.00000000000E+00  0.12069447746E+04  0.12069447746E+04  0.25500000920E-02 0.  1.
       -2   -1    0    0    0  501  0.00000000000E+00  0.00000000000E+00 -0.20681382826E+03  0.20681382827E+03  0.25500000920E-02 0. -1.
    10030    2    1    2    0    0  0.00000000000E+00  0.00000000000E+00  0.10001309464E+04  0.14137586029E+04  0.99922543872E+03 0.  0.
        4    1    3    3  502    0 -0.32400116889E+02 -0.33692329807E+03 -0.19870318757E+02  0.33906270633E+03  0.12699999809E+01 0. -1.
       -4    1    3    3    0  502  0.32400116889E+02  0.33692329807E+03  0.10200012651E+04  0.10746958966E+04  0.12699999809E+01 0.  1.
</event>
<event>
 5   0  0.3854625E-04  0.1001688E+04  0.7818609E-02  0.9306695E-01
       -3   -1    0    0    0  501  0.00000000000E+00  0.00000000000E+00  0.49656011548E+03  0.49656012575E+03  0.10100000352E+00 0. -1.
        3   -1    0    0  501    0  0.00000000000E+00  0.00000000000E+00 -0.50516486508E+03  0.50516487517E+03  0.10100000352E+00 0.  1.
    10030    2    1    2    0    0  0.00000000000E+00  0.00000000000E+00 -0.86047495978E+01  0.10017250009E+04  0.10016880431E+04 0.  0.
        1    1    3    3  502    0  0.39430749831E+03 -0.26947571363E+03  0.14653147142E+03  0.49956684799E+03  0.50400001928E-02 0. -1.
       -1    1    3    3    0  502 -0.39430749831E+03  0.26947571363E+03 -0.15513622102E+03  0.50215815294E+03  0.50400001928E-02 0.  1.
</event>
<event>
 5   0  0.5758786E-04  0.1001129E+04  0.7818609E-02  0.9307307E-01
       -1   -1    0    0    0  501  0.00000000000E+00  0.00000000000E+00  0.34749331874E+03  0.34749331878E+03  0.50400001928E-02 0. -1.
        1   -1    0    0  501    0  0.00000000000E+00  0.00000000000E+00 -0.72106400414E+03  0.72106400415E+03  0.50400001928E-02 0.  1.
    10030    2    1    2    0    0  0.00000000000E+00  0.00000000000E+00 -0.37357068540E+03  0.10685573229E+04  0.10011292101E+04 0.  0.
        3    1    3    3  502    0 -0.44803613371E+03  0.18549268085E+03 -0.31933053730E+03  0.58061683924E+03  0.10100000352E+00 0.  1.
       -3    1    3    3    0  502  0.44803613371E+03 -0.18549268085E+03 -0.54240148101E+02  0.48794048369E+03  0.10100000352E+00 0. -1.
</event>
<event>
 5   0  0.5888774E-04  0.1000632E+04  0.7818609E-02  0.9307852E-01
       -1   -1    0    0    0  501  0.00000000000E+00  0.00000000000E+00  0.42977702884E+03  0.42977702887E+03  0.50400001928E-02 0.  1.
        1   -1    0    0  501    0  0.00000000000E+00  0.00000000000E+00 -0.58243228791E+03  0.58243228793E+03  0.50400001928E-02 0. -1.
    10030    2    1    2    0    0  0.00000000000E+00  0.00000000000E+00 -0.15265525908E+03  0.10122093168E+04  0.10006318368E+04 0.  0.
        2    1    3    3  502    0  0.26457630769E+02  0.73411842205E+02 -0.57623851830E+03  0.58149818123E+03  0.25500000920E-02 0. -1.
       -2    1    3    3    0  502 -0.26457630769E+02 -0.73411842205E+02  0.42358325922E+03  0.43071113557E+03  0.25500000920E-02 0.  1.
</event>
<event>
 5   0  0.5888774E-04  0.9999099E+03  0.7818609E-02  0.9308644E-01
        1   -1    0    0  501    0  0.00000000000E+00  0.00000000000E+00  0.14458853824E+04  0.14458853824E+04  0.50400001928E-02 0. -1.
       -1   -1    0    0    0  501  0.00000000000E+00  0.00000000000E+00 -0.17287327888E+03  0.17287327895E+03  0.50400001928E-02 0.  1.
    10030    2    1    2    0    0  0.00000000000E+00  0.00000000000E+00  0.12730121035E+04  0.16187586614E+04  0.99990988995E+03 0.  0.
        2    1    3    3  502    0 -0.19073782953E+03 -0.25098147234E+03  0.82911345870E+01  0.31534324472E+03  0.25500000920E-02 0.  1.
       -2    1    3    3    0  502  0.19073782953E+03  0.25098147234E+03  0.12647209689E+04  0.13034154166E+04  0.25500000920E-02 0. -1.
</event>
<event>
 5   0  0.5826939E-04  0.9998464E+03  0.7818609E-02  0.9308713E-01
       -1   -1    0    0    0  501  0.00000000000E+00  0.00000000000E+00  0.64871905716E+03  0.64871905718E+03  0.50400001928E-02 0.  1.
        1   -1    0    0  501    0  0.00000000000E+00  0.00000000000E+00 -0.38525642076E+03  0.38525642079E+03  0.50400001928E-02 0. -1.
    10030    2    1    2    0    0  0.00000000000E+00  0.00000000000E+00  0.26346263640E+03  0.10339754780E+04  0.99984635232E+03 0.  0.
        1    1    3    3  502    0 -0.90917092268E+02  0.37520415434E+03  0.46018761110E+03  0.60068020821E+03  0.50400001928E-02 0.  1.
       -1    1    3    3    0  502  0.90917092268E+02 -0.37520415434E+03 -0.19672497469E+03  0.43329526976E+03  0.50400001928E-02 0. -1.
</event>
<event>
 5   0  0.5960102E-04  0.1000655E+04  0.7818609E-02  0.9307826E-01
        1   -1    0    0  501    0  0.00000000000E+00  0.00000000000E+00  0.13090339346E+04  0.13090339346E+04  0.50400001928E-02 0.  1.
       -1   -1    0    0    0  501  0.00000000000E+00  0.00000000000E+00 -0.19123087844E+03  0.19123087851E+03  0.50400001928E-02 0. -1.
    10030    2    1    2    0    0  0.00000000000E+00  0.00000000000E+00  0.11178030562E+04  0.15002648131E+04  0.10006552039E+04 0.  0.
        5    1    3    3  502    0 -0.45037565097E+03  0.81657999530E+02  0.25606367494E+03  0.52449685556E+03  0.46999998093E+01 0. -1.
       -5    1    3    3    0  502  0.45037565097E+03 -0.81657999530E+02  0.86173938123E+03  0.97576795757E+03  0.46999998093E+01 0.  1.
</event>
<event>
 5   0  0.5888774E-04  0.9932558E+03  0.7818609E-02  0.9315973E-01
        1   -1    0    0  501    0  0.00000000000E+00  0.00000000000E+00  0.70767639218E+03  0.70767639220E+03  0.50400001928E-02 0. -1.
       -1   -1    0    0    0  501  0.00000000000E+00  0.00000000000E+00 -0.34851988009E+03  0.34851988013E+03  0.50400001928E-02 0.  1.
    10030    2    1    2    0    0  0.00000000000E+00  0.00000000000E+00  0.35915651210E+03  0.10561962723E+04  0.99325584091E+03 0.  0.
        2    1    3    3  502    0 -0.35870104829E+03 -0.32746260359E+03  0.69371623478E+02  0.49062268695E+03  0.25500000920E-02 0.  1.
       -2    1    3    3    0  502  0.35870104829E+03  0.32746260359E+03  0.28978488862E+03  0.56557358538E+03  0.25500000920E-02 0. -1.
</event>
<event>
 5   0  0.9674819E-04  0.1000185E+04  0.7818609E-02  0.9308341E-01
       -2   -1    0    0    0  501  0.00000000000E+00  0.00000000000E+00  0.37405899026E+03  0.37405899027E+03  0.25500000920E-02 0. -1.
        2   -1    0    0  501    0  0.00000000000E+00  0.00000000000E+00 -0.66859162178E+03  0.66859162178E+03  0.25500000920E-02 0.  1.
    10030    2    1    2    0    0  0.00000000000E+00  0.00000000000E+00 -0.29453263152E+03  0.10426506121E+04  0.10001853967E+04 0.  0.
        4    1    3    3  502    0 -0.43900406116E+03  0.12642770806E+02  0.10206779552E+03  0.45089228553E+03  0.12699999809E+01 0. -1.
       -4    1    3    3    0  502  0.43900406116E+03 -0.12642770806E+02 -0.39660042704E+03  0.59175832652E+03  0.12699999809E+01 0.  1.
</event>
<event>
 5   0  0.9674819E-04  0.9994957E+03  0.7818609E-02  0.9309098E-01
       -2   -1    0    0    0  501  0.00000000000E+00  0.00000000000E+00  0.15221727809E+03  0.15221727811E+03  0.25500000920E-02 0. -1.
        2   -1    0    0  501    0  0.00000000000E+00  0.00000000000E+00 -0.16407331381E+04  0.16407331381E+04  0.25500000920E-02 0.  1.
    10030    2    1    2    0    0  0.00000000000E+00  0.00000000000E+00 -0.14885158600E+04  0.17929504162E+04  0.99949573760E+03 0.  0.
        4    1    3    3  502    0 -0.37566941994E+03  0.26451832872E+02 -0.15495784417E+03  0.40723550792E+03  0.12699999809E+01 0. -1.
       -4    1    3    3    0  502  0.37566941994E+03 -0.26451832872E+02 -0.13335580158E+04  0.13857149083E+04  0.12699999809E+01 0.  1.
</event>
<event>
 5   0  0.1006749E-03  0.9963853E+03  0.7818609E-02  0.9312518E-01
        2   -1    0    0  501    0  0.00000000000E+00  0.00000000000E+00  0.19648497481E+03  0.19648497483E+03  0.25500000920E-02 0.  1.
       -2   -1    0    0    0  501  0.00000000000E+00  0.00000000000E+00 -0.12631801570E+04  0.12631801570E+04  0.25500000920E-02 0. -1.
    10030    2    1    2    0    0  0.00000000000E+00  0.00000000000E+00 -0.10666951822E+04  0.14596651318E+04  0.99638530969E+03 0.  0.
        1    1    3    3  502    0  0.33576731624E+03  0.29419924333E+03 -0.85730940978E+03  0.96657762728E+03  0.50400001928E-02 0. -1.
       -1    1    3    3    0  502 -0.33576731624E+03 -0.29419924333E+03 -0.20938577240E+03  0.49308750454E+03  0.50400001928E-02 0.  1.
</event>
<event>
 5   0  0.5768102E-04  0.9992396E+03  0.7818609E-02  0.9309379E-01
        1   -1    0    0  501    0  0.00000000000E+00  0.00000000000E+00  0.59730685344E+03  0.59730685346E+03  0.50400001928E-02 0.  1.
       -1   -1    0    0    0  501  0.00000000000E+00  0.00000000000E+00 -0.41790908111E+03  0.41790908114E+03  0.50400001928E-02 0. -1.
    10030    2    1    2    0    0  0.00000000000E+00  0.00000000000E+00  0.17939777234E+03  0.10152159346E+04  0.99923962749E+03 0.  0.
        4    1    3    3  502    0  0.26934397893E+03 -0.21430511204E+02  0.51667146772E+03  0.58305785670E+03  0.12699999809E+01 0.  1.
       -4    1    3    3    0  502 -0.26934397893E+03  0.21430511204E+02 -0.33727369539E+03  0.43215807790E+03  0.12699999809E+01 0. -1.
</event>
<event>
 5   0  0.5768102E-04  0.9987027E+03  0.7818609E-02  0.9309969E-01
        1   -1    0    0  501    0  0.00000000000E+00  0.00000000000E+00  0.10831838887E+04  0.10831838887E+04  0.50400001928E-02 0.  1.
       -1   -1    0    0    0  501  0.00000000000E+00  0.00000000000E+00 -0.23020263694E+03  0.23020263699E+03  0.50400001928E-02 0. -1.
    10030    2    1    2    0    0  0.00000000000E+00  0.00000000000E+00  0.85298125177E+03  0.13133865257E+04  0.99870273357E+03 0.  0.
        4    1    3    3  502    0 -0.33974048538E+03  0.35570418955E+03  0.53962762410E+03  0.73017029073E+03  0.12699999809E+01 0. -1.
       -4    1    3    3    0  502  0.33974048538E+03 -0.35570418955E+03  0.31335362767E+03  0.58321623498E+03  0.12699999809E+01 0.  1.
</event>
<event>
 5   0  0.1020150E-03  0.1001951E+04  0.7818609E-02  0.9306407E-01
       -2   -1    0    0    0  501  0.00000000000E+00  0.00000000000E+00  0.29053165362E+03  0.29053165363E+03  0.25500000920E-02 0. -1.
        2   -1    0    0  501    0  0.00000000000E+00  0.00000000000E+00 -0.86385272455E+03  0.86385272455E+03  0.25500000920E-02 0.  1.
    10030    2    1    2    0    0  0.00000000000E+00  0.00000000000E+00 -0.57332107093E+03  0.11543843782E+04  0.10019512175E+04 0.  0.
        5    1    3    3  502    0 -0.34591334769E+03 -0.18979887520E+03  0.68964983199E+02  0.40057198609E+03  0.46999998093E+01 0. -1.
       -5    1    3    3    0  502  0.34591334769E+03  0.18979887520E+03 -0.64228605413E+03  0.75381239209E+03  0.46999998093E+01 0.  1.
</event>
<event>
 5   0  0.5960102E-04  0.1000133E+04  0.7818609E-02  0.9308399E-01
       -1   -1    0    0    0  501  0.00000000000E+00  0.00000000000E+00  0.43694226913E+03  0.43694226916E+03  0.50400001928E-02 0.  1.
        1   -1    0    0  501    0  0.00000000000E+00  0.00000000000E+00 -0.57231006445E+03  0.57231006447E+03  0.50400001928E-02 0. -1.
    10030    2    1    2    0    0  0.00000000000E+00  0.00000000000E+00 -0.13536779532E+03  0.10092523336E+04  0.10001329076E+04 0.  0.
        5    1    3    3  502    0  0.24268207971E+03  0.42138917844E+03  0.49915990240E+02  0.48885286907E+03  0.46999998093E+01 0. -1.
       -5    1    3    3    0  502 -0.24268207971E+03 -0.42138917844E+03 -0.18528378556E+03  0.52039946456E+03  0.46999998093E+01 0.  1.
</event>
<event>
 5   0  0.5960102E-04  0.9989359E+03  0.7818609E-02  0.9309713E-01
       -1   -1    0    0    0  501  0.00000000000E+00  0.00000000000E+00  0.14446673706E+03  0.14446673715E+03  0.50400001928E-02 0. -1.
        1   -1    0    0  501    0  0.00000000000E+00  0.00000000000E+00 -0.17268212511E+04  0.17268212511E+04  0.50400001928E-02 0.  1.
    10030    2    1    2    0    0  0.00000000000E+00  0.00000000000E+00 -0.15823545140E+04  0.18712879883E+04  0.99893589730E+03 0.  0.
        5    1    3    3  502    0  0.27386478394E+03 -0.41415075239E+03 -0.68989220416E+03  0.84999771114E+03  0.46999998093E+01 0.  1.
       -5    1    3    3    0  502 -0.27386478394E+03  0.41415075239E+03 -0.89246230987E+03  0.10212902771E+04  0.46999998093E+01 0. -1.
</event>
<event>
 5   0  0.1006006E-03  0.9978172E+03  0.7818609E-02  0.9310942E-01
       -2   -1    0    0    0  501  0.00000000000E+00  0.00000000000E+00  0.84447202543E+03  0.84447202544E+03  0.25500000920E-02 0. -1.
        2   -1    0    0  501    0  0.00000000000E+00  0.00000000000E+00 -0.29475197090E+03  0.29475197091E+03  0.25500000920E-02 0.  1.
    10030    2    1    2    0    0  0.00000000000E+00  0.00000000000E+00  0.54972005454E+03  0.11392239963E+04  0.99781720545E+03 0.  0.
        2    1    3    3  502    0  0.16338950046E+03  0.84297486959E+02 -0.25466441577E+03  0.31409578131E+03  0.25500000920E-02 0.  1.
       -2    1    3    3    0  502 -0.16338950046E+03 -0.84297486959E+02  0.80438447031E+03  0.82512821504E+03  0.25500000920E-02 0. -1.
</event>
<event>
 5   0  0.5758786E-04  0.1003268E+04  0.7818609E-02  0.9304968E-01
       -1   -1    0    0    0  501  0.00000000000E+00  0.00000000000E+00  0.96655897979E+03  0.96655897980E+03  0.50400001928E-02 0. -1.
        1   -1    0    0  501    0  0.00000000000E+00  0.00000000000E+00 -0.26034284778E+03  0.26034284783E+03  0.50400001928E-02 0.  1.
    10030    2    1    2    0    0  0.00000000000E+00  0.00000000000E+00  0.70621613201E+03  0.12269018276E+04  0.10032680945E+04 0.  0.
        3    1    3    3  502    0  0.16487796767E+02 -0.45230626772E+03  0.61761741286E+03  0.76570496024E+03  0.10100000352E+00 0. -1.
       -3    1    3    3    0  502 -0.16487796767E+02  0.45230626772E+03  0.88598719148E+02  0.46119686739E+03  0.10100000352E+00 0.  1.
</event>
<event>
 5   0  0.9741826E-04  0.9994957E+03  0.7818609E-02  0.9309098E-01
        2   -1    0    0  501    0  0.00000000000E+00  0.00000000000E+00  0.65120584685E+03  0.65120584686E+03  0.25500000920E-02 0.  1.
       -2   -1    0    0    0  501  0.00000000000E+00  0.00000000000E+00 -0.38351610251E+03  0.38351610252E+03  0.25500000920E-02 0. -1.
    10030    2    1    2    0    0  0.00000000000E+00  0.00000000000E+00  0.26768974434E+03  0.10347219494E+04  0.99949572950E+03 0.  0.
        3    1    3    3  502    0 -0.22557092559E+03 -0.16043174159E+02 -0.32751668842E+03  0.39800353931E+03  0.10100000352E+00 0. -1.
       -3    1    3    3    0  502  0.22557092559E+03  0.16043174159E+02  0.59520643276E+03  0.63671841006E+03  0.10100000352E+00 0.  1.
</event>
<event>
 5   0  0.3854625E-04  0.9984464E+03  0.7818609E-02  0.9310250E-01
        3   -1    0    0  501    0  0.00000000000E+00  0.00000000000E+00  0.23917961970E+03  0.23917964103E+03  0.10100000352E+00 0.  1.
       -3   -1    0    0    0  501  0.00000000000E+00  0.00000000000E+00 -0.10419941846E+04  0.10419941895E+04  0.10100000352E+00 0. -1.
    10030    2    1    2    0    0  0.00000000000E+00  0.00000000000E+00 -0.80281456493E+03  0.12811738306E+04  0.99844637234E+03 0.  0.
        1    1    3    3  502    0  0.28522521903E+03  0.19469093576E+03 -0.86399901190E+03  0.93045810149E+03  0.50400001928E-02 0. -1.
       -1    1    3    3    0  502 -0.28522521903E+03 -0.19469093576E+03  0.61184446967E+02  0.35071572907E+03  0.50400001928E-02 0.  1.
</event>
<event>
 5   0  0.9674819E-04  0.1001830E+04  0.7818609E-02  0.9306540E-01
        2   -1    0    0  501    0  0.00000000000E+00  0.00000000000E+00  0.17855002814E+04  0.17855002814E+04  0.25500000920E-02 0.  1.
       -2   -1    0    0    0  501  0.00000000000E+00  0.00000000000E+00 -0.14052965678E+03  0.14052965680E+03  0.25500000920E-02 0. -1.
    10030    2    1    2    0    0  0.00000000000E+00  0.00000000000E+00  0.16449706246E+04  0.19260299382E+04  0.10018298094E+04 0.  0.
        4    1    3    3  502    0 -0.41924766833E+03  0.18866704993E+03  0.44015054996E+03  0.63647308086E+03  0.12699999809E+01 0. -1.
       -4    1    3    3    0  502  0.41924766833E+03 -0.18866704993E+03  0.12048200747E+04  0.12895568574E+04  0.12699999809E+01 0.  1.
</event>
<event>
 5   0  0.9674819E-04  0.1002349E+04  0.7818609E-02  0.9305973E-01
        2   -1    0    0  501    0  0.00000000000E+00  0.00000000000E+00  0.55585391500E+03  0.55585391501E+03  0.25500000920E-02 0.  1.
       -2   -1    0    0    0  501  0.00000000000E+00  0.00000000000E+00 -0.45187358239E+03  0.45187358240E+03  0.25500000920E-02 0. -1.
    10030    2    1    2    0    0  0.00000000000E+00  0.00000000000E+00  0.10398033261E+03  0.10077274974E+04  0.10023486417E+04 0.  0.
        4    1    3    3  502    0 -0.41661848031E+03  0.18090486176E+03  0.26496784119E+03  0.52583942122E+03  0.12699999809E+01 0. -1.
       -4    1    3    3    0  502  0.41661848031E+03 -0.18090486176E+03 -0.16098750858E+03  0.48188807618E+03  0.12699999809E+01 0.  1.
</event>
<event>
 5   0  0.5888774E-04  0.9998924E+03  0.7818609E-02  0.9308663E-01
       -1   -1    0    0    0  501  0.00000000000E+00  0.00000000000E+00  0.23106092372E+03  0.23106092378E+03  0.50400001928E-02 0.  1.
        1   -1    0    0  501    0  0.00000000000E+00  0.00000000000E+00 -0.10817329377E+04  0.10817329377E+04  0.50400001928E-02 0. -1.
    10030    2    1    2    0    0  0.00000000000E+00  0.00000000000E+00 -0.85067201399E+03  0.13127938615E+04  0.99989241792E+03 0.  0.
        2    1    3    3  502    0  0.47231497586E+03  0.16237909474E+03 -0.39604239704E+03  0.63741508226E+03  0.25500000920E-02 0. -1.
       -2    1    3    3    0  502 -0.47231497586E+03 -0.16237909474E+03 -0.45462961695E+03  0.67537877924E+03  0.25500000920E-02 0.  1.
</event>
<event>
 5   0  0.1006749E-03  0.9996801E+03  0.7818609E-02  0.9308896E-01
        2   -1    0    0  501    0  0.00000000000E+00  0.00000000000E+00  0.21452570683E+04  0.21452570683E+04  0.25500000920E-02 0.  1.
       -2   -1    0    0    0  501  0.00000000000E+00  0.00000000000E+00 -0.11646159754E+03  0.11646159757E+03  0.25500000920E-02 0. -1.
    10030    2    1    2    0    0  0.00000000000E+00  0.00000000000E+00  0.20287954708E+04  0.22617186659E+04  0.99968007950E+03 0.  0.
        1    1    3    3  502    0  0.36776795619E+03 -0.33762210444E+03  0.10697286932E+04  0.11804920296E+04  0.50400001928E-02 0.  1.
       -1    1    3    3    0  502 -0.36776795619E+03  0.33762210444E+03  0.95906677762E+03  0.10812266363E+04  0.50400001928E-02 0. -1.
</event>
<event>
 5   0  0.5826939E-04  0.9994950E+03  0.7818609E-02  0.9309099E-01
        1   -1    0    0  501    0  0.00000000000E+00  0.00000000000E+00  0.84487345491E+03  0.84487345492E+03  0.50400001928E-02 0.  1.
       -1   -1    0    0    0  501  0.00000000000E+00  0.00000000000E+00 -0.29560351160E+03  0.29560351165E+03  0.50400001928E-02 0. -1.
    10030    2    1    2    0    0  0.00000000000E+00  0.00000000000E+00  0.54926994331E+03  0.11404769666E+04  0.99949499281E+03 0.  0.
        1    1    3    3  502    0  0.19473566947E+03 -0.13744485406E+03  0.77583470690E+03  0.81162341102E+03  0.50400001928E-02 0.  1.
       -1    1    3    3    0  502 -0.19473566947E+03  0.13744485406E+03 -0.22656476359E+03  0.32885355555E+03  0.50400001928E-02 0. -1.
</event>
<event>
 5   0  0.5960102E-04  0.1000356E+04  0.7818609E-02  0.9308155E-01
        1   -1    0    0  501    0  0.00000000000E+00  0.00000000000E+00  0.47359824978E+03  0.47359824980E+03  0.50400001928E-02 0. -1.
       -1   -1    0    0    0  501  0.00000000000E+00  0.00000000000E+00 -0.52824919434E+03  0.52824919436E+03  0.50400001928E-02 0.  1.
    10030    2    1    2    0    0  0.00000000000E+00  0.00000000000E+00 -0.54650944564E+02  0.10018474442E+04  0.10003557245E+04 0.  0.
        5    1    3    3  502    0 -0.13595811044E+03  0.14988490110E+03 -0.48539763725E+03  0.52591163480E+03  0.46999998093E+01 0.  1.
       -5    1    3    3    0  502  0.13595811044E+03 -0.14988490110E+03  0.43074669269E+03  0.47593580936E+03  0.46999998093E+01 0. -1.
</event>
<event>
 5   0  0.1006749E-03  0.9991479E+03  0.7818609E-02  0.9309480E-01
       -2   -1    0    0    0  501  0.00000000000E+00  0.00000000000E+00  0.25004546046E+03  0.25004546047E+03  0.25500000920E-02 0. -1.
        2   -1    0    0  501    0  0.00000000000E+00  0.00000000000E+00 -0.99811510357E+03  0.99811510357E+03  0.25500000920E-02 0.  1.
    10030    2    1    2    0    0  0.00000000000E+00  0.00000000000E+00 -0.74806964311E+03  0.12481605640E+04  0.99914793835E+03 0.  0.
        1    1    3    3  502    0 -0.44187734208E+03  0.13104998939E+03 -0.13327294657E+03  0.47978262106E+03  0.50400001928E-02 0.  1.
       -1    1    3    3    0  502  0.44187734208E+03 -0.13104998939E+03 -0.61479669654E+03  0.76837794299E+03  0.50400001928E-02 0. -1.
</event>
<event>
 5   0  0.5960102E-04  0.9982485E+03  0.7818609E-02  0.9310468E-01
        1   -1    0    0  501    0  0.00000000000E+00  0.00000000000E+00  0.23475871264E+03  0.23475871269E+03  0.50400001928E-02 0. -1.
       -1   -1    0    0    0  501  0.00000000000E+00  0.00000000000E+00 -0.10611960251E+04  0.10611960251E+04  0.50400001928E-02 0.  1.
    10030    2    1    2    0    0  0.00000000000E+00  0.00000000000E+00 -0.82643731245E+03  0.12959547378E+04  0.99824849161E+03 0.  0.
        5    1    3    3  502    0  0.14051629216E+03  0.40746204774E+03 -0.73993091228E+03  0.85632353329E+03  0.46999998093E+01 0.  1.
       -5    1    3    3    0  502 -0.14051629216E+03 -0.40746204774E+03 -0.86506400170E+02  0.43963120451E+03  0.46999998093E+01 0. -1.
</event>
<event>
 5   0  0.5758786E-04  0.9992946E+03  0.7818609E-02  0.9309319E-01
       -1   -1    0    0    0  501  0.00000000000E+00  0.00000000000E+00  0.50202625624E+03  0.50202625626E+03  0.50400001928E-02 0. -1.
        1   -1    0    0  501    0  0.00000000000E+00  0.00000000000E+00 -0.49727965126E+03  0.49727965128E+03  0.50400001928E-02 0.  1.
    10030    2    1    2    0    0  0.00000000000E+00  0.00000000000E+00  0.47466049780E+01  0.99930590755E+03  0.99929463453E+03 0.  0.
        3    1    3    3  502    0  0.12164600291E+02  0.23799343370E+03  0.44153492508E+03  0.50173892838E+03  0.10100000352E+00 0. -1.
       -3    1    3    3    0  502 -0.12164600291E+02 -0.23799343370E+03 -0.43678832010E+03  0.49756697917E+03  0.10100000352E+00 0.  1.
</event>
<event>
 5   0  0.5768102E-04  0.1001436E+04  0.7818609E-02  0.9306971E-01
        1   -1    0    0  501    0  0.00000000000E+00  0.00000000000E+00  0.99568490263E+03  0.99568490264E+03  0.50400001928E-02 0.  1.
       -1   -1    0    0    0  501  0.00000000000E+00  0.00000000000E+00 -0.25180511505E+03  0.25180511510E+03  0.50400001928E-02 0. -1.
    10030    2    1    2    0    0  0.00000000000E+00  0.00000000000E+00  0.74387978758E+03  0.12474900177E+04  0.10014360718E+04 0.  0.
        4    1    3    3  502    0 -0.49696248978E+03  0.52917515958E+02  0.33364681382E+03  0.60091079954E+03  0.12699999809E+01 0. -1.
       -4    1    3    3    0  502  0.49696248978E+03 -0.52917515958E+02  0.41023297376E+03  0.64657921820E+03  0.12699999809E+01 0.  1.
</event>
<event>
 5   0  0.1020150E-03  0.9986394E+03  0.7818609E-02  0.9310038E-01
        2   -1    0    0  501    0  0.00000000000E+00  0.00000000000E+00  0.88494693272E+03  0.88494693272E+03  0.25500000920E-02 0.  1.
       -2   -1    0    0    0  501  0.00000000000E+00  0.00000000000E+00 -0.28173460953E+03  0.28173460955E+03  0.25500000920E-02 0. -1.
    10030    2    1    2    0    0  0.00000000000E+00  0.00000000000E+00  0.60321232318E+03  0.11666815423E+04  0.99863943154E+03 0.  0.
        5    1    3    3  502    0 -0.22501174254E+03  0.44317129000E+03  0.35723122586E+03  0.61210073950E+03  0.46999998093E+01 0.  1.
       -5    1    3    3    0  502  0.22501174254E+03 -0.44317129000E+03  0.24598109732E+03  0.55458080277E+03  0.46999998093E+01 0. -1.
</event>
<event>
 5   0  0.1006749E-03  0.1002244E+04  0.7818609E-02  0.9306087E-01
       -2   -1    0    0    0  501  0.00000000000E+00  0.00000000000E+00  0.75595183518E+03  0.75595183518E+03  0.25500000920E-02 0.  1.
        2   -1    0    0  501    0  0.00000000000E+00  0.00000000000E+00 -0.33219455288E+03  0.33219455288E+03  0.25500000920E-02 0. -1.
    10030    2    1    2    0    0  0.00000000000E+00  0.00000000000E+00  0.42375728231E+03  0.10881463881E+04  0.10022436468E+04 0.  0.
        1    1    3    3  502    0  0.40941712358E+03  0.10796215196E+03 -0.79134035980E+02  0.43074401100E+03  0.50400001928E-02 0. -1.
       -1    1    3    3    0  502 -0.40941712358E+03 -0.10796215196E+03  0.50289131829E+03  0.65740237707E+03  0.50400001928E-02 0.  1.
</event>
<event>
 5   0  0.5888774E-04  0.1000489E+04  0.7818609E-02  0.9308008E-01
       -1   -1    0    0    0  501  0.00000000000E+00  0.00000000000E+00  0.13273779748E+03  0.13273779757E+03  0.50400001928E-02 0.  1.
        1   -1    0    0  501    0  0.00000000000E+00  0.00000000000E+00 -0.18852552197E+04  0.18852552197E+04  0.50400001928E-02 0. -1.
    10030    2    1    2    0    0  0.00000000000E+00  0.00000000000E+00 -0.17525174222E+04  0.20179930172E+04  0.10004891317E+04 0.  0.
        2    1    3    3  502    0  0.21928114560E+03 -0.25294852482E+03 -0.16260249290E+04  0.16601277802E+04  0.25500000920E-02 0. -1.
       -2    1    3    3    0  502 -0.21928114560E+03  0.25294852482E+03 -0.12649249323E+03  0.35786523703E+03  0.25500000920E-02 0.  1.
</event>
<event>
 5   0  0.5960102E-04  0.9986169E+03  0.7818609E-02  0.9310063E-01
        1   -1    0    0  501    0  0.00000000000E+00  0.00000000000E+00  0.34713083471E+03  0.34713083474E+03  0.50400001928E-02 0. -1.
       -1   -1    0    0    0  501  0.00000000000E+00  0.00000000000E+00 -0.71819878020E+03  0.71819878022E+03  0.50400001928E-02 0.  1.
    10030    2    1    2    0    0  0.00000000000E+00  0.00000000000E+00 -0.37106794550E+03  0.10653296150E+04  0.99861692773E+03 0.  0.
        5    1    3    3  502    0 -0.32727905357E+03 -0.73934364030E+02  0.20890843647E+03  0.39527546586E+03  0.46999998093E+01 0. -1.
       -5    1    3    3    0  502  0.32727905357E+03  0.73934364030E+02 -0.57997638196E+03  0.67005414910E+03  0.46999998093E+01 0.  1.
</event>
<event>
 5   0  0.9741826E-04  0.1000035E+04  0.7818609E-02  0.9308506E-01
        2   -1    0    0  501    0  0.00000000000E+00  0.00000000000E+00  0.11174286025E+04  0.11174286025E+04  0.25500000920E-02 0.  1.
       -2   -1    0    0    0  501  0.00000000000E+00  0.00000000000E+00 -0.22374376391E+03  0.22374376393E+03  0.25500000920E-02 0. -1.
    10030    2    1    2    0    0  0.00000000000E+00  0.00000000000E+00  0.89368483861E+03  0.13411723665E+04  0.10000353623E+04 0.  0.
        3    1    3    3  502    0 -0.20841851050E+03  0.11820277744E+03  0.10354228730E+04  0.10627844129E+04  0.10100000352E+00 0.  1.
       -3    1    3    3    0  502  0.20841851050E+03 -0.11820277744E+03 -0.14173803438E+03  0.27838795359E+03  0.10100000352E+00 0. -1.
</event>
<event>
 5   0  0.1006749E-03  0.9968829E+03  0.7818609E-02  0.9311970E-01
        2   -1    0    0  501    0  0.00000000000E+00  0.00000000000E+00  0.12149481131E+04  0.12149481131E+04  0.25500000920E-02 0. -1.
       -2   -1    0    0    0  501  0.00000000000E+00  0.00000000000E+00 -0.20448927618E+03  0.20448927619E+03  0.25500000920E-02 0.  1.
    10030    2    1    2    0    0  0.00000000000E+00  0.00000000000E+00  0.10104588369E+04  0.14194373893E+04  0.99688286222E+03 0.  0.
        1    1    3    3  502    0 -0.30607285675E+03 -0.75709448416E+02  0.10549106679E+04  0.11010218125E+04  0.50400001928E-02 0. -1.
       -1    1    3    3    0  502  0.30607285675E+03  0.75709448416E+02 -0.44451831058E+02  0.31841557677E+03  0.50400001928E-02 0.  1.
</event>
<event>
 5   0  0.3854625E-04  0.1000419E+04  0.7818609E-02  0.9308085E-01
        3   -1    0    0  501    0  0.00000000000E+00  0.00000000000E+00  0.39515039779E+03  0.39515041069E+03  0.10100000352E+00 0.  1.
       -3   -1    0    0    0  501  0.00000000000E+00  0.00000000000E+00 -0.63320130265E+03  0.63320131071E+03  0.10100000352E+00 0. -1.
    10030    2    1    2    0    0  0.00000000000E+00  0.00000000000E+00 -0.23805090487E+03  0.10283517214E+04  0.10004194268E+04 0.  0.
        5    1    3    3  502    0 -0.26728026814E+03 -0.20738105555E+03 -0.49774412836E+03  0.60184462385E+03  0.46999998093E+01 0. -1.
       -5    1    3    3    0  502  0.26728026814E+03  0.20738105555E+03  0.25969322349E+03  0.42650709755E+03  0.46999998093E+01 0.  1.
</event>
<event>
 5   0  0.5960102E-04  0.9929144E+03  0.7818609E-02  0.9316350E-01
        1   -1    0    0  501    0  0.00000000000E+00  0.00000000000E+00  0.85788490023E+03  0.85788490024E+03  0.50400001928E-02 0.  1.
       -1   -1    0    0    0  501  0.00000000000E+00  0.00000000000E+00 -0.28729934386E+03  0.28729934390E+03  0.50400001928E-02 0. -1.
    10030    2    1    2    0    0  0.00000000000E+00  0.00000000000E+00  0.57058555637E+03  0.11451842441E+04  0.99291443534E+03 0.  0.
        5    1    3    3  502    0 -0.12028249793E+03  0.37966960360E+03 -0.56518932987E+02  0.40228518117E+03  0.46999998093E+01 0. -1.
       -5    1    3    3    0  502  0.12028249793E+03 -0.37966960360E+03  0.62710448936E+03  0.74289906298E+03  0.46999998093E+01 0.  1.
</event>
<event>
 5   0  0.5888774E-04  0.9982847E+03  0.7818609E-02  0.9310428E-01
       -1   -1    0    0    0  501  0.00000000000E+00  0.00000000000E+00  0.31022404217E+03  0.31022404221E+03  0.50400001928E-02 0.  1.
        1   -1    0    0  501    0  0.00000000000E+00  0.00000000000E+00 -0.80310688809E+03  0.80310688811E+03  0.50400001928E-02 0. -1.
    10030    2    1    2    0    0  0.00000000000E+00  0.00000000000E+00 -0.49288284593E+03  0.11133309303E+04  0.99828465910E+03 0.  0.
        2    1    3    3  502    0 -0.19415508577E+03 -0.10119792768E+02  0.26626092821E+03  0.32968695672E+03  0.25500000920E-02 0.  1.
       -2    1    3    3    0  502  0.19415508577E+03  0.10119792768E+02 -0.75914377414E+03  0.78364397360E+03  0.25500000920E-02 0. -1.
</event>
<event>
 5   0  0.5960102E-04  0.1001038E+04  0.7818609E-02  0.9307407E-01
       -1   -1    0    0    0  501  0.00000000000E+00  0.00000000000E+00  0.57401820811E+03  0.57401820813E+03  0.50400001928E-02 0. -1.
        1   -1    0    0  501    0  0.00000000000E+00  0.00000000000E+00 -0.43643094135E+03  0.43643094138E+03  0.50400001928E-02 0.  1.
    10030    2    1    2    0    0  0.00000000000E+00  0.00000000000E+00  0.13758726675E+03  0.10104491495E+04  0.10010380751E+04 0.  0.
        5    1    3    3  502    0 -0.19722245364E+03  0.42732551876E+03  0.24066898619E+03  0.52862789003E+03  0.46999998093E+01 0. -1.
       -5    1    3    3    0  502  0.19722245364E+03 -0.42732551876E+03 -0.10308171944E+03  0.48182125948E+03  0.46999998093E+01 0.  1.
</event>
<event>
 5   0  0.5888774E-04  0.9997078E+03  0.7818609E-02  0.9308865E-01
       -1   -1    0    0    0  501  0.00000000000E+00  0.00000000000E+00  0.45321305533E+03  0.45321305536E+03  0.50400001928E-02 0.  1.
        1   -1    0    0  501    0  0.00000000000E+00  0.00000000000E+00 -0.55129464964E+03  0.55129464967E+03  0.50400001928E-02 0. -1.
    10030    2    1    2    0    0  0.00000000000E+00  0.00000000000E+00 -0.98081594314E+02  0.10045077050E+04  0.99970782247E+03 0.  0.
        2    1    3    3  502    0  0.14409523173E+03 -0.12748528130E+02  0.43172062618E+03  0.45531160742E+03  0.25500000920E-02 0.  1.
       -2    1    3    3    0  502 -0.14409523173E+03  0.12748528130E+02 -0.52980222049E+03  0.54919609760E+03  0.25500000920E-02 0. -1.
</event>
<event>
 5   0  0.5960102E-04  0.1001699E+04  0.7818609E-02  0.9306683E-01
       -1   -1    0    0    0  501  0.00000000000E+00  0.00000000000E+00  0.60116659405E+03  0.60116659407E+03  0.50400001928E-02 0.  1.
        1   -1    0    0  501    0  0.00000000000E+00  0.00000000000E+00 -0.41727270650E+03  0.41727270653E+03  0.50400001928E-02 0. -1.
    10030    2    1    2    0    0  0.00000000000E+00  0.00000000000E+00  0.18389388754E+03  0.10184393006E+04  0.10016993796E+04 0.  0.
        5    1    3    3  502    0 -0.22999274574E+03  0.22633735158E+03  0.48136612061E+03  0.57953489272E+03  0.46999998093E+01 0.  1.
       -5    1    3    3    0  502  0.22999274574E+03 -0.22633735158E+03 -0.29747223307E+03  0.43890440788E+03  0.46999998093E+01 0. -1.
</event>
<event>
 5   0  0.3854625E-04  0.9886218E+03  0.7818609E-02  0.9321113E-01
       -4   -1    0    0    0  501  0.00000000000E+00  0.00000000000E+00  0.66037505430E+03  0.66037627550E+03  0.12699999809E+01 0.  1.
        4   -1    0    0  501    0  0.00000000000E+00  0.00000000000E+00 -0.37000414151E+03  0.37000632108E+03  0.12699999809E+01 0. -1.
    10030    2    1    2    0    0  0.00000000000E+00  0.00000000000E+00  0.29037091278E+03  0.10303825966E+04  0.98862178224E+03 0.  0.
        5    1    3    3  502    0 -0.35263403454E+03  0.31145312593E+03  0.30313698472E+03  0.55970343350E+03  0.46999998093E+01 0.  1.
       -5    1    3    3    0  502  0.35263403454E+03 -0.31145312593E+03 -0.12766071935E+02  0.47067916308E+03  0.46999998093E+01 0. -1.
</event>
<event>
 5   0  0.9741826E-04  0.1003061E+04  0.7818609E-02  0.9305194E-01
       -2   -1    0    0    0  501  0.00000000000E+00  0.00000000000E+00  0.45732597289E+03  0.45732597289E+03  0.25500000920E-02 0.  1.
        2   -1    0    0  501    0  0.00000000000E+00  0.00000000000E+00 -0.55000805639E+03  0.55000805640E+03  0.25500000920E-02 0. -1.
    10030    2    1    2    0    0  0.00000000000E+00  0.00000000000E+00 -0.92682083504E+02  0.10073340293E+04  0.10030612533E+04 0.  0.
        3    1    3    3  502    0  0.97385213119E+02 -0.19627381614E+03  0.40671888017E+03  0.46198219482E+03  0.10100000352E+00 0.  1.
       -3    1    3    3    0  502 -0.97385213119E+02  0.19627381614E+03 -0.49940096368E+03  0.54535183447E+03  0.10100000352E+00 0. -1.
</event>
<event>
 5   0  0.1006006E-03  0.1005783E+04  0.7818609E-02  0.9302225E-01
       -2   -1    0    0    0  501  0.00000000000E+00  0.00000000000E+00  0.58293480394E+03  0.58293480395E+03  0.25500000920E-02 0.  1.
        2   -1    0    0  501    0  0.00000000000E+00  0.00000000000E+00 -0.43383903980E+03  0.43383903980E+03  0.25500000920E-02 0. -1.
    10030    2    1    2    0    0  0.00000000000E+00  0.00000000000E+00  0.14909576415E+03  0.10167738438E+04  0.10057830295E+04 0.  0.
        2    1    3    3  502    0 -0.24537945072E+01 -0.15420634993E+03 -0.40934152900E+03  0.43743125956E+03  0.25500000920E-02 0. -1.
       -2    1    3    3    0  502  0.24537945072E+01  0.15420634993E+03  0.55843729315E+03  0.57934258419E+03  0.25500000920E-02 0.  1.
</event>
<event>
 5   0  0.1006749E-03  0.1002389E+04  0.7818609E-02  0.9305929E-01
       -2   -1    0    0    0  501  0.00000000000E+00  0.00000000000E+00  0.15361965756E+03  0.15361965759E+03  0.25500000920E-02 0. -1.
        2   -1    0    0  501    0  0.00000000000E+00  0.00000000000E+00 -0.16351794128E+04  0.16351794128E+04  0.25500000920E-02 0.  1.
    10030    2    1    2    0    0  0.00000000000E+00  0.00000000000E+00 -0.14815597553E+04  0.17887990704E+04  0.10023885504E+04 0.  0.
        1    1    3    3  502    0  0.36687912223E+01  0.14536575528E+03 -0.15967085253E+04  0.16033161814E+04  0.50400001928E-02 0.  1.
       -1    1    3    3    0  502 -0.36687912223E+01 -0.14536575528E+03  0.11514877004E+03  0.18548288898E+03  0.50400001928E-02 0. -1.
</event>
<event>
 5   0  0.5888774E-04  0.1001189E+04  0.7818609E-02  0.9307242E-01
       -1   -1    0    0    0  501  0.00000000000E+00  0.00000000000E+00  0.35569319437E+03  0.35569319441E+03  0.50400001928E-02 0.  1.
        1   -1    0    0  501    0  0.00000000000E+00  0.00000000000E+00 -0.70452548622E+03  0.70452548624E+03  0.50400001928E-02 0. -1.
    10030    2    1    2    0    0  0.00000000000E+00  0.00000000000E+00 -0.34883229185E+03  0.10602186806E+04  0.10011891345E+04 0.  0.
        2    1    3    3  502    0 -0.28881561027E+03  0.16322774087E+03  0.22256960984E+03  0.39949340840E+03  0.25500000920E-02 0.  1.
       -2    1    3    3    0  502  0.28881561027E+03 -0.16322774087E+03 -0.57140190169E+03  0.66072527225E+03  0.25500000920E-02 0. -1.
</event>
<event>
 5   0  0.9674819E-04  0.9983409E+03  0.7818609E-02  0.9310366E-01
        2   -1    0    0  501    0  0.00000000000E+00  0.00000000000E+00  0.83306741824E+03  0.83306741825E+03  0.25500000920E-02 0.  1.
       -2   -1    0    0    0  501  0.00000000000E+00  0.00000000000E+00 -0.29910081339E+03  0.29910081341E+03  0.25500000920E-02 0. -1.
    10030    2    1    2    0    0  0.00000000000E+00  0.00000000000E+00  0.53396660485E+03  0.11321682317E+04  0.99834090854E+03 0.  0.
        4    1    3    3  502    0 -0.20526019124E+03  0.34689965505E+03  0.60089964160E+03  0.72356969875E+03  0.12699999809E+01 0.  1.
       -4    1    3    3    0  502  0.20526019124E+03 -0.34689965505E+03 -0.66933036749E+02  0.40859853290E+03  0.12699999809E+01 0. -1.
</event>
<event>
 5   0  0.5826939E-04  0.1000731E+04  0.7818609E-02  0.9307744E-01
        1   -1    0    0  501    0  0.00000000000E+00  0.00000000000E+00  0.42928008823E+03  0.42928008826E+03  0.50400001928E-02 0.  1.
       -1   -1    0    0    0  501  0.00000000000E+00  0.00000000000E+00 -0.58322158810E+03  0.58322158812E+03  0.50400001928E-02 0. -1.
    10030    2    1    2    0    0  0.00000000000E+00  0.00000000000E+00 -0.15394149987E+03  0.10125016764E+04  0.10007305628E+04 0.  0.
        1    1    3    3  502    0  0.29567823663E+03 -0.18091899542E+03  0.28811729233E+03  0.45074258362E+03  0.50400001928E-02 0.  1.
       -1    1    3    3    0  502 -0.29567823663E+03  0.18091899542E+03 -0.44205879220E+03  0.56175909277E+03  0.50400001928E-02 0. -1.
</event>
<event>
 5   0  0.5768102E-04  0.1000448E+04  0.7818609E-02  0.9308053E-01
       -1   -1    0    0    0  501  0.00000000000E+00  0.00000000000E+00  0.50495387990E+03  0.50495387992E+03  0.50400001928E-02 0.  1.
        1   -1    0    0  501    0  0.00000000000E+00  0.00000000000E+00 -0.49553878864E+03  0.49553878866E+03  0.50400001928E-02 0. -1.
    10030    2    1    2    0    0  0.00000000000E+00  0.00000000000E+00  0.94150912620E+01  0.10004926686E+04  0.10004483675E+04 0.  0.
        4    1    3    3  502    0 -0.25748379861E+03 -0.42735902230E+03  0.40611511439E+02  0.50058420695E+03  0.12699999809E+01 0.  1.
       -4    1    3    3    0  502  0.25748379861E+03  0.42735902230E+03 -0.31196420177E+02  0.49990846164E+03  0.12699999809E+01 0. -1.
</event>
<event>
 5   0  0.9741826E-04  0.1000686E+04  0.7818609E-02  0.9307793E-01
       -2   -1    0    0    0  501  0.00000000000E+00  0.00000000000E+00  0.20684280672E+03  0.20684280673E+03  0.25500000920E-02 0.  1.
        2   -1    0    0  501    0  0.00000000000E+00  0.00000000000E+00 -0.12103063173E+04  0.12103063173E+04  0.25500000920E-02 0. -1.
    10030    2    1    2    0    0  0.00000000000E+00  0.00000000000E+00 -0.10034635106E+04  0.14171491240E+04  0.10006860760E+04 0.  0.
        3    1    3    3  502    0  0.25967984184E+03  0.17522429506E+03 -0.10542333574E+04  0.10997932333E+04  0.10100000352E+00 0. -1.
       -3    1    3    3    0  502 -0.25967984184E+03 -0.17522429506E+03  0.50769846871E+02  0.31735589074E+03  0.10100000352E+00 0.  1.
</event>
<event>
 5   0  0.5960102E-04  0.1004878E+04  0.7818609E-02  0.9303211E-01
       -1   -1    0    0    0  501  0.00000000000E+00  0.00000000000E+00  0.34877601016E+03  0.34877601019E+03  0.50400001928E-02 0. -1.
        1   -1    0    0  501    0  0.00000000000E+00  0.00000000000E+00 -0.72380232299E+03  0.72380232301E+03  0.50400001928E-02 0.  1.
    10030    2    1    2    0    0  0.00000000000E+00  0.00000000000E+00 -0.37502631283E+03  0.10725783332E+04  0.10048778759E+04 0.  0.
        5    1    3    3  502    0  0.31894640531E+03  0.26082949911E+03  0.11937055398E+03  0.42898747793E+03  0.46999998093E+01 0. -1.
       -5    1    3    3    0  502 -0.31894640531E+03 -0.26082949911E+03 -0.49439686681E+03  0.64359085526E+03  0.46999998093E+01 0.  1.
</event>
<event>
 5   0  0.9741826E-04  0.9999625E+03  0.7818609E-02  0.9308586E-01
        2   -1    0    0  501    0  0.00000000000E+00  0.00000000000E+00  0.74978792562E+03  0.74978792563E+03  0.25500000920E-02 0.  1.
       -2   -1    0    0    0  501  0.00000000000E+00  0.00000000000E+00 -0.33340259405E+03  0.33340259406E+03  0.25500000920E-02 0. -1.
    10030    2    1    2    0    0  0.00000000000E+00  0.00000000000E+00  0.41638533158E+03  0.10831905197E+04  0.99996247808E+03 0.  0.
        3    1    3    3  502    0 -0.40202323487E+03 -0.75350604938E+02 -0.10328260420E+03  0.42186218314E+03  0.10100000352E+00 0.  1.
       -3    1    3    3    0  502  0.40202323487E+03  0.75350604938E+02  0.51966793577E+03  0.66132833654E+03  0.10100000352E+00 0. -1.
</event>
<event>
 5   0  0.5768102E-04  0.9934812E+03  0.7818609E-02  0.9315724E-01
        1   -1    0    0  501    0  0.00000000000E+00  0.00000000000E+00  0.11575937683E+04  0.11575937683E+04  0.50400001928E-02 0. -1.
       -1   -1    0    0    0  501  0.00000000000E+00  0.00000000000E+00 -0.21315871880E+03  0.21315871886E+03  0.50400001928E-02 0.  1.
    10030    2    1    2    0    0  0.00000000000E+00  0.00000000000E+00  0.94443504950E+03  0.13707524872E+04  0.99348116156E+03 0.  0.
        4    1    3    3  502    0 -0.75412902570E+02 -0.38645641101E+03  0.54370750561E+02  0.39748390521E+03  0.12699999809E+01 0.  1.
       -4    1    3    3    0  502  0.75412902570E+02  0.38645641101E+03  0.89006429894E+03  0.97326858196E+03  0.12699999809E+01 0. -1.
</event>
<event>
 5   0  0.5960102E-04  0.9779437E+03  0.7818609E-02  0.9333072E-01
        1   -1    0    0  501    0  0.00000000000E+00  0.00000000000E+00  0.48929527362E+03  0.48929527365E+03  0.50400001928E-02 0. -1.
       -1   -1    0    0    0  501  0.00000000000E+00  0.00000000000E+00 -0.48864864995E+03  0.48864864997E+03  0.50400001928E-02 0.  1.
    10030    2    1    2    0    0  0.00000000000E+00  0.00000000000E+00  0.64662367460E+00  0.97794392362E+03  0.97794370985E+03 0.  0.
        5    1    3    3  502    0  0.86372878835E+02 -0.48107369157E+03 -0.13063774110E+02  0.48896311017E+03  0.46999998093E+01 0. -1.
       -5    1    3    3    0  502 -0.86372878835E+02  0.48107369157E+03  0.13710397785E+02  0.48898081345E+03  0.46999998093E+01 0.  1.
</event>
<event>
 5   0  0.1020150E-03  0.9980569E+03  0.7818609E-02  0.9310679E-01
       -2   -1    0    0    0  501  0.00000000000E+00  0.00000000000E+00  0.12328810051E+03  0.12328810054E+03  0.25500000920E-02 0. -1.
        2   -1    0    0  501    0  0.00000000000E+00  0.00000000000E+00 -0.20198980418E+04  0.20198980418E+04  0.25500000920E-02 0.  1.
    10030    2    1    2    0    0  0.00000000000E+00  0.00000000000E+00 -0.18966099413E+04  0.21431861423E+04  0.99805689785E+03 0.  0.
        5    1    3    3  502    0  0.45820897290E+03  0.19237477590E+03 -0.10453832921E+04  0.11575024124E+04  0.46999998093E+01 0.  1.
       -5    1    3    3    0  502 -0.45820897290E+03 -0.19237477590E+03 -0.85122664920E+03  0.98568372998E+03  0.46999998093E+01 0. -1.
</event>
<event>
 5   0  0.5826939E-04  0.9994641E+03  0.7818609E-02  0.9309133E-01
        1   -1    0    0  501    0  0.00000000000E+00  0.00000000000E+00  0.80343679784E+03  0.80343679785E+03  0.50400001928E-02 0. -1.
       -1   -1    0    0    0  501  0.00000000000E+00  0.00000000000E+00 -0.31082981884E+03  0.31082981888E+03  0.50400001928E-02 0.  1.
    10030    2    1    2    0    0  0.00000000000E+00  0.00000000000E+00  0.49260697900E+03  0.11142666167E+04  0.99946408510E+03 0.  0.
        1    1    3    3  502    0 -0.26198701716E+03  0.26838992971E+03  0.61448178525E+03  0.71990153213E+03  0.50400001928E-02 0.  1.
       -1    1    3    3    0  502  0.26198701716E+03 -0.26838992971E+03 -0.12187480625E+03  0.39436508460E+03  0.50400001928E-02 0. -1.
</event>
<event>
 5   0  0.1020150E-03  0.9996802E+03  0.7818609E-02  0.9308896E-01
        2   -1    0    0  501    0  0.00000000000E+00  0.00000000000E+00  0.61697505090E+03  0.61697505091E+03  0.25500000920E-02 0.  1.
       -2   -1    0    0    0  501  0.00000000000E+00  0.00000000000E+00 -0.40494367135E+03  0.40494367135E+03  0.25500000920E-02 0. -1.
    10030    2    1    2    0    0  0.00000000000E+00  0.00000000000E+00  0.21203137955E+03  0.10219187223E+04  0.99968023337E+03 0.  0.
        5    1    3    3  502    0 -0.72073545790E+02  0.43442587870E+03  0.34770190398E+03  0.56110528791E+03  0.46999998093E+01 0.  1.
       -5    1    3    3    0  502  0.72073545790E+02 -0.43442587870E+03 -0.13567052443E+03  0.46081343435E+03  0.46999998093E+01 0. -1.
</event>
<event>
 5   0  0.5888774E-04  0.9871310E+03  0.7818609E-02  0.9322773E-01
        1   -1    0    0  501    0  0.00000000000E+00  0.00000000000E+00  0.10283480762E+04  0.10283480762E+04  0.50400001928E-02 0.  1.
       -1   -1    0    0    0  501  0.00000000000E+00  0.00000000000E+00 -0.23689148053E+03  0.23689148058E+03  0.50400001928E-02 0. -1.
    10030    2    1    2    0    0  0.00000000000E+00  0.00000000000E+00  0.79145659571E+03  0.12652395568E+04  0.98713099095E+03 0.  0.
        2    1    3    3  502    0  0.45765731753E+03  0.18363503313E+03  0.42245645573E+03  0.64933928163E+03  0.25500000920E-02 0.  1.
       -2    1    3    3    0  502 -0.45765731753E+03 -0.18363503313E+03  0.36900013998E+03  0.61590027520E+03  0.25500000920E-02 0. -1.
</event>
<event>
 5   0  0.5758786E-04  0.1000690E+04  0.7818609E-02  0.9307789E-01
        1   -1    0    0  501    0  0.00000000000E+00  0.00000000000E+00  0.19804378563E+03  0.19804378569E+03  0.50400001928E-02 0.  1.
       -1   -1    0    0    0  501  0.00000000000E+00  0.00000000000E+00 -0.12640890029E+04  0.12640890029E+04  0.50400001928E-02 0. -1.
    10030    2    1    2    0    0  0.00000000000E+00  0.00000000000E+00 -0.10660452173E+04  0.14621327886E+04  0.10006897053E+04 0.  0.
        3    1    3    3  502    0 -0.20758452451E+03 -0.43174792308E+03 -0.74398881382E+03  0.88488246067E+03  0.10100000352E+00 0. -1.
       -3    1    3    3    0  502  0.20758452451E+03  0.43174792308E+03 -0.32205640345E+03  0.57725032793E+03  0.10100000352E+00 0.  1.
</event>
<event>
 5   0  0.3854625E-04  0.1000450E+04  0.7818609E-02  0.9308052E-01
        3   -1    0    0  501    0  0.00000000000E+00  0.00000000000E+00  0.35841138070E+03  0.35841139493E+03  0.10100000352E+00 0. -1.
       -3   -1    0    0    0  501  0.00000000000E+00  0.00000000000E+00 -0.69814999194E+03  0.69814999924E+03  0.10100000352E+00 0.  1.
    10030    2    1    2    0    0  0.00000000000E+00  0.00000000000E+00 -0.33973861123E+03  0.10565613942E+04  0.10004497267E+04 0.  0.
        5    1    3    3  502    0 -0.17960887317E+03 -0.34392792487E+03  0.16352141011E+03  0.42107850384E+03  0.46999998093E+01 0. -1.
       -5    1    3    3    0  502  0.17960887317E+03  0.34392792487E+03 -0.50326002135E+03  0.63548289034E+03  0.46999998093E+01 0.  1.
</event>
<event>
 5   0  0.5960102E-04  0.1002322E+04  0.7818609E-02  0.9306001E-01
       -1   -1    0    0    0  501  0.00000000000E+00  0.00000000000E+00  0.24181567878E+03  0.24181567883E+03  0.50400001928E-02 0.  1.
        1   -1    0    0  501    0  0.00000000000E+00  0.00000000000E+00 -0.10386525676E+04  0.10386525676E+04  0.50400001928E-02 0. -1.
    10030    2    1    2    0    0  0.00000000000E+00  0.00000000000E+00 -0.79683688884E+03  0.12804682465E+04  0.10023222549E+04 0.  0.
        5    1    3    3  502    0 -0.12541882759E+03 -0.32566740496E+03  0.61040537546E+02  0.35431226085E+03  0.46999998093E+01 0.  1.
       -5    1    3    3    0  502  0.12541882759E+03  0.32566740496E+03 -0.85787742638E+03  0.92615598560E+03  0.46999998093E+01 0. -1.
</event>
<event>
 5   0  0.1006006E-03  0.9992704E+03  0.7818609E-02  0.9309345E-01
        2   -1    0    0  501    0  0.00000000000E+00  0.00000000000E+00  0.71781036610E+03  0.71781036610E+03  0.25500000920E-02 0. -1.
       -2   -1    0    0    0  501  0.00000000000E+00  0.00000000000E+00 -0.34777336698E+03  0.34777336699E+03  0.25500000920E-02 0.  1.
    10030    2    1    2    0    0  0.00000000000E+00  0.00000000000E+00  0.37003699912E+03  0.10655837331E+04  0.99927038959E+03 0.  0.
        2    1    3    3  502    0  0.21332107057E+03 -0.32919563911E+03  0.51500479701E+03  0.64738364893E+03  0.25500000920E-02 0. -1.
       -2    1    3    3    0  502 -0.21332107057E+03  0.32919563911E+03 -0.14496779789E+03  0.41820008416E+03  0.25500000920E-02 0.  1.
</event>
<event>
 5   0  0.1006749E-03  0.9989796E+03  0.7818609E-02  0.9309665E-01
        2   -1    0    0  501    0  0.00000000000E+00  0.00000000000E+00  0.14041958973E+04  0.14041958973E+04  0.25500000920E-02 0.  1.
       -2   -1    0    0    0  501  0.00000000000E+00  0.00000000000E+00 -0.17767468175E+03  0.17767468176E+03  0.25500000920E-02 0. -1.
    10030    2    1    2    0    0  0.00000000000E+00  0.00000000000E+00  0.12265212156E+04  0.15818705791E+04  0.99897959776E+03 0.  0.
        1    1    3    3  502    0 -0.42365173673E+03  0.25885008844E+03  0.70007692643E+03  0.85824930251E+03  0.50400001928E-02 0.  1.
       -1    1    3    3    0  502  0.42365173673E+03 -0.25885008844E+03  0.52644428916E+03  0.72362127659E+03  0.50400001928E-02 0. -1.
</event>
<event>
 5   0  0.5826939E-04  0.1001151E+04  0.7818609E-02  0.9307283E-01
       -1   -1    0    0    0  501  0.00000000000E+00  0.00000000000E+00  0.24803427644E+03  0.24803427649E+03  0.50400001928E-02 0. -1.
        1   -1    0    0  501    0  0.00000000000E+00  0.00000000000E+00 -0.10102468922E+04  0.10102468922E+04  0.50400001928E-02 0.  1.
    10030    2    1    2    0    0  0.00000000000E+00  0.00000000000E+00 -0.76221261576E+03  0.12582811687E+04  0.10011510515E+04 0.  0.
        1    1    3    3  502    0 -0.15653519491E+03 -0.22410336817E+03 -0.90815362756E+03  0.94840318333E+03  0.50400001928E-02 0.  1.
       -1    1    3    3    0  502  0.15653519491E+03  0.22410336817E+03  0.14594101180E+03  0.30987798538E+03  0.50400001928E-02 0. -1.
</event>
<event>
 5   0  0.5758786E-04  0.9970023E+03  0.7818609E-02  0.9311839E-01
       -1   -1    0    0    0  501  0.00000000000E+00  0.00000000000E+00  0.40148259113E+03  0.40148259116E+03  0.50400001928E-02 0.  1.
        1   -1    0    0  501    0  0.00000000000E+00  0.00000000000E+00 -0.61896428006E+03  0.61896428008E+03  0.50400001928E-02 0. -1.
    10030    2    1    2    0    0  0.00000000000E+00  0.00000000000E+00 -0.21748168893E+03  0.10204468712E+04  0.99700227282E+03 0.  0.
        3    1    3    3  502    0  0.24863257208E+03  0.12243120455E+03  0.31536485362E+03  0.41983634531E+03  0.10100000352E+00 0.  1.
       -3    1    3    3    0  502 -0.24863257208E+03 -0.12243120455E+03 -0.53284654255E+03  0.60061052593E+03  0.10100000352E+00 0. -1.
</event>
<event>
 5   0  0.5758786E-04  0.9998082E+03  0.7818609E-02  0.9308755E-01
        1   -1    0    0  501    0  0.00000000000E+00  0.00000000000E+00  0.52549577226E+03  0.52549577229E+03  0.50400001928E-02 0.  1.
       -1   -1    0    0    0  501  0.00000000000E+00  0.00000000000E+00 -0.47555874598E+03  0.47555874601E+03  0.50400001928E-02 0. -1.
    10030    2    1    2    0    0  0.00000000000E+00  0.00000000000E+00  0.49937026280E+02  0.10010545183E+04  0.99980820261E+03 0.  0.
        3    1    3    3  502    0 -0.19356920899E+03 -0.32276999940E+03 -0.30446228063E+03  0.48409379433E+03  0.10100000352E+00 0. -1.
       -3    1    3    3    0  502  0.19356920899E+03  0.32276999940E+03  0.35439930691E+03  0.51696072396E+03  0.10100000352E+00 0.  1.
</event>
<event>
 5   0  0.5888774E-04  0.9996088E+03  0.7818609E-02  0.9308974E-01
        1   -1    0    0  501    0  0.00000000000E+00  0.00000000000E+00  0.46354110633E+03  0.46354110636E+03  0.50400001928E-02 0. -1.
       -1   -1    0    0    0  501  0.00000000000E+00  0.00000000000E+00 -0.53890461108E+03  0.53890461111E+03  0.50400001928E-02 0.  1.
    10030    2    1    2    0    0  0.00000000000E+00  0.00000000000E+00 -0.75363504751E+02  0.10024457175E+04  0.99960880279E+03 0.  0.
        2    1    3    3  502    0  0.38947517029E+02  0.28385829324E+03  0.37300705001E+03  0.47034742381E+03  0.25500000920E-02 0. -1.
       -2    1    3    3    0  502 -0.38947517029E+02 -0.28385829324E+03 -0.44837055476E+03  0.53209829365E+03  0.25500000920E-02 0.  1.
</event>
<event>
 5   0  0.1006749E-03  0.9998434E+03  0.7818609E-02  0.9308717E-01
        2   -1    0    0  501    0  0.00000000000E+00  0.00000000000E+00  0.10121648592E+04  0.10121648592E+04  0.25500000920E-02 0. -1.
       -2   -1    0    0    0  501  0.00000000000E+00  0.00000000000E+00 -0.24691798235E+03  0.24691798236E+03  0.25500000920E-02 0.  1.
    10030    2    1    2    0    0  0.00000000000E+00  0.00000000000E+00  0.76524687683E+03  0.12590828415E+04  0.99984339742E+03 0.  0.
        1    1    3    3  502    0 -0.33691871511E+02  0.49609490093E+03  0.44777109487E+03  0.66913694141E+03  0.50400001928E-02 0.  1.
       -1    1    3    3    0  502  0.33691871511E+02 -0.49609490093E+03  0.31747578196E+03  0.58994590013E+03  0.50400001928E-02 0. -1.
</event>
<event>
 5   0  0.9741826E-04  0.9994011E+03  0.7818609E-02  0.9309202E-01
        2   -1    0    0  501    0  0.00000000000E+00  0.00000000000E+00  0.17983614985E+04  0.17983614985E+04  0.25500000920E-02 0. -1.
       -2   -1    0    0    0  501  0.00000000000E+00  0.00000000000E+00 -0.13884898064E+03  0.13884898066E+03  0.25500000920E-02 0.  1.
    10030    2    1    2    0    0  0.00000000000E+00  0.00000000000E+00  0.16595125179E+04  0.19372104792E+04  0.99940114250E+03 0.  0.
        3    1    3    3  502    0  0.10018302109E+03 -0.40456994288E+03  0.13640832534E+04  0.14263367796E+04  0.10100000352E+00 0. -1.
       -3    1    3    3    0  502 -0.10018302109E+03  0.40456994288E+03  0.29542926442E+03  0.51087369954E+03  0.10100000352E+00 0.  1.
</event>
<event>
 5   0  0.5758786E-04  0.9999977E+03  0.7818609E-02  0.9308547E-01
        1   -1    0    0  501    0  0.00000000000E+00  0.00000000000E+00  0.39877463184E+03  0.39877463187E+03  0.50400001928E-02 0. -1.
       -1   -1    0    0    0  501  0.00000000000E+00  0.00000000000E+00 -0.62691767699E+03  0.62691767701E+03  0.50400001928E-02 0.  1.
    10030    2    1    2    0    0  0.00000000000E+00  0.00000000000E+00 -0.22814304516E+03  0.10256923089E+04  0.99999773172E+03 0.  0.
        3    1    3    3  502    0 -0.23355224595E+03 -0.14111774411E+03 -0.54380940570E+03  0.60843204158E+03  0.10100000352E+00 0.  1.
       -3    1    3    3    0  502  0.23355224595E+03  0.14111774411E+03  0.31566636054E+03  0.41726026730E+03  0.10100000352E+00 0. -1.
</event>
<event>
 5   0  0.9674819E-04  0.9997206E+03  0.7818609E-02  0.9308851E-01
       -2   -1    0    0    0  501  0.00000000000E+00  0.00000000000E+00  0.37955914081E+03  0.37955914082E+03  0.25500000920E-02 0. -1.
        2   -1    0    0  501    0  0.00000000000E+00  0.00000000000E+00 -0.65829090163E+03  0.65829090164E+03  0.25500000920E-02 0.  1.
    10030    2    1    2    0    0  0.00000000000E+00  0.00000000000E+00 -0.27873176082E+03  0.10378500425E+04  0.99972061904E+03 0.  0.
        4    1    3    3  502    0  0.23615768732E+03 -0.53727567718E+02  0.31457754653E+03  0.39701102062E+03  0.12699999809E+01 0. -1.
       -4    1    3    3    0  502 -0.23615768732E+03  0.53727567718E+02 -0.59330930735E+03  0.64083902184E+03  0.12699999809E+01 0.  1.
</event>
<event>
 5   0  0.5758786E-04  0.9994892E+03  0.7818609E-02  0.9309105E-01
       -1   -1    0    0    0  501  0.00000000000E+00  0.00000000000E+00  0.81205778967E+03  0.81205778969E+03  0.50400001928E-02 0.  1.
        1   -1    0    0  501    0  0.00000000000E+00  0.00000000000E+00 -0.30754544015E+03  0.30754544020E+03  0.50400001928E-02 0. -1.
    10030    2    1    2    0    0  0.00000000000E+00  0.00000000000E+00  0.50451234952E+03  0.11196032299E+04  0.99948921032E+03 0.  0.
        3    1    3    3  502    0 -0.32807565519E+02  0.20917866785E+03  0.75932904315E+03  0.78829731537E+03  0.10100000352E+00 0.  1.
       -3    1    3    3    0  502  0.32807565519E+02 -0.20917866785E+03 -0.25481669364E+03  0.33130591452E+03  0.10100000352E+00 0. -1.
</event>
<event>
 5   0  0.5758786E-04  0.1000926E+04  0.7818609E-02  0.9307530E-01
       -1   -1    0    0    0  501  0.00000000000E+00  0.00000000000E+00  0.41441449868E+03  0.41441449871E+03  0.50400001928E-02 0. -1.
        1   -1    0    0  501    0  0.00000000000E+00  0.00000000000E+00 -0.60437855983E+03  0.60437855985E+03  0.50400001928E-02 0.  1.
    10030    2    1    2    0    0  0.00000000000E+00  0.00000000000E+00 -0.18996406114E+03  0.10187930586E+04  0.10009260470E+04 0.  0.
        3    1    3    3  502    0 -0.15075097986E+03 -0.47421229230E+03 -0.14941630522E+03  0.51954633919E+03  0.10100000352E+00 0.  1.
       -3    1    3    3    0  502  0.15075097986E+03  0.47421229230E+03 -0.40547755919E+02  0.49924671937E+03  0.10100000352E+00 0. -1.
</event>
<event>
 5   0  0.9741826E-04  0.1000069E+04  0.7818609E-02  0.9308469E-01
        2   -1    0    0  501    0  0.00000000000E+00  0.00000000000E+00  0.60603794134E+03  0.60603794135E+03  0.25500000920E-02 0.  1.
       -2   -1    0    0    0  501  0.00000000000E+00  0.00000000000E+00 -0.41257226010E+03  0.41257226011E+03  0.25500000920E-02 0. -1.
    10030    2    1    2    0    0  0.00000000000E+00  0.00000000000E+00  0.19346568124E+03  0.10186102015E+04  0.10000688840E+04 0.  0.
        3    1    3    3  502    0 -0.25161972323E+03 -0.37972105534E+03 -0.11332821608E+03  0.46940798859E+03  0.10100000352E+00 0. -1.
       -3    1    3    3    0  502  0.25161972323E+03  0.37972105534E+03  0.30679389732E+03  0.54920221287E+03  0.10100000352E+00 0.  1.
</event>
<event>
 5   0  0.5768102E-04  0.9991868E+03  0.7818609E-02  0.9309437E-01
        1   -1    0    0  501    0  0.00000000000E+00  0.00000000000E+00  0.35980614457E+03  0.35980614460E+03  0.50400001928E-02 0. -1.
       -1   -1    0    0    0  501  0.00000000000E+00  0.00000000000E+00 -0.69368893449E+03  0.69368893450E+03  0.50400001928E-02 0.  1.
    10030    2    1    2    0    0  0.00000000000E+00  0.00000000000E+00 -0.33388278992E+03  0.10534950791E+04  0.99918675146E+03 0.  0.
        4    1    3    3  502    0 -0.96077617351E+02  0.46437999493E+03 -0.33268695381E+03  0.57927705839E+03  0.12699999809E+01 0.  1.
       -4    1    3    3    0  502  0.96077617351E+02 -0.46437999493E+03 -0.11958361072E+01  0.47421802071E+03  0.12699999809E+01 0. -1.
</event>
<event>
 5   0  0.5758786E-04  0.9974180E+03  0.7818609E-02  0.9311381E-01
        1   -1    0    0  501    0  0.00000000000E+00  0.00000000000E+00  0.32685979287E+03  0.32685979291E+03  0.50400001928E-02 0.  1.
       -1   -1    0    0    0  501  0.00000000000E+00  0.00000000000E+00 -0.76090939249E+03  0.76090939250E+03  0.50400001928E-02 0. -1.
    10030    2    1    2    0    0  0.00000000000E+00  0.00000000000E+00 -0.43404959961E+03  0.10877691854E+04  0.99741803965E+03 0.  0.
        3    1    3    3  502    0 -0.41859587866E+03  0.25331490760E+03 -0.32230848151E+03  0.58589565581E+03  0.10100000352E+00 0. -1.
       -3    1    3    3    0  502  0.41859587866E+03 -0.25331490760E+03 -0.11174111811E+03  0.50187352961E+03  0.10100000352E+00 0.  1.
</event>
<event>
 5   0  0.1006006E-03  0.9985040E+03  0.7818609E-02  0.9310187E-01
        2   -1    0    0  501    0  0.00000000000E+00  0.00000000000E+00  0.30070189209E+03  0.30070189210E+03  0.25500000920E-02 0.  1.
       -2   -1    0    0    0  501  0.00000000000E+00  0.00000000000E+00 -0.82890250869E+03  0.82890250870E+03  0.25500000920E-02 0. -1.
    10030    2    1    2    0    0  0.00000000000E+00  0.00000000000E+00 -0.52820061661E+03  0.11296044008E+04  0.99850398643E+03 0.  0.
        2    1    3    3  502    0  0.39255460554E+03 -0.30128693164E+02  0.83201733179E+02  0.40240450406E+03  0.25500000920E-02 0.  1.
       -2    1    3    3    0  502 -0.39255460554E+03  0.30128693164E+02 -0.61140234978E+03  0.72719989673E+03  0.25500000920E-02 0. -1.
</event>
<event>
 5   0  0.5768102E-04  0.1001303E+04  0.7818609E-02  0.9307117E-01
       -1   -1    0    0    0  501  0.00000000000E+00  0.00000000000E+00  0.35403146083E+03  0.35403146087E+03  0.50400001928E-02 0.  1.
        1   -1    0    0  501    0  0.00000000000E+00  0.00000000000E+00 -0.70799312620E+03  0.70799312622E+03  0.50400001928E-02 0. -1.
    10030    2    1    2    0    0  0.00000000000E+00  0.00000000000E+00 -0.35396166537E+03  0.10620245871E+04  0.10013028328E+04 0.  0.
        4    1    3    3  502    0 -0.50316326354E+02  0.49659577252E+03 -0.21821152215E+03  0.54475405026E+03  0.12699999809E+01 0. -1.
       -4    1    3    3    0  502  0.50316326354E+02 -0.49659577252E+03 -0.13575014322E+03  0.51727053682E+03  0.12699999809E+01 0.  1.
</event>
<event>
 5   0  0.1006749E-03  0.1000165E+04  0.7818609E-02  0.9308364E-01
       -2   -1    0    0    0  501  0.00000000000E+00  0.00000000000E+00  0.27140792516E+03  0.27140792518E+03  0.25500000920E-02 0. -1.
        2   -1    0    0  501    0  0.00000000000E+00  0.00000000000E+00 -0.92142655128E+03  0.92142655129E+03  0.25500000920E-02 0.  1.
    10030    2    1    2    0    0  0.00000000000E+00  0.00000000000E+00 -0.65001862612E+03  0.11928344765E+04  0.10001649234E+04 0.  0.
        1    1    3    3  502    0 -0.39012126265E+03 -0.42112970034E+02 -0.69475466044E+03  0.79790484398E+03  0.50400001928E-02 0.  1.
       -1    1    3    3    0  502  0.39012126265E+03  0.42112970034E+02  0.44736034327E+02  0.39492963248E+03  0.50400001928E-02 0. -1.
</event>
<event>
 5   0  0.3854625E-04  0.9813574E+03  0.7818609E-02  0.9329231E-01
        4   -1    0    0  501    0  0.00000000000E+00  0.00000000000E+00  0.54507781019E+03  0.54507928970E+03  0.12699999809E+01 0. -1.
       -4   -1    0    0    0  501  0.00000000000E+00  0.00000000000E+00 -0.44170565281E+03  0.44170747857E+03  0.12699999809E+01 0.  1.
    10030    2    1    2    0    0  0.00000000000E+00  0.00000000000E+00  0.10337215738E+03  0.98678676827E+03  0.98135738807E+03 0.  0.
        5    1    3    3  502    0  0.31824991285E+03 -0.32458295451E+03  0.23738697252E+03  0.51284672770E+03  0.46999998093E+01 0. -1.
       -5    1    3    3    0  502 -0.31824991285E+03  0.32458295451E+03 -0.13401481514E+03  0.47394004058E+03  0.46999998093E+01 0.  1.
</event>
<event>
 5   0  0.5768102E-04  0.1000553E+04  0.7818609E-02  0.9307938E-01
        1   -1    0    0  501    0  0.00000000000E+00  0.00000000000E+00  0.42559296992E+03  0.42559296995E+03  0.50400001928E-02 0.  1.
       -1   -1    0    0    0  501  0.00000000000E+00  0.00000000000E+00 -0.58806608340E+03  0.58806608342E+03  0.50400001928E-02 0. -1.
    10030    2    1    2    0    0  0.00000000000E+00  0.00000000000E+00 -0.16247311349E+03  0.10136590534E+04  0.10005534288E+04 0.  0.
        4    1    3    3  502    0 -0.24722852859E+03 -0.29887746539E+03 -0.40132673749E+03  0.55813479357E+03  0.12699999809E+01 0. -1.
       -4    1    3    3    0  502  0.24722852859E+03  0.29887746539E+03  0.23885362401E+03  0.45552425980E+03  0.12699999809E+01 0.  1.
</event>
<event>
 5   0  0.9741826E-04  0.9998178E+03  0.7818609E-02  0.9308745E-01
       -2   -1    0    0    0  501  0.00000000000E+00  0.00000000000E+00  0.92275580040E+02  0.92275580075E+02  0.25500000920E-02 0. -1.
        2   -1    0    0  501    0  0.00000000000E+00  0.00000000000E+00 -0.27082887674E+04  0.27082887674E+04  0.25500000920E-02 0.  1.
    10030    2    1    2    0    0  0.00000000000E+00  0.00000000000E+00 -0.26160131874E+04  0.28005643475E+04  0.99981781737E+03 0.  0.
        3    1    3    3  502    0 -0.45446492000E+03  0.89385481109E+02 -0.18348825491E+04  0.18924381382E+04  0.10100000352E+00 0.  1.
       -3    1    3    3    0  502  0.45446492000E+03 -0.89385481109E+02 -0.78113063829E+03  0.90812620930E+03  0.10100000352E+00 0. -1.
</event>
<event>
 5   0  0.5758786E-04  0.1000652E+04  0.7818609E-02  0.9307830E-01
        1   -1    0    0  501    0  0.00000000000E+00  0.00000000000E+00  0.94664532044E+03  0.94664532046E+03  0.50400001928E-02 0.  1.
       -1   -1    0    0    0  501  0.00000000000E+00  0.00000000000E+00 -0.26443518328E+03  0.26443518332E+03  0.50400001928E-02 0. -1.
    10030    2    1    2    0    0  0.00000000000E+00  0.00000000000E+00  0.68221013717E+03  0.12110805038E+04  0.10006524449E+04 0.  0.
        3    1    3    3  502    0  0.44909604036E+03 -0.12449971011E+02  0.60760018644E+03  0.75565881985E+03  0.10100000352E+00 0.  1.
       -3    1    3    3    0  502 -0.44909604036E+03  0.12449971011E+02  0.74609950725E+02  0.45542168393E+03  0.10100000352E+00 0. -1.
</event>
<event>
 5   0  0.1006006E-03  0.1000699E+04  0.7818609E-02  0.9307778E-01
        2   -1    0    0  501    0  0.00000000000E+00  0.00000000000E+00  0.93057751128E+03  0.93057751128E+03  0.25500000920E-02 0.  1.
       -2   -1    0    0    0  501  0.00000000000E+00  0.00000000000E+00 -0.26902628255E+03  0.26902628256E+03  0.25500000920E-02 0. -1.
    10030    2    1    2    0    0  0.00000000000E+00  0.00000000000E+00  0.66155122873E+03  0.11996037938E+04  0.10006993724E+04 0.  0.
        2    1    3    3  502    0  0.71081911292E+02 -0.11284700593E+03  0.90887732655E+03  0.91861040685E+03  0.25500000920E-02 0.  1.
       -2    1    3    3    0  502 -0.71081911292E+02  0.11284700593E+03 -0.24732609782E+03  0.28099338698E+03  0.25500000920E-02 0. -1.
</event>
<event>
 5   0  0.9741826E-04  0.9998043E+03  0.7818609E-02  0.9308759E-01
       -2   -1    0    0    0  501  0.00000000000E+00  0.00000000000E+00  0.23481460976E+03  0.23481460977E+03  0.25500000920E-02 0. -1.
        2   -1    0    0  501    0  0.00000000000E+00  0.00000000000E+00 -0.10642531121E+04  0.10642531121E+04  0.25500000920E-02 0.  1.
    10030    2    1    2    0    0  0.00000000000E+00  0.00000000000E+00 -0.82943850231E+03  0.12990677218E+04  0.99980433926E+03 0.  0.
        3    1    3    3  502    0  0.31272128323E+03 -0.38121850156E+03 -0.52170657615E+03  0.71784393061E+03  0.10100000352E+00 0. -1.
       -3    1    3    3    0  502 -0.31272128323E+03  0.38121850156E+03 -0.30773192616E+03  0.58122379123E+03  0.10100000352E+00 0.  1.
</event>
<event>
 5   0  0.1006006E-03  0.1000652E+04  0.7818609E-02  0.9307830E-01
       -2   -1    0    0    0  501  0.00000000000E+00  0.00000000000E+00  0.58283200375E+03  0.58283200376E+03  0.25500000920E-02 0.  1.
        2   -1    0    0  501    0  0.00000000000E+00  0.00000000000E+00 -0.42949951718E+03  0.42949951719E+03  0.25500000920E-02 0. -1.
    10030    2    1    2    0    0  0.00000000000E+00  0.00000000000E+00  0.15333248657E+03  0.10123315209E+04  0.10006519159E+04 0.  0.
        2    1    3    3  502    0  0.27592367208E+03  0.41113246735E+03  0.14935391299E+03  0.51717537630E+03  0.25500000920E-02 0.  1.
       -2    1    3    3    0  502 -0.27592367208E+03 -0.41113246735E+03  0.39785735823E+01  0.49515614464E+03  0.25500000920E-02 0. -1.
</event>
<event>
 5   0  0.1006006E-03  0.9993702E+03  0.7818609E-02  0.9309236E-01
       -2   -1    0    0    0  501  0.00000000000E+00  0.00000000000E+00  0.64954999346E+03  0.64954999347E+03  0.25500000920E-02 0.  1.
        2   -1    0    0  501    0  0.00000000000E+00  0.00000000000E+00 -0.38439716841E+03  0.38439716842E+03  0.25500000920E-02 0. -1.
    10030    2    1    2    0    0  0.00000000000E+00  0.00000000000E+00  0.26515282506E+03  0.10339471619E+04  0.99937015812E+03 0.  0.
        2    1    3    3  502    0  0.46780676274E+03  0.45803406755E+02  0.30798304685E+03  0.56195611616E+03  0.25500000920E-02 0.  1.
       -2    1    3    3    0  502 -0.46780676274E+03 -0.45803406755E+02 -0.42830221789E+02  0.47199104573E+03  0.25500000920E-02 0. -1.
</event>
<event>
 5   0  0.5960102E-04  0.9924400E+03  0.7818609E-02  0.9316876E-01
       -1   -1    0    0    0  501  0.00000000000E+00  0.00000000000E+00  0.54708954523E+03  0.54708954526E+03  0.50400001928E-02 0. -1.
        1   -1    0    0  501    0  0.00000000000E+00  0.00000000000E+00 -0.45008042483E+03  0.45008042485E+03  0.50400001928E-02 0.  1.
    10030    2    1    2    0    0  0.00000000000E+00  0.00000000000E+00  0.97009120408E+02  0.99716997011E+03  0.99244001322E+03 0.  0.
        5    1    3    3  502    0 -0.33283742616E+03  0.35659024588E+03  0.13990430241E+03  0.50747675763E+03  0.46999998093E+01 0.  1.
       -5    1    3    3    0  502  0.33283742616E+03 -0.35659024588E+03 -0.42895182000E+02  0.48969321248E+03  0.46999998093E+01 0. -1.
</event>
<event>
 5   0  0.5768102E-04  0.9975651E+03  0.7818609E-02  0.9311219E-01
        1   -1    0    0  501    0  0.00000000000E+00  0.00000000000E+00  0.15042224205E+04  0.15042224205E+04  0.50400001928E-02 0.  1.
       -1   -1    0    0    0  501  0.00000000000E+00  0.00000000000E+00 -0.16539044051E+03  0.16539044058E+03  0.50400001928E-02 0. -1.
    10030    2    1    2    0    0  0.00000000000E+00  0.00000000000E+00  0.13388319800E+04  0.16696128611E+04  0.99756505316E+03 0.  0.
        4    1    3    3  502    0  0.76889892289E+01 -0.30563579940E+03  0.13290063681E+04  0.13637198766E+04  0.12699999809E+01 0.  1.
       -4    1    3    3    0  502 -0.76889892289E+01  0.30563579940E+03  0.98256119048E+01  0.30589298452E+03  0.12699999809E+01 0. -1.
</event>
<event>
 5   0  0.1006006E-03  0.9964393E+03  0.7818609E-02  0.9312459E-01
       -2   -1    0    0    0  501  0.00000000000E+00  0.00000000000E+00  0.39103826988E+03  0.39103826989E+03  0.25500000920E-02 0. -1.
        2   -1    0    0  501    0  0.00000000000E+00  0.00000000000E+00 -0.63477889182E+03  0.63477889182E+03  0.25500000920E-02 0.  1.
    10030    2    1    2    0    0  0.00000000000E+00  0.00000000000E+00 -0.24374062194E+03  0.10258171617E+04  0.99643934009E+03 0.  0.
        2    1    3    3  502    0 -0.76422380649E+02 -0.16200243355E+01 -0.62870617428E+03  0.63333597587E+03  0.25500000920E-02 0.  1.
       -2    1    3    3    0  502  0.76422380649E+02  0.16200243355E+01  0.38496555234E+03  0.39248118584E+03  0.25500000920E-02 0. -1.
</event>
<event>
 5   0  0.1006006E-03  0.1000180E+04  0.7818609E-02  0.9308347E-01
        2   -1    0    0  501    0  0.00000000000E+00  0.00000000000E+00  0.44553689364E+03  0.44553689364E+03  0.25500000920E-02 0. -1.
       -2   -1    0    0    0  501  0.00000000000E+00  0.00000000000E+00 -0.56132312006E+03  0.56132312007E+03  0.25500000920E-02 0.  1.
    10030    2    1    2    0    0  0.00000000000E+00  0.00000000000E+00 -0.11578622642E+03  0.10068600137E+04  0.10001803022E+04 0.  0.
        2    1    3    3  502    0 -0.33044305960E+03 -0.35558474213E+02 -0.43406388344E+03  0.54668864597E+03  0.25500000920E-02 0.  1.
       -2    1    3    3    0  502  0.33044305960E+03  0.35558474213E+02  0.31827765701E+03  0.46017136774E+03  0.25500000920E-02 0. -1.
</event>
<event>
 5   0  0.3854625E-04  0.1000128E+04  0.7818609E-02  0.9308404E-01
       -3   -1    0    0    0  501  0.00000000000E+00  0.00000000000E+00  0.31311992878E+03  0.31311994507E+03  0.10100000352E+00 0.  1.
        3   -1    0    0  501    0  0.00000000000E+00  0.00000000000E+00 -0.79862114087E+03  0.79862114726E+03  0.10100000352E+00 0. -1.
    10030    2    1    2    0    0  0.00000000000E+00  0.00000000000E+00 -0.48550121210E+03  0.11117410923E+04  0.10001284065E+04 0.  0.
        4    1    3    3  502    0 -0.26040728507E+03  0.19892126177E+03 -0.66263615247E+03  0.73923602859E+03  0.12699999809E+01 0. -1.
       -4    1    3    3    0  502  0.26040728507E+03 -0.19892126177E+03  0.17713494038E+03  0.37250506373E+03  0.12699999809E+01 0.  1.
</event>
<event>
 5   0  0.9741826E-04  0.9973187E+03  0.7818609E-02  0.9311490E-01
        2   -1    0    0  501    0  0.00000000000E+00  0.00000000000E+00  0.52959083791E+03  0.52959083792E+03  0.25500000920E-02 0. -1.
       -2   -1    0    0    0  501  0.00000000000E+00  0.00000000000E+00 -0.46953448646E+03  0.46953448647E+03  0.25500000920E-02 0.  1.
    10030    2    1    2    0    0  0.00000000000E+00  0.00000000000E+00  0.60056351451E+02  0.99912532438E+03  0.99731872963E+03 0.  0.
        3    1    3    3  502    0  0.15290236090E+03 -0.29563238327E+03  0.40202751043E+03  0.52192314314E+03  0.10100000352E+00 0. -1.
       -3    1    3    3    0  502 -0.15290236090E+03  0.29563238327E+03 -0.34197115898E+03  0.47720218124E+03  0.10100000352E+00 0.  1.
</event>
<event>
 5   0  0.3854625E-04  0.9993972E+03  0.7818609E-02  0.9309206E-01
       -4   -1    0    0    0  501  0.00000000000E+00  0.00000000000E+00  0.15583497197E+04  0.15583502372E+04  0.12699999809E+01 0. -1.
        4   -1    0    0  501    0  0.00000000000E+00  0.00000000000E+00 -0.16022971978E+03  0.16023475279E+03  0.12699999809E+01 0.  1.
    10030    2    1    2    0    0  0.00000000000E+00  0.00000000000E+00  0.13981199999E+04  0.17185849900E+04  0.99939723518E+03 0.  0.
        1    1    3    3  502    0 -0.94019745834E+02  0.47439532728E+03  0.48285173808E+03  0.68340064395E+03  0.50400001928E-02 0.  1.
       -1    1    3    3    0  502  0.94019745834E+02 -0.47439532728E+03  0.91526826185E+03  0.10351843461E+04  0.50400001928E-02 0. -1.
</event>
<event>
 5   0  0.5826939E-04  0.1000880E+04  0.7818609E-02  0.9307580E-01
        1   -1    0    0  501    0  0.00000000000E+00  0.00000000000E+00  0.28410763083E+03  0.28410763087E+03  0.50400001928E-02 0.  1.
       -1   -1    0    0    0  501  0.00000000000E+00  0.00000000000E+00 -0.88149713421E+03  0.88149713423E+03  0.50400001928E-02 0. -1.
    10030    2    1    2    0    0  0.00000000000E+00  0.00000000000E+00 -0.59738950339E+03  0.11656047651E+04  0.10008797379E+04 0.  0.
        1    1    3    3  502    0 -0.24307619059E+03  0.31099181752E+03  0.59568664753E+02  0.39918713762E+03  0.50400001928E-02 0.  1.
       -1    1    3    3    0  502  0.24307619059E+03 -0.31099181752E+03 -0.65695816814E+03  0.76641762748E+03  0.50400001928E-02 0. -1.
</event>
<event>
 5   0  0.1006006E-03  0.1001946E+04  0.7818609E-02  0.9306413E-01
       -2   -1    0    0    0  501  0.00000000000E+00  0.00000000000E+00  0.56398023032E+03  0.56398023033E+03  0.25500000920E-02 0.  1.
        2   -1    0    0  501    0  0.00000000000E+00  0.00000000000E+00 -0.44500466378E+03  0.44500466378E+03  0.25500000920E-02 0. -1.
    10030    2    1    2    0    0  0.00000000000E+00  0.00000000000E+00  0.11897556655E+03  0.10089848941E+04  0.10019457725E+04 0.  0.
        2    1    3    3  502    0  0.23142664999E+03  0.44330030379E+03  0.89704909052E+02  0.50805553277E+03  0.25500000920E-02 0. -1.
       -2    1    3    3    0  502 -0.23142664999E+03 -0.44330030379E+03  0.29270657496E+02  0.50092936134E+03  0.25500000920E-02 0.  1.
</event>
<event>
 5   0  0.1020150E-03  0.9996117E+03  0.7818609E-02  0.9308971E-01
       -2   -1    0    0    0  501  0.00000000000E+00  0.00000000000E+00  0.27486245016E+03  0.27486245017E+03  0.25500000920E-02 0. -1.
        2   -1    0    0  501    0  0.00000000000E+00  0.00000000000E+00 -0.90883960135E+03  0.90883960135E+03  0.25500000920E-02 0.  1.
    10030    2    1    2    0    0  0.00000000000E+00  0.00000000000E+00 -0.63397715119E+03  0.11837020515E+04  0.99961168388E+03 0.  0.
        5    1    3    3  502    0  0.40070639795E+03 -0.31320798894E+02 -0.66874082726E+03  0.78024547025E+03  0.46999998093E+01 0.  1.
       -5    1    3    3    0  502 -0.40070639795E+03  0.31320798894E+02  0.34763676075E+02  0.40345658127E+03  0.46999998093E+01 0. -1.
</event>
<event>
 5   0  0.3854625E-04  0.9996089E+03  0.7818609E-02  0.9308974E-01
       -4   -1    0    0    0  501  0.00000000000E+00  0.00000000000E+00  0.25764967003E+03  0.25765280003E+03  0.12699999809E+01 0.  1.
        4   -1    0    0  501    0  0.00000000000E+00  0.00000000000E+00 -0.96954146845E+03  0.96954230024E+03  0.12699999809E+01 0. -1.
    10030    2    1    2    0    0  0.00000000000E+00  0.00000000000E+00 -0.71189179843E+03  0.12271951003E+04  0.99960886424E+03 0.  0.
        1    1    3    3  502    0 -0.17259082022E+03  0.40904188573E+02 -0.92960498047E+03  0.94637527631E+03  0.50400001928E-02 0. -1.
       -1    1    3    3    0  502  0.17259082022E+03 -0.40904188573E+02  0.21771318205E+03  0.28081982396E+03  0.50400001928E-02 0.  1.
</event>
<event>
 5   0  0.5960102E-04  0.1000270E+04  0.7818609E-02  0.9308249E-01
       -1   -1    0    0    0  501  0.00000000000E+00  0.00000000000E+00  0.15772133613E+03  0.15772133621E+03  0.50400001928E-02 0.  1.
        1   -1    0    0  501    0  0.00000000000E+00  0.00000000000E+00 -0.15859288839E+04  0.15859288839E+04  0.50400001928E-02 0. -1.
    10030    2    1    2    0    0  0.00000000000E+00  0.00000000000E+00 -0.14282075478E+04  0.17436502202E+04  0.10002696090E+04 0.  0.
        5    1    3    3  502    0 -0.14858260541E+03 -0.30629678396E+03 -0.75475655995E+02  0.34873080613E+03  0.46999998093E+01 0.  1.
       -5    1    3    3    0  502  0.14858260541E+03  0.30629678396E+03 -0.13527318918E+04  0.13949194140E+04  0.46999998093E+01 0. -1.
</event>
<event>
 5   0  0.9674819E-04  0.1001524E+04  0.7818609E-02  0.9306875E-01
        2   -1    0    0  501    0  0.00000000000E+00  0.00000000000E+00  0.35165898852E+03  0.35165898853E+03  0.25500000920E-02 0.  1.
       -2   -1    0    0    0  501  0.00000000000E+00  0.00000000000E+00 -0.71308481055E+03  0.71308481056E+03  0.25500000920E-02 0. -1.
    10030    2    1    2    0    0  0.00000000000E+00  0.00000000000E+00 -0.36142582203E+03  0.10647437991E+04  0.10015242048E+04 0.  0.
        4    1    3    3  502    0  0.42351517139E+02  0.19062980038E+03  0.30950998236E+03  0.36596641086E+03  0.12699999809E+01 0.  1.
       -4    1    3    3    0  502 -0.42351517139E+02 -0.19062980038E+03 -0.67093580439E+03  0.69877738823E+03  0.12699999809E+01 0. -1.
</event>
<event>
 5   0  0.5758786E-04  0.9966346E+03  0.7818609E-02  0.9312244E-01
       -1   -1    0    0    0  501  0.00000000000E+00  0.00000000000E+00  0.16401480120E+03  0.16401480128E+03  0.50400001928E-02 0.  1.
        1   -1    0    0  501    0  0.00000000000E+00  0.00000000000E+00 -0.15140105406E+04  0.15140105406E+04  0.50400001928E-02 0. -1.
    10030    2    1    2    0    0  0.00000000000E+00  0.00000000000E+00 -0.13499957394E+04  0.16780253419E+04  0.99663461290E+03 0.  0.
        3    1    3    3  502    0 -0.30959330742E+03  0.31457586281E+03 -0.10644883232E+04  0.11523633931E+04  0.10100000352E+00 0. -1.
       -3    1    3    3    0  502  0.30959330742E+03 -0.31457586281E+03 -0.28550741628E+03  0.52566194880E+03  0.10100000352E+00 0.  1.
</event>
<event>
 5   0  0.5888774E-04  0.9950587E+03  0.7818609E-02  0.9313981E-01
        1   -1    0    0  501    0  0.00000000000E+00  0.00000000000E+00  0.78732459761E+03  0.78732459763E+03  0.50400001928E-02 0. -1.
       -1   -1    0    0    0  501  0.00000000000E+00  0.00000000000E+00 -0.31440078406E+03  0.31440078410E+03  0.50400001928E-02 0.  1.
    10030    2    1    2    0    0  0.00000000000E+00  0.00000000000E+00  0.47292381355E+03  0.11017253817E+04  0.99505873360E+03 0.  0.
        2    1    3    3  502    0 -0.12187176986E+03 -0.13385645898E+03 -0.27664349321E+03  0.33060838199E+03  0.25500000920E-02 0.  1.
       -2    1    3    3    0  502  0.12187176986E+03  0.13385645898E+03  0.74956730677E+03  0.77111699973E+03  0.25500000920E-02 0. -1.
</event>
<event>
 5   0  0.1006006E-03  0.9986560E+03  0.7818609E-02  0.9310020E-01
        2   -1    0    0  501    0  0.00000000000E+00  0.00000000000E+00  0.66919205258E+03  0.66919205259E+03  0.25500000920E-02 0. -1.
       -2   -1    0    0    0  501  0.00000000000E+00  0.00000000000E+00 -0.37258129815E+03  0.37258129816E+03  0.25500000920E-02 0.  1.
    10030    2    1    2    0    0  0.00000000000E+00  0.00000000000E+00  0.29661075443E+03  0.10417733507E+04  0.99865598415E+03 0.  0.
        2    1    3    3  502    0  0.11726736127E+03  0.20286107891E+03  0.60827853286E+03  0.65184892798E+03  0.25500000920E-02 0. -1.
       -2    1    3    3    0  502 -0.11726736127E+03 -0.20286107891E+03 -0.31166777843E+03  0.38992442277E+03  0.25500000920E-02 0.  1.
</event>
<event>
 5   0  0.1020150E-03  0.9930396E+03  0.7818609E-02  0.9316212E-01
       -2   -1    0    0    0  501  0.00000000000E+00  0.00000000000E+00  0.31109606120E+03  0.31109606121E+03  0.25500000920E-02 0.  1.
        2   -1    0    0  501    0  0.00000000000E+00  0.00000000000E+00 -0.79246229114E+03  0.79246229115E+03  0.25500000920E-02 0. -1.
    10030    2    1    2    0    0  0.00000000000E+00  0.00000000000E+00 -0.48136622995E+03  0.11035583524E+04  0.99303957107E+03 0.  0.
        5    1    3    3  502    0 -0.29751554093E+03 -0.35848269818E+03 -0.49862462505E+02  0.46854423180E+03  0.46999998093E+01 0.  1.
       -5    1    3    3    0  502  0.29751554093E+03  0.35848269818E+03 -0.43150376744E+03  0.63501412055E+03  0.46999998093E+01 0. -1.
</event>
<event>
 5   0  0.5768102E-04  0.1000965E+04  0.7818609E-02  0.9307487E-01
       -1   -1    0    0    0  501  0.00000000000E+00  0.00000000000E+00  0.10850077299E+04  0.10850077299E+04  0.50400001928E-02 0.  1.
        1   -1    0    0  501    0  0.00000000000E+00  0.00000000000E+00 -0.23085802380E+03  0.23085802385E+03  0.50400001928E-02 0. -1.
    10030    2    1    2    0    0  0.00000000000E+00  0.00000000000E+00  0.85414970606E+03  0.13158657537E+04  0.10009650151E+04 0.  0.
        4    1    3    3  502    0  0.28832056560E+03  0.38013914787E+03  0.62577744985E+03  0.78691394061E+03  0.12699999809E+01 0.  1.
       -4    1    3    3    0  502 -0.28832056560E+03 -0.38013914787E+03  0.22837225622E+03  0.52895181312E+03  0.12699999809E+01 0. -1.
</event>
<event>
 5   0  0.1020150E-03  0.1006483E+04  0.7818609E-02  0.9301463E-01
        2   -1    0    0  501    0  0.00000000000E+00  0.00000000000E+00  0.16889424884E+04  0.16889424884E+04  0.25500000920E-02 0. -1.
       -2   -1    0    0    0  501  0.00000000000E+00  0.00000000000E+00 -0.14994711564E+03  0.14994711566E+03  0.25500000920E-02 0.  1.
    10030    2    1    2    0    0  0.00000000000E+00  0.00000000000E+00  0.15389953728E+04  0.18388896041E+04  0.10064830940E+04 0.  0.
        5    1    3    3  502    0 -0.96506715078E+02 -0.17229827629E+03 -0.76149164361E+02  0.21170977138E+03  0.46999998093E+01 0.  1.
       -5    1    3    3    0  502  0.96506715078E+02  0.17229827629E+03  0.16151445371E+04  0.16271798327E+04  0.46999998093E+01 0. -1.
</event>
<event>
 5   0  0.5758786E-04  0.9949450E+03  0.7818609E-02  0.9314106E-01
       -1   -1    0    0    0  501  0.00000000000E+00  0.00000000000E+00  0.20393164737E+03  0.20393164744E+03  0.50400001928E-02 0.  1.
        1   -1    0    0  501    0  0.00000000000E+00  0.00000000000E+00 -0.12135384098E+04  0.12135384098E+04  0.50400001928E-02 0. -1.
    10030    2    1    2    0    0  0.00000000000E+00  0.00000000000E+00 -0.10096067624E+04  0.14174700573E+04  0.99494499771E+03 0.  0.
        3    1    3    3  502    0 -0.56601327565E+02 -0.14163115046E+03 -0.11794058274E+04  0.11892271478E+04  0.10100000352E+00 0. -1.
       -3    1    3    3    0  502  0.56601327565E+02  0.14163115046E+03  0.16979906497E+03  0.22824290949E+03  0.10100000352E+00 0.  1.
</event>
<event>
 5   0  0.1006006E-03  0.1003220E+04  0.7818609E-02  0.9305020E-01
       -2   -1    0    0    0  501  0.00000000000E+00  0.00000000000E+00  0.45580229081E+03  0.45580229082E+03  0.25500000920E-02 0.  1.
        2   -1    0    0  501    0  0.00000000000E+00  0.00000000000E+00 -0.55202134180E+03  0.55202134181E+03  0.25500000920E-02 0. -1.
    10030    2    1    2    0    0  0.00000000000E+00  0.00000000000E+00 -0.96219050991E+02  0.10078236326E+04  0.10032200002E+04 0.  0.
        2    1    3    3  502    0  0.50083833308E+03  0.27545427237E+02 -0.44244047806E+02  0.50354277099E+03  0.25500000920E-02 0.  1.
       -2    1    3    3    0  502 -0.50083833308E+03 -0.27545427237E+02 -0.51975003185E+02  0.50428086163E+03  0.25500000920E-02 0. -1.
</event>
<event>
 5   0  0.9741826E-04  0.1006982E+04  0.7818609E-02  0.9300920E-01
       -2   -1    0    0    0  501  0.00000000000E+00  0.00000000000E+00  0.13752449230E+03  0.13752449233E+03  0.25500000920E-02 0. -1.
        2   -1    0    0  501    0  0.00000000000E+00  0.00000000000E+00 -0.18433316403E+04  0.18433316403E+04  0.25500000920E-02 0.  1.
    10030    2    1    2    0    0  0.00000000000E+00  0.00000000000E+00 -0.17058071480E+04  0.19808561326E+04  0.10069821210E+04 0.  0.
        3    1    3    3  502    0  0.12047268152E+03 -0.97122190969E+02 -0.17953926035E+04  0.18020491109E+04  0.10100000352E+00 0.  1.
       -3    1    3    3    0  502 -0.12047268152E+03  0.97122190969E+02  0.89585455563E+02  0.17880702173E+03  0.10100000352E+00 0. -1.
</event>
<event>
 5   0  0.1006749E-03  0.1003556E+04  0.7818609E-02  0.9304654E-01
        2   -1    0    0  501    0  0.00000000000E+00  0.00000000000E+00  0.86254638215E+03  0.86254638215E+03  0.25500000920E-02 0.  1.
       -2   -1    0    0    0  501  0.00000000000E+00  0.00000000000E+00 -0.29190421377E+03  0.29190421378E+03  0.25500000920E-02 0. -1.
    10030    2    1    2    0    0  0.00000000000E+00  0.00000000000E+00  0.57064216838E+03  0.11544505959E+04  0.10035555262E+04 0.  0.
        1    1    3    3  502    0  0.17852444649E+03  0.46295225215E+03  0.19935014584E+03  0.53473006876E+03  0.50400001928E-02 0. -1.
       -1    1    3    3    0  502 -0.17852444649E+03 -0.46295225215E+03  0.37129202254E+03  0.61972052717E+03  0.50400001928E-02 0.  1.
</event>
<event>
 5   0  0.5826939E-04  0.9992361E+03  0.7818609E-02  0.9309383E-01
        1   -1    0    0  501    0  0.00000000000E+00  0.00000000000E+00  0.21648939130E+03  0.21648939136E+03  0.50400001928E-02 0. -1.
       -1   -1    0    0    0  501  0.00000000000E+00  0.00000000000E+00 -0.11530274733E+04  0.11530274734E+04  0.50400001928E-02 0.  1.
    10030    2    1    2    0    0  0.00000000000E+00  0.00000000000E+00 -0.93653808205E+03  0.13695168647E+04  0.99923614006E+03 0.  0.
        1    1    3    3  502    0  0.28128801716E+03 -0.23466962800E+03 -0.26293335255E+01  0.36633276720E+03  0.50400001928E-02 0. -1.
       -1    1    3    3    0  502 -0.28128801716E+03  0.23466962800E+03 -0.93390874852E+03  0.10031840975E+04  0.50400001928E-02 0.  1.
</event>
<event>
 5   0  0.9741826E-04  0.1007063E+04  0.7818609E-02  0.9300832E-01
       -2   -1    0    0    0  501  0.00000000000E+00  0.00000000000E+00  0.35589027872E+03  0.35589027873E+03  0.25500000920E-02 0.  1.
        2   -1    0    0  501    0  0.00000000000E+00  0.00000000000E+00 -0.71242182317E+03  0.71242182317E+03  0.25500000920E-02 0. -1.
    10030    2    1    2    0    0  0.00000000000E+00  0.00000000000E+00 -0.35653154445E+03  0.10683121019E+04  0.10070630590E+04 0.  0.
        3    1    3    3  502    0 -0.19996207297E+03  0.42368919789E+03  0.17473743616E+02  0.46883121585E+03  0.10100000352E+00 0.  1.
       -3    1    3    3    0  502  0.19996207297E+03 -0.42368919789E+03 -0.37400528807E+03  0.59948088605E+03  0.10100000352E+00 0. -1.
</event>
<event>
 5   0  0.5768102E-04  0.9891261E+03  0.7818609E-02  0.9320552E-01
       -1   -1    0    0    0  501  0.00000000000E+00  0.00000000000E+00  0.76145902497E+03  0.76145902499E+03  0.50400001928E-02 0. -1.
        1   -1    0    0  501    0  0.00000000000E+00  0.00000000000E+00 -0.32121572708E+03  0.32121572712E+03  0.50400001928E-02 0.  1.
    10030    2    1    2    0    0  0.00000000000E+00  0.00000000000E+00  0.44024329789E+03  0.10826747521E+04  0.98912610799E+03 0.  0.
        4    1    3    3  502    0  0.46375473733E+02  0.24214222319E+03 -0.24915388399E+03  0.35051791911E+03  0.12699999809E+01 0.  1.
       -4    1    3    3    0  502 -0.46375473733E+02 -0.24214222319E+03  0.68939718188E+03  0.73215683299E+03  0.12699999809E+01 0. -1.
</event>
<event>
 5   0  0.1020150E-03  0.9979423E+03  0.7818609E-02  0.9310805E-01
        2   -1    0    0  501    0  0.00000000000E+00  0.00000000000E+00  0.89515304285E+03  0.89515304285E+03  0.25500000920E-02 0.  1.
       -2   -1    0    0    0  501  0.00000000000E+00  0.00000000000E+00 -0.27813366450E+03  0.27813366451E+03  0.25500000920E-02 0. -1.
    10030    2    1    2    0    0  0.00000000000E+00  0.00000000000E+00  0.61701937835E+03  0.11732867074E+04  0.99794227509E+03 0.  0.
        5    1    3    3  502    0 -0.31097833561E+03  0.24925872561E+03 -0.44422813064E+02  0.40103979083E+03  0.46999998093E+01 0. -1.
       -5    1    3    3    0  502  0.31097833561E+03 -0.24925872561E+03  0.66144219141E+03  0.77224691653E+03  0.46999998093E+01 0.  1.
</event>
<event>
 5   0  0.5768102E-04  0.9995188E+03  0.7818609E-02  0.9309073E-01
        1   -1    0    0  501    0  0.00000000000E+00  0.00000000000E+00  0.18705513450E+04  0.18705513450E+04  0.50400001928E-02 0. -1.
       -1   -1    0    0    0  501  0.00000000000E+00  0.00000000000E+00 -0.13352185285E+03  0.13352185295E+03  0.50400001928E-02 0.  1.
    10030    2    1    2    0    0  0.00000000000E+00  0.00000000000E+00  0.17370294921E+04  0.20040731979E+04  0.99951884733E+03 0.  0.
        4    1    3    3  502    0  0.10674245906E+03  0.10668529440E+03  0.18237678516E+04  0.18300017743E+04  0.12699999809E+01 0. -1.
       -4    1    3    3    0  502 -0.10674245906E+03 -0.10668529440E+03 -0.86738359485E+02  0.17407142360E+03  0.12699999809E+01 0.  1.
</event>
<event>
 5   0  0.5758786E-04  0.9970323E+03  0.7818609E-02  0.9311806E-01
        1   -1    0    0  501    0  0.00000000000E+00  0.00000000000E+00  0.73209646294E+03  0.73209646295E+03  0.50400001928E-02 0.  1.
       -1   -1    0    0    0  501  0.00000000000E+00  0.00000000000E+00 -0.33946122556E+03  0.33946122560E+03  0.50400001928E-02 0. -1.
    10030    2    1    2    0    0  0.00000000000E+00  0.00000000000E+00  0.39263523738E+03  0.10715576886E+04  0.99703232158E+03 0.  0.
        3    1    3    3  502    0 -0.22135009026E+03  0.41471996357E+03  0.17994284134E+02  0.47043842860E+03  0.10100000352E+00 0. -1.
       -3    1    3    3    0  502  0.22135009026E+03 -0.41471996357E+03  0.37464095324E+03  0.60111925995E+03  0.10100000352E+00 0.  1.
</event>
<event>
 5   0  0.1006749E-03  0.1000651E+04  0.7818609E-02  0.9307831E-01
        2   -1    0    0  501    0  0.00000000000E+00  0.00000000000E+00  0.16454161170E+04  0.16454161170E+04  0.25500000920E-02 0. -1.
       -2   -1    0    0    0  501  0.00000000000E+00  0.00000000000E+00 -0.15213504222E+03  0.15213504224E+03  0.25500000920E-02 0.  1.
    10030    2    1    2    0    0  0.00000000000E+00  0.00000000000E+00  0.14932810748E+04  0.17975511593E+04  0.10006506892E+04 0.  0.
        1    1    3    3  502    0  0.32411733900E+02 -0.14330955365E+03 -0.11250602657E+03  0.18505608529E+03  0.50400001928E-02 0.  1.
       -1    1    3    3    0  502 -0.32411733900E+02  0.14330955365E+03  0.16057871014E+04  0.16124950740E+04  0.50400001928E-02 0. -1.
</event>
<event>
 5   0  0.9674819E-04  0.9969460E+03  0.7818609E-02  0.9311901E-01
        2   -1    0    0  501    0  0.00000000000E+00  0.00000000000E+00  0.99845891133E+03  0.99845891134E+03  0.25500000920E-02 0. -1.
       -2   -1    0    0    0  501  0.00000000000E+00  0.00000000000E+00 -0.24885884828E+03  0.24885884829E+03  0.25500000920E-02 0.  1.
    10030    2    1    2    0    0  0.00000000000E+00  0.00000000000E+00  0.74960006306E+03  0.12473177596E+04  0.99694600604E+03 0.  0.
        4    1    3    3  502    0 -0.31854812376E+03  0.13427408289E+03  0.82411613318E+03  0.89368420057E+03  0.12699999809E+01 0. -1.
       -4    1    3    3    0  502  0.31854812376E+03 -0.13427408289E+03 -0.74516070126E+02  0.35363355906E+03  0.12699999809E+01 0.  1.
</event>
<event>
 5   0  0.9741826E-04  0.9993802E+03  0.7818609E-02  0.9309225E-01
       -2   -1    0    0    0  501  0.00000000000E+00  0.00000000000E+00  0.25598503557E+03  0.25598503558E+03  0.25500000920E-02 0.  1.
        2   -1    0    0  501    0  0.00000000000E+00  0.00000000000E+00 -0.97540940374E+03  0.97540940374E+03  0.25500000920E-02 0. -1.
    10030    2    1    2    0    0  0.00000000000E+00  0.00000000000E+00 -0.71942436817E+03  0.12313944393E+04  0.99938022979E+03 0.  0.
        3    1    3    3  502    0  0.45720568384E+03 -0.10503664122E+03 -0.14765041121E+03  0.49180319993E+03  0.10100000352E+00 0.  1.
       -3    1    3    3    0  502 -0.45720568384E+03  0.10503664122E+03 -0.57177395696E+03  0.73959123939E+03  0.10100000352E+00 0. -1.
</event>
<event>
 5   0  0.5888774E-04  0.1007915E+04  0.7818609E-02  0.9299906E-01
       -1   -1    0    0    0  501  0.00000000000E+00  0.00000000000E+00  0.71038827726E+03  0.71038827728E+03  0.50400001928E-02 0.  1.
        1   -1    0    0  501    0  0.00000000000E+00  0.00000000000E+00 -0.35751334386E+03  0.35751334390E+03  0.50400001928E-02 0. -1.
    10030    2    1    2    0    0  0.00000000000E+00  0.00000000000E+00  0.35287493340E+03  0.10679016212E+04  0.10079152513E+04 0.  0.
        2    1    3    3  502    0  0.38734465041E+03 -0.28786746887E+03  0.33023052054E+03  0.58476983039E+03  0.25500000920E-02 0.  1.
       -2    1    3    3    0  502 -0.38734465041E+03  0.28786746887E+03  0.22644412867E+02  0.48313179079E+03  0.25500000920E-02 0. -1.
</event>
<event>
 5   0  0.5888774E-04  0.1000393E+04  0.7818609E-02  0.9308114E-01
        1   -1    0    0  501    0  0.00000000000E+00  0.00000000000E+00  0.55214242915E+03  0.55214242918E+03  0.50400001928E-02 0.  1.
       -1   -1    0    0    0  501  0.00000000000E+00  0.00000000000E+00 -0.45313788910E+03  0.45313788913E+03  0.50400001928E-02 0. -1.
    10030    2    1    2    0    0  0.00000000000E+00  0.00000000000E+00  0.99004540051E+02  0.10052803183E+04  0.10003932324E+04 0.  0.
        2    1    3    3  502    0 -0.41857711598E+03 -0.22315977790E+03  0.20898981771E+03  0.51834721222E+03  0.25500000920E-02 0. -1.
       -2    1    3    3    0  502  0.41857711598E+03  0.22315977790E+03 -0.10998527766E+03  0.48693310609E+03  0.25500000920E-02 0.  1.
</event>
<event>
 5   0  0.1020150E-03  0.9980892E+03  0.7818609E-02  0.9310643E-01
        2   -1    0    0  501    0  0.00000000000E+00  0.00000000000E+00  0.13114089132E+04  0.13114089132E+04  0.25500000920E-02 0. -1.
       -2   -1    0    0    0  501  0.00000000000E+00  0.00000000000E+00 -0.18990682200E+03  0.18990682201E+03  0.25500000920E-02 0.  1.
    10030    2    1    2    0    0  0.00000000000E+00  0.00000000000E+00  0.11215020912E+04  0.15013157352E+04  0.99808917248E+03 0.  0.
        5    1    3    3  502    0 -0.26661729732E+02  0.23446237129E+03 -0.10064790537E+03  0.25658437644E+03  0.46999998093E+01 0.  1.
       -5    1    3    3    0  502  0.26661729732E+02 -0.23446237129E+03  0.12221499966E+04  0.12447313588E+04  0.46999998093E+01 0. -1.
</event>
<event>
 5   0  0.5826939E-04  0.1000203E+04  0.7818609E-02  0.9308322E-01
       -1   -1    0    0    0  501  0.00000000000E+00  0.00000000000E+00  0.79817707437E+03  0.79817707438E+03  0.50400001928E-02 0.  1.
        1   -1    0    0  501    0  0.00000000000E+00  0.00000000000E+00 -0.31334080217E+03  0.31334080222E+03  0.50400001928E-02 0. -1.
    10030    2    1    2    0    0  0.00000000000E+00  0.00000000000E+00  0.48483627219E+03  0.11115178766E+04  0.10002028690E+04 0.  0.
        1    1    3    3  502    0  0.26918032809E+03  0.28672841022E+03 -0.10087988970E+03  0.40601475642E+03  0.50400001928E-02 0. -1.
       -1    1    3    3    0  502 -0.26918032809E+03 -0.28672841022E+03  0.58571616190E+03  0.70550312018E+03  0.50400001928E-02 0.  1.
</event>
<event>
 5   0  0.9741826E-04  0.9993333E+03  0.7818609E-02  0.9309276E-01
        2   -1    0    0  501    0  0.00000000000E+00  0.00000000000E+00  0.12506469687E+04  0.12506469687E+04  0.25500000920E-02 0. -1.
       -2   -1    0    0    0  501  0.00000000000E+00  0.00000000000E+00 -0.19963007384E+03  0.19963007386E+03  0.25500000920E-02 0.  1.
    10030    2    1    2    0    0  0.00000000000E+00  0.00000000000E+00  0.10510168948E+04  0.14502770425E+04  0.99933327118E+03 0.  0.
        3    1    3    3  502    0  0.19524797943E+03 -0.14532598591E+03 -0.10778205302E+03  0.26619240561E+03  0.10100000352E+00 0.  1.
       -3    1    3    3    0  502 -0.19524797943E+03  0.14532598591E+03  0.11587989478E+04  0.11840846369E+04  0.10100000352E+00 0. -1.
</event>
<event>
 5   0  0.5888774E-04  0.1000562E+04  0.7818609E-02  0.9307928E-01
        1   -1    0    0  501    0  0.00000000000E+00  0.00000000000E+00  0.86162919918E+03  0.86162919920E+03  0.50400001928E-02 0.  1.
       -1   -1    0    0    0  501  0.00000000000E+00  0.00000000000E+00 -0.29047435093E+03  0.29047435097E+03  0.50400001928E-02 0. -1.
    10030    2    1    2    0    0  0.00000000000E+00  0.00000000000E+00  0.57115484826E+03  0.11521035502E+04  0.10005622068E+04 0.  0.
        2    1    3    3  502    0 -0.19524319717E+03 -0.29335785993E+03 -0.12331509901E+03  0.37334347949E+03  0.25500000920E-02 0. -1.
       -2    1    3    3    0  502  0.19524319717E+03  0.29335785993E+03  0.69446994726E+03  0.77876007068E+03  0.25500000920E-02 0.  1.
</event>
<event>
 5   0  0.5768102E-04  0.1001733E+04  0.7818609E-02  0.9306646E-01
        1   -1    0    0  501    0  0.00000000000E+00  0.00000000000E+00  0.65065156500E+03  0.65065156502E+03  0.50400001928E-02 0.  1.
       -1   -1    0    0    0  501  0.00000000000E+00  0.00000000000E+00 -0.38556303597E+03  0.38556303600E+03  0.50400001928E-02 0. -1.
    10030    2    1    2    0    0  0.00000000000E+00  0.00000000000E+00  0.26508852903E+03  0.10362146010E+04  0.10017328841E+04 0.  0.
        4    1    3    3  502    0 -0.41353344692E+03  0.28179389310E+03  0.15443567537E+03  0.52370764806E+03  0.12699999809E+01 0.  1.
       -4    1    3    3    0  502  0.41353344692E+03 -0.28179389310E+03  0.11065285366E+03  0.51250695296E+03  0.12699999809E+01 0. -1.
</event>
<event>
 5   0  0.5960102E-04  0.9973786E+03  0.7818609E-02  0.9311425E-01
       -1   -1    0    0    0  501  0.00000000000E+00  0.00000000000E+00  0.10167387294E+04  0.10167387294E+04  0.50400001928E-02 0.  1.
        1   -1    0    0  501    0  0.00000000000E+00  0.00000000000E+00 -0.24459677070E+03  0.24459677075E+03  0.50400001928E-02 0. -1.
    10030    2    1    2    0    0  0.00000000000E+00  0.00000000000E+00  0.77214195874E+03  0.12613355002E+04  0.99737858390E+03 0.  0.
        5    1    3    3  502    0  0.72636023037E+02  0.20812296402E+03  0.95174989096E+03  0.97695501685E+03  0.46999998093E+01 0.  1.
       -5    1    3    3    0  502 -0.72636023037E+02 -0.20812296402E+03 -0.17960793223E+03  0.28438048335E+03  0.46999998093E+01 0. -1.
</event>
<event>
 5   0  0.9674819E-04  0.9993218E+03  0.7818609E-02  0.9309289E-01
        2   -1    0    0  501    0  0.00000000000E+00  0.00000000000E+00  0.13738211863E+04  0.13738211863E+04  0.25500000920E-02 0.  1.
       -2   -1    0    0    0  501  0.00000000000E+00  0.00000000000E+00 -0.18172746127E+03  0.18172746129E+03  0.25500000920E-02 0. -1.
    10030    2    1    2    0    0  0.00000000000E+00  0.00000000000E+00  0.11920937251E+04  0.15555486476E+04  0.99932184295E+03 0.  0.
        4    1    3    3  502    0  0.17171999022E+02 -0.49577586140E+03  0.50302961399E+03  0.70649061406E+03  0.12699999809E+01 0.  1.
       -4    1    3    3    0  502 -0.17171999022E+02  0.49577586140E+03  0.68906411108E+03  0.84905803357E+03  0.12699999809E+01 0. -1.
</event>
<event>
 5   0  0.5960102E-04  0.1000826E+04  0.7818609E-02  0.9307640E-01
       -1   -1    0    0    0  501  0.00000000000E+00  0.00000000000E+00  0.22135410169E+03  0.22135410175E+03  0.50400001928E-02 0.  1.
        1   -1    0    0  501    0  0.00000000000E+00  0.00000000000E+00 -0.11312780720E+04  0.11312780720E+04  0.50400001928E-02 0. -1.
    10030    2    1    2    0    0  0.00000000000E+00  0.00000000000E+00 -0.90992397034E+03  0.13526321738E+04  0.10008257420E+04 0.  0.
        5    1    3    3  502    0  0.10163458143E+03 -0.32631174603E+03  0.39001935952E+02  0.34402352353E+03  0.46999998093E+01 0.  1.
       -5    1    3    3    0  502 -0.10163458143E+03  0.32631174603E+03 -0.94892590629E+03  0.10086086503E+04  0.46999998093E+01 0. -1.
</event>
<event>
 5   0  0.1006006E-03  0.1002042E+04  0.7818609E-02  0.9306308E-01
        2   -1    0    0  501    0  0.00000000000E+00  0.00000000000E+00  0.65882064007E+03  0.65882064007E+03  0.25500000920E-02 0.  1.
       -2   -1    0    0    0  501  0.00000000000E+00  0.00000000000E+00 -0.38101712590E+03  0.38101712591E+03  0.25500000920E-02 0. -1.
    10030    2    1    2    0    0  0.00000000000E+00  0.00000000000E+00  0.27780351417E+03  0.10398377660E+04  0.10020418090E+04 0.  0.
        2    1    3    3  502    0 -0.39547787271E+03  0.23664936965E+03  0.34282415645E+03  0.57439888075E+03  0.25500000920E-02 0. -1.
       -2    1    3    3    0  502  0.39547787271E+03 -0.23664936965E+03 -0.65020642282E+02  0.46543888523E+03  0.25500000920E-02 0.  1.
</event>
<event>
 5   0  0.5888774E-04  0.1000407E+04  0.7818609E-02  0.9308098E-01
       -1   -1    0    0    0  501  0.00000000000E+00  0.00000000000E+00  0.88956333867E+03  0.88956333869E+03  0.50400001928E-02 0.  1.
        1   -1    0    0  501    0  0.00000000000E+00  0.00000000000E+00 -0.28126582387E+03  0.28126582391E+03  0.50400001928E-02 0. -1.
    10030    2    1    2    0    0  0.00000000000E+00  0.00000000000E+00  0.60829751480E+03  0.11708291626E+04  0.10004074477E+04 0.  0.
        2    1    3    3  502    0 -0.38036811455E+03 -0.52862171161E+02  0.67926347508E+03  0.78030326175E+03  0.25500000920E-02 0.  1.
       -2    1    3    3    0  502  0.38036811455E+03  0.52862171161E+02 -0.70965960282E+02  0.39052590085E+03  0.25500000920E-02 0. -1.
</event>
<event>
 5   0  0.5826939E-04  0.9993844E+03  0.7818609E-02  0.9309220E-01
       -1   -1    0    0    0  501  0.00000000000E+00  0.00000000000E+00  0.71099563035E+03  0.71099563037E+03  0.50400001928E-02 0.  1.
        1   -1    0    0  501    0  0.00000000000E+00  0.00000000000E+00 -0.35118681334E+03  0.35118681338E+03  0.50400001928E-02 0. -1.
    10030    2    1    2    0    0  0.00000000000E+00  0.00000000000E+00  0.35980881701E+03  0.10621824437E+04  0.99938439001E+03 0.  0.
        1    1    3    3  502    0 -0.22466658694E+03  0.24482387073E+03 -0.21674661298E+03  0.39672773691E+03  0.50400001928E-02 0. -1.
       -1    1    3    3    0  502  0.22466658694E+03 -0.24482387073E+03  0.57655542999E+03  0.66545470683E+03  0.50400001928E-02 0.  1.
</event>
<event>
 5   0  0.1006006E-03  0.9992291E+03  0.7818609E-02  0.9309391E-01
       -2   -1    0    0    0  501  0.00000000000E+00  0.00000000000E+00  0.83438757976E+03  0.83438757976E+03  0.25500000920E-02 0.  1.
        2   -1    0    0  501    0  0.00000000000E+00  0.00000000000E+00 -0.29915918505E+03  0.29915918506E+03  0.25500000920E-02 0. -1.
    10030    2    1    2    0    0  0.00000000000E+00  0.00000000000E+00  0.53522839471E+03  0.11335467648E+04  0.99922911963E+03 0.  0.
        2    1    3    3  502    0  0.74500155362E+02 -0.26205739158E+03 -0.20747725646E+03  0.34244877220E+03  0.25500000920E-02 0. -1.
       -2    1    3    3    0  502 -0.74500155362E+02  0.26205739158E+03  0.74270565117E+03  0.79109799261E+03  0.25500000920E-02 0.  1.
</event>
<event>
 5   0  0.1006749E-03  0.1002163E+04  0.7818609E-02  0.9306175E-01
       -2   -1    0    0    0  501  0.00000000000E+00  0.00000000000E+00  0.30455447501E+03  0.30455447502E+03  0.25500000920E-02 0. -1.
        2   -1    0    0  501    0  0.00000000000E+00  0.00000000000E+00 -0.82442694845E+03  0.82442694846E+03  0.25500000920E-02 0.  1.
    10030    2    1    2    0    0  0.00000000000E+00  0.00000000000E+00 -0.51987247344E+03  0.11289814235E+04  0.10021634926E+04 0.  0.
        1    1    3    3  502    0  0.38634180008E+03  0.27810256834E+03 -0.83669362939E+02  0.48332348104E+03  0.50400001928E-02 0. -1.
       -1    1    3    3    0  502 -0.38634180008E+03 -0.27810256834E+03 -0.43620311050E+03  0.64565794244E+03  0.50400001928E-02 0.  1.
</event>
<event>
 5   0  0.5888774E-04  0.1001543E+04  0.7818609E-02  0.9306855E-01
        1   -1    0    0  501    0  0.00000000000E+00  0.00000000000E+00  0.67371037354E+03  0.67371037356E+03  0.50400001928E-02 0. -1.
       -1   -1    0    0    0  501  0.00000000000E+00  0.00000000000E+00 -0.37222503598E+03  0.37222503601E+03  0.50400001928E-02 0.  1.
    10030    2    1    2    0    0  0.00000000000E+00  0.00000000000E+00  0.30148533756E+03  0.10459354096E+04  0.10015425464E+04 0.  0.
        2    1    3    3  502    0  0.71219368317E+02  0.48651037721E+03  0.51629053225E+02  0.49439873048E+03  0.25500000920E-02 0.  1.
       -2    1    3    3    0  502 -0.71219368317E+02 -0.48651037721E+03  0.24985628434E+03  0.55153667909E+03  0.25500000920E-02 0. -1.
</event>
<event>
 5   0  0.5826939E-04  0.1000136E+04  0.7818609E-02  0.9308396E-01
       -1   -1    0    0    0  501  0.00000000000E+00  0.00000000000E+00  0.60044261483E+03  0.60044261486E+03  0.50400001928E-02 0.  1.
        1   -1    0    0  501    0  0.00000000000E+00  0.00000000000E+00 -0.41647245227E+03  0.41647245230E+03  0.50400001928E-02 0. -1.
    10030    2    1    2    0    0  0.00000000000E+00  0.00000000000E+00  0.18397016256E+03  0.10169150672E+04  0.10001356074E+04 0.  0.
        1    1    3    3  502    0 -0.27410459126E+03 -0.40881561007E+03  0.18180903465E+03  0.52470759009E+03  0.50400001928E-02 0.  1.
       -1    1    3    3    0  502  0.27410459126E+03  0.40881561007E+03  0.21611279097E+01  0.49220747707E+03  0.50400001928E-02 0. -1.
</event>
<event>
 5   0  0.5768102E-04  0.9958445E+03  0.7818609E-02  0.9313114E-01
        1   -1    0    0  501    0  0.00000000000E+00  0.00000000000E+00  0.82533225303E+03  0.82533225304E+03  0.50400001928E-02 0. -1.
       -1   -1    0    0    0  501  0.00000000000E+00  0.00000000000E+00 -0.30039604302E+03  0.30039604306E+03  0.50400001928E-02 0.  1.
    10030    2    1    2    0    0  0.00000000000E+00  0.00000000000E+00  0.52493621001E+03  0.11257282961E+04  0.99584445174E+03 0.  0.
        4    1    3    3  502    0  0.16841861839E+03 -0.14424285633E+03  0.76643280774E+03  0.79786696529E+03  0.12699999809E+01 0. -1.
       -4    1    3    3    0  502 -0.16841861839E+03  0.14424285633E+03 -0.24149659773E+03  0.32786133081E+03  0.12699999809E+01 0.  1.
</event>
<event>
 5   0  0.9674819E-04  0.9985240E+03  0.7818609E-02  0.9310165E-01
       -2   -1    0    0    0  501  0.00000000000E+00  0.00000000000E+00  0.54503046881E+03  0.54503046882E+03  0.25500000920E-02 0.  1.
        2   -1    0    0  501    0  0.00000000000E+00  0.00000000000E+00 -0.45733686406E+03  0.45733686407E+03  0.25500000920E-02 0. -1.
    10030    2    1    2    0    0  0.00000000000E+00  0.00000000000E+00  0.87693604753E+02  0.10023673329E+04  0.99852396151E+03 0.  0.
        4    1    3    3  502    0 -0.49098505289E+02 -0.37831033560E+03 -0.27946668700E+03  0.47289810244E+03  0.12699999809E+01 0. -1.
       -4    1    3    3    0  502  0.49098505289E+02  0.37831033560E+03  0.36716029175E+03  0.52946923044E+03  0.12699999809E+01 0.  1.
</event>
<event>
 5   0  0.5758786E-04  0.1001127E+04  0.7818609E-02  0.9307309E-01
       -1   -1    0    0    0  501  0.00000000000E+00  0.00000000000E+00  0.14826206940E+04  0.14826206940E+04  0.50400001928E-02 0.  1.
        1   -1    0    0  501    0  0.00000000000E+00  0.00000000000E+00 -0.16900073124E+03  0.16900073132E+03  0.50400001928E-02 0. -1.
    10030    2    1    2    0    0  0.00000000000E+00  0.00000000000E+00  0.13136199628E+04  0.16516214254E+04  0.10011273276E+04 0.  0.
        3    1    3    3  502    0 -0.28670401279E+03  0.12048451250E+03  0.97158074046E+01  0.31114324003E+03  0.10100000352E+00 0. -1.
       -3    1    3    3    0  502  0.28670401279E+03 -0.12048451250E+03  0.13039041554E+04  0.13404781853E+04  0.10100000352E+00 0.  1.
</event>
<event>
 5   0  0.5826939E-04  0.1000134E+04  0.7818609E-02  0.9308398E-01
        1   -1    0    0  501    0  0.00000000000E+00  0.00000000000E+00  0.34503339626E+03  0.34503339629E+03  0.50400001928E-02 0. -1.
       -1   -1    0    0    0  501  0.00000000000E+00  0.00000000000E+00 -0.72476105835E+03  0.72476105837E+03  0.50400001928E-02 0.  1.
    10030    2    1    2    0    0  0.00000000000E+00  0.00000000000E+00 -0.37972766210E+03  0.10697944547E+04  0.10001335300E+04 0.  0.
        1    1    3    3  502    0  0.23383766036E+03  0.20922006885E+03 -0.60636051755E+03  0.68273433038E+03  0.50400001928E-02 0.  1.
       -1    1    3    3    0  502 -0.23383766036E+03 -0.20922006885E+03  0.22663285545E+03  0.38706012428E+03  0.50400001928E-02 0. -1.
</event>
<event>
 5   0  0.5826939E-04  0.9981676E+03  0.7818609E-02  0.9310557E-01
        1   -1    0    0  501    0  0.00000000000E+00  0.00000000000E+00  0.10767520488E+04  0.10767520488E+04  0.50400001928E-02 0.  1.
       -1   -1    0    0    0  501  0.00000000000E+00  0.00000000000E+00 -0.23132963828E+03  0.23132963833E+03  0.50400001928E-02 0. -1.
    10030    2    1    2    0    0  0.00000000000E+00  0.00000000000E+00  0.84542241054E+03  0.13080816872E+04  0.99816764526E+03 0.  0.
        1    1    3    3  502    0  0.13416075087E+03 -0.40486252777E+03  0.76235615120E+03  0.87355576511E+03  0.50400001928E-02 0.  1.
       -1    1    3    3    0  502 -0.13416075087E+03  0.40486252777E+03  0.83066259349E+02  0.43452592205E+03  0.50400001928E-02 0. -1.
</event>
<event>
 5   0  0.9674819E-04  0.9981818E+03  0.7818609E-02  0.9310541E-01
       -2   -1    0    0    0  501  0.00000000000E+00  0.00000000000E+00  0.16664370380E+03  0.16664370382E+03  0.25500000920E-02 0. -1.
        2   -1    0    0  501    0  0.00000000000E+00  0.00000000000E+00 -0.14947562251E+04  0.14947562251E+04  0.25500000920E-02 0.  1.
    10030    2    1    2    0    0  0.00000000000E+00  0.00000000000E+00 -0.13281125213E+04  0.16613999289E+04  0.99818177433E+03 0.  0.
        4    1    3    3  502    0  0.37727342727E+03  0.23575698966E+03 -0.28753706010E+03  0.52971291369E+03  0.12699999809E+01 0. -1.
       -4    1    3    3    0  502 -0.37727342727E+03 -0.23575698966E+03 -0.10405754612E+04  0.11316870152E+04  0.12699999809E+01 0.  1.
</event>
<event>
 5   0  0.9741826E-04  0.1000447E+04  0.7818609E-02  0.9308055E-01
        2   -1    0    0  501    0  0.00000000000E+00  0.00000000000E+00  0.86542632350E+03  0.86542632350E+03  0.25500000920E-02 0.  1.
       -2   -1    0    0    0  501  0.00000000000E+00  0.00000000000E+00 -0.28913306322E+03  0.28913306323E+03  0.25500000920E-02 0. -1.
    10030    2    1    2    0    0  0.00000000000E+00  0.00000000000E+00  0.57629326027E+03  0.11545593867E+04  0.10004466281E+04 0.  0.
        3    1    3    3  502    0  0.30156193885E+03 -0.88965343344E+02  0.73714080395E+03  0.80139316838E+03  0.10100000352E+00 0.  1.
       -3    1    3    3    0  502 -0.30156193885E+03  0.88965343344E+02 -0.16084754368E+03  0.35316621836E+03  0.10100000352E+00 0. -1.
</event>
<event>
 5   0  0.1020150E-03  0.1001097E+04  0.7818609E-02  0.9307342E-01
        2   -1    0    0  501    0  0.00000000000E+00  0.00000000000E+00  0.10090522932E+04  0.10090522932E+04  0.25500000920E-02 0.  1.
       -2   -1    0    0    0  501  0.00000000000E+00  0.00000000000E+00 -0.24830121975E+03  0.24830121976E+03  0.25500000920E-02 0. -1.
    10030    2    1    2    0    0  0.00000000000E+00  0.00000000000E+00  0.76075107346E+03  0.12573535130E+04  0.10010972285E+04 0.  0.
        5    1    3    3  502    0  0.23354606941E+03 -0.20510237267E+03  0.87312156347E+03  0.92680855866E+03  0.46999998093E+01 0.  1.
       -5    1    3    3    0  502 -0.23354606941E+03  0.20510237267E+03 -0.11237049000E+03  0.33054495433E+03  0.46999998093E+01 0. -1.
</event>
<event>
 5   0  0.9741826E-04  0.1000506E+04  0.7818609E-02  0.9307990E-01
        2   -1    0    0  501    0  0.00000000000E+00  0.00000000000E+00  0.73319929892E+03  0.73319929892E+03  0.25500000920E-02 0.  1.
       -2   -1    0    0    0  501  0.00000000000E+00  0.00000000000E+00 -0.34131664235E+03  0.34131664236E+03  0.25500000920E-02 0. -1.
    10030    2    1    2    0    0  0.00000000000E+00  0.00000000000E+00  0.39188265657E+03  0.10745159413E+04  0.10005061177E+04 0.  0.
        3    1    3    3  502    0 -0.35407049017E+03  0.17189324004E+03 -0.13567086724E+03  0.41631693744E+03  0.10100000352E+00 0. -1.
       -3    1    3    3    0  502  0.35407049017E+03 -0.17189324004E+03  0.52755352381E+03  0.65819900385E+03  0.10100000352E+00 0.  1.
</event>
<event>
 5   0  0.5960102E-04  0.1002814E+04  0.7818609E-02  0.9305463E-01
       -1   -1    0    0    0  501  0.00000000000E+00  0.00000000000E+00  0.49803103415E+03  0.49803103417E+03  0.50400001928E-02 0.  1.
        1   -1    0    0  501    0  0.00000000000E+00  0.00000000000E+00 -0.50480634658E+03  0.50480634660E+03  0.50400001928E-02 0. -1.
    10030    2    1    2    0    0  0.00000000000E+00  0.00000000000E+00 -0.67753124298E+01  0.10028373808E+04  0.10028144930E+04 0.  0.
        5    1    3    3  502    0 -0.62260653013E+02  0.12146868924E+03  0.47907138891E+03  0.49815912824E+03  0.46999998093E+01 0.  1.
       -5    1    3    3    0  502  0.62260653013E+02 -0.12146868924E+03 -0.48584670134E+03  0.50467825253E+03  0.46999998093E+01 0. -1.
</event>
<event>
 5   0  0.1020150E-03  0.1000499E+04  0.7818609E-02  0.9307998E-01
        2   -1    0    0  501    0  0.00000000000E+00  0.00000000000E+00  0.72452667612E+03  0.72452667612E+03  0.25500000920E-02 0.  1.
       -2   -1    0    0    0  501  0.00000000000E+00  0.00000000000E+00 -0.34539701009E+03  0.34539701010E+03  0.25500000920E-02 0. -1.
    10030    2    1    2    0    0  0.00000000000E+00  0.00000000000E+00  0.37912966603E+03  0.10699236862E+04  0.10004985710E+04 0.  0.
        5    1    3    3  502    0  0.67033005102E+02  0.48985185526E+03  0.10827009354E+03  0.50615488442E+03  0.46999998093E+01 0. -1.
       -5    1    3    3    0  502 -0.67033005102E+02 -0.48985185526E+03  0.27085957249E+03  0.56376880179E+03  0.46999998093E+01 0.  1.
</event>
<event>
 5   0  0.1006006E-03  0.1001385E+04  0.7818609E-02  0.9307028E-01
        2   -1    0    0  501    0  0.00000000000E+00  0.00000000000E+00  0.10694164387E+04  0.10694164387E+04  0.25500000920E-02 0. -1.
       -2   -1    0    0    0  501  0.00000000000E+00  0.00000000000E+00 -0.23442012849E+03  0.23442012851E+03  0.25500000920E-02 0.  1.
    10030    2    1    2    0    0  0.00000000000E+00  0.00000000000E+00  0.83499631017E+03  0.13038365672E+04  0.10013845195E+04 0.  0.
        2    1    3    3  502    0 -0.14826216580E+03  0.40378583973E+03  0.83841806503E+02  0.43823980045E+03  0.25500000920E-02 0.  1.
       -2    1    3    3    0  502  0.14826216580E+03 -0.40378583973E+03  0.75115450367E+03  0.86559676673E+03  0.25500000920E-02 0. -1.
</event>
<event>
 5   0  0.1020150E-03  0.1000319E+04  0.7818609E-02  0.9308195E-01
        2   -1    0    0  501    0  0.00000000000E+00  0.00000000000E+00  0.49703500238E+03  0.49703500239E+03  0.25500000920E-02 0.  1.
       -2   -1    0    0    0  501  0.00000000000E+00  0.00000000000E+00 -0.50330375200E+03  0.50330375200E+03  0.25500000920E-02 0. -1.
    10030    2    1    2    0    0  0.00000000000E+00  0.00000000000E+00 -0.62687496181E+01  0.10003387544E+04  0.10003191122E+04 0.  0.
        5    1    3    3  502    0  0.23043542688E+03 -0.33492044905E+03 -0.29445658692E+03  0.50199498477E+03  0.46999998093E+01 0. -1.
       -5    1    3    3    0  502 -0.23043542688E+03  0.33492044905E+03  0.28818783731E+03  0.49834376962E+03  0.46999998093E+01 0.  1.
</event>
<event>
 5   0  0.5826939E-04  0.1008342E+04  0.7818609E-02  0.9299443E-01
       -1   -1    0    0    0  501  0.00000000000E+00  0.00000000000E+00  0.23846374651E+03  0.23846374656E+03  0.50400001928E-02 0.  1.
        1   -1    0    0  501    0  0.00000000000E+00  0.00000000000E+00 -0.10659411014E+04  0.10659411014E+04  0.50400001928E-02 0. -1.
    10030    2    1    2    0    0  0.00000000000E+00  0.00000000000E+00 -0.82747735490E+03  0.13044048480E+04  0.10083418243E+04 0.  0.
        1    1    3    3  502    0 -0.47509595501E+02 -0.27739608164E+03 -0.95486916993E+03  0.99548022556E+03  0.50400001928E-02 0. -1.
       -1    1    3    3    0  502  0.47509595501E+02  0.27739608164E+03  0.12739181503E+03  0.30892462242E+03  0.50400001928E-02 0.  1.
</event>
<event>
 5   0  0.1006006E-03  0.9984271E+03  0.7818609E-02  0.9310272E-01
       -2   -1    0    0    0  501  0.00000000000E+00  0.00000000000E+00  0.10064110177E+03  0.10064110180E+03  0.25500000920E-02 0.  1.
        2   -1    0    0  501    0  0.00000000000E+00  0.00000000000E+00 -0.24762663210E+04  0.24762663210E+04  0.25500000920E-02 0. -1.
    10030    2    1    2    0    0  0.00000000000E+00  0.00000000000E+00 -0.23756252193E+04  0.25769074228E+04  0.99842710472E+03 0.  0.
        2    1    3    3  502    0  0.32518338373E+03  0.36735993700E+03 -0.14259984546E+04  0.15080348633E+04  0.25500000920E-02 0. -1.
       -2    1    3    3    0  502 -0.32518338373E+03 -0.36735993700E+03 -0.94962676468E+03  0.10688725596E+04  0.25500000920E-02 0.  1.
</event>
<event>
 5   0  0.5960102E-04  0.9996773E+03  0.7818609E-02  0.9308899E-01
       -1   -1    0    0    0  501  0.00000000000E+00  0.00000000000E+00  0.35375863164E+03  0.35375863167E+03  0.50400001928E-02 0. -1.
        1   -1    0    0  501    0  0.00000000000E+00  0.00000000000E+00 -0.70624047076E+03  0.70624047078E+03  0.50400001928E-02 0.  1.
    10030    2    1    2    0    0  0.00000000000E+00  0.00000000000E+00 -0.35248183912E+03  0.10599991024E+04  0.99967727306E+03 0.  0.
        5    1    3    3  502    0 -0.77049950006E+02  0.46631415681E+03 -0.34862706234E+03  0.58732317018E+03  0.46999998093E+01 0.  1.
       -5    1    3    3    0  502  0.77049950006E+02 -0.46631415681E+03 -0.38547767790E+01  0.47267593226E+03  0.46999998093E+01 0. -1.
</event>
<event>
 5   0  0.5758786E-04  0.1000197E+04  0.7818609E-02  0.9308329E-01
        1   -1    0    0  501    0  0.00000000000E+00  0.00000000000E+00  0.12136369975E+04  0.12136369975E+04  0.50400001928E-02 0.  1.
       -1   -1    0    0    0  501  0.00000000000E+00  0.00000000000E+00 -0.20607339583E+03  0.20607339589E+03  0.50400001928E-02 0. -1.
    10030    2    1    2    0    0  0.00000000000E+00  0.00000000000E+00  0.10075636017E+04  0.14197103934E+04  0.10001965756E+04 0.  0.
        3    1    3    3  502    0 -0.18850429311E+03  0.38189345611E+03  0.13168007581E+03  0.44577587744E+03  0.10100000352E+00 0. -1.
       -3    1    3    3    0  502  0.18850429311E+03 -0.38189345611E+03  0.87588352586E+03  0.97393451598E+03  0.10100000352E+00 0.  1.
</event>
<event>
 5   0  0.9674819E-04  0.9998749E+03  0.7818609E-02  0.9308682E-01
        2   -1    0    0  501    0  0.00000000000E+00  0.00000000000E+00  0.19016891403E+04  0.19016891404E+04  0.25500000920E-02 0.  1.
       -2   -1    0    0    0  501  0.00000000000E+00  0.00000000000E+00 -0.13142917785E+03  0.13142917787E+03  0.25500000920E-02 0. -1.
    10030    2    1    2    0    0  0.00000000000E+00  0.00000000000E+00  0.17702599625E+04  0.20331183182E+04  0.99987487269E+03 0.  0.
        4    1    3    3  502    0  0.28669137660E+03 -0.12089436630E+02  0.52693582740E+02  0.29174702476E+03  0.12699999809E+01 0. -1.
       -4    1    3    3    0  502 -0.28669137660E+03  0.12089436630E+02  0.17175663798E+04  0.17413712935E+04  0.12699999809E+01 0.  1.
</event>
<event>
 5   0  0.5758786E-04  0.9991324E+03  0.7818609E-02  0.9309497E-01
       -1   -1    0    0    0  501  0.00000000000E+00  0.00000000000E+00  0.30864472263E+03  0.30864472267E+03  0.50400001928E-02 0. -1.
        1   -1    0    0  501    0  0.00000000000E+00  0.00000000000E+00 -0.80858792028E+03  0.80858792030E+03  0.50400001928E-02 0.  1.
    10030    2    1    2    0    0  0.00000000000E+00  0.00000000000E+00 -0.49994319765E+03  0.11172326430E+04  0.99913241246E+03 0.  0.
        3    1    3    3  502    0 -0.24940941678E+03  0.33118389128E+03 -0.56162447804E+03  0.69807584943E+03  0.10100000352E+00 0.  1.
       -3    1    3    3    0  502  0.24940941678E+03 -0.33118389128E+03  0.61681280385E+02  0.41915679354E+03  0.10100000352E+00 0. -1.
</event>
<event>
 5   0  0.5768102E-04  0.9995778E+03  0.7818609E-02  0.9309008E-01
       -1   -1    0    0    0  501  0.00000000000E+00  0.00000000000E+00  0.10209693534E+04  0.10209693534E+04  0.50400001928E-02 0. -1.
        1   -1    0    0  501    0  0.00000000000E+00  0.00000000000E+00 -0.24465859682E+03  0.24465859687E+03  0.50400001928E-02 0.  1.
    10030    2    1    2    0    0  0.00000000000E+00  0.00000000000E+00  0.77631075658E+03  0.12656279503E+04  0.99957776974E+03 0.  0.
        4    1    3    3  502    0  0.15399266943E+03  0.45888400447E+03  0.54578648848E+03  0.72950173111E+03  0.12699999809E+01 0. -1.
       -4    1    3    3    0  502 -0.15399266943E+03 -0.45888400447E+03  0.23052426811E+03  0.53612621917E+03  0.12699999809E+01 0.  1.
</event>
<event>
 5   0  0.5758786E-04  0.9989312E+03  0.7818609E-02  0.9309718E-01
       -1   -1    0    0    0  501  0.00000000000E+00  0.00000000000E+00  0.42817316941E+03  0.42817316944E+03  0.50400001928E-02 0.  1.
        1   -1    0    0  501    0  0.00000000000E+00  0.00000000000E+00 -0.58262851479E+03  0.58262851481E+03  0.50400001928E-02 0. -1.
    10030    2    1    2    0    0  0.00000000000E+00  0.00000000000E+00 -0.15445534538E+03  0.10108016843E+04  0.99893122444E+03 0.  0.
        3    1    3    3  502    0  0.36760189191E+03  0.19424834825E+03 -0.35728782340E+03  0.54819537638E+03  0.10100000352E+00 0. -1.
       -3    1    3    3    0  502 -0.36760189191E+03 -0.19424834825E+03  0.20283247802E+03  0.46260630787E+03  0.10100000352E+00 0.  1.
</event>
<event>
 5   0  0.1020150E-03  0.9995290E+03  0.7818609E-02  0.9309062E-01
        2   -1    0    0  501    0  0.00000000000E+00  0.00000000000E+00  0.82626348508E+03  0.82626348508E+03  0.25500000920E-02 0.  1.
       -2   -1    0    0    0  501  0.00000000000E+00  0.00000000000E+00 -0.30228196403E+03  0.30228196404E+03  0.25500000920E-02 0. -1.
    10030    2    1    2    0    0  0.00000000000E+00  0.00000000000E+00  0.52398152105E+03  0.11285454491E+04  0.99952898724E+03 0.  0.
        5    1    3    3  502    0  0.42218595580E+03  0.26671268851E+03  0.28358595610E+03  0.57429933309E+03  0.46999998093E+01 0. -1.
       -5    1    3    3    0  502 -0.42218595580E+03 -0.26671268851E+03  0.24039556494E+03  0.55424611603E+03  0.46999998093E+01 0.  1.
</event>
<event>
 5   0  0.5768102E-04  0.9947230E+03  0.7818609E-02  0.9314351E-01
        1   -1    0    0  501    0  0.00000000000E+00  0.00000000000E+00  0.44635445307E+03  0.44635445310E+03  0.50400001928E-02 0.  1.
       -1   -1    0    0    0  501  0.00000000000E+00  0.00000000000E+00 -0.55419741012E+03  0.55419741014E+03  0.50400001928E-02 0. -1.
    10030    2    1    2    0    0  0.00000000000E+00  0.00000000000E+00 -0.10784295704E+03  0.10005518632E+04  0.99472304068E+03 0.  0.
        4    1    3    3  502    0  0.18023198615E+02  0.21394578912E+03  0.39733777732E+03  0.45163764076E+03  0.12699999809E+01 0.  1.
       -4    1    3    3    0  502 -0.18023198615E+02 -0.21394578912E+03 -0.50518073436E+03  0.54891422248E+03  0.12699999809E+01 0. -1.
</event>
<event>
 5   0  0.5960102E-04  0.9999016E+03  0.7818609E-02  0.9308653E-01
       -1   -1    0    0    0  501  0.00000000000E+00  0.00000000000E+00  0.17846148504E+03  0.17846148511E+03  0.50400001928E-02 0. -1.
        1   -1    0    0  501    0  0.00000000000E+00  0.00000000000E+00 -0.14005866926E+04  0.14005866926E+04  0.50400001928E-02 0.  1.
    10030    2    1    2    0    0  0.00000000000E+00  0.00000000000E+00 -0.12221252075E+04  0.15790481777E+04  0.99990155746E+03 0.  0.
        5    1    3    3  502    0 -0.13720335843E+03  0.98464690023E+02  0.13201712279E+03  0.21440771314E+03  0.46999998093E+01 0. -1.
       -5    1    3    3    0  502  0.13720335843E+03 -0.98464690023E+02 -0.13541423303E+04  0.13646404646E+04  0.46999998093E+01 0.  1.
</event>
<event>
 5   0  0.1020150E-03  0.9975707E+03  0.7818609E-02  0.9311213E-01
       -2   -1    0    0    0  501  0.00000000000E+00  0.00000000000E+00  0.40047113637E+03  0.40047113638E+03  0.25500000920E-02 0.  1.
        2   -1    0    0  501    0  0.00000000000E+00  0.00000000000E+00 -0.62123530150E+03  0.62123530151E+03  0.25500000920E-02 0. -1.
    10030    2    1    2    0    0  0.00000000000E+00  0.00000000000E+00 -0.22076416513E+03  0.10217064379E+04  0.99757066347E+03 0.  0.
        5    1    3    3  502    0  0.29538517637E+03  0.35114933081E+03  0.89811832843E+02  0.46759652508E+03  0.46999998093E+01 0.  1.
       -5    1    3    3    0  502 -0.29538517637E+03 -0.35114933081E+03 -0.31057599797E+03  0.55410991280E+03  0.46999998093E+01 0. -1.
</event>
<event>
 5   0  0.5960102E-04  0.1005322E+04  0.7818609E-02  0.9302727E-01
        1   -1    0    0  501    0  0.00000000000E+00  0.00000000000E+00  0.43057065594E+03  0.43057065597E+03  0.50400001928E-02 0.  1.
       -1   -1    0    0    0  501  0.00000000000E+00  0.00000000000E+00 -0.58682149594E+03  0.58682149596E+03  0.50400001928E-02 0. -1.
    10030    2    1    2    0    0  0.00000000000E+00  0.00000000000E+00 -0.15625084000E+03  0.10173921519E+04  0.10053220707E+04 0.  0.
        5    1    3    3  502    0  0.14575583378E+03 -0.20194851712E+03  0.36371474104E+03  0.44083837117E+03  0.46999998093E+01 0.  1.
       -5    1    3    3    0  502 -0.14575583378E+03  0.20194851712E+03 -0.51996558104E+03  0.57655378076E+03  0.46999998093E+01 0. -1.
</event>
<event>
 5   0  0.9674819E-04  0.1000334E+04  0.7818609E-02  0.9308178E-01
        2   -1    0    0  501    0  0.00000000000E+00  0.00000000000E+00  0.52053426847E+03  0.52053426847E+03  0.25500000920E-02 0.  1.
       -2   -1    0    0    0  501  0.00000000000E+00  0.00000000000E+00 -0.48059692130E+03  0.48059692130E+03  0.25500000920E-02 0. -1.
    10030    2    1    2    0    0  0.00000000000E+00  0.00000000000E+00  0.39937347168E+02  0.10011311898E+04  0.10003342779E+04 0.  0.
        4    1    3    3  502    0 -0.37128855723E+03 -0.10638344454E+03  0.33801568142E+03  0.51325319657E+03  0.12699999809E+01 0.  1.
       -4    1    3    3    0  502  0.37128855723E+03  0.10638344454E+03 -0.29807833425E+03  0.48787799321E+03  0.12699999809E+01 0. -1.
</event>
<event>
 5   0  0.5888774E-04  0.9969480E+03  0.7818609E-02  0.9311898E-01
       -1   -1    0    0    0  501  0.00000000000E+00  0.00000000000E+00  0.15683307736E+03  0.15683307744E+03  0.50400001928E-02 0. -1.
        1   -1    0    0  501    0  0.00000000000E+00  0.00000000000E+00 -0.15843363505E+04  0.15843363505E+04  0.50400001928E-02 0.  1.
    10030    2    1    2    0    0  0.00000000000E+00  0.00000000000E+00 -0.14275032732E+04  0.17411694280E+04  0.99694803375E+03 0.  0.
        2    1    3    3  502    0 -0.46067620218E+03 -0.17841655704E+03 -0.59762169390E+03  0.77537521247E+03  0.25500000920E-02 0. -1.
       -2    1    3    3    0  502  0.46067620218E+03  0.17841655704E+03 -0.82988157927E+03  0.96579421551E+03  0.25500000920E-02 0.  1.
</event>
<event>
 5   0  0.5888774E-04  0.1002431E+04  0.7818609E-02  0.9305883E-01
       -1   -1    0    0    0  501  0.00000000000E+00  0.00000000000E+00  0.18443007919E+03  0.18443007926E+03  0.50400001928E-02 0. -1.
        1   -1    0    0  501    0  0.00000000000E+00  0.00000000000E+00 -0.13621258848E+04  0.13621258848E+04  0.50400001928E-02 0.  1.
    10030    2    1    2    0    0  0.00000000000E+00  0.00000000000E+00 -0.11776958056E+04  0.15465559640E+04  0.10024310148E+04 0.  0.
        2    1    3    3  502    0 -0.13145589670E+03 -0.51139672352E+02  0.15317743878E+03  0.20822883235E+03  0.25500000920E-02 0. -1.
       -2    1    3    3    0  502  0.13145589670E+03  0.51139672352E+02 -0.13308732444E+04  0.13383271317E+04  0.25500000920E-02 0.  1.
</event>
<event>
 5   0  0.5758786E-04  0.1000756E+04  0.7818609E-02  0.9307716E-01
        1   -1    0    0  501    0  0.00000000000E+00  0.00000000000E+00  0.13346265658E+04  0.13346265658E+04  0.50400001928E-02 0.  1.
       -1   -1    0    0    0  501  0.00000000000E+00  0.00000000000E+00 -0.18760155470E+03  0.18760155477E+03  0.50400001928E-02 0. -1.
    10030    2    1    2    0    0  0.00000000000E+00  0.00000000000E+00  0.11470250111E+04  0.15222281206E+04  0.10007557519E+04 0.  0.
        3    1    3    3  502    0  0.23356304539E+03  0.28540252144E+03  0.59100662300E+02  0.37349590882E+03  0.10100000352E+00 0. -1.
       -3    1    3    3    0  502 -0.23356304539E+03 -0.28540252144E+03  0.10879243488E+04  0.11487322118E+04  0.10100000352E+00 0.  1.
</event>
<event>
 5   0  0.9741826E-04  0.1004083E+04  0.7818609E-02  0.9304078E-01
        2   -1    0    0  501    0  0.00000000000E+00  0.00000000000E+00  0.12828345196E+04  0.12828345196E+04  0.25500000920E-02 0.  1.
       -2   -1    0    0    0  501  0.00000000000E+00  0.00000000000E+00 -0.19647544838E+03  0.19647544840E+03  0.25500000920E-02 0. -1.
    10030    2    1    2    0    0  0.00000000000E+00  0.00000000000E+00  0.10863590712E+04  0.14793099680E+04  0.10040826409E+04 0.  0.
        3    1    3    3  502    0 -0.71606714643E+02 -0.16338013174E+03 -0.14821019397E+03  0.23191994487E+03  0.10100000352E+00 0. -1.
       -3    1    3    3    0  502  0.71606714643E+02  0.16338013174E+03  0.12345692652E+04  0.12473900231E+04  0.10100000352E+00 0.  1.
</event>
<event>
 5   0  0.5888774E-04  0.1001071E+04  0.7818609E-02  0.9307371E-01
       -1   -1    0    0    0  501  0.00000000000E+00  0.00000000000E+00  0.92070866842E+03  0.92070866843E+03  0.50400001928E-02 0.  1.
        1   -1    0    0  501    0  0.00000000000E+00  0.00000000000E+00 -0.27211186736E+03  0.27211186741E+03  0.50400001928E-02 0. -1.
    10030    2    1    2    0    0  0.00000000000E+00  0.00000000000E+00  0.64859680106E+03  0.11928205358E+04  0.10010709367E+04 0.  0.
        2    1    3    3  502    0 -0.49503807073E+03  0.36959395183E+02  0.24793660467E+03  0.55488850079E+03  0.25500000920E-02 0. -1.
       -2    1    3    3    0  502  0.49503807073E+03 -0.36959395183E+02  0.40066019638E+03  0.63793203505E+03  0.25500000920E-02 0.  1.
</event>
<event>
 5   0  0.3854625E-04  0.1002795E+04  0.7818609E-02  0.9305485E-01
       -3   -1    0    0    0  501  0.00000000000E+00  0.00000000000E+00  0.11897580746E+03  0.11897585033E+03  0.10100000352E+00 0.  1.
        3   -1    0    0  501    0  0.00000000000E+00  0.00000000000E+00 -0.21130294793E+04  0.21130294817E+04  0.10100000352E+00 0. -1.
    10030    2    1    2    0    0  0.00000000000E+00  0.00000000000E+00 -0.19940536718E+04  0.22320053320E+04  0.10027949721E+04 0.  0.
        3    1    3    3  502    0 -0.33377757304E+03 -0.57963640229E+02 -0.18197610799E+04  0.18510261073E+04  0.10100000352E+00 0. -1.
       -3    1    3    3    0  502  0.33377757304E+03  0.57963640229E+02 -0.17429259191E+03  0.38097922470E+03  0.10100000352E+00 0.  1.
</event>
<event>
 5   0  0.5888774E-04  0.1000442E+04  0.7818609E-02  0.9308060E-01
       -1   -1    0    0    0  501  0.00000000000E+00  0.00000000000E+00  0.22119436578E+03  0.22119436584E+03  0.50400001928E-02 0.  1.
        1   -1    0    0  501    0  0.00000000000E+00  0.00000000000E+00 -0.11312278161E+04  0.11312278161E+04  0.50400001928E-02 0. -1.
    10030    2    1    2    0    0  0.00000000000E+00  0.00000000000E+00 -0.91003345028E+03  0.13524221819E+04  0.10004423409E+04 0.  0.
        2    1    3    3  502    0 -0.87145223596E+02 -0.23359906760E+03 -0.10412447763E+04  0.10706789895E+04  0.25500000920E-02 0. -1.
       -2    1    3    3    0  502  0.87145223596E+02  0.23359906760E+03  0.13121132604E+03  0.28174319240E+03  0.25500000920E-02 0.  1.
</event>
<event>
 5   0  0.1020150E-03  0.1001329E+04  0.7818609E-02  0.9307089E-01
        2   -1    0    0  501    0  0.00000000000E+00  0.00000000000E+00  0.87245586493E+03  0.87245586493E+03  0.25500000920E-02 0.  1.
       -2   -1    0    0    0  501  0.00000000000E+00  0.00000000000E+00 -0.28730937754E+03  0.28730937755E+03  0.25500000920E-02 0. -1.
    10030    2    1    2    0    0  0.00000000000E+00  0.00000000000E+00  0.58514648739E+03  0.11597652425E+04  0.10013286204E+04 0.  0.
        5    1    3    3  502    0  0.18807122720E+03 -0.32265782737E+03 -0.93593752863E+02  0.38504641362E+03  0.46999998093E+01 0. -1.
       -5    1    3    3    0  502 -0.18807122720E+03  0.32265782737E+03  0.67874024025E+03  0.77471882887E+03  0.46999998093E+01 0.  1.
</event>
<event>
 5   0  0.9674819E-04  0.1000421E+04  0.7818609E-02  0.9308083E-01
        2   -1    0    0  501    0  0.00000000000E+00  0.00000000000E+00  0.29097968523E+04  0.29097968523E+04  0.25500000920E-02 0.  1.
       -2   -1    0    0    0  501  0.00000000000E+00  0.00000000000E+00 -0.85989051393E+02  0.85989051431E+02  0.25500000920E-02 0. -1.
    10030    2    1    2    0    0  0.00000000000E+00  0.00000000000E+00  0.28238078009E+04  0.29957859038E+04  0.10004212535E+04 0.  0.
        4    1    3    3  502    0  0.15736894033E+03  0.40651590988E+03  0.67724451706E+03  0.80540791973E+03  0.12699999809E+01 0. -1.
       -4    1    3    3    0  502 -0.15736894033E+03 -0.40651590988E+03  0.21465632839E+04  0.21903779840E+04  0.12699999809E+01 0.  1.
</event>
<event>
 5   0  0.5888774E-04  0.9940486E+03  0.7818609E-02  0.9315096E-01
       -1   -1    0    0    0  501  0.00000000000E+00  0.00000000000E+00  0.63290791161E+03  0.63290791163E+03  0.50400001928E-02 0. -1.
        1   -1    0    0  501    0  0.00000000000E+00  0.00000000000E+00 -0.39031453631E+03  0.39031453634E+03  0.50400001928E-02 0.  1.
    10030    2    1    2    0    0  0.00000000000E+00  0.00000000000E+00  0.24259337530E+03  0.10232224480E+04  0.99404860661E+03 0.  0.
        2    1    3    3  502    0  0.23259109406E+03  0.37247679638E+03 -0.11833506350E+03  0.45479750234E+03  0.25500000920E-02 0.  1.
       -2    1    3    3    0  502 -0.23259109406E+03 -0.37247679638E+03  0.36092843881E+03  0.56842494564E+03  0.25500000920E-02 0. -1.
</event>
<event>
 5   0  0.5826939E-04  0.9971072E+03  0.7818609E-02  0.9311723E-01
       -1   -1    0    0    0  501  0.00000000000E+00  0.00000000000E+00  0.16003224433E+03  0.16003224441E+03  0.50400001928E-02 0. -1.
        1   -1    0    0  501    0  0.00000000000E+00  0.00000000000E+00 -0.15531600721E+04  0.15531600722E+04  0.50400001928E-02 0.  1.
    10030    2    1    2    0    0  0.00000000000E+00  0.00000000000E+00 -0.13931278278E+04  0.17131923166E+04  0.99710720030E+03 0.  0.
        1    1    3    3  502    0 -0.30309931964E+02  0.13650240327E+02 -0.15512538371E+04  0.15516099665E+04  0.50400001928E-02 0.  1.
       -1    1    3    3    0  502  0.30309931964E+02 -0.13650240327E+02  0.15812600924E+03  0.16158235009E+03  0.50400001928E-02 0. -1.
</event>
<event>
 5   0  0.5758786E-04  0.1006226E+04  0.7818609E-02  0.9301742E-01
        1   -1    0    0  501    0  0.00000000000E+00  0.00000000000E+00  0.30445035377E+03  0.30445035381E+03  0.50400001928E-02 0. -1.
       -1   -1    0    0    0  501  0.00000000000E+00  0.00000000000E+00 -0.83140888881E+03  0.83140888882E+03  0.50400001928E-02 0.  1.
    10030    2    1    2    0    0  0.00000000000E+00  0.00000000000E+00 -0.52695853504E+03  0.11358592426E+04  0.10062260787E+04 0.  0.
        3    1    3    3  502    0 -0.19272780530E+03 -0.46453706820E+03 -0.27879253730E+03  0.57503389789E+03  0.10100000352E+00 0. -1.
       -3    1    3    3    0  502  0.19272780530E+03  0.46453706820E+03 -0.24816599774E+03  0.56082534474E+03  0.10100000352E+00 0.  1.
</event>
<event>
 5   0  0.1006006E-03  0.9983356E+03  0.7818609E-02  0.9310372E-01
       -2   -1    0    0    0  501  0.00000000000E+00  0.00000000000E+00  0.44148897717E+03  0.44148897718E+03  0.25500000920E-02 0.  1.
        2   -1    0    0  501    0  0.00000000000E+00  0.00000000000E+00 -0.56438217776E+03  0.56438217777E+03  0.25500000920E-02 0. -1.
    10030    2    1    2    0    0  0.00000000000E+00  0.00000000000E+00 -0.12289320059E+03  0.10058711549E+04  0.99833563574E+03 0.  0.
        2    1    3    3  502    0  0.16295724675E+03 -0.27047559905E+03 -0.45096056637E+03  0.55052479179E+03  0.25500000920E-02 0. -1.
       -2    1    3    3    0  502 -0.16295724675E+03  0.27047559905E+03  0.32806736578E+03  0.45534636316E+03  0.25500000920E-02 0.  1.
</event>
<event>
 5   0  0.5826939E-04  0.1000114E+04  0.7818609E-02  0.9308420E-01
       -1   -1    0    0    0  501  0.00000000000E+00  0.00000000000E+00  0.74474593892E+03  0.74474593894E+03  0.50400001928E-02 0. -1.
        1   -1    0    0  501    0  0.00000000000E+00  0.00000000000E+00 -0.33576142153E+03  0.33576142157E+03  0.50400001928E-02 0.  1.
    10030    2    1    2    0    0  0.00000000000E+00  0.00000000000E+00  0.40898451739E+03  0.10805073605E+04  0.10001139038E+04 0.  0.
        1    1    3    3  502    0 -0.25309616405E+02 -0.22888971842E+03  0.68404888628E+03  0.72177140338E+03  0.50400001928E-02 0. -1.
       -1    1    3    3    0  502  0.25309616405E+02  0.22888971842E+03 -0.27506436889E+03  0.35873595713E+03  0.50400001928E-02 0.  1.
</event>
<event>
 5   0  0.1020150E-03  0.1004042E+04  0.7818609E-02  0.9304123E-01
        2   -1    0    0  501    0  0.00000000000E+00  0.00000000000E+00  0.29982238114E+03  0.29982238115E+03  0.25500000920E-02 0. -1.
       -2   -1    0    0    0  501  0.00000000000E+00  0.00000000000E+00 -0.84058099096E+03  0.84058099096E+03  0.25500000920E-02 0.  1.
    10030    2    1    2    0    0  0.00000000000E+00  0.00000000000E+00 -0.54075860982E+03  0.11404033721E+04  0.10040418204E+04 0.  0.
        5    1    3    3  502    0  0.37735246902E+03  0.21564345956E+03  0.14946946314E+02  0.43490514912E+03  0.46999998093E+01 0. -1.
       -5    1    3    3    0  502 -0.37735246902E+03 -0.21564345956E+03 -0.55570555614E+03  0.70549822299E+03  0.46999998093E+01 0.  1.
</event>
<event>
 5   0  0.5758786E-04  0.1001476E+04  0.7818609E-02  0.9306928E-01
        1   -1    0    0  501    0  0.00000000000E+00  0.00000000000E+00  0.53224960903E+03  0.53224960906E+03  0.50400001928E-02 0. -1.
       -1   -1    0    0    0  501  0.00000000000E+00  0.00000000000E+00 -0.47109195260E+03  0.47109195263E+03  0.50400001928E-02 0.  1.
    10030    2    1    2    0    0  0.00000000000E+00  0.00000000000E+00  0.61157656435E+02  0.10033415617E+04  0.10014759261E+04 0.  0.
        3    1    3    3  502    0 -0.11870089051E+03 -0.20729474761E+03  0.47148670289E+03  0.52854586840E+03  0.10100000352E+00 0. -1.
       -3    1    3    3    0  502  0.11870089051E+03  0.20729474761E+03 -0.41032904646E+03  0.47479569329E+03  0.10100000352E+00 0.  1.
</event>
<event>
 5   0  0.1006006E-03  0.9950546E+03  0.7818609E-02  0.9313986E-01
        2   -1    0    0  501    0  0.00000000000E+00  0.00000000000E+00  0.17526708090E+04  0.17526708090E+04  0.25500000920E-02 0. -1.
       -2   -1    0    0    0  501  0.00000000000E+00  0.00000000000E+00 -0.14123210725E+03  0.14123210727E+03  0.25500000920E-02 0.  1.
    10030    2    1    2    0    0  0.00000000000E+00  0.00000000000E+00  0.16114387018E+04  0.18939029163E+04  0.99505455469E+03 0.  0.
        2    1    3    3  502    0  0.29805979475E+03 -0.28476643854E+03  0.27551072262E+03  0.49582025377E+03  0.25500000920E-02 0.  1.
       -2    1    3    3    0  502 -0.29805979475E+03  0.28476643854E+03  0.13359279792E+04  0.13980826625E+04  0.25500000920E-02 0. -1.
</event>
<event>
 5   0  0.3854625E-04  0.1002193E+04  0.7818609E-02  0.9306143E-01
        3   -1    0    0  501    0  0.00000000000E+00  0.00000000000E+00  0.25278655844E+03  0.25278657861E+03  0.10100000352E+00 0. -1.
       -3   -1    0    0    0  501  0.00000000000E+00  0.00000000000E+00 -0.99331903564E+03  0.99331904078E+03  0.10100000352E+00 0.  1.
    10030    2    1    2    0    0  0.00000000000E+00  0.00000000000E+00 -0.74053247721E+03  0.12461056194E+04  0.10021930278E+04 0.  0.
        4    1    3    3  502    0 -0.28488813845E+03  0.13272193650E+03  0.11500166973E+03  0.33466903173E+03  0.12699999809E+01 0. -1.
       -4    1    3    3    0  502  0.28488813845E+03 -0.13272193650E+03 -0.85553414694E+03  0.91143658766E+03  0.12699999809E+01 0.  1.
</event>
<event>
 5   0  0.1020150E-03  0.9956181E+03  0.7818609E-02  0.9313364E-01
       -2   -1    0    0    0  501  0.00000000000E+00  0.00000000000E+00  0.22542507664E+03  0.22542507665E+03  0.25500000920E-02 0. -1.
        2   -1    0    0  501    0  0.00000000000E+00  0.00000000000E+00 -0.10993180212E+04  0.10993180212E+04  0.25500000920E-02 0.  1.
    10030    2    1    2    0    0  0.00000000000E+00  0.00000000000E+00 -0.87389294455E+03  0.13247430978E+04  0.99561809784E+03 0.  0.
        5    1    3    3  502    0  0.98390928588E+02  0.10419292457E+03 -0.10712475270E+04  0.10808007654E+04  0.46999998093E+01 0.  1.
       -5    1    3    3    0  502 -0.98390928588E+02 -0.10419292457E+03  0.19735458244E+03  0.24394233246E+03  0.46999998093E+01 0. -1.
</event>
<event>
 5   0  0.5826939E-04  0.1000202E+04  0.7818609E-02  0.9308323E-01
       -1   -1    0    0    0  501  0.00000000000E+00  0.00000000000E+00  0.14590667844E+03  0.14590667853E+03  0.50400001928E-02 0.  1.
        1   -1    0    0  501    0  0.00000000000E+00  0.00000000000E+00 -0.17141179483E+04  0.17141179483E+04  0.50400001928E-02 0. -1.
    10030    2    1    2    0    0  0.00000000000E+00  0.00000000000E+00 -0.15682112699E+04  0.18600246268E+04  0.10002024923E+04 0.  0.
        1    1    3    3  502    0 -0.67896357673E+02 -0.13083357149E+03 -0.16728032464E+04  0.16792849788E+04  0.50400001928E-02 0. -1.
       -1    1    3    3    0  502  0.67896357673E+02  0.13083357149E+03  0.10459197650E+03  0.18073964808E+03  0.50400001928E-02 0.  1.
</event>
<event>
 5   0  0.5888774E-04  0.1001212E+04  0.7818609E-02  0.9307216E-01
       -1   -1    0    0    0  501  0.00000000000E+00  0.00000000000E+00  0.35755845592E+03  0.35755845596E+03  0.50400001928E-02 0. -1.
        1   -1    0    0  501    0  0.00000000000E+00  0.00000000000E+00 -0.70088270304E+03  0.70088270305E+03  0.50400001928E-02 0.  1.
    10030    2    1    2    0    0  0.00000000000E+00  0.00000000000E+00 -0.34332424711E+03  0.10584411590E+04  0.10012123393E+04 0.  0.
        2    1    3    3  502    0 -0.26001810516E+03  0.25388431889E+03 -0.53563813222E+03  0.64728268251E+03  0.25500000920E-02 0.  1.
       -2    1    3    3    0  502  0.26001810516E+03 -0.25388431889E+03  0.19231388510E+03  0.41115847650E+03  0.25500000920E-02 0. -1.
</event>
<event>
 5   0  0.9741826E-04  0.9979016E+03  0.7818609E-02  0.9310849E-01
       -2   -1    0    0    0  501  0.00000000000E+00  0.00000000000E+00  0.40495700930E+03  0.40495700931E+03  0.25500000920E-02 0. -1.
        2   -1    0    0  501    0  0.00000000000E+00  0.00000000000E+00 -0.61476131973E+03  0.61476131974E+03  0.25500000920E-02 0.  1.
    10030    2    1    2    0    0  0.00000000000E+00  0.00000000000E+00 -0.20980431043E+03  0.10197183291E+04  0.99790160934E+03 0.  0.
        3    1    3    3  502    0 -0.33652482262E+03 -0.18118098313E+03 -0.43265793695E+03  0.57729403729E+03  0.10100000352E+00 0.  1.
       -3    1    3    3    0  502  0.33652482262E+03  0.18118098313E+03  0.22285362652E+03  0.44242429176E+03  0.10100000352E+00 0. -1.
</event>
<event>
 5   0  0.5960102E-04  0.1000542E+04  0.7818609E-02  0.9307951E-01
       -1   -1    0    0    0  501  0.00000000000E+00  0.00000000000E+00  0.54738032045E+03  0.54738032048E+03  0.50400001928E-02 0. -1.
        1   -1    0    0  501    0  0.00000000000E+00  0.00000000000E+00 -0.45721596821E+03  0.45721596824E+03  0.50400001928E-02 0.  1.
    10030    2    1    2    0    0  0.00000000000E+00  0.00000000000E+00  0.90164352245E+02  0.10045962887E+04  0.10005418996E+04 0.  0.
        5    1    3    3  502    0 -0.17537387954E+03 -0.46238304258E+03 -0.30687899552E+02  0.49549764164E+03  0.46999998093E+01 0.  1.
       -5    1    3    3    0  502  0.17537387954E+03  0.46238304258E+03  0.12085225180E+03  0.50909864707E+03  0.46999998093E+01 0. -1.
</event>
<event>
 5   0  0.1006749E-03  0.1000392E+04  0.7818609E-02  0.9308115E-01
        2   -1    0    0  501    0  0.00000000000E+00  0.00000000000E+00  0.52787934139E+03  0.52787934140E+03  0.25500000920E-02 0.  1.
       -2   -1    0    0    0  501  0.00000000000E+00  0.00000000000E+00 -0.47396453973E+03  0.47396453974E+03  0.25500000920E-02 0. -1.
    10030    2    1    2    0    0  0.00000000000E+00  0.00000000000E+00  0.53914801661E+02  0.10018438811E+04  0.10003921013E+04 0.  0.
        1    1    3    3  502    0  0.31893229629E+03  0.38518081636E+03  0.37650824848E+02  0.50149741330E+03  0.50400001928E-02 0.  1.
       -1    1    3    3    0  502 -0.31893229629E+03 -0.38518081636E+03  0.16263976813E+02  0.50034646784E+03  0.50400001928E-02 0. -1.
</event>
<event>
 5   0  0.5826939E-04  0.9891492E+03  0.7818609E-02  0.9320527E-01
       -1   -1    0    0    0  501  0.00000000000E+00  0.00000000000E+00  0.41607747397E+03  0.41607747400E+03  0.50400001928E-02 0. -1.
        1   -1    0    0  501    0  0.00000000000E+00  0.00000000000E+00 -0.58788094259E+03  0.58788094261E+03  0.50400001928E-02 0.  1.
    10030    2    1    2    0    0  0.00000000000E+00  0.00000000000E+00 -0.17180346863E+03  0.10039584166E+04  0.98914916491E+03 0.  0.
        1    1    3    3  502    0  0.19053105484E+03 -0.19100639138E+03 -0.50661759923E+03  0.57397466519E+03  0.50400001928E-02 0.  1.
       -1    1    3    3    0  502 -0.19053105484E+03  0.19100639138E+03  0.33481413061E+03  0.42998375142E+03  0.50400001928E-02 0. -1.
</event>
<event>
 5   0  0.1006006E-03  0.9996161E+03  0.7818609E-02  0.9308966E-01
       -2   -1    0    0    0  501  0.00000000000E+00  0.00000000000E+00  0.29079631618E+03  0.29079631619E+03  0.25500000920E-02 0.  1.
        2   -1    0    0  501    0  0.00000000000E+00  0.00000000000E+00 -0.85904833559E+03  0.85904833560E+03  0.25500000920E-02 0. -1.
    10030    2    1    2    0    0  0.00000000000E+00  0.00000000000E+00 -0.56825201941E+03  0.11498446518E+04  0.99961610916E+03 0.  0.
        2    1    3    3  502    0  0.43328235089E+03  0.11104403357E+03 -0.54067779812E+03  0.70170995031E+03  0.25500000920E-02 0. -1.
       -2    1    3    3    0  502 -0.43328235089E+03 -0.11104403357E+03 -0.27574221294E+02  0.44813470148E+03  0.25500000920E-02 0.  1.
</event>
<event>
 5   0  0.5758786E-04  0.9983662E+03  0.7818609E-02  0.9310339E-01
       -1   -1    0    0    0  501  0.00000000000E+00  0.00000000000E+00  0.15222575279E+03  0.15222575287E+03  0.50400001928E-02 0.  1.
        1   -1    0    0  501    0  0.00000000000E+00  0.00000000000E+00 -0.16369356447E+04  0.16369356447E+04  0.50400001928E-02 0. -1.
    10030    2    1    2    0    0  0.00000000000E+00  0.00000000000E+00 -0.14847098919E+04  0.17891613975E+04  0.99836618703E+03 0.  0.
        3    1    3    3  502    0 -0.29436631126E+02 -0.45538674175E+03 -0.37974945625E+03  0.59367774047E+03  0.10100000352E+00 0.  1.
       -3    1    3    3    0  502  0.29436631126E+02  0.45538674175E+03 -0.11049604356E+04  0.11954836571E+04  0.10100000352E+00 0. -1.
</event>
<event>
 5   0  0.9674819E-04  0.1000147E+04  0.7818609E-02  0.9308383E-01
        2   -1    0    0  501    0  0.00000000000E+00  0.00000000000E+00  0.10784975671E+04  0.10784975671E+04  0.25500000920E-02 0. -1.
       -2   -1    0    0    0  501  0.00000000000E+00  0.00000000000E+00 -0.23187230465E+03  0.23187230466E+03  0.25500000920E-02 0.  1.
    10030    2    1    2    0    0  0.00000000000E+00  0.00000000000E+00  0.84662526244E+03  0.13103698718E+04  0.10001474220E+04 0.  0.
        4    1    3    3  502    0 -0.23481917739E+03  0.42709688934E+03  0.27671149825E+03  0.56046647100E+03  0.12699999809E+01 0.  1.
       -4    1    3    3    0  502  0.23481917739E+03 -0.42709688934E+03  0.56991376419E+03  0.74990340076E+03  0.12699999809E+01 0. -1.
</event>
<event>
 5   0  0.1006749E-03  0.1000786E+04  0.7818609E-02  0.9307684E-01
        2   -1    0    0  501    0  0.00000000000E+00  0.00000000000E+00  0.67039408196E+03  0.67039408197E+03  0.25500000920E-02 0.  1.
       -2   -1    0    0    0  501  0.00000000000E+00  0.00000000000E+00 -0.37350112195E+03  0.37350112196E+03  0.25500000920E-02 0. -1.
    10030    2    1    2    0    0  0.00000000000E+00  0.00000000000E+00  0.29689296001E+03  0.10438952039E+04  0.10007855750E+04 0.  0.
        1    1    3    3  502    0  0.11660302040E+03 -0.15349308137E+03  0.63011325537E+03  0.65893786127E+03  0.50400001928E-02 0.  1.
       -1    1    3    3    0  502 -0.11660302040E+03  0.15349308137E+03 -0.33322029537E+03  0.38495734266E+03  0.50400001928E-02 0. -1.
</event>
<event>
 5   0  0.5758786E-04  0.1008666E+04  0.7818609E-02  0.9299091E-01
        1   -1    0    0  501    0  0.00000000000E+00  0.00000000000E+00  0.14258138589E+04  0.14258138590E+04  0.50400001928E-02 0. -1.
       -1   -1    0    0    0  501  0.00000000000E+00  0.00000000000E+00 -0.17839059587E+03  0.17839059595E+03  0.50400001928E-02 0.  1.
    10030    2    1    2    0    0  0.00000000000E+00  0.00000000000E+00  0.12474232631E+04  0.16042044549E+04  0.10086660180E+04 0.  0.
        3    1    3    3  502    0 -0.29625367282E+03  0.39820481550E+03  0.48129595002E+03  0.69136033691E+03  0.10100000352E+00 0.  1.
       -3    1    3    3    0  502  0.29625367282E+03 -0.39820481550E+03  0.76612731305E+03  0.91284411799E+03  0.10100000352E+00 0. -1.
</event>
<event>
 5   0  0.5960102E-04  0.1000189E+04  0.7818609E-02  0.9308338E-01
        1   -1    0    0  501    0  0.00000000000E+00  0.00000000000E+00  0.19790157800E+04  0.19790157800E+04  0.50400001928E-02 0. -1.
       -1   -1    0    0    0  501  0.00000000000E+00  0.00000000000E+00 -0.12637308917E+03  0.12637308927E+03  0.50400001928E-02 0.  1.
    10030    2    1    2    0    0  0.00000000000E+00  0.00000000000E+00  0.18526426909E+04  0.21053888693E+04  0.10001886577E+04 0.  0.
        5    1    3    3  502    0  0.99450243666E+01  0.46510889263E+03  0.13124428351E+04  0.13924630950E+04  0.46999998093E+01 0. -1.
       -5    1    3    3    0  502 -0.99450243666E+01 -0.46510889263E+03  0.54019985577E+03  0.71292577432E+03  0.46999998093E+01 0.  1.
</event>
<event>
 5   0  0.5758786E-04  0.9998895E+03  0.7818609E-02  0.9308666E-01
        1   -1    0    0  501    0  0.00000000000E+00  0.00000000000E+00  0.39051480781E+03  0.39051480785E+03  0.50400001928E-02 0. -1.
       -1   -1    0    0    0  501  0.00000000000E+00  0.00000000000E+00 -0.64003916066E+03  0.64003916068E+03  0.50400001928E-02 0.  1.
    10030    2    1    2    0    0  0.00000000000E+00  0.00000000000E+00 -0.24952435284E+03  0.10305539685E+04  0.99988953359E+03 0.  0.
        3    1    3    3  502    0 -0.12588629080E+03  0.17676491980E+03  0.33944077618E+03  0.40288118077E+03  0.10100000352E+00 0. -1.
       -3    1    3    3    0  502  0.12588629080E+03 -0.17676491980E+03 -0.58896512902E+03  0.62767278776E+03  0.10100000352E+00 0.  1.
</event>
<event>
 5   0  0.5960102E-04  0.1001063E+04  0.7818609E-02  0.9307380E-01
        1   -1    0    0  501    0  0.00000000000E+00  0.00000000000E+00  0.79978975725E+03  0.79978975726E+03  0.50400001928E-02 0. -1.
       -1   -1    0    0    0  501  0.00000000000E+00  0.00000000000E+00 -0.31324692411E+03  0.31324692415E+03  0.50400001928E-02 0.  1.
    10030    2    1    2    0    0  0.00000000000E+00  0.00000000000E+00  0.48654283314E+03  0.11130366814E+04  0.10010627981E+04 0.  0.
        5    1    3    3  502    0 -0.22392524492E+03 -0.26685186961E+03  0.64285477375E+03  0.73118861162E+03  0.46999998093E+01 0. -1.
       -5    1    3    3    0  502  0.22392524492E+03  0.26685186961E+03 -0.15631194062E+03  0.38184806979E+03  0.46999998093E+01 0.  1.
</event>
<event>
 5   0  0.1006006E-03  0.1000740E+04  0.7818609E-02  0.9307734E-01
       -2   -1    0    0    0  501  0.00000000000E+00  0.00000000000E+00  0.32795578034E+03  0.32795578035E+03  0.25500000920E-02 0. -1.
        2   -1    0    0  501    0  0.00000000000E+00  0.00000000000E+00 -0.76342650294E+03  0.76342650294E+03  0.25500000920E-02 0.  1.
    10030    2    1    2    0    0  0.00000000000E+00  0.00000000000E+00 -0.43547072260E+03  0.10913822833E+04  0.10007399952E+04 0.  0.
        2    1    3    3  502    0  0.23587315932E+03  0.33938826190E+03 -0.52532707285E+03  0.66842282508E+03  0.25500000920E-02 0.  1.
       -2    1    3    3    0  502 -0.23587315932E+03 -0.33938826190E+03  0.89856350256E+02  0.42295945821E+03  0.25500000920E-02 0. -1.
</event>
<event>
 5   0  0.5758786E-04  0.9892012E+03  0.7818609E-02  0.9320469E-01
       -1   -1    0    0    0  501  0.00000000000E+00  0.00000000000E+00  0.15548732445E+03  0.15548732453E+03  0.50400001928E-02 0.  1.
        1   -1    0    0  501    0  0.00000000000E+00  0.00000000000E+00 -0.15733099632E+04  0.15733099632E+04  0.50400001928E-02 0. -1.
    10030    2    1    2    0    0  0.00000000000E+00  0.00000000000E+00 -0.14178226387E+04  0.17287972877E+04  0.98920120661E+03 0.  0.
        3    1    3    3  502    0 -0.12141913202E+03  0.12930720836E+03  0.97987731365E+02  0.20264393762E+03  0.10100000352E+00 0.  1.
       -3    1    3    3    0  502  0.12141913202E+03 -0.12930720836E+03 -0.15158103701E+04  0.15261533501E+04  0.10100000352E+00 0. -1.
</event>
<event>
 5   0  0.1006749E-03  0.1000582E+04  0.7818609E-02  0.9307906E-01
       -2   -1    0    0    0  501  0.00000000000E+00  0.00000000000E+00  0.16479667785E+03  0.16479667787E+03  0.25500000920E-02 0.  1.
        2   -1    0    0  501    0  0.00000000000E+00  0.00000000000E+00 -0.15187885357E+04  0.15187885357E+04  0.25500000920E-02 0. -1.
    10030    2    1    2    0    0  0.00000000000E+00  0.00000000000E+00 -0.13539918578E+04  0.16835852135E+04  0.10005824405E+04 0.  0.
        1    1    3    3  502    0 -0.28309534982E+03  0.27188006985E+03 -0.11989550194E+04  0.12615684239E+04  0.50400001928E-02 0. -1.
       -1    1    3    3    0  502  0.28309534982E+03 -0.27188006985E+03 -0.15503683837E+03  0.42201678965E+03  0.50400001928E-02 0.  1.
</event>
<event>
 5   0  0.9674819E-04  0.1000658E+04  0.7818609E-02  0.9307823E-01
       -2   -1    0    0    0  501  0.00000000000E+00  0.00000000000E+00  0.18766372010E+03  0.18766372012E+03  0.25500000920E-02 0.  1.
        2   -1    0    0  501    0  0.00000000000E+00  0.00000000000E+00 -0.13339248860E+04  0.13339248860E+04  0.25500000920E-02 0. -1.
    10030    2    1    2    0    0  0.00000000000E+00  0.00000000000E+00 -0.11462611659E+04  0.15215886062E+04  0.10006583962E+04 0.  0.
        4    1    3    3  502    0  0.40362204090E+02  0.38839780886E+02  0.18287830808E+03  0.19126872343E+03  0.12699999809E+01 0.  1.
       -4    1    3    3    0  502 -0.40362204090E+02 -0.38839780886E+02 -0.13291394740E+04  0.13303198827E+04  0.12699999809E+01 0. -1.
</event>
<event>
 5   0  0.5758786E-04  0.9998177E+03  0.7818609E-02  0.9308745E-01
       -1   -1    0    0    0  501  0.00000000000E+00  0.00000000000E+00  0.10328857552E+03  0.10328857564E+03  0.50400001928E-02 0. -1.
        1   -1    0    0  501    0  0.00000000000E+00  0.00000000000E+00 -0.24195209295E+04  0.24195209295E+04  0.50400001928E-02 0.  1.
    10030    2    1    2    0    0  0.00000000000E+00  0.00000000000E+00 -0.23162323540E+04  0.25228095052E+04  0.99981772421E+03 0.  0.
        3    1    3    3  502    0  0.27997561878E+02  0.43473166625E+03 -0.53935733609E+03  0.69331221777E+03  0.10100000352E+00 0.  1.
       -3    1    3    3    0  502 -0.27997561878E+02 -0.43473166625E+03 -0.17768750179E+04  0.18294972874E+04  0.10100000352E+00 0. -1.
</event>
<event>
 5   0  0.9741826E-04  0.1000967E+04  0.7818609E-02  0.9307485E-01
        2   -1    0    0  501    0  0.00000000000E+00  0.00000000000E+00  0.13205990483E+04  0.13205990483E+04  0.25500000920E-02 0. -1.
       -2   -1    0    0    0  501  0.00000000000E+00  0.00000000000E+00 -0.18967435461E+03  0.18967435463E+03  0.25500000920E-02 0.  1.
    10030    2    1    2    0    0  0.00000000000E+00  0.00000000000E+00  0.11309246937E+04  0.15102734029E+04  0.10009670768E+04 0.  0.
        3    1    3    3  502    0 -0.46391693772E+03 -0.15231647979E+03  0.39973623981E+03  0.63103748442E+03  0.10100000352E+00 0.  1.
       -3    1    3    3    0  502  0.46391693772E+03  0.15231647979E+03  0.73118845388E+03  0.87923591852E+03  0.10100000352E+00 0. -1.
</event>
<event>
 5   0  0.9741826E-04  0.1000695E+04  0.7818609E-02  0.9307783E-01
        2   -1    0    0  501    0  0.00000000000E+00  0.00000000000E+00  0.88960456131E+03  0.88960456131E+03  0.25500000920E-02 0.  1.
       -2   -1    0    0    0  501  0.00000000000E+00  0.00000000000E+00 -0.28141422759E+03  0.28141422761E+03  0.25500000920E-02 0. -1.
    10030    2    1    2    0    0  0.00000000000E+00  0.00000000000E+00  0.60819033371E+03  0.11710187889E+04  0.10006945198E+04 0.  0.
        3    1    3    3  502    0 -0.17497281897E+03  0.80747591332E+02 -0.23624576569E+03  0.30487330630E+03  0.10100000352E+00 0. -1.
       -3    1    3    3    0  502  0.17497281897E+03 -0.80747591332E+02  0.84443609941E+03  0.86614548262E+03  0.10100000352E+00 0.  1.
</event>
<event>
 5   0  0.5888774E-04  0.9986490E+03  0.7818609E-02  0.9310028E-01
       -1   -1    0    0    0  501  0.00000000000E+00  0.00000000000E+00  0.23040656870E+03  0.23040656875E+03  0.50400001928E-02 0. -1.
        1   -1    0    0  501    0  0.00000000000E+00  0.00000000000E+00 -0.10821086820E+04  0.10821086820E+04  0.50400001928E-02 0.  1.
    10030    2    1    2    0    0  0.00000000000E+00  0.00000000000E+00 -0.85170211330E+03  0.13125152508E+04  0.99864898422E+03 0.  0.
        2    1    3    3  502    0 -0.29737563515E+03  0.26870703471E+03 -0.34445591067E+02  0.40227134827E+03  0.25500000920E-02 0. -1.
       -2    1    3    3    0  502  0.29737563515E+03 -0.26870703471E+03 -0.81725652223E+03  0.91024390249E+03  0.25500000920E-02 0.  1.
</event>
<event>
 5   0  0.5960102E-04  0.1000814E+04  0.7818609E-02  0.9307652E-01
       -1   -1    0    0    0  501  0.00000000000E+00  0.00000000000E+00  0.51995776658E+03  0.51995776661E+03  0.50400001928E-02 0. -1.
        1   -1    0    0  501    0  0.00000000000E+00  0.00000000000E+00 -0.48159170519E+03  0.48159170521E+03  0.50400001928E-02 0.  1.
    10030    2    1    2    0    0  0.00000000000E+00  0.00000000000E+00  0.38366061395E+02  0.10015494718E+04  0.10008143633E+04 0.  0.
        5    1    3    3  502    0 -0.10134969221E+03 -0.39775595363E+03  0.30558146141E+03  0.51174571646E+03  0.46999998093E+01 0. -1.
       -5    1    3    3    0  502  0.10134969221E+03  0.39775595363E+03 -0.26721540001E+03  0.48980375536E+03  0.46999998093E+01 0.  1.
</event>
<event>
 5   0  0.5826939E-04  0.9986816E+03  0.7818609E-02  0.9309992E-01
        1   -1    0    0  501    0  0.00000000000E+00  0.00000000000E+00  0.10562488881E+04  0.10562488881E+04  0.50400001928E-02 0. -1.
       -1   -1    0    0    0  501  0.00000000000E+00  0.00000000000E+00 -0.23606297609E+03  0.23606297614E+03  0.50400001928E-02 0.  1.
    10030    2    1    2    0    0  0.00000000000E+00  0.00000000000E+00  0.82018591201E+03  0.12923118643E+04  0.99868164309E+03 0.  0.
        1    1    3    3  502    0  0.83743354260E+02 -0.48687546252E+03  0.31605969110E+03  0.58647625165E+03  0.50400001928E-02 0.  1.
       -1    1    3    3    0  502 -0.83743354260E+02  0.48687546252E+03  0.50412622091E+03  0.70583561260E+03  0.50400001928E-02 0. -1.
</event>
<event>
 5   0  0.1020150E-03  0.9945519E+03  0.7818609E-02  0.9314540E-01
       -2   -1    0    0    0  501  0.00000000000E+00  0.00000000000E+00  0.15094359925E+03  0.15094359927E+03  0.25500000920E-02 0.  1.
        2   -1    0    0  501    0  0.00000000000E+00  0.00000000000E+00 -0.16382499695E+04  0.16382499695E+04  0.25500000920E-02 0. -1.
    10030    2    1    2    0    0  0.00000000000E+00  0.00000000000E+00 -0.14873063703E+04  0.17891935688E+04  0.99455185263E+03 0.  0.
        5    1    3    3  502    0 -0.36173565712E+03 -0.18592309008E+03 -0.12583077485E+04  0.13224146706E+04  0.46999998093E+01 0. -1.
       -5    1    3    3    0  502  0.36173565712E+03  0.18592309008E+03 -0.22899862182E+03  0.46677889825E+03  0.46999998093E+01 0.  1.
</event>
<event>
 5   0  0.9741826E-04  0.1000774E+04  0.7818609E-02  0.9307697E-01
        2   -1    0    0  501    0  0.00000000000E+00  0.00000000000E+00  0.14376361059E+04  0.14376361059E+04  0.25500000920E-02 0.  1.
       -2   -1    0    0    0  501  0.00000000000E+00  0.00000000000E+00 -0.17416576179E+03  0.17416576181E+03  0.25500000920E-02 0. -1.
    10030    2    1    2    0    0  0.00000000000E+00  0.00000000000E+00  0.12634703441E+04  0.16118018677E+04  0.10007736759E+04 0.  0.
        3    1    3    3  502    0 -0.34231556901E+03 -0.25350935870E+03  0.20886064318E+03  0.47441513699E+03  0.10100000352E+00 0. -1.
       -3    1    3    3    0  502  0.34231556901E+03  0.25350935870E+03  0.10546097009E+04  0.11373867307E+04  0.10100000352E+00 0.  1.
</event>
<event>
 5   0  0.9674819E-04  0.1000909E+04  0.7818609E-02  0.9307549E-01
       -2   -1    0    0    0  501  0.00000000000E+00  0.00000000000E+00  0.93033260026E+03  0.93033260026E+03  0.25500000920E-02 0. -1.
        2   -1    0    0  501    0  0.00000000000E+00  0.00000000000E+00 -0.26920961049E+03  0.26920961050E+03  0.25500000920E-02 0.  1.
    10030    2    1    2    0    0  0.00000000000E+00  0.00000000000E+00  0.66112298977E+03  0.11995422108E+04  0.10009085412E+04 0.  0.
        4    1    3    3  502    0 -0.30144938963E+03 -0.21107389261E+03  0.73702794186E+03  0.82379349513E+03  0.12699999809E+01 0. -1.
       -4    1    3    3    0  502  0.30144938963E+03  0.21107389261E+03 -0.75904952083E+02  0.37574871563E+03  0.12699999809E+01 0.  1.
</event>
<event>
 5   0  0.9741826E-04  0.9885353E+03  0.7818609E-02  0.9321209E-01
        2   -1    0    0  501    0  0.00000000000E+00  0.00000000000E+00  0.19245499481E+04  0.19245499481E+04  0.25500000920E-02 0.  1.
       -2   -1    0    0    0  501  0.00000000000E+00  0.00000000000E+00 -0.12693904474E+03  0.12693904477E+03  0.25500000920E-02 0. -1.
    10030    2    1    2    0    0  0.00000000000E+00  0.00000000000E+00  0.17976109033E+04  0.20514889929E+04  0.98853534484E+03 0.  0.
        3    1    3    3  502    0 -0.13475544685E+03  0.43001208648E+03  0.13202005049E+04  0.13949906123E+04  0.10100000352E+00 0. -1.
       -3    1    3    3    0  502  0.13475544685E+03 -0.43001208648E+03  0.47741039846E+03  0.65649838060E+03  0.10100000352E+00 0.  1.
</event>
<event>
 5   0  0.5960102E-04  0.1009177E+04  0.7818609E-02  0.9298537E-01
        1   -1    0    0  501    0  0.00000000000E+00  0.00000000000E+00  0.10653778027E+03  0.10653778039E+03  0.50400001928E-02 0.  1.
       -1   -1    0    0    0  501  0.00000000000E+00  0.00000000000E+00 -0.23898504685E+04  0.23898504685E+04  0.50400001928E-02 0. -1.
    10030    2    1    2    0    0  0.00000000000E+00  0.00000000000E+00 -0.22833126882E+04  0.24963882489E+04  0.10091766233E+04 0.  0.
        5    1    3    3  502    0  0.39057936570E+02  0.17684601417E+03  0.23309587602E+02  0.18266215265E+03  0.46999998093E+01 0.  1.
       -5    1    3    3    0  502 -0.39057936570E+02 -0.17684601417E+03 -0.23066222758E+04  0.23137260963E+04  0.46999998093E+01 0. -1.
</event>
<event>
 5   0  0.5768102E-04  0.9985849E+03  0.7818609E-02  0.9310098E-01
        1   -1    0    0  501    0  0.00000000000E+00  0.00000000000E+00  0.18887203469E+04  0.18887203469E+04  0.50400001928E-02 0.  1.
       -1   -1    0    0    0  501  0.00000000000E+00  0.00000000000E+00 -0.13199039442E+03  0.13199039451E+03  0.50400001928E-02 0. -1.
    10030    2    1    2    0    0  0.00000000000E+00  0.00000000000E+00  0.17567299525E+04  0.20207107414E+04  0.99858488599E+03 0.  0.
        4    1    3    3  502    0  0.19274106430E+03 -0.45839312000E+03  0.96926740385E+03  0.10893825239E+04  0.12699999809E+01 0. -1.
       -4    1    3    3    0  502 -0.19274106430E+03  0.45839312000E+03  0.78746254863E+03  0.93132821750E+03  0.12699999809E+01 0.  1.
</event>
<event>
 5   0  0.5960102E-04  0.1000026E+04  0.7818609E-02  0.9308517E-01
        1   -1    0    0  501    0  0.00000000000E+00  0.00000000000E+00  0.17562807869E+04  0.17562807869E+04  0.50400001928E-02 0. -1.
       -1   -1    0    0    0  501  0.00000000000E+00  0.00000000000E+00 -0.14235356772E+03  0.14235356781E+03  0.50400001928E-02 0.  1.
    10030    2    1    2    0    0  0.00000000000E+00  0.00000000000E+00  0.16139272192E+04  0.18986343547E+04  0.10000256717E+04 0.  0.
        5    1    3    3  502    0 -0.34513960286E+01 -0.28728993973E+03  0.30065428009E+02  0.28891770726E+03  0.46999998093E+01 0.  1.
       -5    1    3    3    0  502  0.34513960286E+01  0.28728993973E+03  0.15838617912E+04  0.16097166475E+04  0.46999998093E+01 0. -1.
</event>
<event>
 5   0  0.5768102E-04  0.9996722E+03  0.7818609E-02  0.9308904E-01
       -1   -1    0    0    0  501  0.00000000000E+00  0.00000000000E+00  0.17934867933E+03  0.17934867941E+03  0.50400001928E-02 0.  1.
        1   -1    0    0  501    0  0.00000000000E+00  0.00000000000E+00 -0.13930190182E+04  0.13930190182E+04  0.50400001928E-02 0. -1.
    10030    2    1    2    0    0  0.00000000000E+00  0.00000000000E+00 -0.12136703389E+04  0.15723676976E+04  0.99967218881E+03 0.  0.
        4    1    3    3  502    0  0.10907160238E+02 -0.23831143026E+03 -0.12976930829E+04  0.13194393711E+04  0.12699999809E+01 0. -1.
       -4    1    3    3    0  502 -0.10907160238E+02  0.23831143026E+03  0.84022743973E+02  0.25292832649E+03  0.12699999809E+01 0.  1.
</event>
<event>
 5   0  0.9741826E-04  0.1002207E+04  0.7818609E-02  0.9306127E-01
       -2   -1    0    0    0  501  0.00000000000E+00  0.00000000000E+00  0.29881258771E+03  0.29881258772E+03  0.25500000920E-02 0.  1.
        2   -1    0    0  501    0  0.00000000000E+00  0.00000000000E+00 -0.84034185261E+03  0.84034185262E+03  0.25500000920E-02 0. -1.
    10030    2    1    2    0    0  0.00000000000E+00  0.00000000000E+00 -0.54152926490E+03  0.11391544403E+04  0.10022070116E+04 0.  0.
        3    1    3    3  502    0  0.41330396738E+03 -0.10375571392E+03 -0.57045849729E+03  0.71204517058E+03  0.10100000352E+00 0. -1.
       -3    1    3    3    0  502 -0.41330396738E+03  0.10375571392E+03  0.28929232383E+02  0.42710926975E+03  0.10100000352E+00 0.  1.
</event>
<event>
 5   0  0.5758786E-04  0.1001763E+04  0.7818609E-02  0.9306614E-01
        1   -1    0    0  501    0  0.00000000000E+00  0.00000000000E+00  0.24091290051E+03  0.24091290056E+03  0.50400001928E-02 0. -1.
       -1   -1    0    0    0  501  0.00000000000E+00  0.00000000000E+00 -0.10413811294E+04  0.10413811294E+04  0.50400001928E-02 0.  1.
    10030    2    1    2    0    0  0.00000000000E+00  0.00000000000E+00 -0.80046822885E+03  0.12822940299E+04  0.10017627433E+04 0.  0.
        3    1    3    3  502    0  0.50070732367E+03  0.10716113413E+02 -0.39036211143E+03  0.63498444650E+03  0.10100000352E+00 0. -1.
       -3    1    3    3    0  502 -0.50070732367E+03 -0.10716113413E+02 -0.41010611742E+03  0.64730958343E+03  0.10100000352E+00 0.  1.
</event>
<event>
 5   0  0.1020150E-03  0.1000268E+04  0.7818609E-02  0.9308251E-01
       -2   -1    0    0    0  501  0.00000000000E+00  0.00000000000E+00  0.15537120523E+03  0.15537120525E+03  0.25500000920E-02 0.  1.
        2   -1    0    0  501    0  0.00000000000E+00  0.00000000000E+00 -0.16099116812E+04  0.16099116812E+04  0.25500000920E-02 0. -1.
    10030    2    1    2    0    0  0.00000000000E+00  0.00000000000E+00 -0.14545404760E+04  0.17652828865E+04  0.10002678006E+04 0.  0.
        5    1    3    3  502    0  0.32872476069E+03  0.35559373697E+03 -0.94772996800E+03  0.10642936889E+04  0.46999998093E+01 0.  1.
       -5    1    3    3    0  502 -0.32872476069E+03 -0.35559373697E+03 -0.50681050800E+03  0.70098919755E+03  0.46999998093E+01 0. -1.
</event>
<event>
 5   0  0.9741826E-04  0.1000564E+04  0.7818609E-02  0.9307927E-01
        2   -1    0    0  501    0  0.00000000000E+00  0.00000000000E+00  0.48501313451E+03  0.48501313451E+03  0.25500000920E-02 0. -1.
       -2   -1    0    0    0  501  0.00000000000E+00  0.00000000000E+00 -0.51603142999E+03  0.51603142999E+03  0.25500000920E-02 0.  1.
    10030    2    1    2    0    0  0.00000000000E+00  0.00000000000E+00 -0.31018295480E+02  0.10010445645E+04  0.10005638838E+04 0.  0.
        3    1    3    3  502    0 -0.48642531913E+03  0.10766773232E+03 -0.61138946726E+02  0.50193616395E+03  0.10100000352E+00 0. -1.
       -3    1    3    3    0  502  0.48642531913E+03 -0.10766773232E+03  0.30120651245E+02  0.49910840056E+03  0.10100000352E+00 0.  1.
</event>
<event>
 5   0  0.5758786E-04  0.1000367E+04  0.7818609E-02  0.9308143E-01
        1   -1    0    0  501    0  0.00000000000E+00  0.00000000000E+00  0.74004717665E+03  0.74004717667E+03  0.50400001928E-02 0. -1.
       -1   -1    0    0    0  501  0.00000000000E+00  0.00000000000E+00 -0.33806419841E+03  0.33806419845E+03  0.50400001928E-02 0.  1.
    10030    2    1    2    0    0  0.00000000000E+00  0.00000000000E+00  0.40198297824E+03  0.10781113751E+04  0.10003668439E+04 0.  0.
        3    1    3    3  502    0 -0.24906927308E+03 -0.24864773100E+03  0.58403160743E+03  0.68187544728E+03  0.10100000352E+00 0. -1.
       -3    1    3    3    0  502  0.24906927308E+03  0.24864773100E+03 -0.18204862919E+03  0.39623592784E+03  0.10100000352E+00 0.  1.
</event>
<event>
 5   0  0.9674819E-04  0.1000085E+04  0.7818609E-02  0.9308451E-01
        2   -1    0    0  501    0  0.00000000000E+00  0.00000000000E+00  0.94906108555E+03  0.94906108555E+03  0.25500000920E-02 0.  1.
       -2   -1    0    0    0  501  0.00000000000E+00  0.00000000000E+00 -0.26346327476E+03  0.26346327478E+03  0.25500000920E-02 0. -1.
    10030    2    1    2    0    0  0.00000000000E+00  0.00000000000E+00  0.68559781078E+03  0.12125243603E+04  0.10000854795E+04 0.  0.
        4    1    3    3  502    0 -0.38071825712E+03 -0.32261736229E+03  0.30421467734E+03  0.58444549495E+03  0.12699999809E+01 0.  1.
       -4    1    3    3    0  502  0.38071825712E+03  0.32261736229E+03  0.38138313345E+03  0.62807886538E+03  0.12699999809E+01 0. -1.
</event>
<event>
 5   0  0.3854625E-04  0.1001215E+04  0.7818609E-02  0.9307213E-01
        4   -1    0    0  501    0  0.00000000000E+00  0.00000000000E+00  0.65644338998E+03  0.65644461849E+03  0.12699999809E+01 0.  1.
       -4   -1    0    0    0  501  0.00000000000E+00  0.00000000000E+00 -0.38176336001E+03  0.38176547244E+03  0.12699999809E+01 0. -1.
    10030    2    1    2    0    0  0.00000000000E+00  0.00000000000E+00  0.27468002996E+03  0.10382100909E+04  0.10012147992E+04 0.  0.
        2    1    3    3  502    0  0.84582988755E+02  0.48287867081E+03  0.24248533279E+03  0.54692342182E+03  0.25500000920E-02 0.  1.
       -2    1    3    3    0  502 -0.84582988755E+02 -0.48287867081E+03  0.32194697172E+02  0.49128666911E+03  0.25500000920E-02 0. -1.
</event>
<event>
 5   0  0.5888774E-04  0.9976064E+03  0.7818609E-02  0.9311174E-01
       -1   -1    0    0    0  501  0.00000000000E+00  0.00000000000E+00  0.33170979130E+03  0.33170979134E+03  0.50400001928E-02 0. -1.
        1   -1    0    0  501    0  0.00000000000E+00  0.00000000000E+00 -0.75006719376E+03  0.75006719377E+03  0.50400001928E-02 0.  1.
    10030    2    1    2    0    0  0.00000000000E+00  0.00000000000E+00 -0.41835740245E+03  0.10817769851E+04  0.99760640000E+03 0.  0.
        2    1    3    3  502    0 -0.28385782304E+03 -0.26428427069E+03  0.13094662189E+03  0.40935126386E+03  0.25500000920E-02 0. -1.
       -2    1    3    3    0  502  0.28385782304E+03  0.26428427069E+03 -0.54930402434E+03  0.67242572125E+03  0.25500000920E-02 0.  1.
</event>
<event>
 5   0  0.5768102E-04  0.9955370E+03  0.7818609E-02  0.9313453E-01
        1   -1    0    0  501    0  0.00000000000E+00  0.00000000000E+00  0.86182578016E+03  0.86182578017E+03  0.50400001928E-02 0. -1.
       -1   -1    0    0    0  501  0.00000000000E+00  0.00000000000E+00 -0.28749834386E+03  0.28749834391E+03  0.50400001928E-02 0.  1.
    10030    2    1    2    0    0  0.00000000000E+00  0.00000000000E+00  0.57432743629E+03  0.11493241241E+04  0.99553700991E+03 0.  0.
        4    1    3    3  502    0 -0.17954865519E+03  0.24032298005E+03 -0.17141060745E+03  0.34550841316E+03  0.12699999809E+01 0.  1.
       -4    1    3    3    0  502  0.17954865519E+03 -0.24032298005E+03  0.74573804374E+03  0.80381571091E+03  0.12699999809E+01 0. -1.
</event>
<event>
 5   0  0.5758786E-04  0.9964882E+03  0.7818609E-02  0.9312405E-01
       -1   -1    0    0    0  501  0.00000000000E+00  0.00000000000E+00  0.18798480968E+03  0.18798480975E+03  0.50400001928E-02 0.  1.
        1   -1    0    0  501    0  0.00000000000E+00  0.00000000000E+00 -0.13205703356E+04  0.13205703356E+04  0.50400001928E-02 0. -1.
    10030    2    1    2    0    0  0.00000000000E+00  0.00000000000E+00 -0.11325855259E+04  0.15085551454E+04  0.99648816002E+03 0.  0.
        3    1    3    3  502    0  0.48631316833E+03 -0.89328921765E+02 -0.47337755437E+03  0.68451915469E+03  0.10100000352E+00 0.  1.
       -3    1    3    3    0  502 -0.48631316833E+03  0.89328921765E+02 -0.65920797156E+03  0.82403599067E+03  0.10100000352E+00 0. -1.
</event>
<event>
 5   0  0.5960102E-04  0.9989238E+03  0.7818609E-02  0.9309726E-01
        1   -1    0    0  501    0  0.00000000000E+00  0.00000000000E+00  0.41599204634E+03  0.41599204638E+03  0.50400001928E-02 0.  1.
       -1   -1    0    0    0  501  0.00000000000E+00  0.00000000000E+00 -0.59968022360E+03  0.59968022362E+03  0.50400001928E-02 0. -1.
    10030    2    1    2    0    0  0.00000000000E+00  0.00000000000E+00 -0.18368817725E+03  0.10156722700E+04  0.99892382771E+03 0.  0.
        5    1    3    3  502    0 -0.16628021249E+03 -0.16965255928E+03  0.35484980769E+03  0.42704985183E+03  0.46999998093E+01 0.  1.
       -5    1    3    3    0  502  0.16628021249E+03  0.16965255928E+03 -0.53853798494E+03  0.58862241816E+03  0.46999998093E+01 0. -1.
</event>
<event>
 5   0  0.9741826E-04  0.1000699E+04  0.7818609E-02  0.9307779E-01
        2   -1    0    0  501    0  0.00000000000E+00  0.00000000000E+00  0.11011508311E+04  0.11011508311E+04  0.25500000920E-02 0.  1.
       -2   -1    0    0    0  501  0.00000000000E+00  0.00000000000E+00 -0.22735261139E+03  0.22735261141E+03  0.25500000920E-02 0. -1.
    10030    2    1    2    0    0  0.00000000000E+00  0.00000000000E+00  0.87379821968E+03  0.13285034425E+04  0.10006987898E+04 0.  0.
        3    1    3    3  502    0 -0.28430272659E+03 -0.38791901063E+03  0.25371141823E+03  0.54376345325E+03  0.10100000352E+00 0.  1.
       -3    1    3    3    0  502  0.28430272659E+03  0.38791901063E+03  0.62008680145E+03  0.78473998923E+03  0.10100000352E+00 0. -1.
</event>
<event>
 5   0  0.5826939E-04  0.1001545E+04  0.7818609E-02  0.9306852E-01
        1   -1    0    0  501    0  0.00000000000E+00  0.00000000000E+00  0.18371244599E+04  0.18371244599E+04  0.50400001928E-02 0. -1.
       -1   -1    0    0    0  501  0.00000000000E+00  0.00000000000E+00 -0.13650305806E+03  0.13650305815E+03  0.50400001928E-02 0.  1.
    10030    2    1    2    0    0  0.00000000000E+00  0.00000000000E+00  0.17006214019E+04  0.19736275181E+04  0.10015450203E+04 0.  0.
        1    1    3    3  502    0 -0.12713587658E+03 -0.18444727040E+03  0.17328784119E+04  0.17472984625E+04  0.50400001928E-02 0. -1.
       -1    1    3    3    0  502  0.12713587658E+03  0.18444727040E+03 -0.32257010021E+02  0.22632905557E+03  0.50400001928E-02 0.  1.
</event>
<event>
 5   0  0.1006749E-03  0.1000448E+04  0.7818609E-02  0.9308054E-01
       -2   -1    0    0    0  501  0.00000000000E+00  0.00000000000E+00  0.97576634039E+03  0.97576634040E+03  0.25500000920E-02 0.  1.
        2   -1    0    0  501    0  0.00000000000E+00  0.00000000000E+00 -0.25643838971E+03  0.25643838972E+03  0.25500000920E-02 0. -1.
    10030    2    1    2    0    0  0.00000000000E+00  0.00000000000E+00  0.71932795068E+03  0.12322047301E+04  0.10004477979E+04 0.  0.
        1    1    3    3  502    0 -0.13718946203E+03 -0.32165018491E+03 -0.80889540149E+02  0.35891908235E+03  0.50400001928E-02 0. -1.
       -1    1    3    3    0  502  0.13718946203E+03  0.32165018491E+03  0.80021749083E+03  0.87328564777E+03  0.50400001928E-02 0.  1.
</event>
<event>
 5   0  0.5758786E-04  0.1000595E+04  0.7818609E-02  0.9307892E-01
        1   -1    0    0  501    0  0.00000000000E+00  0.00000000000E+00  0.30202035269E+03  0.30202035273E+03  0.50400001928E-02 0.  1.
       -1   -1    0    0    0  501  0.00000000000E+00  0.00000000000E+00 -0.82874440191E+03  0.82874440193E+03  0.50400001928E-02 0. -1.
    10030    2    1    2    0    0  0.00000000000E+00  0.00000000000E+00 -0.52672404923E+03  0.11307647547E+04  0.10005951761E+04 0.  0.
        3    1    3    3  502    0  0.12977116744E+03  0.23971715751E+03  0.21072852972E+03  0.34454520014E+03  0.10100000352E+00 0.  1.
       -3    1    3    3    0  502 -0.12977116744E+03 -0.23971715751E+03 -0.73745257894E+03  0.78621955451E+03  0.10100000352E+00 0. -1.
</event>
<event>
 5   0  0.5888774E-04  0.1002058E+04  0.7818609E-02  0.9306290E-01
        1   -1    0    0  501    0  0.00000000000E+00  0.00000000000E+00  0.58478853958E+03  0.58478853960E+03  0.50400001928E-02 0.  1.
       -1   -1    0    0    0  501  0.00000000000E+00  0.00000000000E+00 -0.42926640351E+03  0.42926640354E+03  0.50400001928E-02 0. -1.
    10030    2    1    2    0    0  0.00000000000E+00  0.00000000000E+00  0.15552213607E+03  0.10140549431E+04  0.10020580287E+04 0.  0.
        2    1    3    3  502    0 -0.29341066271E+02  0.49408748984E+03 -0.93061079508E+00  0.49495879811E+03  0.25500000920E-02 0.  1.
       -2    1    3    3    0  502  0.29341066271E+02 -0.49408748984E+03  0.15645274686E+03  0.51909614503E+03  0.25500000920E-02 0. -1.
</event>
<event>
 5   0  0.5960102E-04  0.9996465E+03  0.7818609E-02  0.9308933E-01
       -1   -1    0    0    0  501  0.00000000000E+00  0.00000000000E+00  0.19928011970E+03  0.19928011977E+03  0.50400001928E-02 0.  1.
        1   -1    0    0  501    0  0.00000000000E+00  0.00000000000E+00 -0.12536287382E+04  0.12536287382E+04  0.50400001928E-02 0. -1.
    10030    2    1    2    0    0  0.00000000000E+00  0.00000000000E+00 -0.10543486185E+04  0.14529088580E+04  0.99964650765E+03 0.  0.
        5    1    3    3  502    0  0.39968571437E+03 -0.62317450837E+02 -0.95382022885E+03  0.10360633445E+04  0.46999998093E+01 0. -1.
       -5    1    3    3    0  502 -0.39968571437E+03  0.62317450837E+02 -0.10052838966E+03  0.41684551344E+03  0.46999998093E+01 0.  1.
</event>
<event>
 5   0  0.1020150E-03  0.9990810E+03  0.7818609E-02  0.9309553E-01
        2   -1    0    0  501    0  0.00000000000E+00  0.00000000000E+00  0.33967363138E+03  0.33967363139E+03  0.25500000920E-02 0. -1.
       -2   -1    0    0    0  501  0.00000000000E+00  0.00000000000E+00 -0.73464843957E+03  0.73464843958E+03  0.25500000920E-02 0.  1.
    10030    2    1    2    0    0  0.00000000000E+00  0.00000000000E+00 -0.39497480819E+03  0.10743220710E+04  0.99908098424E+03 0.  0.
        5    1    3    3  502    0 -0.49280685931E+03  0.48665518665E+02 -0.26793196558E+03  0.56305999811E+03  0.46999998093E+01 0.  1.
       -5    1    3    3    0  502  0.49280685931E+03 -0.48665518665E+02 -0.12704284260E+03  0.51126207286E+03  0.46999998093E+01 0. -1.
</event>
<event>
 5   0  0.1020150E-03  0.9998565E+03  0.7818609E-02  0.9308702E-01
        2   -1    0    0  501    0  0.00000000000E+00  0.00000000000E+00  0.19762802694E+04  0.19762802694E+04  0.25500000920E-02 0.  1.
       -2   -1    0    0    0  501  0.00000000000E+00  0.00000000000E+00 -0.12646397188E+03  0.12646397191E+03  0.25500000920E-02 0. -1.
    10030    2    1    2    0    0  0.00000000000E+00  0.00000000000E+00  0.18498162975E+04  0.21027442413E+04  0.99985649461E+03 0.  0.
        5    1    3    3  502    0  0.37243416562E+03 -0.30897742190E+03  0.11886866961E+04  0.12834221467E+04  0.46999998093E+01 0.  1.
       -5    1    3    3    0  502 -0.37243416562E+03  0.30897742190E+03  0.66112960139E+03  0.81932209466E+03  0.46999998093E+01 0. -1.
</event>
<event>
 5   0  0.1020150E-03  0.1002983E+04  0.7818609E-02  0.9305280E-01
        2   -1    0    0  501    0  0.00000000000E+00  0.00000000000E+00  0.55148025518E+03  0.55148025519E+03  0.25500000920E-02 0.  1.
       -2   -1    0    0    0  501  0.00000000000E+00  0.00000000000E+00 -0.45603350711E+03  0.45603350711E+03  0.25500000920E-02 0. -1.
    10030    2    1    2    0    0  0.00000000000E+00  0.00000000000E+00  0.95446748073E+02  0.10075137623E+04  0.10029825021E+04 0.  0.
        5    1    3    3  502    0  0.11806412382E+01 -0.49721057149E+03 -0.17775796373E+02  0.49755182168E+03  0.46999998093E+01 0. -1.
       -5    1    3    3    0  502 -0.11806412382E+01  0.49721057149E+03  0.11322254445E+03  0.50996194063E+03  0.46999998093E+01 0.  1.
</event>
<event>
 5   0  0.5768102E-04  0.9982331E+03  0.7818609E-02  0.9310485E-01
        1   -1    0    0  501    0  0.00000000000E+00  0.00000000000E+00  0.53647296855E+03  0.53647296858E+03  0.50400001928E-02 0.  1.
       -1   -1    0    0    0  501  0.00000000000E+00  0.00000000000E+00 -0.46436140266E+03  0.46436140268E+03  0.50400001928E-02 0. -1.
    10030    2    1    2    0    0  0.00000000000E+00  0.00000000000E+00  0.72111565898E+02  0.10008343713E+04  0.99823311945E+03 0.  0.
        4    1    3    3  502    0  0.10323199748E+03  0.30354976119E+03 -0.34745429138E+03  0.47278472936E+03  0.12699999809E+01 0. -1.
       -4    1    3    3    0  502 -0.10323199748E+03 -0.30354976119E+03  0.41956585727E+03  0.52804964190E+03  0.12699999809E+01 0.  1.
</event>
<event>
 5   0  0.1006006E-03  0.9992450E+03  0.7818609E-02  0.9309373E-01
       -2   -1    0    0    0  501  0.00000000000E+00  0.00000000000E+00  0.21958806407E+03  0.21958806409E+03  0.25500000920E-02 0. -1.
        2   -1    0    0  501    0  0.00000000000E+00  0.00000000000E+00 -0.11367769039E+04  0.11367769039E+04  0.25500000920E-02 0.  1.
    10030    2    1    2    0    0  0.00000000000E+00  0.00000000000E+00 -0.91718883987E+03  0.13563649680E+04  0.99924499425E+03 0.  0.
        2    1    3    3  502    0 -0.16653826639E+03 -0.13406443158E+03 -0.10715492941E+04  0.10926692801E+04  0.25500000920E-02 0.  1.
       -2    1    3    3    0  502  0.16653826639E+03  0.13406443158E+03  0.15436045424E+03  0.26369568792E+03  0.25500000920E-02 0. -1.
</event>
<event>
 5   0  0.9741826E-04  0.9995165E+03  0.7818609E-02  0.9309075E-01
       -2   -1    0    0    0  501  0.00000000000E+00  0.00000000000E+00  0.61079028358E+03  0.61079028358E+03  0.25500000920E-02 0.  1.
        2   -1    0    0  501    0  0.00000000000E+00  0.00000000000E+00 -0.40891010142E+03  0.40891010143E+03  0.25500000920E-02 0. -1.
    10030    2    1    2    0    0  0.00000000000E+00  0.00000000000E+00  0.20188018216E+03  0.10197003850E+04  0.99951651675E+03 0.  0.
        3    1    3    3  502    0 -0.14657229502E+03 -0.41143403954E+03  0.34873775308E+03  0.55890914931E+03  0.10100000352E+00 0.  1.
       -3    1    3    3    0  502  0.14657229502E+03  0.41143403954E+03 -0.14685757093E+03  0.46079123570E+03  0.10100000352E+00 0. -1.
</event>
<event>
 5   0  0.5826939E-04  0.9981348E+03  0.7818609E-02  0.9310593E-01
        1   -1    0    0  501    0  0.00000000000E+00  0.00000000000E+00  0.71249961262E+03  0.71249961264E+03  0.50400001928E-02 0. -1.
       -1   -1    0    0    0  501  0.00000000000E+00  0.00000000000E+00 -0.34956966765E+03  0.34956966769E+03  0.50400001928E-02 0.  1.
    10030    2    1    2    0    0  0.00000000000E+00  0.00000000000E+00  0.36292994497E+03  0.10620692803E+04  0.99813476608E+03 0.  0.
        1    1    3    3  502    0  0.25872972021E+03 -0.17150455564E+03 -0.23435198656E+03  0.38894181359E+03  0.50400001928E-02 0.  1.
       -1    1    3    3    0  502 -0.25872972021E+03  0.17150455564E+03  0.59728193152E+03  0.67312746674E+03  0.50400001928E-02 0. -1.
</event>
<event>
 5   0  0.9741826E-04  0.1002115E+04  0.7818609E-02  0.9306228E-01
       -2   -1    0    0    0  501  0.00000000000E+00  0.00000000000E+00  0.23736001174E+03  0.23736001176E+03  0.25500000920E-02 0.  1.
        2   -1    0    0  501    0  0.00000000000E+00  0.00000000000E+00 -0.10577129224E+04  0.10577129224E+04  0.25500000920E-02 0. -1.
    10030    2    1    2    0    0  0.00000000000E+00  0.00000000000E+00 -0.82035291068E+03  0.12950729342E+04  0.10021152662E+04 0.  0.
        3    1    3    3  502    0  0.23949157672E+03  0.39654418920E+03 -0.16342684062E+03  0.49123502700E+03  0.10100000352E+00 0.  1.
       -3    1    3    3    0  502 -0.23949157672E+03 -0.39654418920E+03 -0.65692607006E+03  0.80383790719E+03  0.10100000352E+00 0. -1.
</event>
<event>
 5   0  0.5768102E-04  0.9985060E+03  0.7818609E-02  0.9310185E-01
       -1   -1    0    0    0  501  0.00000000000E+00  0.00000000000E+00  0.12653895447E+03  0.12653895457E+03  0.50400001928E-02 0. -1.
        1   -1    0    0  501    0  0.00000000000E+00  0.00000000000E+00 -0.19697774362E+04  0.19697774362E+04  0.50400001928E-02 0.  1.
    10030    2    1    2    0    0  0.00000000000E+00  0.00000000000E+00 -0.18432384817E+04  0.20963163908E+04  0.99850603890E+03 0.  0.
        4    1    3    3  502    0 -0.10809302201E+03  0.40622953431E+03 -0.35614717005E+03  0.55095277075E+03  0.12699999809E+01 0. -1.
       -4    1    3    3    0  502  0.10809302201E+03 -0.40622953431E+03 -0.14870913117E+04  0.15453636200E+04  0.12699999809E+01 0.  1.
</event>
<event>
 5   0  0.1020150E-03  0.9988040E+03  0.7818609E-02  0.9309858E-01
        2   -1    0    0  501    0  0.00000000000E+00  0.00000000000E+00  0.78017745361E+03  0.78017745362E+03  0.25500000920E-02 0.  1.
       -2   -1    0    0    0  501  0.00000000000E+00  0.00000000000E+00 -0.31967386496E+03  0.31967386497E+03  0.25500000920E-02 0. -1.
    10030    2    1    2    0    0  0.00000000000E+00  0.00000000000E+00  0.46050358865E+03  0.10998513186E+04  0.99880396867E+03 0.  0.
        5    1    3    3  502    0 -0.49261558216E+03 -0.35922211988E+02  0.14918504831E+03  0.51598331924E+03  0.46999998093E+01 0.  1.
       -5    1    3    3    0  502  0.49261558216E+03  0.35922211988E+02  0.31131854034E+03  0.58386799934E+03  0.46999998093E+01 0. -1.
</event>
<event>
 5   0  0.5758786E-04  0.9995556E+03  0.7818609E-02  0.9309032E-01
        1   -1    0    0  501    0  0.00000000000E+00  0.00000000000E+00  0.20290603039E+03  0.20290603046E+03  0.50400001928E-02 0. -1.
       -1   -1    0    0    0  501  0.00000000000E+00  0.00000000000E+00 -0.12310025818E+04  0.12310025818E+04  0.50400001928E-02 0.  1.
    10030    2    1    2    0    0  0.00000000000E+00  0.00000000000E+00 -0.10280965514E+04  0.14339086122E+04  0.99955559590E+03 0.  0.
        3    1    3    3  502    0 -0.25697234146E+03 -0.13881828432E+03 -0.10958315262E+04  0.11340864360E+04  0.10100000352E+00 0.  1.
       -3    1    3    3    0  502  0.25697234146E+03  0.13881828432E+03  0.67734974823E+02  0.29982217622E+03  0.10100000352E+00 0. -1.
</event>
<event>
 5   0  0.1006006E-03  0.9996713E+03  0.7818609E-02  0.9308905E-01
       -2   -1    0    0    0  501  0.00000000000E+00  0.00000000000E+00  0.50426180003E+03  0.50426180003E+03  0.25500000920E-02 0. -1.
        2   -1    0    0  501    0  0.00000000000E+00  0.00000000000E+00 -0.49544839045E+03  0.49544839046E+03  0.25500000920E-02 0.  1.
    10030    2    1    2    0    0  0.00000000000E+00  0.00000000000E+00  0.88134095758E+01  0.99971019049E+03  0.99967134038E+03 0.  0.
        2    1    3    3  502    0  0.91013209274E+02 -0.74338264299E+02  0.49025077551E+03  0.50413827934E+03  0.25500000920E-02 0. -1.
       -2    1    3    3    0  502 -0.91013209274E+02  0.74338264299E+02 -0.48143736593E+03  0.49557191115E+03  0.25500000920E-02 0.  1.
</event>
<event>
 5   0  0.5960102E-04  0.1000146E+04  0.7818609E-02  0.9308385E-01
       -1   -1    0    0    0  501  0.00000000000E+00  0.00000000000E+00  0.25312415563E+03  0.25312415568E+03  0.50400001928E-02 0. -1.
        1   -1    0    0  501    0  0.00000000000E+00  0.00000000000E+00 -0.98794588345E+03  0.98794588347E+03  0.50400001928E-02 0.  1.
    10030    2    1    2    0    0  0.00000000000E+00  0.00000000000E+00 -0.73482172783E+03  0.12410700391E+04  0.10001459245E+04 0.  0.
        5    1    3    3  502    0 -0.14363878651E+03 -0.42043514441E+03 -0.65214842070E+03  0.78912449225E+03  0.46999998093E+01 0.  1.
       -5    1    3    3    0  502  0.14363878651E+03  0.42043514441E+03 -0.82673307123E+02  0.45194554689E+03  0.46999998093E+01 0. -1.
</event>
<event>
 5   0  0.5888774E-04  0.1001312E+04  0.7818609E-02  0.9307107E-01
        1   -1    0    0  501    0  0.00000000000E+00  0.00000000000E+00  0.22118059253E+03  0.22118059259E+03  0.50400001928E-02 0.  1.
       -1   -1    0    0    0  501  0.00000000000E+00  0.00000000000E+00 -0.11332663416E+04  0.11332663416E+04  0.50400001928E-02 0. -1.
    10030    2    1    2    0    0  0.00000000000E+00  0.00000000000E+00 -0.91208574908E+03  0.13544469342E+04  0.10013121810E+04 0.  0.
        2    1    3    3  502    0 -0.37676166800E+03  0.25969867915E+03 -0.18126806983E+03  0.49218987350E+03  0.25500000920E-02 0.  1.
       -2    1    3    3    0  502  0.37676166800E+03 -0.25969867915E+03 -0.73081767925E+03  0.86225706071E+03  0.25500000920E-02 0. -1.
</event>
<event>
 5   0  0.5960102E-04  0.9939339E+03  0.7818609E-02  0.9315223E-01
        1   -1    0    0  501    0  0.00000000000E+00  0.00000000000E+00  0.76195905696E+03  0.76195905697E+03  0.50400001928E-02 0.  1.
       -1   -1    0    0    0  501  0.00000000000E+00  0.00000000000E+00 -0.32413311729E+03  0.32413311733E+03  0.50400001928E-02 0. -1.
    10030    2    1    2    0    0  0.00000000000E+00  0.00000000000E+00  0.43782593967E+03  0.10860921743E+04  0.99393393021E+03 0.  0.
        5    1    3    3  502    0 -0.45067340225E+03  0.15456162994E+03  0.37328567759E+03  0.60527687882E+03  0.46999998093E+01 0.  1.
       -5    1    3    3    0  502  0.45067340225E+03 -0.15456162994E+03  0.64540262080E+02  0.48081529548E+03  0.46999998093E+01 0. -1.
</event>
<event>
 5   0  0.1020150E-03  0.1000169E+04  0.7818609E-02  0.9308360E-01
       -2   -1    0    0    0  501  0.00000000000E+00  0.00000000000E+00  0.21690602673E+03  0.21690602675E+03  0.25500000920E-02 0.  1.
        2   -1    0    0  501    0  0.00000000000E+00  0.00000000000E+00 -0.11529622298E+04  0.11529622298E+04  0.25500000920E-02 0. -1.
    10030    2    1    2    0    0  0.00000000000E+00  0.00000000000E+00 -0.93605620303E+03  0.13698682565E+04  0.10001688982E+04 0.  0.
        5    1    3    3  502    0 -0.30895842360E+03  0.20501510306E+03 -0.84830378295E+01  0.37091852465E+03  0.46999998093E+01 0.  1.
       -5    1    3    3    0  502  0.30895842360E+03 -0.20501510306E+03 -0.92757316520E+03  0.99894973186E+03  0.46999998093E+01 0. -1.
</event>
<event>
 5   0  0.5960102E-04  0.1001611E+04  0.7818609E-02  0.9306780E-01
        1   -1    0    0  501    0  0.00000000000E+00  0.00000000000E+00  0.95573605624E+03  0.95573605626E+03  0.50400001928E-02 0. -1.
       -1   -1    0    0    0  501  0.00000000000E+00  0.00000000000E+00 -0.26242173898E+03  0.26242173903E+03  0.50400001928E-02 0.  1.
    10030    2    1    2    0    0  0.00000000000E+00  0.00000000000E+00  0.69331431726E+03  0.12181577953E+04  0.10016105389E+04 0.  0.
        5    1    3    3  502    0  0.32408758645E+03  0.37225728581E+03  0.24363442022E+03  0.55044352231E+03  0.46999998093E+01 0.  1.
       -5    1    3    3    0  502 -0.32408758645E+03 -0.37225728581E+03  0.44967989704E+03  0.66771427297E+03  0.46999998093E+01 0. -1.
</event>
<event>
 5   0  0.1006749E-03  0.1002056E+04  0.7818609E-02  0.9306293E-01
       -2   -1    0    0    0  501  0.00000000000E+00  0.00000000000E+00  0.65343869326E+03  0.65343869326E+03  0.25500000920E-02 0. -1.
        2   -1    0    0  501    0  0.00000000000E+00  0.00000000000E+00 -0.38416626320E+03  0.38416626321E+03  0.25500000920E-02 0.  1.
    10030    2    1    2    0    0  0.00000000000E+00  0.00000000000E+00  0.26927243005E+03  0.10376049565E+04  0.10020560883E+04 0.  0.
        1    1    3    3  502    0  0.20051315913E+03 -0.81546609820E+02 -0.33324965740E+03  0.39737980666E+03  0.50400001928E-02 0.  1.
       -1    1    3    3    0  502 -0.20051315913E+03  0.81546609820E+02  0.60252208745E+03  0.64022514981E+03  0.50400001928E-02 0. -1.
</event>
<event>
 5   0  0.1020150E-03  0.1000891E+04  0.7818609E-02  0.9307568E-01
        2   -1    0    0  501    0  0.00000000000E+00  0.00000000000E+00  0.10045926563E+04  0.10045926564E+04  0.25500000920E-02 0.  1.
       -2   -1    0    0    0  501  0.00000000000E+00  0.00000000000E+00 -0.24930097041E+03  0.24930097043E+03  0.25500000920E-02 0. -1.
    10030    2    1    2    0    0  0.00000000000E+00  0.00000000000E+00  0.75529168593E+03  0.12538936268E+04  0.10008914509E+04 0.  0.
        5    1    3    3  502    0 -0.48011644343E+03 -0.13187651548E+03  0.44054247104E+03  0.66483304173E+03  0.46999998093E+01 0.  1.
       -5    1    3    3    0  502  0.48011644343E+03  0.13187651548E+03  0.31474921490E+03  0.58906058505E+03  0.46999998093E+01 0. -1.
</event>
<event>
 5   0  0.1020150E-03  0.9988609E+03  0.7818609E-02  0.9309795E-01
        2   -1    0    0  501    0  0.00000000000E+00  0.00000000000E+00  0.99478150307E+03  0.99478150307E+03  0.25500000920E-02 0.  1.
       -2   -1    0    0    0  501  0.00000000000E+00  0.00000000000E+00 -0.25073927102E+03  0.25073927104E+03  0.25500000920E-02 0. -1.
    10030    2    1    2    0    0  0.00000000000E+00  0.00000000000E+00  0.74404223204E+03  0.12455207741E+04  0.99886092909E+03 0.  0.
        5    1    3    3  502    0  0.20399809312E+03 -0.43086605239E+03  0.18644911934E+03  0.51190442585E+03  0.46999998093E+01 0.  1.
       -5    1    3    3    0  502 -0.20399809312E+03  0.43086605239E+03  0.55759311270E+03  0.73361634826E+03  0.46999998093E+01 0. -1.
</event>
<event>
 5   0  0.5960102E-04  0.9904928E+03  0.7818609E-02  0.9319034E-01
        1   -1    0    0  501    0  0.00000000000E+00  0.00000000000E+00  0.15182407251E+04  0.15182407251E+04  0.50400001928E-02 0. -1.
       -1   -1    0    0    0  501  0.00000000000E+00  0.00000000000E+00 -0.16154814965E+03  0.16154814973E+03  0.50400001928E-02 0.  1.
    10030    2    1    2    0    0  0.00000000000E+00  0.00000000000E+00  0.13566925755E+04  0.16797888748E+04  0.99049276613E+03 0.  0.
        5    1    3    3  502    0  0.20403780046E+03 -0.15407941384E+03  0.13976110699E+04  0.14208133876E+04  0.46999998093E+01 0. -1.
       -5    1    3    3    0  502 -0.20403780046E+03  0.15407941384E+03 -0.40918494447E+02  0.25897548720E+03  0.46999998093E+01 0.  1.
</event>
<event>
 5   0  0.5960102E-04  0.9997946E+03  0.7818609E-02  0.9308770E-01
       -1   -1    0    0    0  501  0.00000000000E+00  0.00000000000E+00  0.29622151931E+03  0.29622151935E+03  0.50400001928E-02 0.  1.
        1   -1    0    0  501    0  0.00000000000E+00  0.00000000000E+00 -0.84361629851E+03  0.84361629853E+03  0.50400001928E-02 0. -1.
    10030    2    1    2    0    0  0.00000000000E+00  0.00000000000E+00 -0.54739477921E+03  0.11398378179E+04  0.99979458228E+03 0.  0.
        5    1    3    3  502    0  0.16683265802E+03  0.45445053385E+03 -0.41571205634E+03  0.63811991607E+03  0.46999998093E+01 0. -1.
       -5    1    3    3    0  502 -0.16683265802E+03 -0.45445053385E+03 -0.13168272287E+03  0.50171790181E+03  0.46999998093E+01 0.  1.
</event>
<event>
 5   0  0.1020150E-03  0.9997230E+03  0.7818609E-02  0.9308849E-01
        2   -1    0    0  501    0  0.00000000000E+00  0.00000000000E+00  0.75144532589E+03  0.75144532590E+03  0.25500000920E-02 0. -1.
       -2   -1    0    0    0  501  0.00000000000E+00  0.00000000000E+00 -0.33250788954E+03  0.33250788955E+03  0.25500000920E-02 0.  1.
    10030    2    1    2    0    0  0.00000000000E+00  0.00000000000E+00  0.41893743636E+03  0.10839532154E+04  0.99972296047E+03 0.  0.
        5    1    3    3  502    0 -0.19804154523E+03 -0.44621122290E+03  0.93122192211E+02  0.49700980046E+03  0.46999998093E+01 0.  1.
       -5    1    3    3    0  502  0.19804154523E+03  0.44621122290E+03  0.32581524414E+03  0.58694341498E+03  0.46999998093E+01 0. -1.
</event>
<event>
 5   0  0.5768102E-04  0.9970421E+03  0.7818609E-02  0.9311795E-01
       -1   -1    0    0    0  501  0.00000000000E+00  0.00000000000E+00  0.80967817323E+03  0.80967817325E+03  0.50400001928E-02 0. -1.
        1   -1    0    0  501    0  0.00000000000E+00  0.00000000000E+00 -0.30694074943E+03  0.30694074947E+03  0.50400001928E-02 0.  1.
    10030    2    1    2    0    0  0.00000000000E+00  0.00000000000E+00  0.50273742380E+03  0.11166189227E+04  0.99704207599E+03 0.  0.
        4    1    3    3  502    0  0.39185058041E+03 -0.49461286321E+02  0.59203473969E+03  0.71168816353E+03  0.12699999809E+01 0. -1.
       -4    1    3    3    0  502 -0.39185058041E+03  0.49461286321E+02 -0.89297315889E+02  0.40493075919E+03  0.12699999809E+01 0.  1.
</event>
<event>
 5   0  0.1006749E-03  0.1004843E+04  0.7818609E-02  0.9303249E-01
       -2   -1    0    0    0  501  0.00000000000E+00  0.00000000000E+00  0.12230360221E+03  0.12230360223E+03  0.25500000920E-02 0. -1.
        2   -1    0    0  501    0  0.00000000000E+00  0.00000000000E+00 -0.20639421695E+04  0.20639421695E+04  0.25500000920E-02 0.  1.
    10030    2    1    2    0    0  0.00000000000E+00  0.00000000000E+00 -0.19416385673E+04  0.21862457718E+04  0.10048433950E+04 0.  0.
        1    1    3    3  502    0 -0.48546809637E+03 -0.10424900901E+03 -0.11376612410E+04  0.12412977998E+04  0.50400001928E-02 0.  1.
       -1    1    3    3    0  502  0.48546809637E+03  0.10424900901E+03 -0.80397732630E+03  0.94494797196E+03  0.50400001928E-02 0. -1.
</event>
<event>
 5   0  0.5960102E-04  0.9985746E+03  0.7818609E-02  0.9310109E-01
        1   -1    0    0  501    0  0.00000000000E+00  0.00000000000E+00  0.46355977585E+03  0.46355977588E+03  0.50400001928E-02 0.  1.
       -1   -1    0    0    0  501  0.00000000000E+00  0.00000000000E+00 -0.53776846875E+03  0.53776846878E+03  0.50400001928E-02 0. -1.
    10030    2    1    2    0    0  0.00000000000E+00  0.00000000000E+00 -0.74208692899E+02  0.10013282447E+04  0.99857464591E+03 0.  0.
        5    1    3    3  502    0  0.78457864423E+02  0.40139448183E+03 -0.32423740208E+03  0.52194362669E+03  0.46999998093E+01 0. -1.
       -5    1    3    3    0  502 -0.78457864423E+02 -0.40139448183E+03  0.25002870918E+03  0.47938461797E+03  0.46999998093E+01 0.  1.
</event>
<event>
 5   0  0.5826939E-04  0.1001360E+04  0.7818609E-02  0.9307054E-01
        1   -1    0    0  501    0  0.00000000000E+00  0.00000000000E+00  0.58929520836E+03  0.58929520838E+03  0.50400001928E-02 0. -1.
       -1   -1    0    0    0  501  0.00000000000E+00  0.00000000000E+00 -0.42539062515E+03  0.42539062518E+03  0.50400001928E-02 0.  1.
    10030    2    1    2    0    0  0.00000000000E+00  0.00000000000E+00  0.16390458321E+03  0.10146858336E+04  0.10013603889E+04 0.  0.
        1    1    3    3  502    0  0.37425157472E+02 -0.22771292120E+03 -0.36828792690E+03  0.43461455799E+03  0.50400001928E-02 0.  1.
       -1    1    3    3    0  502 -0.37425157472E+02  0.22771292120E+03  0.53219251012E+03  0.58007127557E+03  0.50400001928E-02 0. -1.
</event>
<event>
 5   0  0.5826939E-04  0.9990803E+03  0.7818609E-02  0.9309554E-01
       -1   -1    0    0    0  501  0.00000000000E+00  0.00000000000E+00  0.38348756789E+03  0.38348756792E+03  0.50400001928E-02 0. -1.
        1   -1    0    0  501    0  0.00000000000E+00  0.00000000000E+00 -0.65071303695E+03  0.65071303697E+03  0.50400001928E-02 0.  1.
    10030    2    1    2    0    0  0.00000000000E+00  0.00000000000E+00 -0.26722546906E+03  0.10342006049E+04  0.99908029700E+03 0.  0.
        1    1    3    3  502    0 -0.30127517141E+03 -0.38892682327E+03 -0.22331668244E+03  0.54027876458E+03  0.50400001928E-02 0. -1.
       -1    1    3    3    0  502  0.30127517141E+03  0.38892682327E+03 -0.43908786616E+02  0.49392184031E+03  0.50400001928E-02 0.  1.
</event>
<event>
 5   0  0.5768102E-04  0.9992818E+03  0.7818609E-02  0.9309333E-01
       -1   -1    0    0    0  501  0.00000000000E+00  0.00000000000E+00  0.19573652526E+03  0.19573652533E+03  0.50400001928E-02 0.  1.
        1   -1    0    0  501    0  0.00000000000E+00  0.00000000000E+00 -0.12753931956E+04  0.12753931956E+04  0.50400001928E-02 0. -1.
    10030    2    1    2    0    0  0.00000000000E+00  0.00000000000E+00 -0.10796566703E+04  0.14711297209E+04  0.99928180709E+03 0.  0.
        4    1    3    3  502    0  0.84257380153E+02  0.49245745909E+03 -0.54730096771E+03  0.74104899789E+03  0.12699999809E+01 0.  1.
       -4    1    3    3    0  502 -0.84257380153E+02 -0.49245745909E+03 -0.53235570258E+03  0.73008072300E+03  0.12699999809E+01 0. -1.
</event>
<event>
 5   0  0.9674819E-04  0.1000988E+04  0.7818609E-02  0.9307462E-01
        2   -1    0    0  501    0  0.00000000000E+00  0.00000000000E+00  0.17674394733E+03  0.17674394735E+03  0.25500000920E-02 0.  1.
       -2   -1    0    0    0  501  0.00000000000E+00  0.00000000000E+00 -0.14172713672E+04  0.14172713672E+04  0.25500000920E-02 0. -1.
    10030    2    1    2    0    0  0.00000000000E+00  0.00000000000E+00 -0.12405274199E+04  0.15940153146E+04  0.10009877839E+04 0.  0.
        4    1    3    3  502    0  0.29461029938E+03  0.33450326456E+03 -0.25781299023E+03  0.51493379510E+03  0.12699999809E+01 0. -1.
       -4    1    3    3    0  502 -0.29461029938E+03 -0.33450326456E+03 -0.98271442968E+03  0.10790815195E+04  0.12699999809E+01 0.  1.
</event>
<event>
 5   0  0.9741826E-04  0.1004258E+04  0.7818609E-02  0.9303887E-01
        2   -1    0    0  501    0  0.00000000000E+00  0.00000000000E+00  0.15133100421E+04  0.15133100421E+04  0.25500000920E-02 0. -1.
       -2   -1    0    0    0  501  0.00000000000E+00  0.00000000000E+00 -0.16661053356E+03  0.16661053358E+03  0.25500000920E-02 0.  1.
    10030    2    1    2    0    0  0.00000000000E+00  0.00000000000E+00  0.13466995085E+04  0.16799205756E+04  0.10042577230E+04 0.  0.
        3    1    3    3  502    0  0.18179779994E+03 -0.28539116314E+03  0.12939439940E+04  0.13374564015E+04  0.10100000352E+00 0. -1.
       -3    1    3    3    0  502 -0.18179779994E+03  0.28539116314E+03  0.52755514488E+02  0.34246417414E+03  0.10100000352E+00 0.  1.
</event>
<event>
 5   0  0.5768102E-04  0.1000591E+04  0.7818609E-02  0.9307897E-01
        1   -1    0    0  501    0  0.00000000000E+00  0.00000000000E+00  0.11499925054E+04  0.11499925054E+04  0.50400001928E-02 0.  1.
       -1   -1    0    0    0  501  0.00000000000E+00  0.00000000000E+00 -0.21764986264E+03  0.21764986270E+03  0.50400001928E-02 0. -1.
    10030    2    1    2    0    0  0.00000000000E+00  0.00000000000E+00  0.93234264277E+03  0.13676423681E+04  0.10005912470E+04 0.  0.
        4    1    3    3  502    0 -0.15721753306E+03 -0.29058361439E+03  0.97966805498E+03  0.10338797321E+04  0.12699999809E+01 0.  1.
       -4    1    3    3    0  502  0.15721753306E+03  0.29058361439E+03 -0.47325412208E+02  0.33376263600E+03  0.12699999809E+01 0. -1.
</event>
<event>
 5   0  0.1020150E-03  0.9991028E+03  0.7818609E-02  0.9309529E-01
       -2   -1    0    0    0  501  0.00000000000E+00  0.00000000000E+00  0.65787188688E+03  0.65787188688E+03  0.25500000920E-02 0.  1.
        2   -1    0    0  501    0  0.00000000000E+00  0.00000000000E+00 -0.37933158845E+03  0.37933158846E+03  0.25500000920E-02 0. -1.
    10030    2    1    2    0    0  0.00000000000E+00  0.00000000000E+00  0.27854029843E+03  0.10372034753E+04  0.99910277320E+03 0.  0.
        5    1    3    3  502    0 -0.21310564245E+03 -0.38439775071E+03  0.38571264787E+03  0.58478370558E+03  0.46999998093E+01 0.  1.
       -5    1    3    3    0  502  0.21310564245E+03  0.38439775071E+03 -0.10717234944E+03  0.45241976976E+03  0.46999998093E+01 0. -1.
</event>
<event>
 5   0  0.9741826E-04  0.9960306E+03  0.7818609E-02  0.9312909E-01
        2   -1    0    0  501    0  0.00000000000E+00  0.00000000000E+00  0.16947489417E+04  0.16947489417E+04  0.25500000920E-02 0. -1.
       -2   -1    0    0    0  501  0.00000000000E+00  0.00000000000E+00 -0.14634570673E+03  0.14634570676E+03  0.25500000920E-02 0.  1.
    10030    2    1    2    0    0  0.00000000000E+00  0.00000000000E+00  0.15484032350E+04  0.18410946485E+04  0.99603058514E+03 0.  0.
        3    1    3    3  502    0  0.33235603167E+03 -0.36978050646E+03  0.72123616848E+03  0.87600215505E+03  0.10100000352E+00 0. -1.
       -3    1    3    3    0  502 -0.33235603167E+03  0.36978050646E+03  0.82716706651E+03  0.96509249343E+03  0.10100000352E+00 0.  1.
</event>
<event>
 5   0  0.9674819E-04  0.9995836E+03  0.7818609E-02  0.9309002E-01
       -2   -1    0    0    0  501  0.00000000000E+00  0.00000000000E+00  0.58840378334E+03  0.58840378335E+03  0.25500000920E-02 0.  1.
        2   -1    0    0  501    0  0.00000000000E+00  0.00000000000E+00 -0.42452451211E+03  0.42452451211E+03  0.25500000920E-02 0. -1.
    10030    2    1    2    0    0  0.00000000000E+00  0.00000000000E+00  0.16387927124E+03  0.10129282955E+04  0.99958357140E+03 0.  0.
        4    1    3    3  502    0 -0.10783811995E+03  0.34646834486E+03 -0.26633581312E+03  0.45011748728E+03  0.12699999809E+01 0. -1.
       -4    1    3    3    0  502  0.10783811995E+03 -0.34646834486E+03  0.43021508436E+03  0.56281080819E+03  0.12699999809E+01 0.  1.
</event>
<event>
 5   0  0.1006006E-03  0.9944715E+03  0.7818609E-02  0.9314629E-01
        2   -1    0    0  501    0  0.00000000000E+00  0.00000000000E+00  0.11381107226E+04  0.11381107226E+04  0.25500000920E-02 0. -1.
       -2   -1    0    0    0  501  0.00000000000E+00  0.00000000000E+00 -0.21724017081E+03  0.21724017083E+03  0.25500000920E-02 0.  1.
    10030    2    1    2    0    0  0.00000000000E+00  0.00000000000E+00  0.92087055178E+03  0.13553508934E+04  0.99447145317E+03 0.  0.
        2    1    3    3  502    0 -0.28511345220E+03  0.29173408159E+03  0.72922724356E+02  0.41438650885E+03  0.25500000920E-02 0.  1.
       -2    1    3    3    0  502  0.28511345220E+03 -0.29173408159E+03  0.84794782742E+03  0.94096438456E+03  0.25500000920E-02 0. -1.
</event>
<event>
 5   0  0.1006006E-03  0.9897069E+03  0.7818609E-02  0.9319907E-01
       -2   -1    0    0    0  501  0.00000000000E+00  0.00000000000E+00  0.25141125668E+03  0.25141125670E+03  0.25500000920E-02 0.  1.
        2   -1    0    0  501    0  0.00000000000E+00  0.00000000000E+00 -0.97402142977E+03  0.97402142978E+03  0.25500000920E-02 0. -1.
    10030    2    1    2    0    0  0.00000000000E+00  0.00000000000E+00 -0.72261017309E+03  0.12254326865E+04  0.98970692976E+03 0.  0.
        2    1    3    3  502    0  0.36706784907E+03  0.32693146840E+03 -0.43196760597E+03  0.65438444623E+03  0.25500000920E-02 0. -1.
       -2    1    3    3    0  502 -0.36706784907E+03 -0.32693146840E+03 -0.29064256712E+03  0.57104824024E+03  0.25500000920E-02 0.  1.
</event>
<event>
 5   0  0.1006006E-03  0.9926258E+03  0.7818609E-02  0.9316670E-01
       -2   -1    0    0    0  501  0.00000000000E+00  0.00000000000E+00  0.12513152569E+03  0.12513152572E+03  0.25500000920E-02 0. -1.
        2   -1    0    0  501    0  0.00000000000E+00  0.00000000000E+00 -0.19685405089E+04  0.19685405089E+04  0.25500000920E-02 0.  1.
    10030    2    1    2    0    0  0.00000000000E+00  0.00000000000E+00 -0.18434089832E+04  0.20936720346E+04  0.99262576492E+03 0.  0.
        2    1    3    3  502    0 -0.34420453408E+02 -0.32757250701E+03 -0.13862197003E+03  0.35735775567E+03  0.25500000920E-02 0. -1.
       -2    1    3    3    0  502  0.34420453408E+02  0.32757250701E+03 -0.17047870132E+04  0.17363142790E+04  0.25500000920E-02 0.  1.
</event>
<event>
 5   0  0.9741826E-04  0.1001208E+04  0.7818609E-02  0.9307221E-01
        2   -1    0    0  501    0  0.00000000000E+00  0.00000000000E+00  0.12347055527E+04  0.12347055527E+04  0.25500000920E-02 0. -1.
       -2   -1    0    0    0  501  0.00000000000E+00  0.00000000000E+00 -0.20296693229E+03  0.20296693231E+03  0.25500000920E-02 0.  1.
    10030    2    1    2    0    0  0.00000000000E+00  0.00000000000E+00  0.10317386204E+04  0.14376724850E+04  0.10012080669E+04 0.  0.
        3    1    3    3  502    0 -0.11929792736E+03 -0.42845617858E+03  0.84581549061E+03  0.95562050355E+03  0.10100000352E+00 0.  1.
       -3    1    3    3    0  502  0.11929792736E+03  0.42845617858E+03  0.18592312979E+03  0.48205198146E+03  0.10100000352E+00 0. -1.
</event>
<event>
 5   0  0.9674819E-04  0.1001162E+04  0.7818609E-02  0.9307271E-01
       -2   -1    0    0    0  501  0.00000000000E+00  0.00000000000E+00  0.16966055704E+03  0.16966055706E+03  0.25500000920E-02 0.  1.
        2   -1    0    0  501    0  0.00000000000E+00  0.00000000000E+00 -0.14769563434E+04  0.14769563434E+04  0.25500000920E-02 0. -1.
    10030    2    1    2    0    0  0.00000000000E+00  0.00000000000E+00 -0.13072957864E+04  0.16466169005E+04  0.10011617970E+04 0.  0.
        4    1    3    3  502    0  0.23741927524E+03  0.17202131034E+03 -0.13209616820E+04  0.13531077642E+04  0.12699999809E+01 0. -1.
       -4    1    3    3    0  502 -0.23741927524E+03 -0.17202131034E+03  0.13665895587E+02  0.29350913626E+03  0.12699999809E+01 0.  1.
</event>
<event>
 5   0  0.1006749E-03  0.1000092E+04  0.7818609E-02  0.9308444E-01
       -2   -1    0    0    0  501  0.00000000000E+00  0.00000000000E+00  0.19664401337E+03  0.19664401339E+03  0.25500000920E-02 0.  1.
        2   -1    0    0  501    0  0.00000000000E+00  0.00000000000E+00 -0.12715663690E+04  0.12715663690E+04  0.25500000920E-02 0. -1.
    10030    2    1    2    0    0  0.00000000000E+00  0.00000000000E+00 -0.10749223556E+04  0.14682103824E+04  0.10000918240E+04 0.  0.
        1    1    3    3  502    0 -0.34260422209E+03  0.25588653321E+03 -0.91800251834E+03  0.10127113086E+04  0.50400001928E-02 0. -1.
       -1    1    3    3    0  502  0.34260422209E+03 -0.25588653321E+03 -0.15691983731E+03  0.45549907381E+03  0.50400001928E-02 0.  1.
</event>
<event>
 5   0  0.5826939E-04  0.9974850E+03  0.7818609E-02  0.9311308E-01
       -1   -1    0    0    0  501  0.00000000000E+00  0.00000000000E+00  0.47661970290E+03  0.47661970293E+03  0.50400001928E-02 0. -1.
        1   -1    0    0  501    0  0.00000000000E+00  0.00000000000E+00 -0.52189210127E+03  0.52189210130E+03  0.50400001928E-02 0.  1.
    10030    2    1    2    0    0  0.00000000000E+00  0.00000000000E+00 -0.45272398370E+02  0.99851180423E+03  0.99748495383E+03 0.  0.
        1    1    3    3  502    0 -0.46554767178E+03 -0.23262338913E+02  0.15493944634E+03  0.49120464490E+03  0.50400001928E-02 0. -1.
       -1    1    3    3    0  502  0.46554767178E+03  0.23262338913E+02 -0.20021184471E+03  0.50730715933E+03  0.50400001928E-02 0.  1.
</event>
<event>
 5   0  0.5758786E-04  0.1000971E+04  0.7818609E-02  0.9307480E-01
        1   -1    0    0  501    0  0.00000000000E+00  0.00000000000E+00  0.46659010218E+03  0.46659010221E+03  0.50400001928E-02 0.  1.
       -1   -1    0    0    0  501  0.00000000000E+00  0.00000000000E+00 -0.53684354444E+03  0.53684354447E+03  0.50400001928E-02 0. -1.
    10030    2    1    2    0    0  0.00000000000E+00  0.00000000000E+00 -0.70253442258E+02  0.10034336467E+04  0.10009712969E+04 0.  0.
        3    1    3    3  502    0  0.18503238728E+02  0.70520871535E+02  0.46123807727E+03  0.46696481376E+03  0.10100000352E+00 0.  1.
       -3    1    3    3    0  502 -0.18503238728E+02 -0.70520871535E+02 -0.53149151953E+03  0.53646883292E+03  0.10100000352E+00 0. -1.
</event>
<event>
 5   0  0.5826939E-04  0.9995079E+03  0.7818609E-02  0.9309085E-01
        1   -1    0    0  501    0  0.00000000000E+00  0.00000000000E+00  0.18666398155E+04  0.18666398155E+04  0.50400001928E-02 0.  1.
       -1   -1    0    0    0  501  0.00000000000E+00  0.00000000000E+00 -0.13379871539E+03  0.13379871548E+03  0.50400001928E-02 0. -1.
    10030    2    1    2    0    0  0.00000000000E+00  0.00000000000E+00  0.17328411001E+04  0.20004385310E+04  0.99950789793E+03 0.  0.
        1    1    3    3  502    0  0.10571144755E+03 -0.45052670300E+03  0.48876733147E+03  0.67308448549E+03  0.50400001928E-02 0. -1.
       -1    1    3    3    0  502 -0.10571144755E+03  0.45052670300E+03  0.12440737687E+04  0.13273540455E+04  0.50400001928E-02 0.  1.
</event>
<event>
 5   0  0.9674819E-04  0.9992768E+03  0.7818609E-02  0.9309338E-01
       -2   -1    0    0    0  501  0.00000000000E+00  0.00000000000E+00  0.16622086817E+03  0.16622086818E+03  0.25500000920E-02 0. -1.
        2   -1    0    0  501    0  0.00000000000E+00  0.00000000000E+00 -0.15018484382E+04  0.15018484382E+04  0.25500000920E-02 0.  1.
    10030    2    1    2    0    0  0.00000000000E+00  0.00000000000E+00 -0.13356275700E+04  0.16680693064E+04  0.99927684105E+03 0.  0.
        4    1    3    3  502    0 -0.71220137054E+02 -0.48459577135E+03 -0.50314180854E+03  0.70218135972E+03  0.12699999809E+01 0. -1.
       -4    1    3    3    0  502  0.71220137054E+02  0.48459577135E+03 -0.83248576149E+03  0.96588794666E+03  0.12699999809E+01 0.  1.
</event>
<event>
 5   0  0.1006006E-03  0.1000881E+04  0.7818609E-02  0.9307579E-01
        2   -1    0    0  501    0  0.00000000000E+00  0.00000000000E+00  0.90469708968E+03  0.90469708968E+03  0.25500000920E-02 0.  1.
       -2   -1    0    0    0  501  0.00000000000E+00  0.00000000000E+00 -0.27682282569E+03  0.27682282570E+03  0.25500000920E-02 0. -1.
    10030    2    1    2    0    0  0.00000000000E+00  0.00000000000E+00  0.62787426399E+03  0.11815199154E+04  0.10008812213E+04 0.  0.
        2    1    3    3  502    0 -0.19060088809E+03  0.46245473413E+03  0.29535722601E+03  0.58088636636E+03  0.25500000920E-02 0.  1.
       -2    1    3    3    0  502  0.19060088809E+03 -0.46245473413E+03  0.33251703799E+03  0.60063354903E+03  0.25500000920E-02 0. -1.
</event>
<event>
 5   0  0.1006006E-03  0.1007890E+04  0.7818609E-02  0.9299933E-01
       -2   -1    0    0    0  501  0.00000000000E+00  0.00000000000E+00  0.22032310389E+03  0.22032310390E+03  0.25500000920E-02 0.  1.
        2   -1    0    0  501    0  0.00000000000E+00  0.00000000000E+00 -0.11526732691E+04  0.11526732691E+04  0.25500000920E-02 0. -1.
    10030    2    1    2    0    0  0.00000000000E+00  0.00000000000E+00 -0.93235016522E+03  0.13729963730E+04  0.10078899790E+04 0.  0.
        2    1    3    3  502    0 -0.39367480886E+03 -0.21246978937E+03 -0.78225568299E+03  0.90113662676E+03  0.25500000920E-02 0. -1.
       -2    1    3    3    0  502  0.39367480886E+03  0.21246978937E+03 -0.15009448224E+03  0.47185974625E+03  0.25500000920E-02 0.  1.
</event>
<event>
 5   0  0.1006749E-03  0.1000216E+04  0.7818609E-02  0.9308308E-01
       -2   -1    0    0    0  501  0.00000000000E+00  0.00000000000E+00  0.62949728943E+03  0.62949728943E+03  0.25500000920E-02 0. -1.
        2   -1    0    0  501    0  0.00000000000E+00  0.00000000000E+00 -0.39731376377E+03  0.39731376378E+03  0.25500000920E-02 0.  1.
    10030    2    1    2    0    0  0.00000000000E+00  0.00000000000E+00  0.23218352565E+03  0.10268110532E+04  0.10002158514E+04 0.  0.
        1    1    3    3  502    0  0.41715448188E+03 -0.25185142964E+03  0.23160444196E+03  0.53952536727E+03  0.50400001928E-02 0. -1.
       -1    1    3    3    0  502 -0.41715448188E+03  0.25185142964E+03  0.57908368848E+00  0.48728568594E+03  0.50400001928E-02 0.  1.
</event>
<event>
 5   0  0.1020150E-03  0.9993889E+03  0.7818609E-02  0.9309215E-01
       -2   -1    0    0    0  501  0.00000000000E+00  0.00000000000E+00  0.31585194681E+03  0.31585194682E+03  0.25500000920E-02 0.  1.
        2   -1    0    0  501    0  0.00000000000E+00  0.00000000000E+00 -0.79054299818E+03  0.79054299818E+03  0.25500000920E-02 0. -1.
    10030    2    1    2    0    0  0.00000000000E+00  0.00000000000E+00 -0.47469105137E+03  0.11063949450E+04  0.99938890332E+03 0.  0.
        5    1    3    3  502    0  0.18527152727E+03 -0.20303344920E+03  0.22461556171E+03  0.35499628290E+03  0.46999998093E+01 0.  1.
       -5    1    3    3    0  502 -0.18527152727E+03  0.20303344920E+03 -0.69930661308E+03  0.75139866210E+03  0.46999998093E+01 0. -1.
</event>
<event>
 5   0  0.5888774E-04  0.1001770E+04  0.7818609E-02  0.9306606E-01
        1   -1    0    0  501    0  0.00000000000E+00  0.00000000000E+00  0.10356681966E+04  0.10356681966E+04  0.50400001928E-02 0. -1.
       -1   -1    0    0    0  501  0.00000000000E+00  0.00000000000E+00 -0.24224536590E+03  0.24224536595E+03  0.50400001928E-02 0.  1.
    10030    2    1    2    0    0  0.00000000000E+00  0.00000000000E+00  0.79342283073E+03  0.12779135626E+04  0.10017700760E+04 0.  0.
        2    1    3    3  502    0 -0.15774869341E+03  0.34077683149E+03  0.81955288768E+03  0.90148790056E+03  0.25500000920E-02 0. -1.
       -2    1    3    3    0  502  0.15774869341E+03 -0.34077683149E+03 -0.26130056946E+02  0.37642566203E+03  0.25500000920E-02 0.  1.
</event>
<event>
 5   0  0.5758786E-04  0.1007813E+04  0.7818609E-02  0.9300017E-01
        1   -1    0    0  501    0  0.00000000000E+00  0.00000000000E+00  0.53969795570E+03  0.53969795573E+03  0.50400001928E-02 0. -1.
       -1   -1    0    0    0  501  0.00000000000E+00  0.00000000000E+00 -0.47048896405E+03  0.47048896407E+03  0.50400001928E-02 0.  1.
    10030    2    1    2    0    0  0.00000000000E+00  0.00000000000E+00  0.69208991657E+02  0.10101869198E+04  0.10078133401E+04 0.  0.
        3    1    3    3  502    0 -0.44460283358E+03  0.12777119985E+03 -0.16567791493E+03  0.49137189667E+03  0.10100000352E+00 0.  1.
       -3    1    3    3    0  502  0.44460283358E+03 -0.12777119985E+03  0.23488690658E+03  0.51881502313E+03  0.10100000352E+00 0. -1.
</event>
<event>
 5   0  0.5826939E-04  0.1000282E+04  0.7818609E-02  0.9308236E-01
       -1   -1    0    0    0  501  0.00000000000E+00  0.00000000000E+00  0.39140785834E+03  0.39140785838E+03  0.50400001928E-02 0. -1.
        1   -1    0    0  501    0  0.00000000000E+00  0.00000000000E+00 -0.63907981187E+03  0.63907981189E+03  0.50400001928E-02 0.  1.
    10030    2    1    2    0    0  0.00000000000E+00  0.00000000000E+00 -0.24767195352E+03  0.10304876703E+04  0.10002816813E+04 0.  0.
        1    1    3    3  502    0 -0.41500345153E+02  0.35692590988E+03 -0.48222401222E+03  0.60138039690E+03  0.50400001928E-02 0.  1.
       -1    1    3    3    0  502  0.41500345153E+02 -0.35692590988E+03  0.23455205870E+03  0.42910727336E+03  0.50400001928E-02 0. -1.
</event>
<event>
 5   0  0.5888774E-04  0.1003705E+04  0.7818609E-02  0.9304490E-01
       -1   -1    0    0    0  501  0.00000000000E+00  0.00000000000E+00  0.20107276786E+03  0.20107276793E+03  0.50400001928E-02 0.  1.
        1   -1    0    0  501    0  0.00000000000E+00  0.00000000000E+00 -0.12525616369E+04  0.12525616369E+04  0.50400001928E-02 0. -1.
    10030    2    1    2    0    0  0.00000000000E+00  0.00000000000E+00 -0.10514888691E+04  0.14536344049E+04  0.10037052063E+04 0.  0.
        2    1    3    3  502    0 -0.20787453977E+03 -0.44230991276E+03 -0.69091149156E+03  0.84629106836E+03  0.25500000920E-02 0. -1.
       -2    1    3    3    0  502  0.20787453977E+03  0.44230991276E+03 -0.36057737750E+03  0.60734333649E+03  0.25500000920E-02 0.  1.
</event>
<event>
 5   0  0.9741826E-04  0.1003069E+04  0.7818609E-02  0.9305186E-01
       -2   -1    0    0    0  501  0.00000000000E+00  0.00000000000E+00  0.85434806762E+03  0.85434806762E+03  0.25500000920E-02 0.  1.
        2   -1    0    0  501    0  0.00000000000E+00  0.00000000000E+00 -0.29441943777E+03  0.29441943778E+03  0.25500000920E-02 0. -1.
    10030    2    1    2    0    0  0.00000000000E+00  0.00000000000E+00  0.55992862984E+03  0.11487675054E+04  0.10030686472E+04 0.  0.
        3    1    3    3  502    0 -0.41121157783E+03 -0.16988429655E+03  0.54506266319E+03  0.70359715247E+03  0.10100000352E+00 0.  1.
       -3    1    3    3    0  502  0.41121157783E+03  0.16988429655E+03  0.14865966652E+02  0.44517035293E+03  0.10100000352E+00 0. -1.
</event>
<event>
 5   0  0.5888774E-04  0.9797610E+03  0.7818609E-02  0.9331025E-01
        1   -1    0    0  501    0  0.00000000000E+00  0.00000000000E+00  0.67462157130E+03  0.67462157132E+03  0.50400001928E-02 0.  1.
       -1   -1    0    0    0  501  0.00000000000E+00  0.00000000000E+00 -0.35572963939E+03  0.35572963943E+03  0.50400001928E-02 0. -1.
    10030    2    1    2    0    0  0.00000000000E+00  0.00000000000E+00  0.31889193191E+03  0.10303512107E+04  0.97976096740E+03 0.  0.
        2    1    3    3  502    0  0.37396330427E+03 -0.31338017766E+03  0.20561263083E+03  0.52946410894E+03  0.25500000920E-02 0. -1.
       -2    1    3    3    0  502 -0.37396330427E+03  0.31338017766E+03  0.11327930108E+03  0.50088710181E+03  0.25500000920E-02 0.  1.
</event>
<event>
 5   0  0.1020150E-03  0.1001365E+04  0.7818609E-02  0.9307049E-01
        2   -1    0    0  501    0  0.00000000000E+00  0.00000000000E+00  0.46650856154E+03  0.46650856155E+03  0.25500000920E-02 0. -1.
       -2   -1    0    0    0  501  0.00000000000E+00  0.00000000000E+00 -0.53735952112E+03  0.53735952113E+03  0.25500000920E-02 0.  1.
    10030    2    1    2    0    0  0.00000000000E+00  0.00000000000E+00 -0.70850959578E+02  0.10038680827E+04  0.10013647033E+04 0.  0.
        5    1    3    3  502    0  0.45975434493E+03  0.19106053595E+03 -0.88307150303E+02  0.50566632167E+03  0.46999998093E+01 0. -1.
       -5    1    3    3    0  502 -0.45975434493E+03 -0.19106053595E+03  0.17456190724E+02  0.49820176101E+03  0.46999998093E+01 0.  1.
</event>
<event>
 5   0  0.1006749E-03  0.9982262E+03  0.7818609E-02  0.9310492E-01
       -2   -1    0    0    0  501  0.00000000000E+00  0.00000000000E+00  0.11253287292E+03  0.11253287295E+03  0.25500000920E-02 0.  1.
        2   -1    0    0  501    0  0.00000000000E+00  0.00000000000E+00 -0.22136988534E+04  0.22136988534E+04  0.25500000920E-02 0. -1.
    10030    2    1    2    0    0  0.00000000000E+00  0.00000000000E+00 -0.21011659805E+04  0.23262317263E+04  0.99822621042E+03 0.  0.
        1    1    3    3  502    0  0.19851037791E+03 -0.13068814357E+03 -0.27799142651E+02  0.23928759551E+03  0.50400001928E-02 0.  1.
       -1    1    3    3    0  502 -0.19851037791E+03  0.13068814357E+03 -0.20733668378E+04  0.20869441308E+04  0.50400001928E-02 0. -1.
</event>
<event>
 5   0  0.5960102E-04  0.9981823E+03  0.7818609E-02  0.9310541E-01
        1   -1    0    0  501    0  0.00000000000E+00  0.00000000000E+00  0.31511625970E+03  0.31511625974E+03  0.50400001928E-02 0. -1.
       -1   -1    0    0    0  501  0.00000000000E+00  0.00000000000E+00 -0.79047636222E+03  0.79047636223E+03  0.50400001928E-02 0.  1.
    10030    2    1    2    0    0  0.00000000000E+00  0.00000000000E+00 -0.47536010251E+03  0.11055926220E+04  0.99818225726E+03 0.  0.
        5    1    3    3  502    0 -0.42031377553E+02 -0.40688011566E+03 -0.55436975681E+03  0.68896007321E+03  0.46999998093E+01 0.  1.
       -5    1    3    3    0  502  0.42031377553E+02  0.40688011566E+03  0.79009654296E+02  0.41663254876E+03  0.46999998093E+01 0. -1.
</event>
<event>
 5   0  0.5758786E-04  0.1004239E+04  0.7818609E-02  0.9303907E-01
        1   -1    0    0  501    0  0.00000000000E+00  0.00000000000E+00  0.46858555284E+03  0.46858555287E+03  0.50400001928E-02 0.  1.
       -1   -1    0    0    0  501  0.00000000000E+00  0.00000000000E+00 -0.53805364384E+03  0.53805364386E+03  0.50400001928E-02 0. -1.
    10030    2    1    2    0    0  0.00000000000E+00  0.00000000000E+00 -0.69468090996E+02  0.10066391967E+04  0.10042393423E+04 0.  0.
        3    1    3    3  502    0 -0.46953057788E+03 -0.17759523432E+03 -0.45946623163E+02  0.50409337746E+03  0.10100000352E+00 0. -1.
       -3    1    3    3    0  502  0.46953057788E+03  0.17759523432E+03 -0.23521467833E+02  0.50254581927E+03  0.10100000352E+00 0.  1.
</event>
<event>
 5   0  0.5768102E-04  0.1000620E+04  0.7818609E-02  0.9307865E-01
       -1   -1    0    0    0  501  0.00000000000E+00  0.00000000000E+00  0.22114965457E+03  0.22114965463E+03  0.50400001928E-02 0. -1.
        1   -1    0    0  501    0  0.00000000000E+00  0.00000000000E+00 -0.11318576789E+04  0.11318576789E+04  0.50400001928E-02 0.  1.
    10030    2    1    2    0    0  0.00000000000E+00  0.00000000000E+00 -0.91070802429E+03  0.13530073335E+04  0.10006196775E+04 0.  0.
        4    1    3    3  502    0 -0.25715330018E+02 -0.17837583365E+03  0.17573274296E+03  0.25171973716E+03  0.12699999809E+01 0. -1.
       -4    1    3    3    0  502  0.25715330018E+02  0.17837583365E+03 -0.10864407672E+04  0.11012875963E+04  0.12699999809E+01 0.  1.
</event>
<event>
 5   0  0.5960102E-04  0.1000376E+04  0.7818609E-02  0.9308132E-01
        1   -1    0    0  501    0  0.00000000000E+00  0.00000000000E+00  0.95064650627E+03  0.95064650628E+03  0.50400001928E-02 0. -1.
       -1   -1    0    0    0  501  0.00000000000E+00  0.00000000000E+00 -0.26317696207E+03  0.26317696212E+03  0.50400001928E-02 0.  1.
    10030    2    1    2    0    0  0.00000000000E+00  0.00000000000E+00  0.68746954420E+03  0.12138234684E+04  0.10003764483E+04 0.  0.
        5    1    3    3  502    0 -0.21956098280E+03 -0.69411742359E+02  0.88247662925E+03  0.91203733822E+03  0.46999998093E+01 0. -1.
       -5    1    3    3    0  502  0.21956098280E+03  0.69411742359E+02 -0.19500708505E+03  0.30178613017E+03  0.46999998093E+01 0.  1.
</event>
<event>
 5   0  0.1006006E-03  0.1000151E+04  0.7818609E-02  0.9308379E-01
       -2   -1    0    0    0  501  0.00000000000E+00  0.00000000000E+00  0.63144954570E+03  0.63144954570E+03  0.25500000920E-02 0. -1.
        2   -1    0    0  501    0  0.00000000000E+00  0.00000000000E+00 -0.39603382472E+03  0.39603382473E+03  0.25500000920E-02 0.  1.
    10030    2    1    2    0    0  0.00000000000E+00  0.00000000000E+00  0.23541572098E+03  0.10274833704E+04  0.10001507461E+04 0.  0.
        2    1    3    3  502    0 -0.10361318276E+03  0.45689156599E+03  0.29738695219E+03  0.55490953682E+03  0.25500000920E-02 0. -1.
       -2    1    3    3    0  502  0.10361318276E+03 -0.45689156599E+03 -0.61971231215E+02  0.47257383361E+03  0.25500000920E-02 0.  1.
</event>
<event>
 5   0  0.5888774E-04  0.9997696E+03  0.7818609E-02  0.9308798E-01
        1   -1    0    0  501    0  0.00000000000E+00  0.00000000000E+00  0.13315362770E+04  0.13315362770E+04  0.50400001928E-02 0. -1.
       -1   -1    0    0    0  501  0.00000000000E+00  0.00000000000E+00 -0.18766655571E+03  0.18766655577E+03  0.50400001928E-02 0.  1.
    10030    2    1    2    0    0  0.00000000000E+00  0.00000000000E+00  0.11438697213E+04  0.15192028328E+04  0.99976962738E+03 0.  0.
        2    1    3    3  502    0 -0.22240391396E+03 -0.28218869530E+03  0.43814549427E+02  0.36195811283E+03  0.25500000920E-02 0.  1.
       -2    1    3    3    0  502  0.22240391396E+03  0.28218869530E+03  0.11000551719E+04  0.11572447199E+04  0.25500000920E-02 0. -1.
</event>
<event>
 5   0  0.1020150E-03  0.9995110E+03  0.7818609E-02  0.9309081E-01
       -2   -1    0    0    0  501  0.00000000000E+00  0.00000000000E+00  0.21464814241E+03  0.21464814243E+03  0.25500000920E-02 0.  1.
        2   -1    0    0  501    0  0.00000000000E+00  0.00000000000E+00 -0.11635580145E+04  0.11635580145E+04  0.25500000920E-02 0. -1.
    10030    2    1    2    0    0  0.00000000000E+00  0.00000000000E+00 -0.94890987212E+03  0.13782061570E+04  0.99951101328E+03 0.  0.
        5    1    3    3  502    0 -0.44064214472E+03 -0.68889856588E+02 -0.78530658838E+03  0.90312780922E+03  0.46999998093E+01 0. -1.
       -5    1    3    3    0  502  0.44064214472E+03  0.68889856588E+02 -0.16360328375E+03  0.47507834774E+03  0.46999998093E+01 0.  1.
</event>
<event>
 5   0  0.5826939E-04  0.1001404E+04  0.7818609E-02  0.9307007E-01
       -1   -1    0    0    0  501  0.00000000000E+00  0.00000000000E+00  0.61336851554E+03  0.61336851556E+03  0.50400001928E-02 0. -1.
        1   -1    0    0  501    0  0.00000000000E+00  0.00000000000E+00 -0.40873031182E+03  0.40873031186E+03  0.50400001928E-02 0.  1.
    10030    2    1    2    0    0  0.00000000000E+00  0.00000000000E+00  0.20463820372E+03  0.10220988274E+04  0.10014036242E+04 0.  0.
        1    1    3    3  502    0 -0.23238667933E+03  0.44017652574E+03  0.15769306104E+03  0.52213603981E+03  0.50400001928E-02 0. -1.
       -1    1    3    3    0  502  0.23238667933E+03 -0.44017652574E+03  0.46945142674E+02  0.49996278760E+03  0.50400001928E-02 0.  1.
</event>
<event>
 5   0  0.9741826E-04  0.9989737E+03  0.7818609E-02  0.9309671E-01
        2   -1    0    0  501    0  0.00000000000E+00  0.00000000000E+00  0.10547715322E+04  0.10547715322E+04  0.25500000920E-02 0.  1.
       -2   -1    0    0    0  501  0.00000000000E+00  0.00000000000E+00 -0.23653189466E+03  0.23653189467E+03  0.25500000920E-02 0. -1.
    10030    2    1    2    0    0  0.00000000000E+00  0.00000000000E+00  0.81823963757E+03  0.12913034269E+04  0.99897369127E+03 0.  0.
        3    1    3    3  502    0 -0.27545500322E+03 -0.40428888909E+03  0.27881312858E+03  0.56308235234E+03  0.10100000352E+00 0. -1.
       -3    1    3    3    0  502  0.27545500322E+03  0.40428888909E+03  0.53942650899E+03  0.72822107457E+03  0.10100000352E+00 0.  1.
</event>
<event>
 5   0  0.1020150E-03  0.9997133E+03  0.7818609E-02  0.9308859E-01
        2   -1    0    0  501    0  0.00000000000E+00  0.00000000000E+00  0.40976896770E+03  0.40976896771E+03  0.25500000920E-02 0. -1.
       -2   -1    0    0    0  501  0.00000000000E+00  0.00000000000E+00 -0.60975008687E+03  0.60975008688E+03  0.25500000920E-02 0.  1.
    10030    2    1    2    0    0  0.00000000000E+00  0.00000000000E+00 -0.19998111918E+03  0.10195190546E+04  0.99971328622E+03 0.  0.
        5    1    3    3  502    0 -0.17645885399E+03  0.46280494809E+02 -0.57456457249E+03  0.60284836345E+03  0.46999998093E+01 0.  1.
       -5    1    3    3    0  502  0.17645885399E+03 -0.46280494809E+02  0.37458345332E+03  0.41667069113E+03  0.46999998093E+01 0. -1.
</event>
<event>
 5   0  0.1020150E-03  0.1000428E+04  0.7818609E-02  0.9308075E-01
       -2   -1    0    0    0  501  0.00000000000E+00  0.00000000000E+00  0.21712773994E+03  0.21712773995E+03  0.25500000920E-02 0. -1.
        2   -1    0    0  501    0  0.00000000000E+00  0.00000000000E+00 -0.11523824005E+04  0.11523824005E+04  0.25500000920E-02 0.  1.
    10030    2    1    2    0    0  0.00000000000E+00  0.00000000000E+00 -0.93525466051E+03  0.13695101404E+04  0.10004282806E+04 0.  0.
        5    1    3    3  502    0 -0.40068304305E+03 -0.23829940870E+03 -0.71577130480E+03  0.85421552312E+03  0.46999998093E+01 0.  1.
       -5    1    3    3    0  502  0.40068304305E+03  0.23829940870E+03 -0.21948335571E+03  0.51529461729E+03  0.46999998093E+01 0. -1.
</event>
<event>
 5   0  0.9741826E-04  0.9996011E+03  0.7818609E-02  0.9308982E-01
        2   -1    0    0  501    0  0.00000000000E+00  0.00000000000E+00  0.56104192872E+03  0.56104192873E+03  0.25500000920E-02 0.  1.
       -2   -1    0    0    0  501  0.00000000000E+00  0.00000000000E+00 -0.44524407002E+03  0.44524407003E+03  0.25500000920E-02 0. -1.
    10030    2    1    2    0    0  0.00000000000E+00  0.00000000000E+00  0.11579785870E+03  0.10062859988E+04  0.99960110405E+03 0.  0.
        3    1    3    3  502    0 -0.23306539495E+03  0.14853479986E+03 -0.36132149797E+03  0.45490141809E+03  0.10100000352E+00 0. -1.
       -3    1    3    3    0  502  0.23306539495E+03 -0.14853479986E+03  0.47711935666E+03  0.55138458066E+03  0.10100000352E+00 0.  1.
</event>
<event>
 5   0  0.5826939E-04  0.1003199E+04  0.7818609E-02  0.9305044E-01
        1   -1    0    0  501    0  0.00000000000E+00  0.00000000000E+00  0.14499703861E+04  0.14499703861E+04  0.50400001928E-02 0. -1.
       -1   -1    0    0    0  501  0.00000000000E+00  0.00000000000E+00 -0.17352205684E+03  0.17352205691E+03  0.50400001928E-02 0.  1.
    10030    2    1    2    0    0  0.00000000000E+00  0.00000000000E+00  0.12764483293E+04  0.16234924430E+04  0.10031985722E+04 0.  0.
        1    1    3    3  502    0  0.28928665885E+03  0.31921187918E+03  0.10540364726E+04  0.11386728592E+04  0.50400001928E-02 0. -1.
       -1    1    3    3    0  502 -0.28928665885E+03 -0.31921187918E+03  0.22241185668E+03  0.48481958378E+03  0.50400001928E-02 0.  1.
</event>
<event>
 5   0  0.5888774E-04  0.1001144E+04  0.7818609E-02  0.9307291E-01
        1   -1    0    0  501    0  0.00000000000E+00  0.00000000000E+00  0.99318239516E+03  0.99318239517E+03  0.50400001928E-02 0.  1.
       -1   -1    0    0    0  501  0.00000000000E+00  0.00000000000E+00 -0.25229248098E+03  0.25229248103E+03  0.50400001928E-02 0. -1.
    10030    2    1    2    0    0  0.00000000000E+00  0.00000000000E+00  0.74088991418E+03  0.12454748762E+04  0.10011442465E+04 0.  0.
        2    1    3    3  502    0  0.38097210210E+03  0.41289306510E+02 -0.30224382979E+02  0.38439310964E+03  0.25500000920E-02 0. -1.
       -2    1    3    3    0  502 -0.38097210210E+03 -0.41289306510E+02  0.77111429716E+03  0.86108176656E+03  0.25500000920E-02 0.  1.
</event>
<event>
 5   0  0.5960102E-04  0.9981941E+03  0.7818609E-02  0.9310528E-01
       -1   -1    0    0    0  501  0.00000000000E+00  0.00000000000E+00  0.19384251856E+03  0.19384251862E+03  0.50400001928E-02 0. -1.
        1   -1    0    0  501    0  0.00000000000E+00  0.00000000000E+00 -0.12850528413E+04  0.12850528413E+04  0.50400001928E-02 0.  1.
    10030    2    1    2    0    0  0.00000000000E+00  0.00000000000E+00 -0.10912103228E+04  0.14788953599E+04  0.99819412801E+03 0.  0.
        5    1    3    3  502    0 -0.23786472500E+03  0.24603180892E+03 -0.73960919718E+01  0.34232743182E+03  0.46999998093E+01 0. -1.
       -5    1    3    3    0  502  0.23786472500E+03 -0.24603180892E+03 -0.10838142308E+04  0.11365679281E+04  0.46999998093E+01 0.  1.
</event>
<event>
 5   0  0.1006006E-03  0.9993571E+03  0.7818609E-02  0.9309250E-01
        2   -1    0    0  501    0  0.00000000000E+00  0.00000000000E+00  0.80648491254E+03  0.80648491255E+03  0.25500000920E-02 0.  1.
       -2   -1    0    0    0  501  0.00000000000E+00  0.00000000000E+00 -0.30958872378E+03  0.30958872379E+03  0.25500000920E-02 0. -1.
    10030    2    1    2    0    0  0.00000000000E+00  0.00000000000E+00  0.49689618877E+03  0.11160736363E+04  0.99935706297E+03 0.  0.
        2    1    3    3  502    0 -0.36558855164E+03 -0.40280422944E+02 -0.12928699189E+03  0.38986231908E+03  0.25500000920E-02 0. -1.
       -2    1    3    3    0  502  0.36558855164E+03  0.40280422944E+02  0.62618318066E+03  0.72621131725E+03  0.25500000920E-02 0.  1.
</event>
<event>
 5   0  0.5758786E-04  0.9968310E+03  0.7818609E-02  0.9312027E-01
       -1   -1    0    0    0  501  0.00000000000E+00  0.00000000000E+00  0.33274741481E+03  0.33274741485E+03  0.50400001928E-02 0. -1.
        1   -1    0    0  501    0  0.00000000000E+00  0.00000000000E+00 -0.74656626020E+03  0.74656626022E+03  0.50400001928E-02 0.  1.
    10030    2    1    2    0    0  0.00000000000E+00  0.00000000000E+00 -0.41381884539E+03  0.10793136751E+04  0.99683096480E+03 0.  0.
        3    1    3    3  502    0  0.27993387661E+03  0.21980289006E+03 -0.58469540150E+03  0.68450347588E+03  0.10100000352E+00 0.  1.
       -3    1    3    3    0  502 -0.27993387661E+03 -0.21980289006E+03  0.17087655612E+03  0.39481019919E+03  0.10100000352E+00 0. -1.
</event>
<event>
 5   0  0.5768102E-04  0.9909094E+03  0.7818609E-02  0.9318572E-01
       -1   -1    0    0    0  501  0.00000000000E+00  0.00000000000E+00  0.25696974635E+03  0.25696974640E+03  0.50400001928E-02 0.  1.
        1   -1    0    0  501    0  0.00000000000E+00  0.00000000000E+00 -0.95526957363E+03  0.95526957364E+03  0.50400001928E-02 0. -1.
    10030    2    1    2    0    0  0.00000000000E+00  0.00000000000E+00 -0.69829982729E+03  0.12122393200E+04  0.99090944100E+03 0.  0.
        4    1    3    3  502    0 -0.96098417773E+02 -0.29011121151E+03 -0.82622021258E+03  0.88093182116E+03  0.12699999809E+01 0. -1.
       -4    1    3    3    0  502  0.96098417773E+02  0.29011121151E+03  0.12792038530E+03  0.33130749888E+03  0.12699999809E+01 0.  1.
</event>
<event>
 5   0  0.9674819E-04  0.9991917E+03  0.7818609E-02  0.9309432E-01
       -2   -1    0    0    0  501  0.00000000000E+00  0.00000000000E+00  0.46490767638E+03  0.46490767639E+03  0.25500000920E-02 0. -1.
        2   -1    0    0  501    0  0.00000000000E+00  0.00000000000E+00 -0.53687220631E+03  0.53687220632E+03  0.25500000920E-02 0.  1.
    10030    2    1    2    0    0  0.00000000000E+00  0.00000000000E+00 -0.71964529925E+02  0.10017798827E+04  0.99919169323E+03 0.  0.
        4    1    3    3  502    0 -0.47417977058E+03 -0.30872808996E+02  0.11867297146E+03  0.48978002431E+03  0.12699999809E+01 0. -1.
       -4    1    3    3    0  502  0.47417977058E+03  0.30872808996E+02 -0.19063750139E+03  0.51199985839E+03  0.12699999809E+01 0.  1.
</event>
<event>
 5   0  0.3854625E-04  0.9992233E+03  0.7818609E-02  0.9309397E-01
        3   -1    0    0  501    0  0.00000000000E+00  0.00000000000E+00  0.10571446390E+04  0.10571446438E+04  0.10100000352E+00 0. -1.
       -3   -1    0    0    0  501  0.00000000000E+00  0.00000000000E+00 -0.23611887951E+03  0.23611890111E+03  0.10100000352E+00 0.  1.
    10030    2    1    2    0    0  0.00000000000E+00  0.00000000000E+00  0.82102575949E+03  0.12932635449E+04  0.99922334786E+03 0.  0.
        5    1    3    3  502    0 -0.12495646282E+03  0.25057065604E+03 -0.12499222123E+03  0.30666743654E+03  0.46999998093E+01 0.  1.
       -5    1    3    3    0  502  0.12495646282E+03 -0.25057065604E+03  0.94601798072E+03  0.98659610840E+03  0.46999998093E+01 0. -1.
</event>
<event>
 5   0  0.5768102E-04  0.1000165E+04  0.7818609E-02  0.9308364E-01
       -1   -1    0    0    0  501  0.00000000000E+00  0.00000000000E+00  0.16147896919E+03  0.16147896927E+03  0.50400001928E-02 0.  1.
        1   -1    0    0  501    0  0.00000000000E+00  0.00000000000E+00 -0.15486999663E+04  0.15486999663E+04  0.50400001928E-02 0. -1.
    10030    2    1    2    0    0  0.00000000000E+00  0.00000000000E+00 -0.13872209971E+04  0.17101789356E+04  0.10001649349E+04 0.  0.
        4    1    3    3  502    0  0.43042171423E+03 -0.24405170192E+03 -0.56963676928E+03  0.75452749924E+03  0.12699999809E+01 0.  1.
       -4    1    3    3    0  502 -0.43042171423E+03  0.24405170192E+03 -0.81758422785E+03  0.95565143636E+03  0.12699999809E+01 0. -1.
</event>
<event>
 5   0  0.5768102E-04  0.9938199E+03  0.7818609E-02  0.9315349E-01
       -1   -1    0    0    0  501  0.00000000000E+00  0.00000000000E+00  0.14331309791E+03  0.14331309800E+03  0.50400001928E-02 0. -1.
        1   -1    0    0  501    0  0.00000000000E+00  0.00000000000E+00 -0.17229374591E+04  0.17229374591E+04  0.50400001928E-02 0.  1.
    10030    2    1    2    0    0  0.00000000000E+00  0.00000000000E+00 -0.15796243612E+04  0.18662505571E+04  0.99381991297E+03 0.  0.
        4    1    3    3  502    0 -0.43983095140E+02 -0.29154091609E+03 -0.38699706328E+02  0.29737165060E+03  0.12699999809E+01 0. -1.
       -4    1    3    3    0  502  0.43983095140E+02  0.29154091609E+03 -0.15409246548E+04  0.15688789065E+04  0.12699999809E+01 0.  1.
</event>
<event>
 5   0  0.5826939E-04  0.1003329E+04  0.7818609E-02  0.9304901E-01
       -1   -1    0    0    0  501  0.00000000000E+00  0.00000000000E+00  0.16773095130E+03  0.16773095137E+03  0.50400001928E-02 0.  1.
        1   -1    0    0  501    0  0.00000000000E+00  0.00000000000E+00 -0.15004214622E+04  0.15004214622E+04  0.50400001928E-02 0. -1.
    10030    2    1    2    0    0  0.00000000000E+00  0.00000000000E+00 -0.13326905109E+04  0.16681524136E+04  0.10033286984E+04 0.  0.
        1    1    3    3  502    0 -0.21155614350E+03 -0.45445740296E+03 -0.63395251023E+03  0.80819757374E+03  0.50400001928E-02 0. -1.
       -1    1    3    3    0  502  0.21155614350E+03  0.45445740296E+03 -0.69873800072E+03  0.85995483988E+03  0.50400001928E-02 0.  1.
</event>
<event>
 5   0  0.1006749E-03  0.9999617E+03  0.7818609E-02  0.9308587E-01
        2   -1    0    0  501    0  0.00000000000E+00  0.00000000000E+00  0.96634337801E+03  0.96634337801E+03  0.25500000920E-02 0. -1.
       -2   -1    0    0    0  501  0.00000000000E+00  0.00000000000E+00 -0.25868737472E+03  0.25868737473E+03  0.25500000920E-02 0.  1.
    10030    2    1    2    0    0  0.00000000000E+00  0.00000000000E+00  0.70765600329E+03  0.12250307527E+04  0.99996166235E+03 0.  0.
        1    1    3    3  502    0  0.14217712179E+03 -0.29394504407E+02  0.93995114765E+03  0.95109754013E+03  0.50400001928E-02 0. -1.
       -1    1    3    3    0  502 -0.14217712179E+03  0.29394504407E+02 -0.23229514436E+03  0.27393321261E+03  0.50400001928E-02 0.  1.
</event>
<event>
 5   0  0.5758786E-04  0.1000268E+04  0.7818609E-02  0.9308251E-01
        1   -1    0    0  501    0  0.00000000000E+00  0.00000000000E+00  0.58451355225E+03  0.58451355227E+03  0.50400001928E-02 0.  1.
       -1   -1    0    0    0  501  0.00000000000E+00  0.00000000000E+00 -0.42793555211E+03  0.42793555214E+03  0.50400001928E-02 0. -1.
    10030    2    1    2    0    0  0.00000000000E+00  0.00000000000E+00  0.15657800014E+03  0.10124491044E+04  0.10002682235E+04 0.  0.
        3    1    3    3  502    0  0.25297755395E+03  0.10593058811E+03 -0.34503265733E+03  0.44075670968E+03  0.10100000352E+00 0. -1.
       -3    1    3    3    0  502 -0.25297755395E+03 -0.10593058811E+03  0.50161065747E+03  0.57169239473E+03  0.10100000352E+00 0.  1.
</event>
<event>
 5   0  0.1006006E-03  0.1001200E+04  0.7818609E-02  0.9307230E-01
        2   -1    0    0  501    0  0.00000000000E+00  0.00000000000E+00  0.16146344769E+04  0.16146344769E+04  0.25500000920E-02 0.  1.
       -2   -1    0    0    0  501  0.00000000000E+00  0.00000000000E+00 -0.15520558611E+03  0.15520558613E+03  0.25500000920E-02 0. -1.
    10030    2    1    2    0    0  0.00000000000E+00  0.00000000000E+00  0.14594288908E+04  0.17698400630E+04  0.10011998609E+04 0.  0.
        2    1    3    3  502    0  0.49493796405E+03  0.69844445619E+02  0.68103133780E+03  0.84477542455E+03  0.25500000920E-02 0. -1.
       -2    1    3    3    0  502 -0.49493796405E+03 -0.69844445619E+02  0.77839755295E+03  0.92506463844E+03  0.25500000920E-02 0.  1.
</event>
<event>
 5   0  0.9741826E-04  0.1004682E+04  0.7818609E-02  0.9303424E-01
        2   -1    0    0  501    0  0.00000000000E+00  0.00000000000E+00  0.80275740682E+03  0.80275740683E+03  0.25500000920E-02 0. -1.
       -2   -1    0    0    0  501  0.00000000000E+00  0.00000000000E+00 -0.31434968713E+03  0.31434968714E+03  0.25500000920E-02 0.  1.
    10030    2    1    2    0    0  0.00000000000E+00  0.00000000000E+00  0.48840771969E+03  0.11171070940E+04  0.10046821183E+04 0.  0.
        3    1    3    3  502    0  0.42949520290E+03  0.23835853913E+03  0.36116827618E+03  0.60969127959E+03  0.10100000352E+00 0. -1.
       -3    1    3    3    0  502 -0.42949520290E+03 -0.23835853913E+03  0.12723944352E+03  0.50741581438E+03  0.10100000352E+00 0.  1.
</event>
<event>
 5   0  0.3854625E-04  0.9987753E+03  0.7818609E-02  0.9309889E-01
        3   -1    0    0  501    0  0.00000000000E+00  0.00000000000E+00  0.33414032945E+03  0.33414034471E+03  0.10100000352E+00 0.  1.
       -3   -1    0    0    0  501  0.00000000000E+00  0.00000000000E+00 -0.74635713334E+03  0.74635714017E+03  0.10100000352E+00 0. -1.
    10030    2    1    2    0    0  0.00000000000E+00  0.00000000000E+00 -0.41221680389E+03  0.10804974849E+04  0.99877531078E+03 0.  0.
        4    1    3    3  502    0 -0.48303837000E+03 -0.90730839064E+02 -0.11039147812E+03  0.50373211471E+03  0.12699999809E+01 0.  1.
       -4    1    3    3    0  502  0.48303837000E+03  0.90730839064E+02 -0.30182532577E+03  0.57676537017E+03  0.12699999809E+01 0. -1.
</event>
<event>
 5   0  0.5960102E-04  0.1001123E+04  0.7818609E-02  0.9307314E-01
       -1   -1    0    0    0  501  0.00000000000E+00  0.00000000000E+00  0.28018119822E+03  0.28018119827E+03  0.50400001928E-02 0.  1.
        1   -1    0    0  501    0  0.00000000000E+00  0.00000000000E+00 -0.89428562773E+03  0.89428562775E+03  0.50400001928E-02 0. -1.
    10030    2    1    2    0    0  0.00000000000E+00  0.00000000000E+00 -0.61410442951E+03  0.11744668260E+04  0.10011234065E+04 0.  0.
        5    1    3    3  502    0  0.37823748680E+03 -0.14983140979E+03 -0.64913503417E+03  0.76610144913E+03  0.46999998093E+01 0. -1.
       -5    1    3    3    0  502 -0.37823748680E+03  0.14983140979E+03  0.35030604663E+02  0.40836537688E+03  0.46999998093E+01 0.  1.
</event>
<event>
 5   0  0.9674819E-04  0.1000868E+04  0.7818609E-02  0.9307593E-01
       -2   -1    0    0    0  501  0.00000000000E+00  0.00000000000E+00  0.82352447328E+03  0.82352447328E+03  0.25500000920E-02 0. -1.
        2   -1    0    0  501    0  0.00000000000E+00  0.00000000000E+00 -0.30410077635E+03  0.30410077636E+03  0.25500000920E-02 0.  1.
    10030    2    1    2    0    0  0.00000000000E+00  0.00000000000E+00  0.51942369693E+03  0.11276252496E+04  0.10008684862E+04 0.  0.
        4    1    3    3  502    0  0.17211877738E+03  0.17463526604E+03 -0.23178316589E+03  0.33741280142E+03  0.12699999809E+01 0.  1.
       -4    1    3    3    0  502 -0.17211877738E+03 -0.17463526604E+03  0.75120686282E+03  0.79021244822E+03  0.12699999809E+01 0. -1.
</event>
<event>
 5   0  0.9674819E-04  0.9980405E+03  0.7818609E-02  0.9310697E-01
       -2   -1    0    0    0  501  0.00000000000E+00  0.00000000000E+00  0.17423026388E+03  0.17423026390E+03  0.25500000920E-02 0.  1.
        2   -1    0    0  501    0  0.00000000000E+00  0.00000000000E+00 -0.14292650193E+04  0.14292650193E+04  0.25500000920E-02 0. -1.
    10030    2    1    2    0    0  0.00000000000E+00  0.00000000000E+00 -0.12550347554E+04  0.16034952832E+04  0.99804052318E+03 0.  0.
        4    1    3    3  502    0  0.44362991595E+03  0.22369428186E+03 -0.70241134351E+03  0.86036616766E+03  0.12699999809E+01 0. -1.
       -4    1    3    3    0  502 -0.44362991595E+03 -0.22369428186E+03 -0.55262341190E+03  0.74312911552E+03  0.12699999809E+01 0.  1.
</event>
<event>
 5   0  0.1006006E-03  0.1000077E+04  0.7818609E-02  0.9308460E-01
        2   -1    0    0  501    0  0.00000000000E+00  0.00000000000E+00  0.44056375225E+03  0.44056375225E+03  0.25500000920E-02 0.  1.
       -2   -1    0    0    0  501  0.00000000000E+00  0.00000000000E+00 -0.56754261321E+03  0.56754261322E+03  0.25500000920E-02 0. -1.
    10030    2    1    2    0    0  0.00000000000E+00  0.00000000000E+00 -0.12697886097E+03  0.10081063655E+04  0.10000774035E+04 0.  0.
        2    1    3    3  502    0 -0.32853851671E+03 -0.29491519466E+02 -0.44231420134E+03  0.55176911784E+03  0.25500000920E-02 0.  1.
       -2    1    3    3    0  502  0.32853851671E+03  0.29491519466E+02  0.31533534037E+03  0.45633724764E+03  0.25500000920E-02 0. -1.
</event>
<event>
 5   0  0.5960102E-04  0.1000499E+04  0.7818609E-02  0.9307997E-01
        1   -1    0    0  501    0  0.00000000000E+00  0.00000000000E+00  0.78124685905E+03  0.78124685907E+03  0.50400001928E-02 0.  1.
       -1   -1    0    0    0  501  0.00000000000E+00  0.00000000000E+00 -0.32032092302E+03  0.32032092306E+03  0.50400001928E-02 0. -1.
    10030    2    1    2    0    0  0.00000000000E+00  0.00000000000E+00  0.46092593603E+03  0.11015677821E+04  0.10004993054E+04 0.  0.
        5    1    3    3  502    0 -0.44850350200E+03 -0.22151788451E+03  0.22888249304E+03  0.55012257733E+03  0.46999998093E+01 0. -1.
       -5    1    3    3    0  502  0.44850350200E+03  0.22151788451E+03  0.23204344299E+03  0.55144520480E+03  0.46999998093E+01 0.  1.
</event>
<event>
 5   0  0.9741826E-04  0.9995468E+03  0.7818609E-02  0.9309042E-01
        2   -1    0    0  501    0  0.00000000000E+00  0.00000000000E+00  0.12046941316E+04  0.12046941317E+04  0.25500000920E-02 0.  1.
       -2   -1    0    0    0  501  0.00000000000E+00  0.00000000000E+00 -0.20733350099E+03  0.20733350100E+03  0.25500000920E-02 0. -1.
    10030    2    1    2    0    0  0.00000000000E+00  0.00000000000E+00  0.99736063066E+03  0.14120276327E+04  0.99954680120E+03 0.  0.
        3    1    3    3  502    0  0.29901774360E+02  0.39854947726E+03  0.74791348064E+02  0.40660737558E+03  0.10100000352E+00 0. -1.
       -3    1    3    3    0  502 -0.29901774360E+02 -0.39854947726E+03  0.92256928260E+03  0.10054202571E+04  0.10100000352E+00 0.  1.
</event>
<event>
 5   0  0.3854625E-04  0.1000974E+04  0.7818609E-02  0.9307477E-01
       -3   -1    0    0    0  501  0.00000000000E+00  0.00000000000E+00  0.66386184104E+03  0.66386184872E+03  0.10100000352E+00 0. -1.
        3   -1    0    0  501    0  0.00000000000E+00  0.00000000000E+00 -0.37731814071E+03  0.37731815423E+03  0.10100000352E+00 0.  1.
    10030    2    1    2    0    0  0.00000000000E+00  0.00000000000E+00  0.28654370033E+03  0.10411800029E+04  0.10009737790E+04 0.  0.
        2    1    3    3  502    0 -0.55131270341E+02 -0.41440486391E+03  0.42949038020E+03  0.59936035479E+03  0.25500000920E-02 0. -1.
       -2    1    3    3    0  502  0.55131270341E+02  0.41440486391E+03 -0.14294667987E+03  0.44181964816E+03  0.25500000920E-02 0.  1.
</event>
<event>
 5   0  0.5758786E-04  0.1000234E+04  0.7818609E-02  0.9308288E-01
       -1   -1    0    0    0  501  0.00000000000E+00  0.00000000000E+00  0.37613753613E+03  0.37613753616E+03  0.50400001928E-02 0. -1.
        1   -1    0    0  501    0  0.00000000000E+00  0.00000000000E+00 -0.66496143161E+03  0.66496143163E+03  0.50400001928E-02 0.  1.
    10030    2    1    2    0    0  0.00000000000E+00  0.00000000000E+00 -0.28882389549E+03  0.10410989678E+04  0.10002338817E+04 0.  0.
        3    1    3    3  502    0 -0.19366380862E+02 -0.24498063901E+03  0.30895964814E+03  0.39477416908E+03  0.10100000352E+00 0. -1.
       -3    1    3    3    0  502  0.19366380862E+02  0.24498063901E+03 -0.59778354362E+03  0.64632479871E+03  0.10100000352E+00 0.  1.
</event>
<event>
 5   0  0.3854625E-04  0.9960731E+03  0.7818609E-02  0.9312862E-01
       -3   -1    0    0    0  501  0.00000000000E+00  0.00000000000E+00  0.74605921681E+03  0.74605922364E+03  0.10100000352E+00 0.  1.
        3   -1    0    0  501    0  0.00000000000E+00  0.00000000000E+00 -0.33246744065E+03  0.33246745599E+03  0.10100000352E+00 0. -1.
    10030    2    1    2    0    0  0.00000000000E+00  0.00000000000E+00  0.41359177616E+03  0.10785266796E+04  0.99607311046E+03 0.  0.
        2    1    3    3  502    0  0.34571820518E+03  0.33285465551E+03  0.62631278005E+02  0.48397931369E+03  0.25500000920E-02 0. -1.
       -2    1    3    3    0  502 -0.34571820518E+03 -0.33285465551E+03  0.35096049815E+03  0.59454736595E+03  0.25500000920E-02 0.  1.
</event>
<event>
 5   0  0.9674819E-04  0.9984785E+03  0.7818609E-02  0.9310215E-01
        2   -1    0    0  501    0  0.00000000000E+00  0.00000000000E+00  0.68434694285E+03  0.68434694285E+03  0.25500000920E-02 0.  1.
       -2   -1    0    0    0  501  0.00000000000E+00  0.00000000000E+00 -0.36420098150E+03  0.36420098151E+03  0.25500000920E-02 0. -1.
    10030    2    1    2    0    0  0.00000000000E+00  0.00000000000E+00  0.32014596134E+03  0.10485479244E+04  0.99847849908E+03 0.  0.
        4    1    3    3  502    0  0.19645061627E+03 -0.67156596812E+02  0.63686153133E+03  0.66984854715E+03  0.12699999809E+01 0.  1.
       -4    1    3    3    0  502 -0.19645061627E+03  0.67156596812E+02 -0.31671556999E+03  0.37869937721E+03  0.12699999809E+01 0. -1.
</event>
<event>
 5   0  0.5768102E-04  0.9996664E+03  0.7818609E-02  0.9308911E-01
        1   -1    0    0  501    0  0.00000000000E+00  0.00000000000E+00  0.48690678240E+03  0.48690678243E+03  0.50400001928E-02 0. -1.
       -1   -1    0    0    0  501  0.00000000000E+00  0.00000000000E+00 -0.51310275356E+03  0.51310275359E+03  0.50400001928E-02 0.  1.
    10030    2    1    2    0    0  0.00000000000E+00  0.00000000000E+00 -0.26195971158E+02  0.10000095360E+04  0.99966636595E+03 0.  0.
        4    1    3    3  502    0 -0.14681369198E+03  0.46323847441E+03  0.10393556761E+03  0.49693898966E+03  0.12699999809E+01 0.  1.
       -4    1    3    3    0  502  0.14681369198E+03 -0.46323847441E+03 -0.13013153877E+03  0.50307054636E+03  0.12699999809E+01 0. -1.
</event>
<event>
 5   0  0.5758786E-04  0.1000223E+04  0.7818609E-02  0.9308300E-01
       -1   -1    0    0    0  501  0.00000000000E+00  0.00000000000E+00  0.52032798276E+03  0.52032798278E+03  0.50400001928E-02 0. -1.
        1   -1    0    0  501    0  0.00000000000E+00  0.00000000000E+00 -0.48068086155E+03  0.48068086157E+03  0.50400001928E-02 0.  1.
    10030    2    1    2    0    0  0.00000000000E+00  0.00000000000E+00  0.39647121214E+02  0.10010088444E+04  0.10002233812E+04 0.  0.
        3    1    3    3  502    0 -0.17954795193E+03 -0.46477799890E+03  0.62934500292E+02  0.50221192423E+03  0.10100000352E+00 0.  1.
       -3    1    3    3    0  502  0.17954795193E+03  0.46477799890E+03 -0.23287379078E+02  0.49879692013E+03  0.10100000352E+00 0. -1.
</event>
<event>
 5   0  0.1006006E-03  0.1001862E+04  0.7818609E-02  0.9306505E-01
       -2   -1    0    0    0  501  0.00000000000E+00  0.00000000000E+00  0.79265917134E+03  0.79265917135E+03  0.25500000920E-02 0.  1.
        2   -1    0    0  501    0  0.00000000000E+00  0.00000000000E+00 -0.31656953466E+03  0.31656953467E+03  0.25500000920E-02 0. -1.
    10030    2    1    2    0    0  0.00000000000E+00  0.00000000000E+00  0.47608963668E+03  0.11092287060E+04  0.10018617570E+04 0.  0.
        2    1    3    3  502    0  0.23146672453E+02  0.30944317691E+03 -0.19734220527E+03  0.36774283701E+03  0.25500000920E-02 0. -1.
       -2    1    3    3    0  502 -0.23146672453E+02 -0.30944317691E+03  0.67343184195E+03  0.74148586901E+03  0.25500000920E-02 0.  1.
</event>
<event>
 5   0  0.5758786E-04  0.9997331E+03  0.7818609E-02  0.9308838E-01
       -1   -1    0    0    0  501  0.00000000000E+00  0.00000000000E+00  0.74144867664E+03  0.74144867666E+03  0.50400001928E-02 0. -1.
        1   -1    0    0  501    0  0.00000000000E+00  0.00000000000E+00 -0.33699781145E+03  0.33699781149E+03  0.50400001928E-02 0.  1.
    10030    2    1    2    0    0  0.00000000000E+00  0.00000000000E+00  0.40445086519E+03  0.10784464881E+04  0.99973312711E+03 0.  0.
        3    1    3    3  502    0  0.42954458036E+03 -0.11424579752E+03 -0.44486383374E+02  0.44669866495E+03  0.10100000352E+00 0.  1.
       -3    1    3    3    0  502 -0.42954458036E+03  0.11424579752E+03  0.44893724856E+03  0.63174782320E+03  0.10100000352E+00 0. -1.
</event>
<event>
 5   0  0.9674819E-04  0.9735987E+03  0.7818609E-02  0.9337985E-01
        2   -1    0    0  501    0  0.00000000000E+00  0.00000000000E+00  0.30171094385E+03  0.30171094386E+03  0.25500000920E-02 0.  1.
       -2   -1    0    0    0  501  0.00000000000E+00  0.00000000000E+00 -0.78543254545E+03  0.78543254546E+03  0.25500000920E-02 0. -1.
    10030    2    1    2    0    0  0.00000000000E+00  0.00000000000E+00 -0.48372160160E+03  0.10871434893E+04  0.97359867426E+03 0.  0.
        4    1    3    3  502    0 -0.21459749472E+03  0.43686678180E+03 -0.23269958778E+03  0.53949548731E+03  0.12699999809E+01 0.  1.
       -4    1    3    3    0  502  0.21459749472E+03 -0.43686678180E+03 -0.25102201382E+03  0.54764800201E+03  0.12699999809E+01 0. -1.
</event>
<event>
 5   0  0.1006749E-03  0.9976675E+03  0.7818609E-02  0.9311107E-01
       -2   -1    0    0    0  501  0.00000000000E+00  0.00000000000E+00  0.13259270635E+04  0.13259270635E+04  0.25500000920E-02 0.  1.
        2   -1    0    0  501    0  0.00000000000E+00  0.00000000000E+00 -0.18766875877E+03  0.18766875879E+03  0.25500000920E-02 0. -1.
    10030    2    1    2    0    0  0.00000000000E+00  0.00000000000E+00  0.11382583048E+04  0.15135958223E+04  0.99766745211E+03 0.  0.
        1    1    3    3  502    0 -0.19839545723E+03  0.36879040730E+03  0.98034810193E+03  0.10660438654E+04  0.50400001928E-02 0.  1.
       -1    1    3    3    0  502  0.19839545723E+03 -0.36879040730E+03  0.15791020282E+03  0.44755195692E+03  0.50400001928E-02 0. -1.
</event>
<event>
 5   0  0.9741826E-04  0.1000107E+04  0.7818609E-02  0.9308427E-01
        2   -1    0    0  501    0  0.00000000000E+00  0.00000000000E+00  0.21681905824E+04  0.21681905824E+04  0.25500000920E-02 0.  1.
       -2   -1    0    0    0  501  0.00000000000E+00  0.00000000000E+00 -0.11532824026E+03  0.11532824029E+03  0.25500000920E-02 0. -1.
    10030    2    1    2    0    0  0.00000000000E+00  0.00000000000E+00  0.20528623421E+04  0.22835188227E+04  0.10001072032E+04 0.  0.
        3    1    3    3  502    0  0.30323269938E+03  0.33692124655E+03  0.54430014676E+03  0.70832807111E+03  0.10100000352E+00 0. -1.
       -3    1    3    3    0  502 -0.30323269938E+03 -0.33692124655E+03  0.15085621953E+04  0.15751907516E+04  0.10100000352E+00 0.  1.
</event>
<event>
 5   0  0.9741826E-04  0.9795228E+03  0.7818609E-02  0.9331293E-01
        2   -1    0    0  501    0  0.00000000000E+00  0.00000000000E+00  0.11890645485E+04  0.11890645485E+04  0.25500000920E-02 0.  1.
       -2   -1    0    0    0  501  0.00000000000E+00  0.00000000000E+00 -0.20172684973E+03  0.20172684974E+03  0.25500000920E-02 0. -1.
    10030    2    1    2    0    0  0.00000000000E+00  0.00000000000E+00  0.98733769879E+03  0.13907913983E+04  0.97952283384E+03 0.  0.
        3    1    3    3  502    0 -0.29581383757E+02  0.14377277788E+03  0.11570983133E+04  0.11663713760E+04  0.10100000352E+00 0.  1.
       -3    1    3    3    0  502  0.29581383757E+02 -0.14377277788E+03 -0.16976061454E+03  0.22442002222E+03  0.10100000352E+00 0. -1.
</event>
<event>
 5   0  0.1020150E-03  0.1001667E+04  0.7818609E-02  0.9306718E-01
        2   -1    0    0  501    0  0.00000000000E+00  0.00000000000E+00  0.62488780496E+03  0.62488780496E+03  0.25500000920E-02 0.  1.
       -2   -1    0    0    0  501  0.00000000000E+00  0.00000000000E+00 -0.40140712519E+03  0.40140712520E+03  0.25500000920E-02 0. -1.
    10030    2    1    2    0    0  0.00000000000E+00  0.00000000000E+00  0.22348067977E+03  0.10262949302E+04  0.10016674445E+04 0.  0.
        5    1    3    3  502    0 -0.27639087745E+03 -0.39090586210E+03 -0.38887873236E+02  0.48034744389E+03  0.46999998093E+01 0. -1.
       -5    1    3    3    0  502  0.27639087745E+03  0.39090586210E+03  0.26236855300E+03  0.54594748627E+03  0.46999998093E+01 0.  1.
</event>
<event>
 5   0  0.5758786E-04  0.1000549E+04  0.7818609E-02  0.9307943E-01
       -1   -1    0    0    0  501  0.00000000000E+00  0.00000000000E+00  0.67662769870E+03  0.67662769872E+03  0.50400001928E-02 0.  1.
        1   -1    0    0  501    0  0.00000000000E+00  0.00000000000E+00 -0.36988538322E+03  0.36988538325E+03  0.50400001928E-02 0. -1.
    10030    2    1    2    0    0  0.00000000000E+00  0.00000000000E+00  0.30674231548E+03  0.10465130820E+04  0.10005492405E+04 0.  0.
        3    1    3    3  502    0 -0.31271998920E+02  0.31179374406E+03  0.56126228500E+03  0.64281306732E+03  0.10100000352E+00 0.  1.
       -3    1    3    3    0  502  0.31271998920E+02 -0.31179374406E+03 -0.25451996951E+03  0.40370001466E+03  0.10100000352E+00 0. -1.
</event>
<event>
 5   0  0.5768102E-04  0.1000553E+04  0.7818609E-02  0.9307939E-01
       -1   -1    0    0    0  501  0.00000000000E+00  0.00000000000E+00  0.18849009787E+03  0.18849009794E+03  0.50400001928E-02 0. -1.
        1   -1    0    0  501    0  0.00000000000E+00  0.00000000000E+00 -0.13277957178E+04  0.13277957178E+04  0.50400001928E-02 0.  1.
    10030    2    1    2    0    0  0.00000000000E+00  0.00000000000E+00 -0.11393056199E+04  0.15162858157E+04  0.10005525371E+04 0.  0.
        4    1    3    3  502    0 -0.53670143766E+02 -0.20365188848E+03  0.11803385671E+03  0.24142945190E+03  0.12699999809E+01 0. -1.
       -4    1    3    3    0  502  0.53670143766E+02  0.20365188848E+03 -0.12573394766E+04  0.12748563638E+04  0.12699999809E+01 0.  1.
</event>
<event>
 5   0  0.9674819E-04  0.1017919E+04  0.7818609E-02  0.9289107E-01
        2   -1    0    0  501    0  0.00000000000E+00  0.00000000000E+00  0.78837776901E+03  0.78837776902E+03  0.25500000920E-02 0.  1.
       -2   -1    0    0    0  501  0.00000000000E+00  0.00000000000E+00 -0.32857335142E+03  0.32857335143E+03  0.25500000920E-02 0. -1.
    10030    2    1    2    0    0  0.00000000000E+00  0.00000000000E+00  0.45980441759E+03  0.11169511204E+04  0.10179193008E+04 0.  0.
        4    1    3    3  502    0 -0.42740545659E+03  0.66526531361E+01  0.53303722346E+03  0.68326420703E+03  0.12699999809E+01 0.  1.
       -4    1    3    3    0  502  0.42740545659E+03 -0.66526531361E+01 -0.73232805872E+02  0.43368691342E+03  0.12699999809E+01 0. -1.
</event>
<event>
 5   0  0.5758786E-04  0.1004035E+04  0.7818609E-02  0.9304130E-01
        1   -1    0    0  501    0  0.00000000000E+00  0.00000000000E+00  0.39907397093E+03  0.39907397097E+03  0.50400001928E-02 0. -1.
       -1   -1    0    0    0  501  0.00000000000E+00  0.00000000000E+00 -0.63151615150E+03  0.63151615152E+03  0.50400001928E-02 0.  1.
    10030    2    1    2    0    0  0.00000000000E+00  0.00000000000E+00 -0.23244218056E+03  0.10305901225E+04  0.10040351753E+04 0.  0.
        3    1    3    3  502    0  0.49632552036E+03  0.71486032650E+02 -0.14077816600E+03  0.52083373283E+03  0.10100000352E+00 0. -1.
       -3    1    3    3    0  502 -0.49632552036E+03 -0.71486032650E+02 -0.91664014557E+02  0.50975638965E+03  0.10100000352E+00 0.  1.
</event>
<event>
 5   0  0.5888774E-04  0.1000429E+04  0.7818609E-02  0.9308075E-01
        1   -1    0    0  501    0  0.00000000000E+00  0.00000000000E+00  0.91973049589E+03  0.91973049591E+03  0.50400001928E-02 0.  1.
       -1   -1    0    0    0  501  0.00000000000E+00  0.00000000000E+00 -0.27205197569E+03  0.27205197574E+03  0.50400001928E-02 0. -1.
    10030    2    1    2    0    0  0.00000000000E+00  0.00000000000E+00  0.64767852020E+03  0.11917824716E+04  0.10004289051E+04 0.  0.
        2    1    3    3  502    0  0.32115450999E+03 -0.10167708285E+03 -0.11666719572E+03  0.35649639974E+03  0.25500000920E-02 0. -1.
       -2    1    3    3    0  502 -0.32115450999E+03  0.10167708285E+03  0.76434571592E+03  0.83528607191E+03  0.25500000920E-02 0.  1.
</event>
<event>
 5   0  0.5758786E-04  0.1000481E+04  0.7818609E-02  0.9308018E-01
       -1   -1    0    0    0  501  0.00000000000E+00  0.00000000000E+00  0.96378790166E+03  0.96378790167E+03  0.50400001928E-02 0.  1.
        1   -1    0    0  501    0  0.00000000000E+00  0.00000000000E+00 -0.25964253889E+03  0.25964253894E+03  0.50400001928E-02 0. -1.
    10030    2    1    2    0    0  0.00000000000E+00  0.00000000000E+00  0.70414536277E+03  0.12234304406E+04  0.10004805601E+04 0.  0.
        3    1    3    3  502    0 -0.15001537053E+03 -0.20704408938E+03 -0.17370487162E+03  0.30910396142E+03  0.10100000352E+00 0. -1.
       -3    1    3    3    0  502  0.15001537053E+03  0.20704408938E+03  0.87785023438E+03  0.91432647919E+03  0.10100000352E+00 0.  1.
</event>
<event>
 5   0  0.5758786E-04  0.1001103E+04  0.7818609E-02  0.9307336E-01
        1   -1    0    0  501    0  0.00000000000E+00  0.00000000000E+00  0.98313261877E+03  0.98313261878E+03  0.50400001928E-02 0. -1.
       -1   -1    0    0    0  501  0.00000000000E+00  0.00000000000E+00 -0.25485058359E+03  0.25485058364E+03  0.50400001928E-02 0.  1.
    10030    2    1    2    0    0  0.00000000000E+00  0.00000000000E+00  0.72828203517E+03  0.12379832024E+04  0.10011032348E+04 0.  0.
        3    1    3    3  502    0  0.48939887304E+03  0.88272098583E+02  0.43462494591E+03  0.66045595926E+03  0.10100000352E+00 0. -1.
       -3    1    3    3    0  502 -0.48939887304E+03 -0.88272098583E+02  0.29365708926E+03  0.57752724316E+03  0.10100000352E+00 0.  1.
</event>
<event>
 5   0  0.5960102E-04  0.9989905E+03  0.7818609E-02  0.9309653E-01
        1   -1    0    0  501    0  0.00000000000E+00  0.00000000000E+00  0.35132125548E+03  0.35132125552E+03  0.50400001928E-02 0. -1.
       -1   -1    0    0    0  501  0.00000000000E+00  0.00000000000E+00 -0.71016349168E+03  0.71016349170E+03  0.50400001928E-02 0.  1.
    10030    2    1    2    0    0  0.00000000000E+00  0.00000000000E+00 -0.35884223620E+03  0.10614847472E+04  0.99899054955E+03 0.  0.
        5    1    3    3  502    0 -0.49768324248E+01 -0.49644221883E+03 -0.12128268304E+03  0.51108827486E+03  0.46999998093E+01 0. -1.
       -5    1    3    3    0  502  0.49768324248E+01  0.49644221883E+03 -0.23755955316E+03  0.55039647236E+03  0.46999998093E+01 0.  1.
</event>
<event>
 5   0  0.5888774E-04  0.1001787E+04  0.7818609E-02  0.9306587E-01
       -1   -1    0    0    0  501  0.00000000000E+00  0.00000000000E+00  0.25770526554E+03  0.25770526559E+03  0.50400001928E-02 0. -1.
        1   -1    0    0  501    0  0.00000000000E+00  0.00000000000E+00 -0.97357040380E+03  0.97357040382E+03  0.50400001928E-02 0.  1.
    10030    2    1    2    0    0  0.00000000000E+00  0.00000000000E+00 -0.71586513827E+03  0.12312756694E+04  0.10017868425E+04 0.  0.
        2    1    3    3  502    0  0.20889530538E+03 -0.20583891542E+03  0.14115136872E+03  0.32546983979E+03  0.25500000920E-02 0. -1.
       -2    1    3    3    0  502 -0.20889530538E+03  0.20583891542E+03 -0.85701650699E+03  0.90580582962E+03  0.25500000920E-02 0.  1.
</event>
<event>
 5   0  0.3854625E-04  0.1000393E+04  0.7818609E-02  0.9308114E-01
        3   -1    0    0  501    0  0.00000000000E+00  0.00000000000E+00  0.43494736784E+03  0.43494737957E+03  0.10100000352E+00 0.  1.
       -3   -1    0    0    0  501  0.00000000000E+00  0.00000000000E+00 -0.57523402221E+03  0.57523403108E+03  0.10100000352E+00 0. -1.
    10030    2    1    2    0    0  0.00000000000E+00  0.00000000000E+00 -0.14028665437E+03  0.10101814106E+04  0.10003929913E+04 0.  0.
        1    1    3    3  502    0 -0.72228767236E+01 -0.43675342733E+03 -0.31623014413E+03  0.53926545440E+03  0.50400001928E-02 0. -1.
       -1    1    3    3    0  502  0.72228767236E+01  0.43675342733E+03  0.17594348975E+03  0.47091595624E+03  0.50400001928E-02 0.  1.
</event>
<event>
 5   0  0.3854625E-04  0.1000242E+04  0.7818609E-02  0.9308279E-01
        4   -1    0    0  501    0  0.00000000000E+00  0.00000000000E+00  0.90109690987E+03  0.90109780483E+03  0.12699999809E+01 0.  1.
       -4   -1    0    0    0  501  0.00000000000E+00  0.00000000000E+00 -0.27757141289E+03  0.27757431825E+03  0.12699999809E+01 0. -1.
    10030    2    1    2    0    0  0.00000000000E+00  0.00000000000E+00  0.62352549698E+03  0.11786721231E+04  0.10002419349E+04 0.  0.
        5    1    3    3  502    0  0.12286322875E+03 -0.33057835791E+03 -0.10606057209E+03  0.36830470896E+03  0.46999998093E+01 0. -1.
       -5    1    3    3    0  502 -0.12286322875E+03  0.33057835791E+03  0.72958606907E+03  0.81036741412E+03  0.46999998093E+01 0.  1.
</event>
<event>
 5   0  0.1020150E-03  0.1001162E+04  0.7818609E-02  0.9307271E-01
        2   -1    0    0  501    0  0.00000000000E+00  0.00000000000E+00  0.90350462845E+03  0.90350462845E+03  0.25500000920E-02 0.  1.
       -2   -1    0    0    0  501  0.00000000000E+00  0.00000000000E+00 -0.27734376345E+03  0.27734376346E+03  0.25500000920E-02 0. -1.
    10030    2    1    2    0    0  0.00000000000E+00  0.00000000000E+00  0.62616086500E+03  0.11808483919E+04  0.10011620727E+04 0.  0.
        5    1    3    3  502    0  0.30765726047E+03 -0.36825908655E+03  0.14506574458E+03  0.50133213042E+03  0.46999998093E+01 0. -1.
       -5    1    3    3    0  502 -0.30765726047E+03  0.36825908655E+03  0.48109512042E+03  0.67951626149E+03  0.46999998093E+01 0.  1.
</event>
<event>
 5   0  0.5758786E-04  0.9996058E+03  0.7818609E-02  0.9308977E-01
       -1   -1    0    0    0  501  0.00000000000E+00  0.00000000000E+00  0.21965330020E+03  0.21965330025E+03  0.50400001928E-02 0.  1.
        1   -1    0    0  501    0  0.00000000000E+00  0.00000000000E+00 -0.11372600673E+04  0.11372600673E+04  0.50400001928E-02 0. -1.
    10030    2    1    2    0    0  0.00000000000E+00  0.00000000000E+00 -0.91760676709E+03  0.13569133676E+04  0.99960577631E+03 0.  0.
        3    1    3    3  502    0  0.54361047739E+02 -0.39654396688E+03 -0.86513349385E+03  0.95323565479E+03  0.10100000352E+00 0.  1.
       -3    1    3    3    0  502 -0.54361047739E+02  0.39654396688E+03 -0.52473273240E+02  0.40367771276E+03  0.10100000352E+00 0. -1.
</event>
<event>
 5   0  0.1020150E-03  0.1017696E+04  0.7818609E-02  0.9289346E-01
       -2   -1    0    0    0  501  0.00000000000E+00  0.00000000000E+00  0.16110004876E+03  0.16110004878E+03  0.25500000920E-02 0. -1.
        2   -1    0    0  501    0  0.00000000000E+00  0.00000000000E+00 -0.16072389330E+04  0.16072389330E+04  0.25500000920E-02 0.  1.
    10030    2    1    2    0    0  0.00000000000E+00  0.00000000000E+00 -0.14461388843E+04  0.17683389818E+04  0.10176959674E+04 0.  0.
        5    1    3    3  502    0  0.24976290494E+03  0.44125080966E+03 -0.64893325284E+03  0.82354128151E+03  0.46999998093E+01 0. -1.
       -5    1    3    3    0  502 -0.24976290494E+03 -0.44125080966E+03 -0.79720563144E+03  0.94479770030E+03  0.46999998093E+01 0.  1.
</event>
<event>
 5   0  0.5758786E-04  0.1000259E+04  0.7818609E-02  0.9308261E-01
        1   -1    0    0  501    0  0.00000000000E+00  0.00000000000E+00  0.43273834321E+03  0.43273834324E+03  0.50400001928E-02 0.  1.
       -1   -1    0    0    0  501  0.00000000000E+00  0.00000000000E+00 -0.57801556729E+03  0.57801556731E+03  0.50400001928E-02 0. -1.
    10030    2    1    2    0    0  0.00000000000E+00  0.00000000000E+00 -0.14527722408E+03  0.10107539105E+04  0.10002589644E+04 0.  0.
        3    1    3    3  502    0  0.20936640228E+03 -0.41438796768E+03  0.11526352678E+03  0.47836949001E+03  0.10100000352E+00 0.  1.
       -3    1    3    3    0  502 -0.20936640228E+03  0.41438796768E+03 -0.26054075087E+03  0.53238442053E+03  0.10100000352E+00 0. -1.
</event>
<event>
 5   0  0.9674819E-04  0.1002823E+04  0.7818609E-02  0.9305454E-01
        2   -1    0    0  501    0  0.00000000000E+00  0.00000000000E+00  0.41458886205E+03  0.41458886206E+03  0.25500000920E-02 0.  1.
       -2   -1    0    0    0  501  0.00000000000E+00  0.00000000000E+00 -0.60641626158E+03  0.60641626159E+03  0.25500000920E-02 0. -1.
    10030    2    1    2    0    0  0.00000000000E+00  0.00000000000E+00 -0.19182739953E+03  0.10210051236E+04  0.10028228714E+04 0.  0.
        4    1    3    3  502    0  0.18774671180E+03 -0.30128025399E+03  0.26461569250E+03  0.44276596171E+03  0.12699999809E+01 0.  1.
       -4    1    3    3    0  502 -0.18774671180E+03  0.30128025399E+03 -0.45644309203E+03  0.57823916194E+03  0.12699999809E+01 0. -1.
</event>
<event>
 5   0  0.5768102E-04  0.1001110E+04  0.7818609E-02  0.9307328E-01
        1   -1    0    0  501    0  0.00000000000E+00  0.00000000000E+00  0.41318420107E+03  0.41318420110E+03  0.50400001928E-02 0. -1.
       -1   -1    0    0    0  501  0.00000000000E+00  0.00000000000E+00 -0.60640128337E+03  0.60640128340E+03  0.50400001928E-02 0.  1.
    10030    2    1    2    0    0  0.00000000000E+00  0.00000000000E+00 -0.19321708231E+03  0.10195854845E+04  0.10011102433E+04 0.  0.
        4    1    3    3  502    0 -0.35827032615E+03  0.35580942118E+02 -0.45077636327E+03  0.57690950124E+03  0.12699999809E+01 0.  1.
       -4    1    3    3    0  502  0.35827032615E+03 -0.35580942118E+02  0.25755928096E+03  0.44267598325E+03  0.12699999809E+01 0. -1.
</event>
<event>
 5   0  0.9674819E-04  0.1000075E+04  0.7818609E-02  0.9308463E-01
        2   -1    0    0  501    0  0.00000000000E+00  0.00000000000E+00  0.16479560149E+04  0.16479560149E+04  0.25500000920E-02 0.  1.
       -2   -1    0    0    0  501  0.00000000000E+00  0.00000000000E+00 -0.15172582209E+03  0.15172582211E+03  0.25500000920E-02 0. -1.
    10030    2    1    2    0    0  0.00000000000E+00  0.00000000000E+00  0.14962301928E+04  0.17996818371E+04  0.10000749595E+04 0.  0.
        4    1    3    3  502    0 -0.74521840341E+02  0.45019289480E+03  0.11160717171E+04  0.12057548829E+04  0.12699999809E+01 0.  1.
       -4    1    3    3    0  502  0.74521840341E+02 -0.45019289480E+03  0.38015847579E+03  0.59392695412E+03  0.12699999809E+01 0. -1.
</event>
<event>
 5   0  0.1006006E-03  0.9982815E+03  0.7818609E-02  0.9310432E-01
        2   -1    0    0  501    0  0.00000000000E+00  0.00000000000E+00  0.23038321331E+04  0.23038321331E+04  0.25500000920E-02 0.  1.
       -2   -1    0    0    0  501  0.00000000000E+00  0.00000000000E+00 -0.10814220912E+03  0.10814220915E+03  0.25500000920E-02 0. -1.
    10030    2    1    2    0    0  0.00000000000E+00  0.00000000000E+00  0.21956899240E+04  0.24119743423E+04  0.99828151610E+03 0.  0.
        2    1    3    3  502    0  0.44565790206E+03 -0.22477864681E+03  0.10923936036E+04  0.12010246421E+04  0.25500000920E-02 0.  1.
       -2    1    3    3    0  502 -0.44565790206E+03  0.22477864681E+03  0.11032963204E+04  0.12109497002E+04  0.25500000920E-02 0. -1.
</event>
<event>
 5   0  0.5826939E-04  0.9997485E+03  0.7818609E-02  0.9308821E-01
       -1   -1    0    0    0  501  0.00000000000E+00  0.00000000000E+00  0.23184016538E+03  0.23184016543E+03  0.50400001928E-02 0. -1.
        1   -1    0    0  501    0  0.00000000000E+00  0.00000000000E+00 -0.10777867762E+04  0.10777867762E+04  0.50400001928E-02 0.  1.
    10030    2    1    2    0    0  0.00000000000E+00  0.00000000000E+00 -0.84594661078E+03  0.13096269416E+04  0.99974849731E+03 0.  0.
        1    1    3    3  502    0  0.91250695268E+02  0.32065375488E+03  0.64937087195E+02  0.33965032788E+03  0.50400001928E-02 0. -1.
       -1    1    3    3    0  502 -0.91250695268E+02 -0.32065375488E+03 -0.91088369797E+03  0.96997661372E+03  0.50400001928E-02 0.  1.
</event>
<event>
 5   0  0.3854625E-04  0.1002591E+04  0.7818609E-02  0.9305708E-01
        3   -1    0    0  501    0  0.00000000000E+00  0.00000000000E+00  0.36499112096E+03  0.36499113493E+03  0.10100000352E+00 0.  1.
       -3   -1    0    0    0  501  0.00000000000E+00  0.00000000000E+00 -0.68850156232E+03  0.68850156973E+03  0.10100000352E+00 0. -1.
    10030    2    1    2    0    0  0.00000000000E+00  0.00000000000E+00 -0.32351044136E+03  0.10534927047E+04  0.10025905810E+04 0.  0.
        2    1    3    3  502    0 -0.40608048085E+03  0.72065704550E+02  0.13767226571E+03  0.43479705088E+03  0.25500000920E-02 0.  1.
       -2    1    3    3    0  502  0.40608048085E+03 -0.72065704550E+02 -0.46118270707E+03  0.61869565378E+03  0.25500000920E-02 0. -1.
</event>
<event>
 5   0  0.5826939E-04  0.1000074E+04  0.7818609E-02  0.9308464E-01
       -1   -1    0    0    0  501  0.00000000000E+00  0.00000000000E+00  0.17819184256E+03  0.17819184263E+03  0.50400001928E-02 0. -1.
        1   -1    0    0  501    0  0.00000000000E+00  0.00000000000E+00 -0.14031897194E+04  0.14031897194E+04  0.50400001928E-02 0.  1.
    10030    2    1    2    0    0  0.00000000000E+00  0.00000000000E+00 -0.12249978768E+04  0.15813815620E+04  0.10000739205E+04 0.  0.
        1    1    3    3  502    0 -0.10033423146E+03 -0.48080801117E+03 -0.76078126904E+03  0.90555587401E+03  0.50400001928E-02 0.  1.
       -1    1    3    3    0  502  0.10033423146E+03  0.48080801117E+03 -0.46421660779E+03  0.67582568801E+03  0.50400001928E-02 0. -1.
</event>
<event>
 5   0  0.1020150E-03  0.9994908E+03  0.7818609E-02  0.9309103E-01
       -2   -1    0    0    0  501  0.00000000000E+00  0.00000000000E+00  0.20112467334E+03  0.20112467336E+03  0.25500000920E-02 0.  1.
        2   -1    0    0  501    0  0.00000000000E+00  0.00000000000E+00 -0.12417446433E+04  0.12417446433E+04  0.25500000920E-02 0. -1.
    10030    2    1    2    0    0  0.00000000000E+00  0.00000000000E+00 -0.10406199699E+04  0.14428693166E+04  0.99949084190E+03 0.  0.
        5    1    3    3  502    0  0.39323862776E+03  0.11019750403E+03 -0.10455372090E+03  0.42158472317E+03  0.46999998093E+01 0.  1.
       -5    1    3    3    0  502 -0.39323862776E+03 -0.11019750403E+03 -0.93606624901E+03  0.10212845934E+04  0.46999998093E+01 0. -1.
</event>
<event>
 5   0  0.9741826E-04  0.1000264E+04  0.7818609E-02  0.9308255E-01
        2   -1    0    0  501    0  0.00000000000E+00  0.00000000000E+00  0.57928135244E+03  0.57928135245E+03  0.25500000920E-02 0. -1.
       -2   -1    0    0    0  501  0.00000000000E+00  0.00000000000E+00 -0.43179716058E+03  0.43179716059E+03  0.25500000920E-02 0.  1.
    10030    2    1    2    0    0  0.00000000000E+00  0.00000000000E+00  0.14748419186E+03  0.10110785130E+04  0.10002640515E+04 0.  0.
        3    1    3    3  502    0  0.20573740391E+03  0.44540510637E+03  0.17184002047E+03  0.51984862314E+03  0.10100000352E+00 0.  1.
       -3    1    3    3    0  502 -0.20573740391E+03 -0.44540510637E+03 -0.24355828606E+02  0.49122988990E+03  0.10100000352E+00 0. -1.
</event>
<event>
 5   0  0.1020150E-03  0.9972127E+03  0.7818609E-02  0.9311607E-01
       -2   -1    0    0    0  501  0.00000000000E+00  0.00000000000E+00  0.20182735144E+03  0.20182735146E+03  0.25500000920E-02 0. -1.
        2   -1    0    0  501    0  0.00000000000E+00  0.00000000000E+00 -0.12317869089E+04  0.12317869089E+04  0.25500000920E-02 0.  1.
    10030    2    1    2    0    0  0.00000000000E+00  0.00000000000E+00 -0.10299595575E+04  0.14336142604E+04  0.99721269422E+03 0.  0.
        5    1    3    3  502    0  0.18713256861E+03 -0.15612984725E+03 -0.11402889997E+04  0.11660515513E+04  0.46999998093E+01 0.  1.
       -5    1    3    3    0  502 -0.18713256861E+03  0.15612984725E+03  0.11032944227E+03  0.26756270904E+03  0.46999998093E+01 0. -1.
</event>
<event>
 5   0  0.5888774E-04  0.1000603E+04  0.7818609E-02  0.9307884E-01
       -1   -1    0    0    0  501  0.00000000000E+00  0.00000000000E+00  0.10700696612E+03  0.10700696624E+03  0.50400001928E-02 0.  1.
        1   -1    0    0  501    0  0.00000000000E+00  0.00000000000E+00 -0.23391141352E+04  0.23391141352E+04  0.50400001928E-02 0. -1.
    10030    2    1    2    0    0  0.00000000000E+00  0.00000000000E+00 -0.22321071691E+04  0.24461211014E+04  0.10006028326E+04 0.  0.
        2    1    3    3  502    0  0.45379616657E+03  0.13004275473E+03 -0.71095383774E+03  0.85340344401E+03  0.25500000920E-02 0.  1.
       -2    1    3    3    0  502 -0.45379616657E+03 -0.13004275473E+03 -0.15211533313E+04  0.15927176574E+04  0.25500000920E-02 0. -1.
</event>
<event>
 5   0  0.9674819E-04  0.1001397E+04  0.7818609E-02  0.9307014E-01
       -2   -1    0    0    0  501  0.00000000000E+00  0.00000000000E+00  0.83562518765E+02  0.83562518804E+02  0.25500000920E-02 0. -1.
        2   -1    0    0  501    0  0.00000000000E+00  0.00000000000E+00 -0.30001377205E+04  0.30001377205E+04  0.25500000920E-02 0.  1.
    10030    2    1    2    0    0  0.00000000000E+00  0.00000000000E+00 -0.29165752018E+04  0.30837002393E+04  0.10013971532E+04 0.  0.
        4    1    3    3  502    0 -0.42180230910E+03 -0.31416564416E+02 -0.22833896183E+04  0.23222346889E+04  0.12699999809E+01 0.  1.
       -4    1    3    3    0  502  0.42180230910E+03  0.31416564416E+02 -0.63318558344E+03  0.76146555041E+03  0.12699999809E+01 0. -1.
</event>
<event>
 5   0  0.5826939E-04  0.9721332E+03  0.7818609E-02  0.9339648E-01
       -1   -1    0    0    0  501  0.00000000000E+00  0.00000000000E+00  0.17470347878E+03  0.17470347886E+03  0.50400001928E-02 0. -1.
        1   -1    0    0  501    0  0.00000000000E+00  0.00000000000E+00 -0.13523527025E+04  0.13523527025E+04  0.50400001928E-02 0.  1.
    10030    2    1    2    0    0  0.00000000000E+00  0.00000000000E+00 -0.11776492238E+04  0.15270561814E+04  0.97213316318E+03 0.  0.
        1    1    3    3  502    0  0.40567261572E+03 -0.24662851245E+03 -0.75255929081E+03  0.88979850557E+03  0.50400001928E-02 0.  1.
       -1    1    3    3    0  502 -0.40567261572E+03  0.24662851245E+03 -0.42508993294E+03  0.63725767584E+03  0.50400001928E-02 0. -1.
</event>
<event>
 5   0  0.9741826E-04  0.9994385E+03  0.7818609E-02  0.9309161E-01
        2   -1    0    0  501    0  0.00000000000E+00  0.00000000000E+00  0.17231628992E+04  0.17231628992E+04  0.25500000920E-02 0. -1.
       -2   -1    0    0    0  501  0.00000000000E+00  0.00000000000E+00 -0.14491915426E+03  0.14491915428E+03  0.25500000920E-02 0.  1.
    10030    2    1    2    0    0  0.00000000000E+00  0.00000000000E+00  0.15782437450E+04  0.18680820535E+04  0.99943846239E+03 0.  0.
        3    1    3    3  502    0  0.38578537417E+03  0.17940810698E+03  0.29920369260E+03  0.52013506288E+03  0.10100000352E+00 0.  1.
       -3    1    3    3    0  502 -0.38578537417E+03 -0.17940810698E+03  0.12790400524E+04  0.13479469906E+04  0.10100000352E+00 0. -1.
</event>
<event>
 5   0  0.5826939E-04  0.1029389E+04  0.7818609E-02  0.9276886E-01
       -1   -1    0    0    0  501  0.00000000000E+00  0.00000000000E+00  0.74537189419E+03  0.74537189420E+03  0.50400001928E-02 0. -1.
        1   -1    0    0  501    0  0.00000000000E+00  0.00000000000E+00 -0.35540734466E+03  0.35540734469E+03  0.50400001928E-02 0.  1.
    10030    2    1    2    0    0  0.00000000000E+00  0.00000000000E+00  0.38996454953E+03  0.11007792389E+04  0.10293894224E+04 0.  0.
        1    1    3    3  502    0  0.99717198408E+02 -0.67806015511E+02  0.73005302890E+03  0.73994499825E+03  0.50400001928E-02 0. -1.
       -1    1    3    3    0  502 -0.99717198408E+02  0.67806015511E+02 -0.34008847937E+03  0.36083424065E+03  0.50400001928E-02 0.  1.
</event>
<event>
 5   0  0.1020150E-03  0.9983485E+03  0.7818609E-02  0.9310358E-01
       -2   -1    0    0    0  501  0.00000000000E+00  0.00000000000E+00  0.23968068370E+03  0.23968068372E+03  0.25500000920E-02 0.  1.
        2   -1    0    0  501    0  0.00000000000E+00  0.00000000000E+00 -0.10396120573E+04  0.10396120573E+04  0.25500000920E-02 0. -1.
    10030    2    1    2    0    0  0.00000000000E+00  0.00000000000E+00 -0.79993137363E+03  0.12792927411E+04  0.99834849366E+03 0.  0.
        5    1    3    3  502    0  0.28077681623E+03 -0.25516322110E+03  0.15671224890E+02  0.37975198120E+03  0.46999998093E+01 0.  1.
       -5    1    3    3    0  502 -0.28077681623E+03  0.25516322110E+03 -0.81560259852E+03  0.89954075986E+03  0.46999998093E+01 0. -1.
</event>
<event>
 5   0  0.3854625E-04  0.1006063E+04  0.7818609E-02  0.9301920E-01
        3   -1    0    0  501    0  0.00000000000E+00  0.00000000000E+00  0.82217500531E+03  0.82217501152E+03  0.10100000352E+00 0.  1.
       -3   -1    0    0    0  501  0.00000000000E+00  0.00000000000E+00 -0.30776984430E+03  0.30776986087E+03  0.10100000352E+00 0. -1.
    10030    2    1    2    0    0  0.00000000000E+00  0.00000000000E+00  0.51440516102E+03  0.11299448724E+04  0.10060629925E+04 0.  0.
        4    1    3    3  502    0  0.22254209405E+03 -0.44409367629E+03  0.34631256641E+03  0.60553958045E+03  0.12699999809E+01 0.  1.
       -4    1    3    3    0  502 -0.22254209405E+03  0.44409367629E+03  0.16809259461E+03  0.52440529193E+03  0.12699999809E+01 0. -1.
</event>
<event>
 5   0  0.5768102E-04  0.1000293E+04  0.7818609E-02  0.9308223E-01
        1   -1    0    0  501    0  0.00000000000E+00  0.00000000000E+00  0.10160345064E+04  0.10160345064E+04  0.50400001928E-02 0.  1.
       -1   -1    0    0    0  501  0.00000000000E+00  0.00000000000E+00 -0.24619894724E+03  0.24619894730E+03  0.50400001928E-02 0. -1.
    10030    2    1    2    0    0  0.00000000000E+00  0.00000000000E+00  0.76983555915E+03  0.12622334537E+04  0.10002932088E+04 0.  0.
        4    1    3    3  502    0  0.46590844517E+03  0.17263555492E+03  0.31274515845E+03  0.58709868092E+03  0.12699999809E+01 0. -1.
       -4    1    3    3    0  502 -0.46590844517E+03 -0.17263555492E+03  0.45709040070E+03  0.67513477278E+03  0.12699999809E+01 0.  1.
</event>
<event>
 5   0  0.1006006E-03  0.9984862E+03  0.7818609E-02  0.9310207E-01
       -2   -1    0    0    0  501  0.00000000000E+00  0.00000000000E+00  0.15558582804E+03  0.15558582806E+03  0.25500000920E-02 0. -1.
        2   -1    0    0  501    0  0.00000000000E+00  0.00000000000E+00 -0.16019688457E+04  0.16019688457E+04  0.25500000920E-02 0.  1.
    10030    2    1    2    0    0  0.00000000000E+00  0.00000000000E+00 -0.14463830177E+04  0.17575546738E+04  0.99848615290E+03 0.  0.
        2    1    3    3  502    0 -0.31246976261E+03  0.31579341156E+03 -0.32225998455E+03  0.54882996363E+03  0.25500000920E-02 0. -1.
       -2    1    3    3    0  502  0.31246976261E+03 -0.31579341156E+03 -0.11241230331E+04  0.12087247102E+04  0.25500000920E-02 0.  1.
</event>
<event>
 5   0  0.9741826E-04  0.9993899E+03  0.7818609E-02  0.9309214E-01
       -2   -1    0    0    0  501  0.00000000000E+00  0.00000000000E+00  0.42266508808E+03  0.42266508809E+03  0.25500000920E-02 0. -1.
        2   -1    0    0  501    0  0.00000000000E+00  0.00000000000E+00 -0.59076339157E+03  0.59076339158E+03  0.25500000920E-02 0.  1.
    10030    2    1    2    0    0  0.00000000000E+00  0.00000000000E+00 -0.16809830349E+03  0.10134284797E+04  0.99938993579E+03 0.  0.
        3    1    3    3  502    0 -0.20506659670E+03 -0.13553315512E+03  0.35711787566E+03  0.43353746382E+03  0.10100000352E+00 0. -1.
       -3    1    3    3    0  502  0.20506659670E+03  0.13553315512E+03 -0.52521617915E+03  0.57989101585E+03  0.10100000352E+00 0.  1.
</event>
<event>
 5   0  0.5960102E-04  0.1005801E+04  0.7818609E-02  0.9302206E-01
        1   -1    0    0  501    0  0.00000000000E+00  0.00000000000E+00  0.96116566216E+03  0.96116566217E+03  0.50400001928E-02 0.  1.
       -1   -1    0    0    0  501  0.00000000000E+00  0.00000000000E+00 -0.26312706273E+03  0.26312706278E+03  0.50400001928E-02 0. -1.
    10030    2    1    2    0    0  0.00000000000E+00  0.00000000000E+00  0.69803859943E+03  0.12242927250E+04  0.10058005717E+04 0.  0.
        5    1    3    3  502    0  0.35737661988E+03 -0.26842222362E+03  0.68479469472E+02  0.45219472167E+03  0.46999998093E+01 0. -1.
       -5    1    3    3    0  502 -0.35737661988E+03  0.26842222362E+03  0.62955912995E+03  0.77209800328E+03  0.46999998093E+01 0.  1.
</event>
<event>
 5   0  0.3854625E-04  0.1001316E+04  0.7818609E-02  0.9307103E-01
       -4   -1    0    0    0  501  0.00000000000E+00  0.00000000000E+00  0.43291337447E+03  0.43291523731E+03  0.12699999809E+01 0.  1.
        4   -1    0    0  501    0  0.00000000000E+00  0.00000000000E+00 -0.57899976364E+03  0.57900115647E+03  0.12699999809E+01 0. -1.
    10030    2    1    2    0    0  0.00000000000E+00  0.00000000000E+00 -0.14608638917E+03  0.10119163938E+04  0.10013159116E+04 0.  0.
        4    1    3    3  502    0 -0.59572067310E+02  0.83460802528E+02  0.42218777095E+03  0.43446365050E+03  0.12699999809E+01 0.  1.
       -4    1    3    3    0  502  0.59572067310E+02 -0.83460802528E+02 -0.56827416012E+03  0.57745274328E+03  0.12699999809E+01 0. -1.
</event>
<event>
 5   0  0.9674819E-04  0.1006083E+04  0.7818609E-02  0.9301898E-01
       -2   -1    0    0    0  501  0.00000000000E+00  0.00000000000E+00  0.11523110861E+03  0.11523110864E+03  0.25500000920E-02 0. -1.
        2   -1    0    0  501    0  0.00000000000E+00  0.00000000000E+00 -0.21960288681E+04  0.21960288681E+04  0.25500000920E-02 0.  1.
    10030    2    1    2    0    0  0.00000000000E+00  0.00000000000E+00 -0.20807977595E+04  0.23112599768E+04  0.10060831796E+04 0.  0.
        4    1    3    3  502    0  0.16154019619E+03 -0.21681163449E+03 -0.20149101453E+04  0.20329700013E+04  0.12699999809E+01 0.  1.
       -4    1    3    3    0  502 -0.16154019619E+03  0.21681163449E+03 -0.65887614266E+02  0.27828997547E+03  0.12699999809E+01 0. -1.
</event>
<event>
 5   0  0.1006006E-03  0.9730042E+03  0.7818609E-02  0.9338659E-01
        2   -1    0    0  501    0  0.00000000000E+00  0.00000000000E+00  0.13316462880E+04  0.13316462880E+04  0.25500000920E-02 0.  1.
       -2   -1    0    0    0  501  0.00000000000E+00  0.00000000000E+00 -0.17773809156E+03  0.17773809158E+03  0.25500000920E-02 0. -1.
    10030    2    1    2    0    0  0.00000000000E+00  0.00000000000E+00  0.11539081964E+04  0.15093843795E+04  0.97300415184E+03 0.  0.
        2    1    3    3  502    0 -0.42308227178E+03 -0.23841323916E+03  0.62204191150E+03  0.78916134026E+03  0.25500000920E-02 0. -1.
       -2    1    3    3    0  502  0.42308227178E+03  0.23841323916E+03  0.53186628490E+03  0.72022303929E+03  0.25500000920E-02 0.  1.
</event>
<event>
 5   0  0.5888774E-04  0.1027703E+04  0.7818609E-02  0.9278672E-01
       -1   -1    0    0    0  501  0.00000000000E+00  0.00000000000E+00  0.29532421691E+03  0.29532421696E+03  0.50400001928E-02 0. -1.
        1   -1    0    0  501    0  0.00000000000E+00  0.00000000000E+00 -0.89407915639E+03  0.89407915640E+03  0.50400001928E-02 0.  1.
    10030    2    1    2    0    0  0.00000000000E+00  0.00000000000E+00 -0.59875493947E+03  0.11894033734E+04  0.10277027328E+04 0.  0.
        2    1    3    3  502    0  0.13970749218E+02  0.28032573024E+03  0.19877118975E+03  0.34392976427E+03  0.25500000920E-02 0. -1.
       -2    1    3    3    0  502 -0.13970749218E+02 -0.28032573024E+03 -0.79752612923E+03  0.84547360909E+03  0.25500000920E-02 0.  1.
</event>
<event>
 5   0  0.9674819E-04  0.9998753E+03  0.7818609E-02  0.9308682E-01
        2   -1    0    0  501    0  0.00000000000E+00  0.00000000000E+00  0.11250096588E+04  0.11250096588E+04  0.25500000920E-02 0.  1.
       -2   -1    0    0    0  501  0.00000000000E+00  0.00000000000E+00 -0.22216488683E+03  0.22216488684E+03  0.25500000920E-02 0. -1.
    10030    2    1    2    0    0  0.00000000000E+00  0.00000000000E+00  0.90284477199E+03  0.13471745457E+04  0.99987527931E+03 0.  0.
        4    1    3    3  502    0  0.19693462793E+02  0.44559352335E+03  0.75567910322E+03  0.87749298600E+03  0.12699999809E+01 0.  1.
       -4    1    3    3    0  502 -0.19693462793E+02 -0.44559352335E+03  0.14716566877E+03  0.46968155967E+03  0.12699999809E+01 0. -1.
</event>
<event>
 5   0  0.1020150E-03  0.1004961E+04  0.7818609E-02  0.9303120E-01
        2   -1    0    0  501    0  0.00000000000E+00  0.00000000000E+00  0.28804368365E+03  0.28804368366E+03  0.25500000920E-02 0. -1.
       -2   -1    0    0    0  501  0.00000000000E+00  0.00000000000E+00 -0.87655752154E+03  0.87655752154E+03  0.25500000920E-02 0.  1.
    10030    2    1    2    0    0  0.00000000000E+00  0.00000000000E+00 -0.58851383789E+03  0.11646012052E+04  0.10049614071E+04 0.  0.
        5    1    3    3  502    0 -0.29323630451E+03 -0.27518620939E+03  0.54843732338E+02  0.40588779865E+03  0.46999998093E+01 0. -1.
       -5    1    3    3    0  502  0.29323630451E+03  0.27518620939E+03 -0.64335757023E+03  0.75871340655E+03  0.46999998093E+01 0.  1.
</event>
<event>
 5   0  0.9674819E-04  0.9972559E+03  0.7818609E-02  0.9311560E-01
       -2   -1    0    0    0  501  0.00000000000E+00  0.00000000000E+00  0.14189029820E+03  0.14189029823E+03  0.25500000920E-02 0.  1.
        2   -1    0    0  501    0  0.00000000000E+00  0.00000000000E+00 -0.17522678844E+04  0.17522678844E+04  0.25500000920E-02 0. -1.
    10030    2    1    2    0    0  0.00000000000E+00  0.00000000000E+00 -0.16103775862E+04  0.18941581826E+04  0.99725586018E+03 0.  0.
        4    1    3    3  502    0 -0.48467440004E+03  0.96443344125E+02 -0.93143059659E+03  0.10544074933E+04  0.12699999809E+01 0.  1.
       -4    1    3    3    0  502  0.48467440004E+03 -0.96443344125E+02 -0.67894698956E+03  0.83975068932E+03  0.12699999809E+01 0. -1.
</event>
<event>
 5   0  0.1006006E-03  0.9961592E+03  0.7818609E-02  0.9312767E-01
       -2   -1    0    0    0  501  0.00000000000E+00  0.00000000000E+00  0.20127531192E+03  0.20127531194E+03  0.25500000920E-02 0.  1.
        2   -1    0    0  501    0  0.00000000000E+00  0.00000000000E+00 -0.12325568651E+04  0.12325568651E+04  0.25500000920E-02 0. -1.
    10030    2    1    2    0    0  0.00000000000E+00  0.00000000000E+00 -0.10312815532E+04  0.14338321770E+04  0.99615915896E+03 0.  0.
        2    1    3    3  502    0 -0.36399340196E+03  0.68883612474E+02 -0.99485731137E+03  0.10615918325E+04  0.25500000920E-02 0. -1.
       -2    1    3    3    0  502  0.36399340196E+03 -0.68883612474E+02 -0.36424241810E+02  0.37224034458E+03  0.25500000920E-02 0.  1.
</event>
<event>
 5   0  0.1020150E-03  0.1001521E+04  0.7818609E-02  0.9306878E-01
        2   -1    0    0  501    0  0.00000000000E+00  0.00000000000E+00  0.41118508289E+03  0.41118508290E+03  0.25500000920E-02 0. -1.
       -2   -1    0    0    0  501  0.00000000000E+00  0.00000000000E+00 -0.60984981287E+03  0.60984981287E+03  0.25500000920E-02 0.  1.
    10030    2    1    2    0    0  0.00000000000E+00  0.00000000000E+00 -0.19866472998E+03  0.10210348958E+04  0.10015211348E+04 0.  0.
        5    1    3    3  502    0  0.87460045356E+02  0.11446223777E+03  0.38958249424E+03  0.41538834026E+03  0.46999998093E+01 0. -1.
       -5    1    3    3    0  502 -0.87460045356E+02 -0.11446223777E+03 -0.58824722421E+03  0.60564655551E+03  0.46999998093E+01 0.  1.
</event>
<event>
 5   0  0.5826939E-04  0.1000321E+04  0.7818609E-02  0.9308193E-01
       -1   -1    0    0    0  501  0.00000000000E+00  0.00000000000E+00  0.40445856171E+03  0.40445856175E+03  0.50400001928E-02 0.  1.
        1   -1    0    0  501    0  0.00000000000E+00  0.00000000000E+00 -0.61850738504E+03  0.61850738506E+03  0.50400001928E-02 0. -1.
    10030    2    1    2    0    0  0.00000000000E+00  0.00000000000E+00 -0.21404882332E+03  0.10229659468E+04  0.10003211632E+04 0.  0.
        1    1    3    3  502    0  0.19232696746E+03  0.88176826736E+02  0.35644117350E+03  0.41450588099E+03  0.50400001928E-02 0.  1.
       -1    1    3    3    0  502 -0.19232696746E+03 -0.88176826736E+02 -0.57048999682E+03  0.60846006581E+03  0.50400001928E-02 0. -1.
</event>
<event>
 5   0  0.9741826E-04  0.9995427E+03  0.7818609E-02  0.9309046E-01
       -2   -1    0    0    0  501  0.00000000000E+00  0.00000000000E+00  0.98162733041E+02  0.98162733074E+02  0.25500000920E-02 0. -1.
        2   -1    0    0  501    0  0.00000000000E+00  0.00000000000E+00 -0.25444626282E+04  0.25444626282E+04  0.25500000920E-02 0.  1.
    10030    2    1    2    0    0  0.00000000000E+00  0.00000000000E+00 -0.24462998952E+04  0.26426253613E+04  0.99954270694E+03 0.  0.
        3    1    3    3  502    0 -0.20458616763E+03  0.15681759998E+01 -0.24286730072E+04  0.24372752297E+04  0.10100000352E+00 0.  1.
       -3    1    3    3    0  502  0.20458616763E+03 -0.15681759998E+01 -0.17626887954E+02  0.20535013158E+03  0.10100000352E+00 0. -1.
</event>
<event>
 5   0  0.5826939E-04  0.1003648E+04  0.7818609E-02  0.9304552E-01
        1   -1    0    0  501    0  0.00000000000E+00  0.00000000000E+00  0.31330527686E+03  0.31330527690E+03  0.50400001928E-02 0.  1.
       -1   -1    0    0    0  501  0.00000000000E+00  0.00000000000E+00 -0.80377684371E+03  0.80377684372E+03  0.50400001928E-02 0. -1.
    10030    2    1    2    0    0  0.00000000000E+00  0.00000000000E+00 -0.49047156685E+03  0.11170821206E+04  0.10036483978E+04 0.  0.
        1    1    3    3  502    0  0.73812687351E+02  0.41800913333E+03 -0.54315894133E+03  0.68934866645E+03  0.50400001928E-02 0. -1.
       -1    1    3    3    0  502 -0.73812687351E+02 -0.41800913333E+03  0.52687374485E+02  0.42773345417E+03  0.50400001928E-02 0.  1.
</event>
<event>
 5   0  0.1006006E-03  0.9979491E+03  0.7818609E-02  0.9310797E-01
        2   -1    0    0  501    0  0.00000000000E+00  0.00000000000E+00  0.12664877790E+04  0.12664877790E+04  0.25500000920E-02 0.  1.
       -2   -1    0    0    0  501  0.00000000000E+00  0.00000000000E+00 -0.19658745878E+03  0.19658745880E+03  0.25500000920E-02 0. -1.
    10030    2    1    2    0    0  0.00000000000E+00  0.00000000000E+00  0.10699003202E+04  0.14630752378E+04  0.99794912508E+03 0.  0.
        2    1    3    3  502    0 -0.28659713574E+03 -0.39670583223E+03  0.67756142334E+03  0.83582469331E+03  0.25500000920E-02 0.  1.
       -2    1    3    3    0  502  0.28659713574E+03  0.39670583223E+03  0.39233889686E+03  0.62725054447E+03  0.25500000920E-02 0. -1.
</event>
<event>
 5   0  0.1020150E-03  0.9996316E+03  0.7818609E-02  0.9308949E-01
        2   -1    0    0  501    0  0.00000000000E+00  0.00000000000E+00  0.30790244621E+03  0.30790244622E+03  0.25500000920E-02 0.  1.
       -2   -1    0    0    0  501  0.00000000000E+00  0.00000000000E+00 -0.81134730446E+03  0.81134730446E+03  0.25500000920E-02 0. -1.
    10030    2    1    2    0    0  0.00000000000E+00  0.00000000000E+00 -0.50344485825E+03  0.11192497507E+04  0.99963157168E+03 0.  0.
        5    1    3    3  502    0 -0.47585472343E+03  0.15273066619E+03 -0.24565601189E+03  0.55689616661E+03  0.46999998093E+01 0. -1.
       -5    1    3    3    0  502  0.47585472343E+03 -0.15273066619E+03 -0.25778884636E+03  0.56235358407E+03  0.46999998093E+01 0.  1.
</event>
<event>
 5   0  0.5826939E-04  0.9994803E+03  0.7818609E-02  0.9309115E-01
        1   -1    0    0  501    0  0.00000000000E+00  0.00000000000E+00  0.86929166907E+03  0.86929166909E+03  0.50400001928E-02 0. -1.
       -1   -1    0    0    0  501  0.00000000000E+00  0.00000000000E+00 -0.28729162032E+03  0.28729162037E+03  0.50400001928E-02 0.  1.
    10030    2    1    2    0    0  0.00000000000E+00  0.00000000000E+00  0.58200004875E+03  0.11565832895E+04  0.99948028930E+03 0.  0.
        1    1    3    3  502    0  0.32393307466E+03 -0.31590657823E+03  0.53650490173E+03  0.70183125652E+03  0.50400001928E-02 0. -1.
       -1    1    3    3    0  502 -0.32393307466E+03  0.31590657823E+03  0.45495147018E+02  0.45475203293E+03  0.50400001928E-02 0.  1.
</event>
<event>
 5   0  0.5768102E-04  0.9988051E+03  0.7818609E-02  0.9309856E-01
        1   -1    0    0  501    0  0.00000000000E+00  0.00000000000E+00  0.55061018713E+03  0.55061018715E+03  0.50400001928E-02 0. -1.
       -1   -1    0    0    0  501  0.00000000000E+00  0.00000000000E+00 -0.45295734283E+03  0.45295734286E+03  0.50400001928E-02 0.  1.
    10030    2    1    2    0    0  0.00000000000E+00  0.00000000000E+00  0.97652844298E+02  0.10035675300E+04  0.99880514080E+03 0.  0.
        4    1    3    3  502    0  0.35262983416E+03 -0.12850137660E+03  0.37985277036E+03  0.53399451662E+03  0.12699999809E+01 0. -1.
       -4    1    3    3    0  502 -0.35262983416E+03  0.12850137660E+03 -0.28219992607E+03  0.46957301339E+03  0.12699999809E+01 0.  1.
</event>
<event>
 5   0  0.5758786E-04  0.1002213E+04  0.7818609E-02  0.9306121E-01
       -1   -1    0    0    0  501  0.00000000000E+00  0.00000000000E+00  0.48711259656E+03  0.48711259658E+03  0.50400001928E-02 0.  1.
        1   -1    0    0  501    0  0.00000000000E+00  0.00000000000E+00 -0.51550227846E+03  0.51550227848E+03  0.50400001928E-02 0. -1.
    10030    2    1    2    0    0  0.00000000000E+00  0.00000000000E+00 -0.28389681897E+02  0.10026148751E+04  0.10022128585E+04 0.  0.
        3    1    3    3  502    0  0.31259119226E+03 -0.19252155144E+03 -0.35540326292E+03  0.51096897239E+03  0.10100000352E+00 0. -1.
       -3    1    3    3    0  502 -0.31259119226E+03  0.19252155144E+03  0.32701358102E+03  0.49164590268E+03  0.10100000352E+00 0.  1.
</event>
<event>
 5   0  0.3854625E-04  0.1000801E+04  0.7818609E-02  0.9307666E-01
       -3   -1    0    0    0  501  0.00000000000E+00  0.00000000000E+00  0.19421716087E+03  0.19421718714E+03  0.10100000352E+00 0. -1.
        3   -1    0    0  501    0  0.00000000000E+00  0.00000000000E+00 -0.12892830014E+04  0.12892830053E+04  0.10100000352E+00 0.  1.
    10030    2    1    2    0    0  0.00000000000E+00  0.00000000000E+00 -0.10950658405E+04  0.14835001924E+04  0.10008014918E+04 0.  0.
        4    1    3    3  502    0 -0.95998944485E+00  0.14205457975E+03  0.16369716704E+03  0.21674593561E+03  0.12699999809E+01 0. -1.
       -4    1    3    3    0  502  0.95998944485E+00 -0.14205457975E+03 -0.12587630075E+04  0.12667542568E+04  0.12699999809E+01 0.  1.
</event>
<event>
 5   0  0.3854625E-04  0.9845807E+03  0.7818609E-02  0.9325620E-01
        3   -1    0    0  501    0  0.00000000000E+00  0.00000000000E+00  0.20725547036E+03  0.20725549497E+03  0.10100000352E+00 0.  1.
       -3   -1    0    0    0  501  0.00000000000E+00  0.00000000000E+00 -0.11693286419E+04  0.11693286462E+04  0.10100000352E+00 0. -1.
    10030    2    1    2    0    0  0.00000000000E+00  0.00000000000E+00 -0.96207317152E+03  0.13765841412E+04  0.98458067750E+03 0.  0.
        2    1    3    3  502    0 -0.37349474978E+03  0.32039084359E+03 -0.50086640988E+03  0.70215082520E+03  0.25500000920E-02 0.  1.
       -2    1    3    3    0  502  0.37349474978E+03 -0.32039084359E+03 -0.46120676164E+03  0.67443331602E+03  0.25500000920E-02 0. -1.
</event>
<event>
 5   0  0.5758786E-04  0.1000647E+04  0.7818609E-02  0.9307835E-01
       -1   -1    0    0    0  501  0.00000000000E+00  0.00000000000E+00  0.60150258462E+03  0.60150258464E+03  0.50400001928E-02 0. -1.
        1   -1    0    0  501    0  0.00000000000E+00  0.00000000000E+00 -0.41616394160E+03  0.41616394163E+03  0.50400001928E-02 0.  1.
    10030    2    1    2    0    0  0.00000000000E+00  0.00000000000E+00  0.18533864302E+03  0.10176665263E+04  0.10006471636E+04 0.  0.
        3    1    3    3  502    0  0.26677295599E+03 -0.41859355141E+03  0.15646829914E+03  0.52045240913E+03  0.10100000352E+00 0.  1.
       -3    1    3    3    0  502 -0.26677295599E+03  0.41859355141E+03  0.28870343887E+02  0.49721411714E+03  0.10100000352E+00 0. -1.
</event>
<event>
 5   0  0.1020150E-03  0.9994286E+03  0.7818609E-02  0.9309172E-01
        2   -1    0    0  501    0  0.00000000000E+00  0.00000000000E+00  0.50102469413E+03  0.50102469413E+03  0.25500000920E-02 0. -1.
       -2   -1    0    0    0  501  0.00000000000E+00  0.00000000000E+00 -0.49840728932E+03  0.49840728933E+03  0.25500000920E-02 0.  1.
    10030    2    1    2    0    0  0.00000000000E+00  0.00000000000E+00  0.26174048041E+01  0.99943198346E+03  0.99942855611E+03 0.  0.
        5    1    3    3  502    0  0.11050398929E+03  0.37579957293E+03  0.31156098558E+03  0.50052850907E+03  0.46999998093E+01 0. -1.
       -5    1    3    3    0  502 -0.11050398929E+03 -0.37579957293E+03 -0.30894358078E+03  0.49890347439E+03  0.46999998093E+01 0.  1.
</event>
<event>
 5   0  0.3854625E-04  0.1000074E+04  0.7818609E-02  0.9308464E-01
       -3   -1    0    0    0  501  0.00000000000E+00  0.00000000000E+00  0.36321915652E+03  0.36321917056E+03  0.10100000352E+00 0. -1.
        3   -1    0    0  501    0  0.00000000000E+00  0.00000000000E+00 -0.68839157450E+03  0.68839158191E+03  0.10100000352E+00 0.  1.
    10030    2    1    2    0    0  0.00000000000E+00  0.00000000000E+00 -0.32517241798E+03  0.10516107525E+04  0.10000740339E+04 0.  0.
        2    1    3    3  502    0  0.23989484981E+03 -0.39198508966E+03 -0.36980802028E+03  0.58988119258E+03  0.25500000920E-02 0.  1.
       -2    1    3    3    0  502 -0.23989484981E+03  0.39198508966E+03  0.44635602302E+02  0.46172955990E+03  0.25500000920E-02 0. -1.
</event>
<event>
 5   0  0.1020150E-03  0.1001487E+04  0.7818609E-02  0.9306915E-01
        2   -1    0    0  501    0  0.00000000000E+00  0.00000000000E+00  0.56953964524E+03  0.56953964525E+03  0.25500000920E-02 0. -1.
       -2   -1    0    0    0  501  0.00000000000E+00  0.00000000000E+00 -0.44025781772E+03  0.44025781773E+03  0.25500000920E-02 0.  1.
    10030    2    1    2    0    0  0.00000000000E+00  0.00000000000E+00  0.12928182752E+03  0.10097974630E+04  0.10014874564E+04 0.  0.
        5    1    3    3  502    0  0.34325253836E+03  0.11622423702E+03 -0.28375739218E+03  0.46029417330E+03  0.46999998093E+01 0.  1.
       -5    1    3    3    0  502 -0.34325253836E+03 -0.11622423702E+03  0.41303921970E+03  0.54950328968E+03  0.46999998093E+01 0. -1.
</event>
<event>
 5   0  0.5768102E-04  0.1001640E+04  0.7818609E-02  0.9306748E-01
        1   -1    0    0  501    0  0.00000000000E+00  0.00000000000E+00  0.38517702779E+03  0.38517702782E+03  0.50400001928E-02 0. -1.
       -1   -1    0    0    0  501  0.00000000000E+00  0.00000000000E+00 -0.65118320588E+03  0.65118320590E+03  0.50400001928E-02 0.  1.
    10030    2    1    2    0    0  0.00000000000E+00  0.00000000000E+00 -0.26600617809E+03  0.10363602337E+04  0.10016402784E+04 0.  0.
        4    1    3    3  502    0 -0.25897254547E+02  0.22928770313E+03  0.32689933965E+03  0.40013536430E+03  0.12699999809E+01 0. -1.
       -4    1    3    3    0  502  0.25897254547E+02 -0.22928770313E+03 -0.59290551774E+03  0.63622486942E+03  0.12699999809E+01 0.  1.
</event>
<event>
 5   0  0.5960102E-04  0.9992983E+03  0.7818609E-02  0.9309315E-01
       -1   -1    0    0    0  501  0.00000000000E+00  0.00000000000E+00  0.23565601014E+03  0.23565601019E+03  0.50400001928E-02 0. -1.
        1   -1    0    0  501    0  0.00000000000E+00  0.00000000000E+00 -0.10593800834E+04  0.10593800834E+04  0.50400001928E-02 0.  1.
    10030    2    1    2    0    0  0.00000000000E+00  0.00000000000E+00 -0.82372407325E+03  0.12950360936E+04  0.99929832126E+03 0.  0.
        5    1    3    3  502    0  0.23110990321E+03  0.42548395876E+03 -0.57152549686E+03  0.74907400842E+03  0.46999998093E+01 0.  1.
       -5    1    3    3    0  502 -0.23110990321E+03 -0.42548395876E+03 -0.25219857639E+03  0.54596208518E+03  0.46999998093E+01 0. -1.
</event>
<event>
 5   0  0.9741826E-04  0.9995231E+03  0.7818609E-02  0.9309068E-01
       -2   -1    0    0    0  501  0.00000000000E+00  0.00000000000E+00  0.45483414494E+03  0.45483414494E+03  0.25500000920E-02 0.  1.
        2   -1    0    0  501    0  0.00000000000E+00  0.00000000000E+00 -0.54912678814E+03  0.54912678815E+03  0.25500000920E-02 0. -1.
    10030    2    1    2    0    0  0.00000000000E+00  0.00000000000E+00 -0.94292643205E+02  0.10039609331E+04  0.99952311259E+03 0.  0.
        3    1    3    3  502    0  0.44057063422E+03 -0.12290442791E+03 -0.24941972904E+03  0.52097811238E+03  0.10100000352E+00 0. -1.
       -3    1    3    3    0  502 -0.44057063422E+03  0.12290442791E+03  0.15512708584E+03  0.48298282071E+03  0.10100000352E+00 0.  1.
</event>
<event>
 5   0  0.1020150E-03  0.9982842E+03  0.7818609E-02  0.9310429E-01
        2   -1    0    0  501    0  0.00000000000E+00  0.00000000000E+00  0.13571839701E+04  0.13571839701E+04  0.25500000920E-02 0. -1.
       -2   -1    0    0    0  501  0.00000000000E+00  0.00000000000E+00 -0.18357336877E+03  0.18357336879E+03  0.25500000920E-02 0.  1.
    10030    2    1    2    0    0  0.00000000000E+00  0.00000000000E+00  0.11736106013E+04  0.15407573389E+04  0.99828419489E+03 0.  0.
        5    1    3    3  502    0 -0.21319802871E+03 -0.31785338487E+03  0.92345358030E+02  0.39374348104E+03  0.46999998093E+01 0.  1.
       -5    1    3    3    0  502  0.21319802871E+03  0.31785338487E+03  0.10812652433E+04  0.11470138578E+04  0.46999998093E+01 0. -1.
</event>
<event>
 5   0  0.3854625E-04  0.1000413E+04  0.7818609E-02  0.9308092E-01
       -3   -1    0    0    0  501  0.00000000000E+00  0.00000000000E+00  0.86365109212E+02  0.86365168269E+02  0.10100000352E+00 0. -1.
        3   -1    0    0  501    0  0.00000000000E+00  0.00000000000E+00 -0.28970751535E+04  0.28970751552E+04  0.10100000352E+00 0.  1.
    10030    2    1    2    0    0  0.00000000000E+00  0.00000000000E+00 -0.28107100443E+04  0.29834403235E+04  0.10004125204E+04 0.  0.
        2    1    3    3  502    0 -0.46620078468E+03 -0.18097649349E+03 -0.13739864941E+04  0.14621677567E+04  0.25500000920E-02 0.  1.
       -2    1    3    3    0  502  0.46620078468E+03  0.18097649349E+03 -0.14367235502E+04  0.15212725668E+04  0.25500000920E-02 0. -1.
</event>
<event>
 5   0  0.9674819E-04  0.1000860E+04  0.7818609E-02  0.9307602E-01
       -2   -1    0    0    0  501  0.00000000000E+00  0.00000000000E+00  0.15569101471E+03  0.15569101473E+03  0.25500000920E-02 0. -1.
        2   -1    0    0  501    0  0.00000000000E+00  0.00000000000E+00 -0.16085083814E+04  0.16085083815E+04  0.25500000920E-02 0.  1.
    10030    2    1    2    0    0  0.00000000000E+00  0.00000000000E+00 -0.14528173667E+04  0.17641993962E+04  0.10008602342E+04 0.  0.
        4    1    3    3  502    0  0.14422976377E+03 -0.24091212383E+03  0.37503359608E+01  0.28081409168E+03  0.12699999809E+01 0. -1.
       -4    1    3    3    0  502 -0.14422976377E+03  0.24091212383E+03 -0.14565677027E+04  0.14833853045E+04  0.12699999809E+01 0.  1.
</event>
<event>
 5   0  0.5826939E-04  0.9970053E+03  0.7818609E-02  0.9311835E-01
        1   -1    0    0  501    0  0.00000000000E+00  0.00000000000E+00  0.33931202422E+03  0.33931202426E+03  0.50400001928E-02 0. -1.
       -1   -1    0    0    0  501  0.00000000000E+00  0.00000000000E+00 -0.73237871371E+03  0.73237871373E+03  0.50400001928E-02 0.  1.
    10030    2    1    2    0    0  0.00000000000E+00  0.00000000000E+00 -0.39306668949E+03  0.10716907380E+04  0.99700532370E+03 0.  0.
        1    1    3    3  502    0  0.48510024069E+03  0.79172639722E+02 -0.28591487547E+03  0.56862805633E+03  0.50400001928E-02 0.  1.
       -1    1    3    3    0  502 -0.48510024069E+03 -0.79172639722E+02 -0.10715181402E+03  0.50306268166E+03  0.50400001928E-02 0. -1.
</event>
<event>
 5   0  0.5888774E-04  0.9998924E+03  0.7818609E-02  0.9308663E-01
       -1   -1    0    0    0  501  0.00000000000E+00  0.00000000000E+00  0.38672051457E+03  0.38672051460E+03  0.50400001928E-02 0. -1.
        1   -1    0    0  501    0  0.00000000000E+00  0.00000000000E+00 -0.64632261321E+03  0.64632261323E+03  0.50400001928E-02 0.  1.
    10030    2    1    2    0    0  0.00000000000E+00  0.00000000000E+00 -0.25960209864E+03  0.10330431278E+04  0.99989242139E+03 0.  0.
        2    1    3    3  502    0  0.14863959784E+03  0.47219531973E+03 -0.20200414698E+03  0.53466608778E+03  0.25500000920E-02 0.  1.
       -2    1    3    3    0  502 -0.14863959784E+03 -0.47219531973E+03 -0.57597951660E+02  0.49837704006E+03  0.25500000920E-02 0. -1.
</event>
<event>
 5   0  0.5768102E-04  0.1000926E+04  0.7818609E-02  0.9307529E-01
       -1   -1    0    0    0  501  0.00000000000E+00  0.00000000000E+00  0.67659695558E+03  0.67659695560E+03  0.50400001928E-02 0. -1.
        1   -1    0    0  501    0  0.00000000000E+00  0.00000000000E+00 -0.37018102765E+03  0.37018102769E+03  0.50400001928E-02 0.  1.
    10030    2    1    2    0    0  0.00000000000E+00  0.00000000000E+00  0.30641592793E+03  0.10467779833E+04  0.10009262837E+04 0.  0.
        4    1    3    3  502    0  0.45858467349E+03 -0.19888454615E+03  0.17896924151E+03  0.53092990852E+03  0.12699999809E+01 0.  1.
       -4    1    3    3    0  502 -0.45858467349E+03  0.19888454615E+03  0.12744668642E+03  0.51584807477E+03  0.12699999809E+01 0. -1.
</event>
<event>
 5   0  0.5768102E-04  0.1000441E+04  0.7818609E-02  0.9308061E-01
       -1   -1    0    0    0  501  0.00000000000E+00  0.00000000000E+00  0.50294522236E+03  0.50294522238E+03  0.50400001928E-02 0. -1.
        1   -1    0    0  501    0  0.00000000000E+00  0.00000000000E+00 -0.49751039213E+03  0.49751039215E+03  0.50400001928E-02 0.  1.
    10030    2    1    2    0    0  0.00000000000E+00  0.00000000000E+00  0.54348302300E+01  0.10004556145E+04  0.10004408525E+04 0.  0.
        4    1    3    3  502    0 -0.29414907488E+03  0.20908229237E+03 -0.34366866926E+03  0.49834611503E+03  0.12699999809E+01 0.  1.
       -4    1    3    3    0  502  0.29414907488E+03 -0.20908229237E+03  0.34910349949E+03  0.50210949950E+03  0.12699999809E+01 0. -1.
</event>
<event>
 5   0  0.5826939E-04  0.9999813E+03  0.7818609E-02  0.9308565E-01
       -1   -1    0    0    0  501  0.00000000000E+00  0.00000000000E+00  0.76402869525E+03  0.76402869526E+03  0.50400001928E-02 0. -1.
        1   -1    0    0  501    0  0.00000000000E+00  0.00000000000E+00 -0.32720059366E+03  0.32720059370E+03  0.50400001928E-02 0.  1.
    10030    2    1    2    0    0  0.00000000000E+00  0.00000000000E+00  0.43682810159E+03  0.10912292890E+04  0.99998128520E+03 0.  0.
        1    1    3    3  502    0 -0.15082023724E+03 -0.33329520107E+03  0.59033367379E+03  0.69449714287E+03  0.50400001928E-02 0. -1.
       -1    1    3    3    0  502  0.15082023724E+03  0.33329520107E+03 -0.15350557220E+03  0.39673214609E+03  0.50400001928E-02 0.  1.
</event>
<event>
 5   0  0.5960102E-04  0.1000109E+04  0.7818609E-02  0.9308425E-01
       -1   -1    0    0    0  501  0.00000000000E+00  0.00000000000E+00  0.37223086049E+03  0.37223086053E+03  0.50400001928E-02 0. -1.
        1   -1    0    0  501    0  0.00000000000E+00  0.00000000000E+00 -0.67177314295E+03  0.67177314297E+03  0.50400001928E-02 0.  1.
    10030    2    1    2    0    0  0.00000000000E+00  0.00000000000E+00 -0.29954228246E+03  0.10440040035E+04  0.10001093842E+04 0.  0.
        5    1    3    3  502    0  0.14422599913E+03 -0.96638989643E+02  0.33973680226E+03  0.38155395156E+03  0.46999998093E+01 0. -1.
       -5    1    3    3    0  502 -0.14422599913E+03  0.96638989643E+02 -0.63927908472E+03  0.66245005193E+03  0.46999998093E+01 0.  1.
</event>
<event>
 5   0  0.9674819E-04  0.9943799E+03  0.7818609E-02  0.9314730E-01
        2   -1    0    0  501    0  0.00000000000E+00  0.00000000000E+00  0.37992181599E+03  0.37992181600E+03  0.25500000920E-02 0.  1.
       -2   -1    0    0    0  501  0.00000000000E+00  0.00000000000E+00 -0.65065450958E+03  0.65065450959E+03  0.25500000920E-02 0. -1.
    10030    2    1    2    0    0  0.00000000000E+00  0.00000000000E+00 -0.27073269359E+03  0.10305763256E+04  0.99437989293E+03 0.  0.
        4    1    3    3  502    0 -0.36368998454E+03  0.25498864420E+03 -0.36689614378E+03  0.57611110625E+03  0.12699999809E+01 0. -1.
       -4    1    3    3    0  502  0.36368998454E+03 -0.25498864420E+03  0.96163450186E+02  0.45446521933E+03  0.12699999809E+01 0.  1.
</event>
<event>
 5   0  0.5960102E-04  0.9992714E+03  0.7818609E-02  0.9309344E-01
        1   -1    0    0  501    0  0.00000000000E+00  0.00000000000E+00  0.12665461300E+04  0.12665461300E+04  0.50400001928E-02 0. -1.
       -1   -1    0    0    0  501  0.00000000000E+00  0.00000000000E+00 -0.19709965804E+03  0.19709965810E+03  0.50400001928E-02 0.  1.
    10030    2    1    2    0    0  0.00000000000E+00  0.00000000000E+00  0.10694464719E+04  0.14636457881E+04  0.99927135285E+03 0.  0.
        5    1    3    3  502    0  0.19394429198E+02  0.49529821222E+03  0.44304979332E+03  0.66483958386E+03  0.46999998093E+01 0.  1.
       -5    1    3    3    0  502 -0.19394429198E+02 -0.49529821222E+03  0.62639667861E+03  0.79880620421E+03  0.46999998093E+01 0. -1.
</event>
<event>
 5   0  0.9674819E-04  0.1000291E+04  0.7818609E-02  0.9308226E-01
       -2   -1    0    0    0  501  0.00000000000E+00  0.00000000000E+00  0.24566958446E+03  0.24566958448E+03  0.25500000920E-02 0.  1.
        2   -1    0    0  501    0  0.00000000000E+00  0.00000000000E+00 -0.10182193699E+04  0.10182193699E+04  0.25500000920E-02 0. -1.
    10030    2    1    2    0    0  0.00000000000E+00  0.00000000000E+00 -0.77254978539E+03  0.12638889543E+04  0.10002910166E+04 0.  0.
        4    1    3    3  502    0  0.27143134978E+02  0.29032403068E+02  0.24366906499E+03  0.24689239830E+03  0.12699999809E+01 0.  1.
       -4    1    3    3    0  502 -0.27143134978E+02 -0.29032403068E+02 -0.10162188504E+04  0.10169965560E+04  0.12699999809E+01 0. -1.
</event>
<event>
 5   0  0.5826939E-04  0.9985930E+03  0.7818609E-02  0.9310089E-01
        1   -1    0    0  501    0  0.00000000000E+00  0.00000000000E+00  0.50838152724E+03  0.50838152727E+03  0.50400001928E-02 0. -1.
       -1   -1    0    0    0  501  0.00000000000E+00  0.00000000000E+00 -0.49037383522E+03  0.49037383525E+03  0.50400001928E-02 0.  1.
    10030    2    1    2    0    0  0.00000000000E+00  0.00000000000E+00  0.18007692020E+02  0.99875536251E+03  0.99859300877E+03 0.  0.
        1    1    3    3  502    0  0.82576278205E+01  0.26179452434E+03  0.43415228774E+03  0.50704316420E+03  0.50400001928E-02 0. -1.
       -1    1    3    3    0  502 -0.82576278205E+01 -0.26179452434E+03 -0.41614459572E+03  0.49171219831E+03  0.50400001928E-02 0.  1.
</event>
<event>
 5   0  0.3854625E-04  0.9824435E+03  0.7818609E-02  0.9328013E-01
       -3   -1    0    0    0  501  0.00000000000E+00  0.00000000000E+00  0.68815832862E+03  0.68815833603E+03  0.10100000352E+00 0. -1.
        3   -1    0    0  501    0  0.00000000000E+00  0.00000000000E+00 -0.35064428216E+03  0.35064429671E+03  0.10100000352E+00 0.  1.
    10030    2    1    2    0    0  0.00000000000E+00  0.00000000000E+00  0.33751404646E+03  0.10388026327E+04  0.98244347330E+03 0.  0.
        5    1    3    3  502    0  0.30209764680E+03 -0.13383689079E+03 -0.21555076420E+03  0.39453710027E+03  0.46999998093E+01 0.  1.
       -5    1    3    3    0  502 -0.30209764680E+03  0.13383689079E+03  0.55306481066E+03  0.64426553247E+03  0.46999998093E+01 0. -1.
</event>
<event>
 5   0  0.1006749E-03  0.1006571E+04  0.7818609E-02  0.9301367E-01
       -2   -1    0    0    0  501  0.00000000000E+00  0.00000000000E+00  0.18720972583E+03  0.18720972585E+03  0.25500000920E-02 0. -1.
        2   -1    0    0  501    0  0.00000000000E+00  0.00000000000E+00 -0.13530090811E+04  0.13530090811E+04  0.25500000920E-02 0.  1.
    10030    2    1    2    0    0  0.00000000000E+00  0.00000000000E+00 -0.11657993552E+04  0.15402188069E+04  0.10065713271E+04 0.  0.
        1    1    3    3  502    0 -0.46842231288E+03  0.16328707837E+02 -0.30237278016E+03  0.55777718500E+03  0.50400001928E-02 0. -1.
       -1    1    3    3    0  502  0.46842231288E+03 -0.16328707837E+02 -0.86342657506E+03  0.98244162190E+03  0.50400001928E-02 0.  1.
</event>
<event>
 5   0  0.5758786E-04  0.9991509E+03  0.7818609E-02  0.9309477E-01
       -1   -1    0    0    0  501  0.00000000000E+00  0.00000000000E+00  0.57390027248E+03  0.57390027250E+03  0.50400001928E-02 0. -1.
        1   -1    0    0  501    0  0.00000000000E+00  0.00000000000E+00 -0.43487633088E+03  0.43487633091E+03  0.50400001928E-02 0.  1.
    10030    2    1    2    0    0  0.00000000000E+00  0.00000000000E+00  0.13902394159E+03  0.10087766034E+04  0.99915092917E+03 0.  0.
        3    1    3    3  502    0  0.40956798272E+03  0.88402780870E+01 -0.21916484525E+03  0.46460447972E+03  0.10100000352E+00 0.  1.
       -3    1    3    3    0  502 -0.40956798272E+03 -0.88402780870E+01  0.35818878684E+03  0.54417212369E+03  0.10100000352E+00 0. -1.
</event>
<event>
 5   0  0.1006006E-03  0.1002339E+04  0.7818609E-02  0.9305983E-01
        2   -1    0    0  501    0  0.00000000000E+00  0.00000000000E+00  0.16948977325E+04  0.16948977325E+04  0.25500000920E-02 0.  1.
       -2   -1    0    0    0  501  0.00000000000E+00  0.00000000000E+00 -0.14819226946E+03  0.14819226948E+03  0.25500000920E-02 0. -1.
    10030    2    1    2    0    0  0.00000000000E+00  0.00000000000E+00  0.15467054630E+04  0.18430900020E+04  0.10023387481E+04 0.  0.
        2    1    3    3  502    0  0.36414720317E+03  0.34419620332E+03  0.75528672529E+03  0.90638416213E+03  0.25500000920E-02 0.  1.
       -2    1    3    3    0  502 -0.36414720317E+03 -0.34419620332E+03  0.79141873775E+03  0.93670583986E+03  0.25500000920E-02 0. -1.
</event>
<event>
 5   0  0.5826939E-04  0.9993313E+03  0.7818609E-02  0.9309278E-01
       -1   -1    0    0    0  501  0.00000000000E+00  0.00000000000E+00  0.26522054572E+03  0.26522054577E+03  0.50400001928E-02 0. -1.
        1   -1    0    0  501    0  0.00000000000E+00  0.00000000000E+00 -0.94135156423E+03  0.94135156424E+03  0.50400001928E-02 0.  1.
    10030    2    1    2    0    0  0.00000000000E+00  0.00000000000E+00 -0.67613101851E+03  0.12065721100E+04  0.99933132767E+03 0.  0.
        1    1    3    3  502    0  0.14338508228E+03  0.14587111204E+03  0.21235667169E+03  0.29484405910E+03  0.50400001928E-02 0. -1.
       -1    1    3    3    0  502 -0.14338508228E+03 -0.14587111204E+03 -0.88848769021E+03  0.91172805091E+03  0.50400001928E-02 0.  1.
</event>
<event>
 5   0  0.5758786E-04  0.1012520E+04  0.7818609E-02  0.9294919E-01
       -1   -1    0    0    0  501  0.00000000000E+00  0.00000000000E+00  0.42667886140E+03  0.42667886143E+03  0.50400001928E-02 0. -1.
        1   -1    0    0  501    0  0.00000000000E+00  0.00000000000E+00 -0.60068358460E+03  0.60068358462E+03  0.50400001928E-02 0.  1.
    10030    2    1    2    0    0  0.00000000000E+00  0.00000000000E+00 -0.17400472320E+03  0.10273624460E+04  0.10125196057E+04 0.  0.
        3    1    3    3  502    0 -0.45774731115E+03 -0.20460458480E+03 -0.15952001392E+02  0.50164739961E+03  0.10100000352E+00 0. -1.
       -3    1    3    3    0  502  0.45774731115E+03  0.20460458480E+03 -0.15805272181E+03  0.52571504644E+03  0.10100000352E+00 0.  1.
</event>
<event>
 5   0  0.5826939E-04  0.9999773E+03  0.7818609E-02  0.9308570E-01
        1   -1    0    0  501    0  0.00000000000E+00  0.00000000000E+00  0.11285049791E+04  0.11285049791E+04  0.50400001928E-02 0.  1.
       -1   -1    0    0    0  501  0.00000000000E+00  0.00000000000E+00 -0.22152196285E+03  0.22152196291E+03  0.50400001928E-02 0. -1.
    10030    2    1    2    0    0  0.00000000000E+00  0.00000000000E+00  0.90698301627E+03  0.13500269420E+04  0.99997727595E+03 0.  0.
        1    1    3    3  502    0  0.17787035187E+03  0.95174577400E+01 -0.17723280595E+03  0.25127656399E+03  0.50400001928E-02 0. -1.
       -1    1    3    3    0  502 -0.17787035187E+03 -0.95174577400E+01  0.10842158222E+04  0.10987503780E+04  0.50400001928E-02 0.  1.
</event>
<event>
 5   0  0.1020150E-03  0.9990514E+03  0.7818609E-02  0.9309586E-01
       -2   -1    0    0    0  501  0.00000000000E+00  0.00000000000E+00  0.64844949424E+03  0.64844949425E+03  0.25500000920E-02 0. -1.
        2   -1    0    0  501    0  0.00000000000E+00  0.00000000000E+00 -0.38480397259E+03  0.38480397260E+03  0.25500000920E-02 0.  1.
    10030    2    1    2    0    0  0.00000000000E+00  0.00000000000E+00  0.26364552165E+03  0.10332534668E+04  0.99905143294E+03 0.  0.
        5    1    3    3  502    0  0.26874474658E+03 -0.34543909715E+03  0.38079620314E+03  0.58015493360E+03  0.46999998093E+01 0. -1.
       -5    1    3    3    0  502 -0.26874474658E+03  0.34543909715E+03 -0.11715068149E+03  0.45309853325E+03  0.46999998093E+01 0.  1.
</event>
<event>
 5   0  0.9741826E-04  0.9995405E+03  0.7818609E-02  0.9309049E-01
       -2   -1    0    0    0  501  0.00000000000E+00  0.00000000000E+00  0.21427576183E+03  0.21427576185E+03  0.25500000920E-02 0. -1.
        2   -1    0    0  501    0  0.00000000000E+00  0.00000000000E+00 -0.11656489532E+04  0.11656489532E+04  0.25500000920E-02 0.  1.
    10030    2    1    2    0    0  0.00000000000E+00  0.00000000000E+00 -0.95137319135E+03  0.13799247150E+04  0.99954052941E+03 0.  0.
        3    1    3    3  502    0  0.22028518099E+03 -0.22095440445E+03 -0.10146775984E+04  0.10615634926E+04  0.10100000352E+00 0.  1.
       -3    1    3    3    0  502 -0.22028518099E+03  0.22095440445E+03  0.63304407073E+02  0.31836122246E+03  0.10100000352E+00 0. -1.
</event>
<event>
 5   0  0.1006749E-03  0.1004309E+04  0.7818609E-02  0.9303831E-01
        2   -1    0    0  501    0  0.00000000000E+00  0.00000000000E+00  0.10701453674E+04  0.10701453674E+04  0.25500000920E-02 0.  1.
       -2   -1    0    0    0  501  0.00000000000E+00  0.00000000000E+00 -0.23563074854E+03  0.23563074855E+03  0.25500000920E-02 0. -1.
    10030    2    1    2    0    0  0.00000000000E+00  0.00000000000E+00  0.83451461881E+03  0.13057761159E+04  0.10043090241E+04 0.  0.
        1    1    3    3  502    0 -0.85105401709E+02  0.46583534260E+03  0.20003234578E+03  0.51406073104E+03  0.50400001928E-02 0. -1.
       -1    1    3    3    0  502  0.85105401709E+02 -0.46583534260E+03  0.63448227303E+03  0.79171538487E+03  0.50400001928E-02 0.  1.
</event>
<event>
 5   0  0.5888774E-04  0.9997197E+03  0.7818609E-02  0.9308852E-01
        1   -1    0    0  501    0  0.00000000000E+00  0.00000000000E+00  0.26108714532E+03  0.26108714537E+03  0.50400001928E-02 0.  1.
       -1   -1    0    0    0  501  0.00000000000E+00  0.00000000000E+00 -0.95699799250E+03  0.95699799251E+03  0.50400001928E-02 0. -1.
    10030    2    1    2    0    0  0.00000000000E+00  0.00000000000E+00 -0.69591084718E+03  0.12180851379E+04  0.99971970867E+03 0.  0.
        2    1    3    3  502    0 -0.11801894797E+03 -0.36340284262E+03 -0.74064013010E+03  0.83338940504E+03  0.25500000920E-02 0. -1.
       -2    1    3    3    0  502  0.11801894797E+03  0.36340284262E+03  0.44729282924E+02  0.38469573284E+03  0.25500000920E-02 0.  1.
</event>
<event>
 5   0  0.5826939E-04  0.1001177E+04  0.7818609E-02  0.9307255E-01
        1   -1    0    0  501    0  0.00000000000E+00  0.00000000000E+00  0.45116845261E+03  0.45116845264E+03  0.50400001928E-02 0.  1.
       -1   -1    0    0    0  501  0.00000000000E+00  0.00000000000E+00 -0.55542143378E+03  0.55542143381E+03  0.50400001928E-02 0. -1.
    10030    2    1    2    0    0  0.00000000000E+00  0.00000000000E+00 -0.10425298117E+03  0.10065898864E+04  0.10011765656E+04 0.  0.
        1    1    3    3  502    0  0.14300580382E+03 -0.37456428837E+03  0.24922663611E+03  0.47208366019E+03  0.50400001928E-02 0.  1.
       -1    1    3    3    0  502 -0.14300580382E+03  0.37456428837E+03 -0.35347961728E+03  0.53450622626E+03  0.50400001928E-02 0. -1.
</event>
<event>
 5   0  0.1020150E-03  0.9840988E+03  0.7818609E-02  0.9326159E-01
       -2   -1    0    0    0  501  0.00000000000E+00  0.00000000000E+00  0.12321267056E+04  0.12321267057E+04  0.25500000920E-02 0.  1.
        2   -1    0    0  501    0  0.00000000000E+00  0.00000000000E+00 -0.19649978368E+03  0.19649978369E+03  0.25500000920E-02 0. -1.
    10030    2    1    2    0    0  0.00000000000E+00  0.00000000000E+00  0.10356269220E+04  0.14286264893E+04  0.98409883881E+03 0.  0.
        5    1    3    3  502    0  0.25031417251E+03 -0.25767273992E+03  0.10058950580E+04  0.10681289171E+04  0.46999998093E+01 0.  1.
       -5    1    3    3    0  502 -0.25031417251E+03  0.25767273992E+03  0.29731863966E+02  0.36049757223E+03  0.46999998093E+01 0. -1.
</event>
<event>
 5   0  0.5758786E-04  0.1000615E+04  0.7818609E-02  0.9307871E-01
        1   -1    0    0  501    0  0.00000000000E+00  0.00000000000E+00  0.11827961369E+04  0.11827961369E+04  0.50400001928E-02 0.  1.
       -1   -1    0    0    0  501  0.00000000000E+00  0.00000000000E+00 -0.21162355384E+03  0.21162355390E+03  0.50400001928E-02 0. -1.
    10030    2    1    2    0    0  0.00000000000E+00  0.00000000000E+00  0.97117258306E+03  0.13944196908E+04  0.10006148550E+04 0.  0.
        3    1    3    3  502    0  0.36243011582E+03  0.32409814804E+03  0.64995768499E+03  0.81168971959E+03  0.10100000352E+00 0.  1.
       -3    1    3    3    0  502 -0.36243011582E+03 -0.32409814804E+03  0.32121489807E+03  0.58272997122E+03  0.10100000352E+00 0. -1.
</event>
<event>
 5   0  0.5768102E-04  0.9998712E+03  0.7818609E-02  0.9308686E-01
       -1   -1    0    0    0  501  0.00000000000E+00  0.00000000000E+00  0.30620414741E+03  0.30620414745E+03  0.50400001928E-02 0. -1.
        1   -1    0    0  501    0  0.00000000000E+00  0.00000000000E+00 -0.81623839043E+03  0.81623839044E+03  0.50400001928E-02 0.  1.
    10030    2    1    2    0    0  0.00000000000E+00  0.00000000000E+00 -0.51003424302E+03  0.11224425379E+04  0.99987115261E+03 0.  0.
        4    1    3    3  502    0 -0.40411783794E+03  0.28216286360E+03 -0.16104873536E+03  0.51852233953E+03  0.12699999809E+01 0.  1.
       -4    1    3    3    0  502  0.40411783794E+03 -0.28216286360E+03 -0.34898550766E+03  0.60392019836E+03  0.12699999809E+01 0. -1.
</event>
<event>
 5   0  0.1020150E-03  0.9909900E+03  0.7818609E-02  0.9318482E-01
       -2   -1    0    0    0  501  0.00000000000E+00  0.00000000000E+00  0.12038210885E+03  0.12038210888E+03  0.25500000920E-02 0. -1.
        2   -1    0    0  501    0  0.00000000000E+00  0.00000000000E+00 -0.20394667980E+04  0.20394667980E+04  0.25500000920E-02 0.  1.
    10030    2    1    2    0    0  0.00000000000E+00  0.00000000000E+00 -0.19190846891E+04  0.21598489069E+04  0.99099003852E+03 0.  0.
        5    1    3    3  502    0 -0.24154380783E+03  0.20016513183E+03 -0.17954078516E+04  0.18226137645E+04  0.46999998093E+01 0.  1.
       -5    1    3    3    0  502  0.24154380783E+03 -0.20016513183E+03 -0.12367683757E+03  0.33723514237E+03  0.46999998093E+01 0. -1.
</event>
<event>
 5   0  0.5960102E-04  0.9994314E+03  0.7818609E-02  0.9309169E-01
       -1   -1    0    0    0  501  0.00000000000E+00  0.00000000000E+00  0.47576659484E+03  0.47576659486E+03  0.50400001928E-02 0.  1.
        1   -1    0    0  501    0  0.00000000000E+00  0.00000000000E+00 -0.52487033465E+03  0.52487033467E+03  0.50400001928E-02 0. -1.
    10030    2    1    2    0    0  0.00000000000E+00  0.00000000000E+00 -0.49103739812E+02  0.10006369295E+04  0.99943138208E+03 0.  0.
        5    1    3    3  502    0 -0.33640381077E+03 -0.32381501118E+03 -0.20272719199E+03  0.50906197043E+03  0.46999998093E+01 0. -1.
       -5    1    3    3    0  502  0.33640381077E+03  0.32381501118E+03  0.15362345218E+03  0.49157495911E+03  0.46999998093E+01 0.  1.
</event>
<event>
 5   0  0.1020150E-03  0.9993160E+03  0.7818609E-02  0.9309295E-01
       -2   -1    0    0    0  501  0.00000000000E+00  0.00000000000E+00  0.34870851460E+03  0.34870851461E+03  0.25500000920E-02 0. -1.
        2   -1    0    0  501    0  0.00000000000E+00  0.00000000000E+00 -0.71595077853E+03  0.71595077854E+03  0.25500000920E-02 0.  1.
    10030    2    1    2    0    0  0.00000000000E+00  0.00000000000E+00 -0.36724226394E+03  0.10646592931E+04  0.99931603112E+03 0.  0.
        5    1    3    3  502    0  0.21830507952E+03 -0.52134778155E+01 -0.66239629191E+03  0.69747775995E+03  0.46999998093E+01 0.  1.
       -5    1    3    3    0  502 -0.21830507952E+03  0.52134778155E+01  0.29515402797E+03  0.36718153320E+03  0.46999998093E+01 0. -1.
</event>
<event>
 5   0  0.9674819E-04  0.9967626E+03  0.7818609E-02  0.9312103E-01
        2   -1    0    0  501    0  0.00000000000E+00  0.00000000000E+00  0.52417502932E+03  0.52417502932E+03  0.25500000920E-02 0.  1.
       -2   -1    0    0    0  501  0.00000000000E+00  0.00000000000E+00 -0.47385682499E+03  0.47385682499E+03  0.25500000920E-02 0. -1.
    10030    2    1    2    0    0  0.00000000000E+00  0.00000000000E+00  0.50318204328E+02  0.99803185432E+03  0.99676258986E+03 0.  0.
        4    1    3    3  502    0  0.29310999789E+03 -0.41574577674E+02 -0.37627584390E+03  0.47877660759E+03  0.12699999809E+01 0. -1.
       -4    1    3    3    0  502 -0.29310999789E+03  0.41574577674E+02  0.42659404822E+03  0.51925524673E+03  0.12699999809E+01 0.  1.
</event>
<event>
 5   0  0.1006749E-03  0.1002550E+04  0.7818609E-02  0.9305752E-01
        2   -1    0    0  501    0  0.00000000000E+00  0.00000000000E+00  0.88861334438E+03  0.88861334439E+03  0.25500000920E-02 0. -1.
       -2   -1    0    0    0  501  0.00000000000E+00  0.00000000000E+00 -0.28277405952E+03  0.28277405953E+03  0.25500000920E-02 0.  1.
    10030    2    1    2    0    0  0.00000000000E+00  0.00000000000E+00  0.60583928486E+03  0.11713874039E+04  0.10025503533E+04 0.  0.
        1    1    3    3  502    0  0.74097627726E+02  0.36767049900E+03 -0.85661071162E+02  0.38472051337E+03  0.50400001928E-02 0.  1.
       -1    1    3    3    0  502 -0.74097627726E+02 -0.36767049900E+03  0.69150035603E+03  0.78666689055E+03  0.50400001928E-02 0. -1.
</event>
<event>
 5   0  0.1006749E-03  0.1000155E+04  0.7818609E-02  0.9308375E-01
       -2   -1    0    0    0  501  0.00000000000E+00  0.00000000000E+00  0.27340181600E+03  0.27340181601E+03  0.25500000920E-02 0.  1.
        2   -1    0    0  501    0  0.00000000000E+00  0.00000000000E+00 -0.91468789224E+03  0.91468789224E+03  0.25500000920E-02 0. -1.
    10030    2    1    2    0    0  0.00000000000E+00  0.00000000000E+00 -0.64128607624E+03  0.11880897083E+04  0.10001546497E+04 0.  0.
        1    1    3    3  502    0 -0.33659392396E+02 -0.28846170428E+03  0.16295905460E+03  0.33301465889E+03  0.50400001928E-02 0.  1.
       -1    1    3    3    0  502  0.33659392396E+02  0.28846170428E+03 -0.80424513084E+03  0.85507504936E+03  0.50400001928E-02 0. -1.
</event>
<event>
 5   0  0.5888774E-04  0.1001615E+04  0.7818609E-02  0.9306775E-01
        1   -1    0    0  501    0  0.00000000000E+00  0.00000000000E+00  0.42947252819E+03  0.42947252822E+03  0.50400001928E-02 0. -1.
       -1   -1    0    0    0  501  0.00000000000E+00  0.00000000000E+00 -0.58399109243E+03  0.58399109245E+03  0.50400001928E-02 0.  1.
    10030    2    1    2    0    0  0.00000000000E+00  0.00000000000E+00 -0.15451856424E+03  0.10134636207E+04  0.10016149578E+04 0.  0.
        2    1    3    3  502    0  0.97761384364E+02 -0.28176428100E+03  0.32981791129E+03  0.44466645132E+03  0.25500000920E-02 0. -1.
       -2    1    3    3    0  502 -0.97761384364E+02  0.28176428100E+03 -0.48433647553E+03  0.56879716934E+03  0.25500000920E-02 0.  1.
</event>
<event>
 5   0  0.1006749E-03  0.1001138E+04  0.7818609E-02  0.9307297E-01
        2   -1    0    0  501    0  0.00000000000E+00  0.00000000000E+00  0.10020000071E+04  0.10020000071E+04  0.25500000920E-02 0. -1.
       -2   -1    0    0    0  501  0.00000000000E+00  0.00000000000E+00 -0.25006923479E+03  0.25006923480E+03  0.25500000920E-02 0.  1.
    10030    2    1    2    0    0  0.00000000000E+00  0.00000000000E+00  0.75193077233E+03  0.12520692419E+04  0.10011381025E+04 0.  0.
        1    1    3    3  502    0 -0.35950379919E+03 -0.33370793470E+03  0.25111729921E+03  0.55105704360E+03  0.50400001928E-02 0.  1.
       -1    1    3    3    0  502  0.35950379919E+03  0.33370793470E+03  0.50081347312E+03  0.70101219832E+03  0.50400001928E-02 0. -1.
</event>
<event>
 5   0  0.5960102E-04  0.9993190E+03  0.7818609E-02  0.9309292E-01
        1   -1    0    0  501    0  0.00000000000E+00  0.00000000000E+00  0.26291711596E+03  0.26291711600E+03  0.50400001928E-02 0.  1.
       -1   -1    0    0    0  501  0.00000000000E+00  0.00000000000E+00 -0.94957545399E+03  0.94957545401E+03  0.50400001928E-02 0. -1.
    10030    2    1    2    0    0  0.00000000000E+00  0.00000000000E+00 -0.68665833804E+03  0.12124925700E+04  0.99931904772E+03 0.  0.
        5    1    3    3  502    0  0.88241408894E+02 -0.48574471365E+03 -0.25010808827E+03  0.55345335748E+03  0.46999998093E+01 0.  1.
       -5    1    3    3    0  502 -0.88241408894E+02  0.48574471365E+03 -0.43655024977E+03  0.65903921253E+03  0.46999998093E+01 0. -1.
</event>
<event>
 5   0  0.5758786E-04  0.9988838E+03  0.7818609E-02  0.9309770E-01
        1   -1    0    0  501    0  0.00000000000E+00  0.00000000000E+00  0.58682188021E+03  0.58682188024E+03  0.50400001928E-02 0. -1.
       -1   -1    0    0    0  501  0.00000000000E+00  0.00000000000E+00 -0.42507314014E+03  0.42507314017E+03  0.50400001928E-02 0.  1.
    10030    2    1    2    0    0  0.00000000000E+00  0.00000000000E+00  0.16174874007E+03  0.10118950204E+04  0.99888381577E+03 0.  0.
        3    1    3    3  502    0 -0.36820817023E+03  0.25519642178E+03 -0.14277211710E+03  0.47019821133E+03  0.10100000352E+00 0.  1.
       -3    1    3    3    0  502  0.36820817023E+03 -0.25519642178E+03  0.30452085717E+03  0.54169680908E+03  0.10100000352E+00 0. -1.
</event>
<event>
 5   0  0.9674819E-04  0.9995208E+03  0.7818609E-02  0.9309071E-01
        2   -1    0    0  501    0  0.00000000000E+00  0.00000000000E+00  0.21148986633E+03  0.21148986635E+03  0.25500000920E-02 0.  1.
       -2   -1    0    0    0  501  0.00000000000E+00  0.00000000000E+00 -0.11809569833E+04  0.11809569833E+04  0.25500000920E-02 0. -1.
    10030    2    1    2    0    0  0.00000000000E+00  0.00000000000E+00 -0.96946711694E+03  0.13924468496E+04  0.99952075426E+03 0.  0.
        4    1    3    3  502    0  0.13036549439E+03  0.45088698149E+03 -0.72386517936E+03  0.86271469386E+03  0.12699999809E+01 0. -1.
       -4    1    3    3    0  502 -0.13036549439E+03 -0.45088698149E+03 -0.24560193758E+03  0.52973215577E+03  0.12699999809E+01 0.  1.
</event>
<event>
 5   0  0.5768102E-04  0.9793025E+03  0.7818609E-02  0.9331541E-01
       -1   -1    0    0    0  501  0.00000000000E+00  0.00000000000E+00  0.13313715869E+04  0.13313715869E+04  0.50400001928E-02 0.  1.
        1   -1    0    0  501    0  0.00000000000E+00  0.00000000000E+00 -0.18008372102E+03  0.18008372109E+03  0.50400001928E-02 0. -1.
    10030    2    1    2    0    0  0.00000000000E+00  0.00000000000E+00  0.11512878659E+04  0.15114553080E+04  0.97930250585E+03 0.  0.
        4    1    3    3  502    0 -0.30624808937E+03 -0.37150711169E+03  0.43801878599E+03  0.65089745433E+03  0.12699999809E+01 0. -1.
       -4    1    3    3    0  502  0.30624808937E+03  0.37150711169E+03  0.71326907989E+03  0.86055785367E+03  0.12699999809E+01 0.  1.
</event>
<event>
 5   0  0.9741826E-04  0.1000291E+04  0.7818609E-02  0.9308226E-01
       -2   -1    0    0    0  501  0.00000000000E+00  0.00000000000E+00  0.21486780345E+03  0.21486780346E+03  0.25500000920E-02 0.  1.
        2   -1    0    0  501    0  0.00000000000E+00  0.00000000000E+00 -0.11641829171E+04  0.11641829171E+04  0.25500000920E-02 0. -1.
    10030    2    1    2    0    0  0.00000000000E+00  0.00000000000E+00 -0.94931511369E+03  0.13790507206E+04  0.10002908102E+04 0.  0.
        3    1    3    3  502    0 -0.36306377931E+03  0.23562273759E+03 -0.82017930490E+03  0.92737666819E+03  0.10100000352E+00 0. -1.
       -3    1    3    3    0  502  0.36306377931E+03 -0.23562273759E+03 -0.12913580879E+03  0.45167405241E+03  0.10100000352E+00 0.  1.
</event>
<event>
 5   0  0.9741826E-04  0.1000139E+04  0.7818609E-02  0.9308392E-01
        2   -1    0    0  501    0  0.00000000000E+00  0.00000000000E+00  0.22906853407E+03  0.22906853409E+03  0.25500000920E-02 0. -1.
       -2   -1    0    0    0  501  0.00000000000E+00  0.00000000000E+00 -0.10916798601E+04  0.10916798601E+04  0.25500000920E-02 0.  1.
    10030    2    1    2    0    0  0.00000000000E+00  0.00000000000E+00 -0.86261132604E+03  0.13207483942E+04  0.10001390008E+04 0.  0.
        3    1    3    3  502    0 -0.49550078808E+03  0.63377822739E+02 -0.40085481113E+03  0.64048604138E+03  0.10100000352E+00 0. -1.
       -3    1    3    3    0  502  0.49550078808E+03 -0.63377822739E+02 -0.46175651491E+03  0.68026235282E+03  0.10100000352E+00 0.  1.
</event>
<event>
 5   0  0.9741826E-04  0.9981895E+03  0.7818609E-02  0.9310533E-01
        2   -1    0    0  501    0  0.00000000000E+00  0.00000000000E+00  0.62161461614E+03  0.62161461615E+03  0.25500000920E-02 0.  1.
       -2   -1    0    0    0  501  0.00000000000E+00  0.00000000000E+00 -0.40072348258E+03  0.40072348259E+03  0.25500000920E-02 0. -1.
    10030    2    1    2    0    0  0.00000000000E+00  0.00000000000E+00  0.22089113356E+03  0.10223380987E+04  0.99818950869E+03 0.  0.
        3    1    3    3  502    0  0.24609474556E+03  0.78934129739E+02  0.54774374675E+03  0.60565373188E+03  0.10100000352E+00 0.  1.
       -3    1    3    3    0  502 -0.24609474556E+03 -0.78934129739E+02 -0.32685261320E+03  0.41668436686E+03  0.10100000352E+00 0. -1.
</event>
<event>
 5   0  0.5888774E-04  0.1001176E+04  0.7818609E-02  0.9307256E-01
       -1   -1    0    0    0  501  0.00000000000E+00  0.00000000000E+00  0.24411834772E+03  0.24411834777E+03  0.50400001928E-02 0. -1.
        1   -1    0    0  501    0  0.00000000000E+00  0.00000000000E+00 -0.10265029355E+04  0.10265029355E+04  0.50400001928E-02 0.  1.
    10030    2    1    2    0    0  0.00000000000E+00  0.00000000000E+00 -0.78238458781E+03  0.12706212833E+04  0.10011757100E+04 0.  0.
        2    1    3    3  502    0  0.34523500054E+03  0.33655801293E+03 -0.56207618205E+03  0.74053233292E+03  0.25500000920E-02 0. -1.
       -2    1    3    3    0  502 -0.34523500054E+03 -0.33655801293E+03 -0.22030840576E+03  0.53008895039E+03  0.25500000920E-02 0.  1.
</event>
<event>
 5   0  0.1020150E-03  0.1001045E+04  0.7818609E-02  0.9307400E-01
        2   -1    0    0  501    0  0.00000000000E+00  0.00000000000E+00  0.65120615156E+03  0.65120615157E+03  0.25500000920E-02 0.  1.
       -2   -1    0    0    0  501  0.00000000000E+00  0.00000000000E+00 -0.38470548364E+03  0.38470548364E+03  0.25500000920E-02 0. -1.
    10030    2    1    2    0    0  0.00000000000E+00  0.00000000000E+00  0.26650066793E+03  0.10359116352E+04  0.10010446094E+04 0.  0.
        5    1    3    3  502    0  0.48109617133E+03  0.10895787582E+03  0.22090691992E+03  0.54050652359E+03  0.46999998093E+01 0.  1.
       -5    1    3    3    0  502 -0.48109617133E+03 -0.10895787582E+03  0.45593748007E+02  0.49540511163E+03  0.46999998093E+01 0. -1.
</event>
<event>
 5   0  0.1020150E-03  0.9996694E+03  0.7818609E-02  0.9308907E-01
        2   -1    0    0  501    0  0.00000000000E+00  0.00000000000E+00  0.70650217671E+03  0.70650217672E+03  0.25500000920E-02 0. -1.
       -2   -1    0    0    0  501  0.00000000000E+00  0.00000000000E+00 -0.35362204385E+03  0.35362204386E+03  0.25500000920E-02 0.  1.
    10030    2    1    2    0    0  0.00000000000E+00  0.00000000000E+00  0.35288013286E+03  0.10601242206E+04  0.99966943281E+03 0.  0.
        5    1    3    3  502    0 -0.36865066770E+03  0.23653186838E+03  0.43175256660E+03  0.61504715943E+03  0.46999998093E+01 0. -1.
       -5    1    3    3    0  502  0.36865066770E+03 -0.23653186838E+03 -0.78872433743E+02  0.44507706115E+03  0.46999998093E+01 0.  1.
</event>
<event>
 5   0  0.9674819E-04  0.1000114E+04  0.7818609E-02  0.9308419E-01
        2   -1    0    0  501    0  0.00000000000E+00  0.00000000000E+00  0.22719320978E+04  0.22719320978E+04  0.25500000920E-02 0. -1.
       -2   -1    0    0    0  501  0.00000000000E+00  0.00000000000E+00 -0.11006367587E+03  0.11006367590E+03  0.25500000920E-02 0.  1.
    10030    2    1    2    0    0  0.00000000000E+00  0.00000000000E+00  0.21618684219E+04  0.23819957737E+04  0.10001143896E+04 0.  0.
        4    1    3    3  502    0 -0.43701631165E+03 -0.22705348642E+03  0.12874591913E+04  0.13784372763E+04  0.12699999809E+01 0. -1.
       -4    1    3    3    0  502  0.43701631165E+03  0.22705348642E+03  0.87440923060E+03  0.10035584974E+04  0.12699999809E+01 0.  1.
</event>
<event>
 5   0  0.9674819E-04  0.1000053E+04  0.7818609E-02  0.9308486E-01
        2   -1    0    0  501    0  0.00000000000E+00  0.00000000000E+00  0.13869877436E+04  0.13869877436E+04  0.25500000920E-02 0. -1.
       -2   -1    0    0    0  501  0.00000000000E+00  0.00000000000E+00 -0.18026591295E+03  0.18026591297E+03  0.25500000920E-02 0.  1.
    10030    2    1    2    0    0  0.00000000000E+00  0.00000000000E+00  0.12067218307E+04  0.15672536566E+04  0.10000532223E+04 0.  0.
        4    1    3    3  502    0 -0.35490147553E+03  0.23904148794E+03  0.19792361730E+03  0.47145653190E+03  0.12699999809E+01 0.  1.
       -4    1    3    3    0  502  0.35490147553E+03 -0.23904148794E+03  0.10087982134E+04  0.10957971247E+04  0.12699999809E+01 0. -1.
</event>
<event>
 5   0  0.5888774E-04  0.9986207E+03  0.7818609E-02  0.9310059E-01
        1   -1    0    0  501    0  0.00000000000E+00  0.00000000000E+00  0.73104883812E+03  0.73104883814E+03  0.50400001928E-02 0.  1.
       -1   -1    0    0    0  501  0.00000000000E+00  0.00000000000E+00 -0.34103168186E+03  0.34103168190E+03  0.50400001928E-02 0. -1.
    10030    2    1    2    0    0  0.00000000000E+00  0.00000000000E+00  0.39001715627E+03  0.10720805200E+04  0.99862067837E+03 0.  0.
        2    1    3    3  502    0 -0.25855929469E+03 -0.18340069998E+03  0.60916132732E+03  0.68670681396E+03  0.25500000920E-02 0.  1.
       -2    1    3    3    0  502  0.25855929469E+03  0.18340069998E+03 -0.21914417106E+03  0.38537370608E+03  0.25500000920E-02 0. -1.
</event>
<event>
 5   0  0.9741826E-04  0.9995368E+03  0.7818609E-02  0.9309053E-01
       -2   -1    0    0    0  501  0.00000000000E+00  0.00000000000E+00  0.11378234781E+04  0.11378234781E+04  0.25500000920E-02 0.  1.
        2   -1    0    0  501    0  0.00000000000E+00  0.00000000000E+00 -0.21951422162E+03  0.21951422163E+03  0.25500000920E-02 0. -1.
    10030    2    1    2    0    0  0.00000000000E+00  0.00000000000E+00  0.91830925647E+03  0.13573376997E+04  0.99953676300E+03 0.  0.
        3    1    3    3  502    0  0.35702646305E+03 -0.33329899107E+03  0.60294729236E+03  0.77595203481E+03  0.10100000352E+00 0.  1.
       -3    1    3    3    0  502 -0.35702646305E+03  0.33329899107E+03  0.31536196411E+03  0.58138566492E+03  0.10100000352E+00 0. -1.
</event>
<event>
 5   0  0.5768102E-04  0.9982416E+03  0.7818609E-02  0.9310476E-01
        1   -1    0    0  501    0  0.00000000000E+00  0.00000000000E+00  0.91705371385E+03  0.91705371386E+03  0.50400001928E-02 0.  1.
       -1   -1    0    0    0  501  0.00000000000E+00  0.00000000000E+00 -0.27165426298E+03  0.27165426303E+03  0.50400001928E-02 0. -1.
    10030    2    1    2    0    0  0.00000000000E+00  0.00000000000E+00  0.64539945087E+03  0.11887079769E+04  0.99824155550E+03 0.  0.
        4    1    3    3  502    0  0.29749468776E+03 -0.10822121766E+03  0.78220891048E+03  0.84384081066E+03  0.12699999809E+01 0.  1.
       -4    1    3    3    0  502 -0.29749468776E+03  0.10822121766E+03 -0.13680945962E+03  0.34486716622E+03  0.12699999809E+01 0. -1.
</event>
<event>
 5   0  0.1006749E-03  0.9953508E+03  0.7818609E-02  0.9313659E-01
       -2   -1    0    0    0  501  0.00000000000E+00  0.00000000000E+00  0.29207121591E+03  0.29207121592E+03  0.25500000920E-02 0. -1.
        2   -1    0    0  501    0  0.00000000000E+00  0.00000000000E+00 -0.84801504246E+03  0.84801504246E+03  0.25500000920E-02 0.  1.
    10030    2    1    2    0    0  0.00000000000E+00  0.00000000000E+00 -0.55594382655E+03  0.11400862584E+04  0.99535076143E+03 0.  0.
        1    1    3    3  502    0 -0.11541629393E+02  0.74202950981E+02 -0.84148820140E+03  0.84483233855E+03  0.50400001928E-02 0.  1.
       -1    1    3    3    0  502  0.11541629393E+02 -0.74202950981E+02  0.28554437485E+03  0.29525391983E+03  0.50400001928E-02 0. -1.
</event>
<event>
 5   0  0.1006006E-03  0.1002311E+04  0.7818609E-02  0.9306013E-01
       -2   -1    0    0    0  501  0.00000000000E+00  0.00000000000E+00  0.15072411888E+03  0.15072411890E+03  0.25500000920E-02 0. -1.
        2   -1    0    0  501    0  0.00000000000E+00  0.00000000000E+00 -0.16663362440E+04  0.16663362440E+04  0.25500000920E-02 0.  1.
    10030    2    1    2    0    0  0.00000000000E+00  0.00000000000E+00 -0.15156121251E+04  0.18170603629E+04  0.10023114529E+04 0.  0.
        2    1    3    3  502    0 -0.33593457758E+03  0.33735227635E+03 -0.10415562025E+04  0.11452064974E+04  0.25500000920E-02 0.  1.
       -2    1    3    3    0  502  0.33593457758E+03 -0.33735227635E+03 -0.47405592262E+03  0.67185386547E+03  0.25500000920E-02 0. -1.
</event>
<event>
 5   0  0.5768102E-04  0.9977206E+03  0.7818609E-02  0.9311048E-01
       -1   -1    0    0    0  501  0.00000000000E+00  0.00000000000E+00  0.16633225656E+03  0.16633225663E+03  0.50400001928E-02 0.  1.
        1   -1    0    0  501    0  0.00000000000E+00  0.00000000000E+00 -0.14961717235E+04  0.14961717235E+04  0.50400001928E-02 0. -1.
    10030    2    1    2    0    0  0.00000000000E+00  0.00000000000E+00 -0.13298394669E+04  0.16625039801E+04  0.99772064033E+03 0.  0.
        4    1    3    3  502    0  0.42765330205E+02 -0.36727221259E+03 -0.12229251034E+04  0.12776013358E+04  0.12699999809E+01 0. -1.
       -4    1    3    3    0  502 -0.42765330205E+02  0.36727221259E+03 -0.10691436346E+03  0.38490264434E+03  0.12699999809E+01 0.  1.
</event>
<event>
 5   0  0.5888774E-04  0.9967011E+03  0.7818609E-02  0.9312170E-01
       -1   -1    0    0    0  501  0.00000000000E+00  0.00000000000E+00  0.15406161887E+03  0.15406161895E+03  0.50400001928E-02 0.  1.
        1   -1    0    0  501    0  0.00000000000E+00  0.00000000000E+00 -0.16120386203E+04  0.16120386203E+04  0.50400001928E-02 0. -1.
    10030    2    1    2    0    0  0.00000000000E+00  0.00000000000E+00 -0.14579770014E+04  0.17661002392E+04  0.99670111788E+03 0.  0.
        2    1    3    3  502    0 -0.82844612850E+02  0.16457917048E+03  0.91488834878E+02  0.20571762235E+03  0.25500000920E-02 0.  1.
       -2    1    3    3    0  502  0.82844612850E+02 -0.16457917048E+03 -0.15494658363E+04  0.15603826169E+04  0.25500000920E-02 0. -1.
</event>
<event>
 5   0  0.9674819E-04  0.1000192E+04  0.7818609E-02  0.9308334E-01
        2   -1    0    0  501    0  0.00000000000E+00  0.00000000000E+00  0.15188737179E+04  0.15188737179E+04  0.25500000920E-02 0.  1.
       -2   -1    0    0    0  501  0.00000000000E+00  0.00000000000E+00 -0.16465889669E+03  0.16465889671E+03  0.25500000920E-02 0. -1.
    10030    2    1    2    0    0  0.00000000000E+00  0.00000000000E+00  0.13542148212E+04  0.16835326146E+04  0.10001921228E+04 0.  0.
        4    1    3    3  502    0  0.13445500486E+02  0.59525900863E+02  0.15125802172E+04  0.15138112963E+04  0.12699999809E+01 0.  1.
       -4    1    3    3    0  502 -0.13445500486E+02 -0.59525900863E+02 -0.15836539598E+03  0.16972131835E+03  0.12699999809E+01 0. -1.
</event>
<event>
 5   0  0.9674819E-04  0.9971126E+03  0.7818609E-02  0.9311717E-01
        2   -1    0    0  501    0  0.00000000000E+00  0.00000000000E+00  0.38857237346E+03  0.38857237347E+03  0.25500000920E-02 0.  1.
       -2   -1    0    0    0  501  0.00000000000E+00  0.00000000000E+00 -0.63967069743E+03  0.63967069743E+03  0.25500000920E-02 0. -1.
    10030    2    1    2    0    0  0.00000000000E+00  0.00000000000E+00 -0.25109832397E+03  0.10282430709E+04  0.99711255360E+03 0.  0.
        4    1    3    3  502    0  0.21618239361E+02  0.31414971742E+02 -0.63816282410E+03  0.63930247276E+03  0.12699999809E+01 0. -1.
       -4    1    3    3    0  502 -0.21618239361E+02 -0.31414971742E+02  0.38706450012E+03  0.38894059814E+03  0.12699999809E+01 0.  1.
</event>
<event>
 5   0  0.5768102E-04  0.9970701E+03  0.7818609E-02  0.9311764E-01
        1   -1    0    0  501    0  0.00000000000E+00  0.00000000000E+00  0.17402118231E+04  0.17402118231E+04  0.50400001928E-02 0.  1.
       -1   -1    0    0    0  501  0.00000000000E+00  0.00000000000E+00 -0.14282008138E+03  0.14282008147E+03  0.50400001928E-02 0. -1.
    10030    2    1    2    0    0  0.00000000000E+00  0.00000000000E+00  0.15973917417E+04  0.18830319046E+04  0.99707009642E+03 0.  0.
        4    1    3    3  502    0  0.33736000620E+03 -0.34494037081E+03  0.10356332807E+04  0.11425119422E+04  0.12699999809E+01 0.  1.
       -4    1    3    3    0  502 -0.33736000620E+03  0.34494037081E+03  0.56175846107E+03  0.74051996238E+03  0.12699999809E+01 0. -1.
</event>
<event>
 5   0  0.5888774E-04  0.9994128E+03  0.7818609E-02  0.9309189E-01
        1   -1    0    0  501    0  0.00000000000E+00  0.00000000000E+00  0.42928145771E+03  0.42928145774E+03  0.50400001928E-02 0. -1.
       -1   -1    0    0    0  501  0.00000000000E+00  0.00000000000E+00 -0.58168474611E+03  0.58168474614E+03  0.50400001928E-02 0.  1.
    10030    2    1    2    0    0  0.00000000000E+00  0.00000000000E+00 -0.15240328840E+03  0.10109662039E+04  0.99941277912E+03 0.  0.
        2    1    3    3  502    0 -0.26420355873E+03 -0.11759413566E+03  0.33603188610E+03  0.44333884295E+03  0.25500000920E-02 0. -1.
       -2    1    3    3    0  502  0.26420355873E+03  0.11759413566E+03 -0.48843517450E+03  0.56762736093E+03  0.25500000920E-02 0.  1.
</event>
<event>
 5   0  0.1020150E-03  0.1001340E+04  0.7818609E-02  0.9307076E-01
        2   -1    0    0  501    0  0.00000000000E+00  0.00000000000E+00  0.15134672159E+04  0.15134672159E+04  0.25500000920E-02 0. -1.
       -2   -1    0    0    0  501  0.00000000000E+00  0.00000000000E+00 -0.16562669640E+03  0.16562669642E+03  0.25500000920E-02 0.  1.
    10030    2    1    2    0    0  0.00000000000E+00  0.00000000000E+00  0.13478405195E+04  0.16790939123E+04  0.10013402521E+04 0.  0.
        5    1    3    3  502    0  0.45389308713E+03 -0.20029626059E+03  0.78654342545E+03  0.92995170663E+03  0.46999998093E+01 0. -1.
       -5    1    3    3    0  502 -0.45389308713E+03  0.20029626059E+03  0.56129709407E+03  0.74914220570E+03  0.46999998093E+01 0.  1.
</event>
<event>
 5   0  0.1020150E-03  0.1000148E+04  0.7818609E-02  0.9308383E-01
        2   -1    0    0  501    0  0.00000000000E+00  0.00000000000E+00  0.11445070499E+04  0.11445070499E+04  0.25500000920E-02 0. -1.
       -2   -1    0    0    0  501  0.00000000000E+00  0.00000000000E+00 -0.21849920178E+03  0.21849920180E+03  0.25500000920E-02 0.  1.
    10030    2    1    2    0    0  0.00000000000E+00  0.00000000000E+00  0.92600784809E+03  0.13630062517E+04  0.10001477428E+04 0.  0.
        5    1    3    3  502    0  0.30517747330E+03  0.39383518145E+03  0.40498705280E+03  0.64208725520E+03  0.46999998093E+01 0. -1.
       -5    1    3    3    0  502 -0.30517747330E+03 -0.39383518145E+03  0.52102079529E+03  0.72091899647E+03  0.46999998093E+01 0.  1.
</event>
<event>
 5   0  0.5960102E-04  0.1000637E+04  0.7818609E-02  0.9307846E-01
       -1   -1    0    0    0  501  0.00000000000E+00  0.00000000000E+00  0.34347752278E+03  0.34347752282E+03  0.50400001928E-02 0.  1.
        1   -1    0    0  501    0  0.00000000000E+00  0.00000000000E+00 -0.72877725776E+03  0.72877725778E+03  0.50400001928E-02 0. -1.
    10030    2    1    2    0    0  0.00000000000E+00  0.00000000000E+00 -0.38529973498E+03  0.10722547806E+04  0.10006370115E+04 0.  0.
        5    1    3    3  502    0 -0.11012812046E+03  0.13596903122E+03 -0.69489694341E+03  0.71660284142E+03  0.46999998093E+01 0. -1.
       -5    1    3    3    0  502  0.11012812046E+03 -0.13596903122E+03  0.30959720844E+03  0.35565193918E+03  0.46999998093E+01 0.  1.
</event>
<event>
 5   0  0.1006006E-03  0.9997345E+03  0.7818609E-02  0.9308836E-01
        2   -1    0    0  501    0  0.00000000000E+00  0.00000000000E+00  0.50206412184E+03  0.50206412185E+03  0.25500000920E-02 0.  1.
       -2   -1    0    0    0  501  0.00000000000E+00  0.00000000000E+00 -0.49767998235E+03  0.49767998236E+03  0.25500000920E-02 0. -1.
    10030    2    1    2    0    0  0.00000000000E+00  0.00000000000E+00  0.43841394911E+01  0.99974410421E+03  0.99973449137E+03 0.  0.
        2    1    3    3  502    0 -0.13737337596E+03 -0.16863791335E+03 -0.44787566783E+03  0.49789838731E+03  0.25500000920E-02 0. -1.
       -2    1    3    3    0  502  0.13737337596E+03  0.16863791335E+03  0.45225980732E+03  0.50184571690E+03  0.25500000920E-02 0.  1.
</event>
<event>
 5   0  0.5768102E-04  0.9993305E+03  0.7818609E-02  0.9309279E-01
       -1   -1    0    0    0  501  0.00000000000E+00  0.00000000000E+00  0.32156166669E+03  0.32156166673E+03  0.50400001928E-02 0.  1.
        1   -1    0    0  501    0  0.00000000000E+00  0.00000000000E+00 -0.77641513563E+03  0.77641513565E+03  0.50400001928E-02 0. -1.
    10030    2    1    2    0    0  0.00000000000E+00  0.00000000000E+00 -0.45485346894E+03  0.10979768024E+04  0.99933046603E+03 0.  0.
        4    1    3    3  502    0  0.17383119240E+03 -0.14014489675E+03  0.26369385755E+03  0.34553428042E+03  0.12699999809E+01 0.  1.
       -4    1    3    3    0  502 -0.17383119240E+03  0.14014489675E+03 -0.71854732649E+03  0.75244252195E+03  0.12699999809E+01 0. -1.
</event>
<event>
 5   0  0.9741826E-04  0.9980960E+03  0.7818609E-02  0.9310635E-01
       -2   -1    0    0    0  501  0.00000000000E+00  0.00000000000E+00  0.68516472013E+03  0.68516472014E+03  0.25500000920E-02 0.  1.
        2   -1    0    0  501    0  0.00000000000E+00  0.00000000000E+00 -0.36348766871E+03  0.36348766872E+03  0.25500000920E-02 0. -1.
    10030    2    1    2    0    0  0.00000000000E+00  0.00000000000E+00  0.32167705142E+03  0.10486523889E+04  0.99809604109E+03 0.  0.
        3    1    3    3  502    0  0.82100061377E+02  0.25753616722E+03 -0.27991453810E+03  0.38912396013E+03  0.10100000352E+00 0. -1.
       -3    1    3    3    0  502 -0.82100061377E+02 -0.25753616722E+03  0.60159158953E+03  0.65952842873E+03  0.10100000352E+00 0.  1.
</event>
<event>
 5   0  0.3854625E-04  0.1000998E+04  0.7818609E-02  0.9307451E-01
       -4   -1    0    0    0  501  0.00000000000E+00  0.00000000000E+00  0.39437778345E+03  0.39437982832E+03  0.12699999809E+01 0.  1.
        4   -1    0    0  501    0  0.00000000000E+00  0.00000000000E+00 -0.63517133654E+03  0.63517260619E+03  0.12699999809E+01 0. -1.
    10030    2    1    2    0    0  0.00000000000E+00  0.00000000000E+00 -0.24079355308E+03  0.10295524345E+04  0.10009978423E+04 0.  0.
        4    1    3    3  502    0  0.13140479303E+03 -0.15943563749E+03  0.34846971095E+03  0.40511688990E+03  0.12699999809E+01 0.  1.
       -4    1    3    3    0  502 -0.13140479303E+03  0.15943563749E+03 -0.58926326403E+03  0.62443554461E+03  0.12699999809E+01 0. -1.
</event>
<event>
 5   0  0.1006006E-03  0.1000784E+04  0.7818609E-02  0.9307686E-01
        2   -1    0    0  501    0  0.00000000000E+00  0.00000000000E+00  0.87390140215E+03  0.87390140215E+03  0.25500000920E-02 0.  1.
       -2   -1    0    0    0  501  0.00000000000E+00  0.00000000000E+00 -0.28652195349E+03  0.28652195350E+03  0.25500000920E-02 0. -1.
    10030    2    1    2    0    0  0.00000000000E+00  0.00000000000E+00  0.58737944866E+03  0.11604233556E+04  0.10007835668E+04 0.  0.
        2    1    3    3  502    0  0.49430101968E+03  0.63430915696E+02  0.34599602393E+03  0.60668791623E+03  0.25500000920E-02 0. -1.
       -2    1    3    3    0  502 -0.49430101968E+03 -0.63430915696E+02  0.24138342473E+03  0.55373543942E+03  0.25500000920E-02 0.  1.
</event>
<event>
 5   0  0.5758786E-04  0.9995645E+03  0.7818609E-02  0.9309023E-01
        1   -1    0    0  501    0  0.00000000000E+00  0.00000000000E+00  0.62158897678E+03  0.62158897680E+03  0.50400001928E-02 0.  1.
       -1   -1    0    0    0  501  0.00000000000E+00  0.00000000000E+00 -0.40184478693E+03  0.40184478696E+03  0.50400001928E-02 0. -1.
    10030    2    1    2    0    0  0.00000000000E+00  0.00000000000E+00  0.21974418985E+03  0.10234337638E+04  0.99956448508E+03 0.  0.
        3    1    3    3  502    0 -0.24403718902E+03 -0.42797460755E+03  0.23806097860E+02  0.49323742237E+03  0.10100000352E+00 0.  1.
       -3    1    3    3    0  502  0.24403718902E+03  0.42797460755E+03  0.19593809199E+03  0.53019634139E+03  0.10100000352E+00 0. -1.
</event>
<event>
 5   0  0.1006006E-03  0.9999849E+03  0.7818609E-02  0.9308561E-01
        2   -1    0    0  501    0  0.00000000000E+00  0.00000000000E+00  0.45105394164E+03  0.45105394164E+03  0.25500000920E-02 0. -1.
       -2   -1    0    0    0  501  0.00000000000E+00  0.00000000000E+00 -0.55424068624E+03  0.55424068625E+03  0.25500000920E-02 0.  1.
    10030    2    1    2    0    0  0.00000000000E+00  0.00000000000E+00 -0.10318674461E+03  0.10052946279E+04  0.99998489219E+03 0.  0.
        2    1    3    3  502    0  0.42581872942E+03 -0.25508735851E+03  0.87360675890E+01  0.49645490196E+03  0.25500000920E-02 0.  1.
       -2    1    3    3    0  502 -0.42581872942E+03  0.25508735851E+03 -0.11192281220E+03  0.50883972593E+03  0.25500000920E-02 0. -1.
</event>
<event>
 5   0  0.5960102E-04  0.9953617E+03  0.7818609E-02  0.9313647E-01
       -1   -1    0    0    0  501  0.00000000000E+00  0.00000000000E+00  0.36468463631E+03  0.36468463635E+03  0.50400001928E-02 0. -1.
        1   -1    0    0  501    0  0.00000000000E+00  0.00000000000E+00 -0.67917926959E+03  0.67917926961E+03  0.50400001928E-02 0.  1.
    10030    2    1    2    0    0  0.00000000000E+00  0.00000000000E+00 -0.31449463328E+03  0.10438639060E+04  0.99536173314E+03 0.  0.
        5    1    3    3  502    0 -0.31048145986E+03  0.92384077234E+02 -0.55345371718E+03  0.64130075760E+03  0.46999998093E+01 0.  1.
       -5    1    3    3    0  502  0.31048145986E+03 -0.92384077234E+02  0.23895908390E+03  0.40256314836E+03  0.46999998093E+01 0. -1.
</event>
<event>
 5   0  0.5768102E-04  0.9983035E+03  0.7818609E-02  0.9310407E-01
        1   -1    0    0  501    0  0.00000000000E+00  0.00000000000E+00  0.29813987205E+03  0.29813987209E+03  0.50400001928E-02 0. -1.
       -1   -1    0    0    0  501  0.00000000000E+00  0.00000000000E+00 -0.83568984004E+03  0.83568984005E+03  0.50400001928E-02 0.  1.
    10030    2    1    2    0    0  0.00000000000E+00  0.00000000000E+00 -0.53754996799E+03  0.11338297121E+04  0.99830348495E+03 0.  0.
        4    1    3    3  502    0  0.37968506767E+03 -0.31054511578E+03 -0.37380532242E+03  0.61670986008E+03  0.12699999809E+01 0.  1.
       -4    1    3    3    0  502 -0.37968506767E+03  0.31054511578E+03 -0.16374464557E+03  0.51711985207E+03  0.12699999809E+01 0. -1.
</event>
<event>
 5   0  0.9741826E-04  0.9961619E+03  0.7818609E-02  0.9312764E-01
        2   -1    0    0  501    0  0.00000000000E+00  0.00000000000E+00  0.54899078730E+03  0.54899078731E+03  0.25500000920E-02 0. -1.
       -2   -1    0    0    0  501  0.00000000000E+00  0.00000000000E+00 -0.45189219873E+03  0.45189219873E+03  0.25500000920E-02 0.  1.
    10030    2    1    2    0    0  0.00000000000E+00  0.00000000000E+00  0.97098588578E+02  0.10008829860E+04  0.99616194258E+03 0.  0.
        3    1    3    3  502    0  0.78815197550E+02 -0.40693673593E+03 -0.22893942143E+03  0.47352150036E+03  0.10100000352E+00 0.  1.
       -3    1    3    3    0  502 -0.78815197550E+02  0.40693673593E+03  0.32603801001E+03  0.52736148569E+03  0.10100000352E+00 0. -1.
</event>
<event>
 5   0  0.5758786E-04  0.9989510E+03  0.7818609E-02  0.9309696E-01
       -1   -1    0    0    0  501  0.00000000000E+00  0.00000000000E+00  0.36764672354E+03  0.36764672357E+03  0.50400001928E-02 0. -1.
        1   -1    0    0  501    0  0.00000000000E+00  0.00000000000E+00 -0.67857475238E+03  0.67857475240E+03  0.50400001928E-02 0.  1.
    10030    2    1    2    0    0  0.00000000000E+00  0.00000000000E+00 -0.31092802884E+03  0.10462214760E+04  0.99895101865E+03 0.  0.
        3    1    3    3  502    0 -0.39443450285E+03 -0.25548741370E+03  0.21726261406E+02  0.47045131122E+03  0.10100000352E+00 0.  1.
       -3    1    3    3    0  502  0.39443450285E+03  0.25548741370E+03 -0.33265429025E+03  0.57577016475E+03  0.10100000352E+00 0. -1.
</event>
<event>
 5   0  0.5888774E-04  0.9979196E+03  0.7818609E-02  0.9310830E-01
        1   -1    0    0  501    0  0.00000000000E+00  0.00000000000E+00  0.16552330717E+04  0.16552330717E+04  0.50400001928E-02 0. -1.
       -1   -1    0    0    0  501  0.00000000000E+00  0.00000000000E+00 -0.15040834423E+03  0.15040834431E+03  0.50400001928E-02 0.  1.
    10030    2    1    2    0    0  0.00000000000E+00  0.00000000000E+00  0.15048247275E+04  0.18056414160E+04  0.99791956732E+03 0.  0.
        2    1    3    3  502    0 -0.24637383922E+03  0.67822070578E+02 -0.23020849507E+02  0.25657330615E+03  0.25500000920E-02 0.  1.
       -2    1    3    3    0  502  0.24637383922E+03 -0.67822070578E+02  0.15278455770E+04  0.15490681099E+04  0.25500000920E-02 0. -1.
</event>
<event>
 5   0  0.5888774E-04  0.1000558E+04  0.7818609E-02  0.9307933E-01
        1   -1    0    0  501    0  0.00000000000E+00  0.00000000000E+00  0.15270317169E+04  0.15270317169E+04  0.50400001928E-02 0. -1.
       -1   -1    0    0    0  501  0.00000000000E+00  0.00000000000E+00 -0.16389903929E+03  0.16389903936E+03  0.50400001928E-02 0.  1.
    10030    2    1    2    0    0  0.00000000000E+00  0.00000000000E+00  0.13631326776E+04  0.16909307562E+04  0.10005579072E+04 0.  0.
        2    1    3    3  502    0 -0.44408406228E+03 -0.19493144800E+03  0.47410280453E+03  0.67822001818E+03  0.25500000920E-02 0. -1.
       -2    1    3    3    0  502  0.44408406228E+03  0.19493144800E+03  0.88902987304E+03  0.10127107381E+04  0.25500000920E-02 0.  1.
</event>
<event>
 5   0  0.9674819E-04  0.9998863E+03  0.7818609E-02  0.9308670E-01
        2   -1    0    0  501    0  0.00000000000E+00  0.00000000000E+00  0.36106255620E+03  0.36106255621E+03  0.25500000920E-02 0.  1.
       -2   -1    0    0    0  501  0.00000000000E+00  0.00000000000E+00 -0.69224333817E+03  0.69224333817E+03  0.25500000920E-02 0. -1.
    10030    2    1    2    0    0  0.00000000000E+00  0.00000000000E+00 -0.33118078197E+03  0.10533058944E+04  0.99988629193E+03 0.  0.
        4    1    3    3  502    0  0.45002874559E+03  0.82431173070E+02 -0.37790405991E+03  0.59340868004E+03  0.12699999809E+01 0.  1.
       -4    1    3    3    0  502 -0.45002874559E+03 -0.82431173070E+02  0.46723277939E+02  0.45989721434E+03  0.12699999809E+01 0. -1.
</event>
<event>
 5   0  0.5768102E-04  0.1000849E+04  0.7818609E-02  0.9307614E-01
        1   -1    0    0  501    0  0.00000000000E+00  0.00000000000E+00  0.35521758531E+03  0.35521758535E+03  0.50400001928E-02 0. -1.
       -1   -1    0    0    0  501  0.00000000000E+00  0.00000000000E+00 -0.70499018730E+03  0.70499018732E+03  0.50400001928E-02 0.  1.
    10030    2    1    2    0    0  0.00000000000E+00  0.00000000000E+00 -0.34977260199E+03  0.10602077727E+04  0.10008494633E+04 0.  0.
        4    1    3    3  502    0 -0.21137204685E+03 -0.14936468128E+03  0.27880843283E+03  0.38042568962E+03  0.12699999809E+01 0. -1.
       -4    1    3    3    0  502  0.21137204685E+03  0.14936468128E+03 -0.62858103482E+03  0.67978208305E+03  0.12699999809E+01 0.  1.
</event>
<event>
 5   0  0.5826939E-04  0.9937351E+03  0.7818609E-02  0.9315443E-01
        1   -1    0    0  501    0  0.00000000000E+00  0.00000000000E+00  0.76535940402E+03  0.76535940404E+03  0.50400001928E-02 0.  1.
       -1   -1    0    0    0  501  0.00000000000E+00  0.00000000000E+00 -0.32256397118E+03  0.32256397122E+03  0.50400001928E-02 0. -1.
    10030    2    1    2    0    0  0.00000000000E+00  0.00000000000E+00  0.44279543285E+03  0.10879233753E+04  0.99373511314E+03 0.  0.
        1    1    3    3  502    0 -0.48683652057E+02 -0.17814185748E+03  0.72639108509E+03  0.74949891787E+03  0.50400001928E-02 0.  1.
       -1    1    3    3    0  502  0.48683652057E+02  0.17814185748E+03 -0.28359565224E+03  0.33842445739E+03  0.50400001928E-02 0. -1.
</event>
<event>
 5   0  0.1020150E-03  0.1017398E+04  0.7818609E-02  0.9289666E-01
       -2   -1    0    0    0  501  0.00000000000E+00  0.00000000000E+00  0.14060644223E+03  0.14060644225E+03  0.25500000920E-02 0.  1.
        2   -1    0    0  501    0  0.00000000000E+00  0.00000000000E+00 -0.18404195603E+04  0.18404195603E+04  0.25500000920E-02 0. -1.
    10030    2    1    2    0    0  0.00000000000E+00  0.00000000000E+00 -0.16998131181E+04  0.19810260025E+04  0.10173983421E+04 0.  0.
        5    1    3    3  502    0  0.10600839047E+03  0.44270123386E+03 -0.12919161879E+04  0.13697779703E+04  0.46999998093E+01 0. -1.
       -5    1    3    3    0  502 -0.10600839047E+03 -0.44270123386E+03 -0.40789693014E+03  0.61124803225E+03  0.46999998093E+01 0.  1.
</event>
<event>
 5   0  0.1006749E-03  0.1000181E+04  0.7818609E-02  0.9308346E-01
       -2   -1    0    0    0  501  0.00000000000E+00  0.00000000000E+00  0.16829766988E+03  0.16829766990E+03  0.25500000920E-02 0.  1.
        2   -1    0    0  501    0  0.00000000000E+00  0.00000000000E+00 -0.14860023768E+04  0.14860023768E+04  0.25500000920E-02 0. -1.
    10030    2    1    2    0    0  0.00000000000E+00  0.00000000000E+00 -0.13177047069E+04  0.16543000467E+04  0.10001814585E+04 0.  0.
        1    1    3    3  502    0 -0.41907517069E+02 -0.32473949299E+03 -0.33651852012E+02  0.32915714403E+03  0.50400001928E-02 0.  1.
       -1    1    3    3    0  502  0.41907517069E+02  0.32473949299E+03 -0.12840528549E+04  0.13251429027E+04  0.50400001928E-02 0. -1.
</event>
<event>
 5   0  0.1006749E-03  0.9990248E+03  0.7818609E-02  0.9309615E-01
       -2   -1    0    0    0  501  0.00000000000E+00  0.00000000000E+00  0.89456344784E+02  0.89456344821E+02  0.25500000920E-02 0. -1.
        2   -1    0    0  501    0  0.00000000000E+00  0.00000000000E+00 -0.27892109401E+04  0.27892109401E+04  0.25500000920E-02 0.  1.
    10030    2    1    2    0    0  0.00000000000E+00  0.00000000000E+00 -0.26997545953E+04  0.28786672849E+04  0.99902475562E+03 0.  0.
        1    1    3    3  502    0  0.32910271570E+03  0.37573645883E+03 -0.13646071396E+04  0.14531480067E+04  0.50400001928E-02 0. -1.
       -1    1    3    3    0  502 -0.32910271570E+03 -0.37573645883E+03 -0.13351474557E+04  0.14255192782E+04  0.50400001928E-02 0.  1.
</event>
<event>
 5   0  0.5758786E-04  0.9998470E+03  0.7818609E-02  0.9308713E-01
        1   -1    0    0  501    0  0.00000000000E+00  0.00000000000E+00  0.70760098544E+03  0.70760098545E+03  0.50400001928E-02 0. -1.
       -1   -1    0    0    0  501  0.00000000000E+00  0.00000000000E+00 -0.35319833141E+03  0.35319833144E+03  0.50400001928E-02 0.  1.
    10030    2    1    2    0    0  0.00000000000E+00  0.00000000000E+00  0.35440265403E+03  0.10607993169E+04  0.99984696306E+03 0.  0.
        3    1    3    3  502    0 -0.22917451591E+03 -0.79514880876E+00  0.64858588193E+03  0.68788461783E+03  0.10100000352E+00 0. -1.
       -3    1    3    3    0  502  0.22917451591E+03  0.79514880876E+00 -0.29418322790E+03  0.37291469907E+03  0.10100000352E+00 0.  1.
</event>
<event>
 5   0  0.1020150E-03  0.9996080E+03  0.7818609E-02  0.9308975E-01
        2   -1    0    0  501    0  0.00000000000E+00  0.00000000000E+00  0.67069001552E+03  0.67069001553E+03  0.25500000920E-02 0.  1.
       -2   -1    0    0    0  501  0.00000000000E+00  0.00000000000E+00 -0.37245827863E+03  0.37245827864E+03  0.25500000920E-02 0. -1.
    10030    2    1    2    0    0  0.00000000000E+00  0.00000000000E+00  0.29823173689E+03  0.10431482942E+04  0.99960802054E+03 0.  0.
        5    1    3    3  502    0  0.26531761159E+03  0.40788500332E+03  0.26818364781E+03  0.55561512749E+03  0.46999998093E+01 0. -1.
       -5    1    3    3    0  502 -0.26531761159E+03 -0.40788500332E+03  0.30048089080E+02  0.48753316667E+03  0.46999998093E+01 0.  1.
</event>
<event>
 5   0  0.1006006E-03  0.1001265E+04  0.7818609E-02  0.9307158E-01
        2   -1    0    0  501    0  0.00000000000E+00  0.00000000000E+00  0.92189723382E+03  0.92189723382E+03  0.25500000920E-02 0.  1.
       -2   -1    0    0    0  501  0.00000000000E+00  0.00000000000E+00 -0.27186648343E+03  0.27186648344E+03  0.25500000920E-02 0. -1.
    10030    2    1    2    0    0  0.00000000000E+00  0.00000000000E+00  0.65003075039E+03  0.11937637173E+04  0.10012651178E+04 0.  0.
        2    1    3    3  502    0 -0.85056294136E+02 -0.48682124458E+03  0.42042159680E+03  0.64883265671E+03  0.25500000920E-02 0.  1.
       -2    1    3    3    0  502  0.85056294136E+02  0.48682124458E+03  0.22960915358E+03  0.54493106056E+03  0.25500000920E-02 0. -1.
</event>
<event>
 5   0  0.5960102E-04  0.1003206E+04  0.7818609E-02  0.9305036E-01
        1   -1    0    0  501    0  0.00000000000E+00  0.00000000000E+00  0.58040266054E+03  0.58040266056E+03  0.50400001928E-02 0.  1.
       -1   -1    0    0    0  501  0.00000000000E+00  0.00000000000E+00 -0.43350140636E+03  0.43350140639E+03  0.50400001928E-02 0. -1.
    10030    2    1    2    0    0  0.00000000000E+00  0.00000000000E+00  0.14690125418E+03  0.10139040670E+04  0.10032056013E+04 0.  0.
        5    1    3    3  502    0  0.29859961106E+03 -0.15123191255E+03  0.45099895723E+03  0.56165377994E+03  0.46999998093E+01 0.  1.
       -5    1    3    3    0  502 -0.29859961106E+03  0.15123191255E+03 -0.30409770305E+03  0.45225028701E+03  0.46999998093E+01 0. -1.
</event>
<event>
 5   0  0.1006749E-03  0.9994740E+03  0.7818609E-02  0.9309122E-01
       -2   -1    0    0    0  501  0.00000000000E+00  0.00000000000E+00  0.12688743119E+04  0.12688743119E+04  0.25500000920E-02 0.  1.
        2   -1    0    0  501    0  0.00000000000E+00  0.00000000000E+00 -0.19681780046E+03  0.19681780047E+03  0.25500000920E-02 0. -1.
    10030    2    1    2    0    0  0.00000000000E+00  0.00000000000E+00  0.10720565115E+04  0.14656921124E+04  0.99947396392E+03 0.  0.
        1    1    3    3  502    0 -0.49831122978E+03  0.96682660509E+01  0.48255772925E+03  0.69373591458E+03  0.50400001928E-02 0. -1.
       -1    1    3    3    0  502  0.49831122978E+03 -0.96682660509E+01  0.58949878221E+03  0.77195619782E+03  0.50400001928E-02 0.  1.
</event>
<event>
 5   0  0.9674819E-04  0.9995640E+03  0.7818609E-02  0.9309023E-01
       -2   -1    0    0    0  501  0.00000000000E+00  0.00000000000E+00  0.39600918577E+03  0.39600918577E+03  0.25500000920E-02 0. -1.
        2   -1    0    0  501    0  0.00000000000E+00  0.00000000000E+00 -0.63074810528E+03  0.63074810528E+03  0.25500000920E-02 0.  1.
    10030    2    1    2    0    0  0.00000000000E+00  0.00000000000E+00 -0.23473891951E+03  0.10267572911E+04  0.99956399215E+03 0.  0.
        4    1    3    3  502    0  0.84321298831E+01  0.47335333824E+03  0.47130790636E+02  0.47577033111E+03  0.12699999809E+01 0.  1.
       -4    1    3    3    0  502 -0.84321298831E+01 -0.47335333824E+03 -0.28186971015E+03  0.55098695995E+03  0.12699999809E+01 0. -1.
</event>
<event>
 5   0  0.1006749E-03  0.9994668E+03  0.7818609E-02  0.9309130E-01
       -2   -1    0    0    0  501  0.00000000000E+00  0.00000000000E+00  0.17997837330E+03  0.17997837332E+03  0.25500000920E-02 0.  1.
        2   -1    0    0  501    0  0.00000000000E+00  0.00000000000E+00 -0.13875748317E+04  0.13875748317E+04  0.25500000920E-02 0. -1.
    10030    2    1    2    0    0  0.00000000000E+00  0.00000000000E+00 -0.12075964584E+04  0.15675532050E+04  0.99946677996E+03 0.  0.
        1    1    3    3  502    0 -0.40182716370E+02  0.44866107100E+03 -0.26442376911E+03  0.52233259234E+03  0.50400001928E-02 0.  1.
       -1    1    3    3    0  502  0.40182716370E+02 -0.44866107100E+03 -0.94317268926E+03  0.10452206127E+04  0.50400001928E-02 0. -1.
</event>
<event>
 5   0  0.1006006E-03  0.1000087E+04  0.7818609E-02  0.9308449E-01
        2   -1    0    0  501    0  0.00000000000E+00  0.00000000000E+00  0.10826382902E+04  0.10826382902E+04  0.25500000920E-02 0.  1.
       -2   -1    0    0    0  501  0.00000000000E+00  0.00000000000E+00 -0.23095766413E+03  0.23095766414E+03  0.25500000920E-02 0. -1.
    10030    2    1    2    0    0  0.00000000000E+00  0.00000000000E+00  0.85168062609E+03  0.13135959544E+04  0.10000872174E+04 0.  0.
        2    1    3    3  502    0 -0.37814734474E+03 -0.11488713936E+02 -0.36424068644E+01  0.37833936092E+03  0.25500000920E-02 0. -1.
       -2    1    3    3    0  502  0.37814734474E+03  0.11488713936E+02  0.85532303296E+03  0.93525659345E+03  0.25500000920E-02 0.  1.
</event>
<event>
 5   0  0.5888774E-04  0.9986541E+03  0.7818609E-02  0.9310022E-01
       -1   -1    0    0    0  501  0.00000000000E+00  0.00000000000E+00  0.29861617469E+03  0.29861617474E+03  0.50400001928E-02 0.  1.
        1   -1    0    0  501    0  0.00000000000E+00  0.00000000000E+00 -0.83494308833E+03  0.83494308834E+03  0.50400001928E-02 0. -1.
    10030    2    1    2    0    0  0.00000000000E+00  0.00000000000E+00 -0.53632691363E+03  0.11335592631E+04  0.99865411661E+03 0.  0.
        2    1    3    3  502    0  0.35892338599E+03 -0.19415592718E+03 -0.59479444768E+03  0.72132028674E+03  0.25500000920E-02 0. -1.
       -2    1    3    3    0  502 -0.35892338599E+03  0.19415592718E+03  0.58467534047E+02  0.41223897634E+03  0.25500000920E-02 0.  1.
</event>
<event>
 5   0  0.5888774E-04  0.1000338E+04  0.7818609E-02  0.9308174E-01
       -1   -1    0    0    0  501  0.00000000000E+00  0.00000000000E+00  0.22964715006E+03  0.22964715011E+03  0.50400001928E-02 0.  1.
        1   -1    0    0  501    0  0.00000000000E+00  0.00000000000E+00 -0.10893620269E+04  0.10893620269E+04  0.50400001928E-02 0. -1.
    10030    2    1    2    0    0  0.00000000000E+00  0.00000000000E+00 -0.85971487685E+03  0.13190091770E+04  0.10003377128E+04 0.  0.
        2    1    3    3  502    0 -0.39561202943E+03 -0.18863868545E+03 -0.11209871671E+03  0.45239314072E+03  0.25500000920E-02 0.  1.
       -2    1    3    3    0  502  0.39561202943E+03  0.18863868545E+03 -0.74761616013E+03  0.86661603630E+03  0.25500000920E-02 0. -1.
</event>
<event>
 5   0  0.1006749E-03  0.1006621E+04  0.7818609E-02  0.9301313E-01
        2   -1    0    0  501    0  0.00000000000E+00  0.00000000000E+00  0.12293826884E+04  0.12293826884E+04  0.25500000920E-02 0.  1.
       -2   -1    0    0    0  501  0.00000000000E+00  0.00000000000E+00 -0.20605577808E+03  0.20605577809E+03  0.25500000920E-02 0. -1.
    10030    2    1    2    0    0  0.00000000000E+00  0.00000000000E+00  0.10233269104E+04  0.14354384665E+04  0.10066208947E+04 0.  0.
        1    1    3    3  502    0  0.45815956304E+02 -0.29805475869E+03 -0.62972086321E+02  0.30806042380E+03  0.50400001928E-02 0. -1.
       -1    1    3    3    0  502 -0.45815956304E+02  0.29805475869E+03  0.10862989967E+04  0.11273780427E+04  0.50400001928E-02 0.  1.
</event>
<event>
 5   0  0.5826939E-04  0.1002819E+04  0.7818609E-02  0.9305458E-01
       -1   -1    0    0    0  501  0.00000000000E+00  0.00000000000E+00  0.12925407064E+03  0.12925407074E+03  0.50400001928E-02 0. -1.
        1   -1    0    0  501    0  0.00000000000E+00  0.00000000000E+00 -0.19450954633E+04  0.19450954633E+04  0.50400001928E-02 0.  1.
    10030    2    1    2    0    0  0.00000000000E+00  0.00000000000E+00 -0.18158413927E+04  0.20743495340E+04  0.10028190395E+04 0.  0.
        1    1    3    3  502    0  0.29025865120E+03 -0.43579774757E+02 -0.67017186485E+02  0.30106574809E+03  0.50400001928E-02 0. -1.
       -1    1    3    3    0  502 -0.29025865120E+03  0.43579774757E+02 -0.17488242062E+04  0.17732837859E+04  0.50400001928E-02 0.  1.
</event>
<event>
 5   0  0.5960102E-04  0.9747161E+03  0.7818609E-02  0.9336719E-01
        1   -1    0    0  501    0  0.00000000000E+00  0.00000000000E+00  0.12942473168E+04  0.12942473168E+04  0.50400001928E-02 0. -1.
       -1   -1    0    0    0  501  0.00000000000E+00  0.00000000000E+00 -0.18351814300E+03  0.18351814307E+03  0.50400001928E-02 0.  1.
    10030    2    1    2    0    0  0.00000000000E+00  0.00000000000E+00  0.11107291738E+04  0.14777654599E+04  0.97471609041E+03 0.  0.
        5    1    3    3  502    0  0.42270779071E+03  0.20761183008E+03  0.36533010429E+03  0.59604758486E+03  0.46999998093E+01 0.  1.
       -5    1    3    3    0  502 -0.42270779071E+03 -0.20761183008E+03  0.74539906953E+03  0.88171787504E+03  0.46999998093E+01 0. -1.
</event>
<event>
 5   0  0.1006749E-03  0.9981725E+03  0.7818609E-02  0.9310551E-01
        2   -1    0    0  501    0  0.00000000000E+00  0.00000000000E+00  0.11073973517E+04  0.11073973517E+04  0.25500000920E-02 0.  1.
       -2   -1    0    0    0  501  0.00000000000E+00  0.00000000000E+00 -0.22493018648E+03  0.22493018649E+03  0.25500000920E-02 0. -1.
    10030    2    1    2    0    0  0.00000000000E+00  0.00000000000E+00  0.88246716524E+03  0.13323275382E+04  0.99817251582E+03 0.  0.
        1    1    3    3  502    0 -0.27165448781E+03  0.39962909129E+03  0.60787921243E+03  0.77654150455E+03  0.50400001928E-02 0.  1.
       -1    1    3    3    0  502  0.27165448781E+03 -0.39962909129E+03  0.27458795281E+03  0.55578603366E+03  0.50400001928E-02 0. -1.
</event>
<event>
 5   0  0.5768102E-04  0.1001176E+04  0.7818609E-02  0.9307256E-01
        1   -1    0    0  501    0  0.00000000000E+00  0.00000000000E+00  0.13151322379E+04  0.13151322379E+04  0.50400001928E-02 0. -1.
       -1   -1    0    0    0  501  0.00000000000E+00  0.00000000000E+00 -0.19054214758E+03  0.19054214765E+03  0.50400001928E-02 0.  1.
    10030    2    1    2    0    0  0.00000000000E+00  0.00000000000E+00  0.11245900903E+04  0.15056743855E+04  0.10011755511E+04 0.  0.
        4    1    3    3  502    0  0.41140948797E+03 -0.16636082840E+03  0.91064606613E+03  0.10130210080E+04  0.12699999809E+01 0. -1.
       -4    1    3    3    0  502 -0.41140948797E+03  0.16636082840E+03  0.21394402417E+03  0.49265337753E+03  0.12699999809E+01 0.  1.
</event>
<event>
 5   0  0.1006006E-03  0.1005798E+04  0.7818609E-02  0.9302208E-01
       -2   -1    0    0    0  501  0.00000000000E+00  0.00000000000E+00  0.87405657846E+03  0.87405657847E+03  0.25500000920E-02 0.  1.
        2   -1    0    0  501    0  0.00000000000E+00  0.00000000000E+00 -0.28934905400E+03  0.28934905401E+03  0.25500000920E-02 0. -1.
    10030    2    1    2    0    0  0.00000000000E+00  0.00000000000E+00  0.58470752446E+03  0.11634056325E+04  0.10057980794E+04 0.  0.
        2    1    3    3  502    0  0.15990061221E+03 -0.33887125963E+03  0.68033189811E+03  0.77669390880E+03  0.25500000920E-02 0.  1.
       -2    1    3    3    0  502 -0.15990061221E+03  0.33887125963E+03 -0.95624373642E+02  0.38671172367E+03  0.25500000920E-02 0. -1.
</event>
<event>
 5   0  0.5768102E-04  0.9988155E+03  0.7818609E-02  0.9309845E-01
       -1   -1    0    0    0  501  0.00000000000E+00  0.00000000000E+00  0.18538427051E+03  0.18538427058E+03  0.50400001928E-02 0. -1.
        1   -1    0    0  501    0  0.00000000000E+00  0.00000000000E+00 -0.13453574271E+04  0.13453574271E+04  0.50400001928E-02 0.  1.
    10030    2    1    2    0    0  0.00000000000E+00  0.00000000000E+00 -0.11599731566E+04  0.15307416977E+04  0.99881550901E+03 0.  0.
        4    1    3    3  502    0  0.58936504908E+02 -0.23555780415E+03 -0.12487954032E+04  0.12721841701E+04  0.12699999809E+01 0.  1.
       -4    1    3    3    0  502 -0.58936504908E+02  0.23555780415E+03  0.88822246570E+02  0.25855752762E+03  0.12699999809E+01 0. -1.
</event>
<event>
 5   0  0.5826939E-04  0.9957154E+03  0.7818609E-02  0.9313257E-01
        1   -1    0    0  501    0  0.00000000000E+00  0.00000000000E+00  0.63745514707E+03  0.63745514709E+03  0.50400001928E-02 0.  1.
       -1   -1    0    0    0  501  0.00000000000E+00  0.00000000000E+00 -0.38883097338E+03  0.38883097342E+03  0.50400001928E-02 0. -1.
    10030    2    1    2    0    0  0.00000000000E+00  0.00000000000E+00  0.24862417369E+03  0.10262861205E+04  0.99571543194E+03 0.  0.
        1    1    3    3  502    0  0.53035739402E+02  0.44986234354E+03  0.33722979236E+03  0.56472369409E+03  0.50400001928E-02 0.  1.
       -1    1    3    3    0  502 -0.53035739402E+02 -0.44986234354E+03 -0.88605618671E+02  0.46156242641E+03  0.50400001928E-02 0. -1.
</event>
<event>
 5   0  0.1020150E-03  0.9998249E+03  0.7818609E-02  0.9308737E-01
        2   -1    0    0  501    0  0.00000000000E+00  0.00000000000E+00  0.45403362518E+03  0.45403362518E+03  0.25500000920E-02 0. -1.
       -2   -1    0    0    0  501  0.00000000000E+00  0.00000000000E+00 -0.55042722572E+03  0.55042722573E+03  0.25500000920E-02 0.  1.
    10030    2    1    2    0    0  0.00000000000E+00  0.00000000000E+00 -0.96393600549E+02  0.10044608509E+04  0.99982492207E+03 0.  0.
        5    1    3    3  502    0  0.37111463945E+03  0.49769450893E+02 -0.38092318369E+03  0.53416068343E+03  0.46999998093E+01 0.  1.
       -5    1    3    3    0  502 -0.37111463945E+03 -0.49769450893E+02  0.28452958314E+03  0.47030016748E+03  0.46999998093E+01 0. -1.
</event>
<event>
 5   0  0.5758786E-04  0.1000134E+04  0.7818609E-02  0.9308398E-01
       -1   -1    0    0    0  501  0.00000000000E+00  0.00000000000E+00  0.19550782586E+03  0.19550782593E+03  0.50400001928E-02 0. -1.
        1   -1    0    0  501    0  0.00000000000E+00  0.00000000000E+00 -0.12790630126E+04  0.12790630126E+04  0.50400001928E-02 0.  1.
    10030    2    1    2    0    0  0.00000000000E+00  0.00000000000E+00 -0.10835551867E+04  0.14745708385E+04  0.10001336486E+04 0.  0.
        3    1    3    3  502    0 -0.31694334068E+03  0.31857463075E+03 -0.86521347575E+03  0.97495499660E+03  0.10100000352E+00 0.  1.
       -3    1    3    3    0  502  0.31694334068E+03 -0.31857463075E+03 -0.21834171098E+03  0.49961584194E+03  0.10100000352E+00 0. -1.
</event>
<event>
 5   0  0.5758786E-04  0.9980171E+03  0.7818609E-02  0.9310722E-01
       -1   -1    0    0    0  501  0.00000000000E+00  0.00000000000E+00  0.21211323162E+03  0.21211323168E+03  0.50400001928E-02 0. -1.
        1   -1    0    0  501    0  0.00000000000E+00  0.00000000000E+00 -0.11739463436E+04  0.11739463436E+04  0.50400001928E-02 0.  1.
    10030    2    1    2    0    0  0.00000000000E+00  0.00000000000E+00 -0.96183311193E+03  0.13860595752E+04  0.99801713959E+03 0.  0.
        3    1    3    3  502    0  0.49685734643E+03 -0.43463416717E+02 -0.45881516110E+03  0.67769289029E+03  0.10100000352E+00 0.  1.
       -3    1    3    3    0  502 -0.49685734643E+03  0.43463416717E+02 -0.50301795083E+03  0.70836668495E+03  0.10100000352E+00 0. -1.
</event>
<event>
 5   0  0.1006006E-03  0.9986177E+03  0.7818609E-02  0.9310062E-01
       -2   -1    0    0    0  501  0.00000000000E+00  0.00000000000E+00  0.21120252291E+03  0.21120252293E+03  0.25500000920E-02 0. -1.
        2   -1    0    0  501    0  0.00000000000E+00  0.00000000000E+00 -0.11804277124E+04  0.11804277124E+04  0.25500000920E-02 0.  1.
    10030    2    1    2    0    0  0.00000000000E+00  0.00000000000E+00 -0.96922518953E+03  0.13916302354E+04  0.99861766657E+03 0.  0.
        2    1    3    3  502    0  0.21833243052E+03  0.18614447926E+03 -0.10540821163E+04  0.10924321147E+04  0.25500000920E-02 0.  1.
       -2    1    3    3    0  502 -0.21833243052E+03 -0.18614447926E+03  0.84856926766E+02  0.29919812065E+03  0.25500000920E-02 0. -1.
</event>
<event>
 5   0  0.9674819E-04  0.9979576E+03  0.7818609E-02  0.9310788E-01
        2   -1    0    0  501    0  0.00000000000E+00  0.00000000000E+00  0.24807471118E+04  0.24807471118E+04  0.25500000920E-02 0.  1.
       -2   -1    0    0    0  501  0.00000000000E+00  0.00000000000E+00 -0.10036486780E+03  0.10036486784E+03  0.25500000920E-02 0. -1.
    10030    2    1    2    0    0  0.00000000000E+00  0.00000000000E+00  0.23803822440E+04  0.25811119796E+04  0.99795762630E+03 0.  0.
        4    1    3    3  502    0 -0.24411265230E+03  0.32548818698E+03  0.44306466796E+03  0.60153259245E+03  0.12699999809E+01 0. -1.
       -4    1    3    3    0  502  0.24411265230E+03 -0.32548818698E+03  0.19373175760E+04  0.19795793872E+04  0.12699999809E+01 0.  1.
</event>
<event>
 5   0  0.5758786E-04  0.9998518E+03  0.7818609E-02  0.9308707E-01
       -1   -1    0    0    0  501  0.00000000000E+00  0.00000000000E+00  0.50160921647E+03  0.50160921650E+03  0.50400001928E-02 0.  1.
        1   -1    0    0  501    0  0.00000000000E+00  0.00000000000E+00 -0.49824821421E+03  0.49824821424E+03  0.50400001928E-02 0. -1.
    10030    2    1    2    0    0  0.00000000000E+00  0.00000000000E+00  0.33610022575E+01  0.99985743074E+03  0.99985178175E+03 0.  0.
        3    1    3    3  502    0 -0.48612955230E+03  0.17200708534E+02 -0.11368080326E+03  0.49954093048E+03  0.10100000352E+00 0. -1.
       -3    1    3    3    0  502  0.48612955230E+03 -0.17200708534E+02  0.11704180552E+03  0.50031650026E+03  0.10100000352E+00 0.  1.
</event>
<event>
 5   0  0.1006006E-03  0.9983744E+03  0.7818609E-02  0.9310330E-01
        2   -1    0    0  501    0  0.00000000000E+00  0.00000000000E+00  0.45695386266E+03  0.45695386267E+03  0.25500000920E-02 0.  1.
       -2   -1    0    0    0  501  0.00000000000E+00  0.00000000000E+00 -0.54532387160E+03  0.54532387161E+03  0.25500000920E-02 0. -1.
    10030    2    1    2    0    0  0.00000000000E+00  0.00000000000E+00 -0.88370008938E+02  0.10022777343E+04  0.99837437775E+03 0.  0.
        2    1    3    3  502    0 -0.17984460912E+03  0.46447169738E+03 -0.77629039161E+02  0.50408760035E+03  0.25500000920E-02 0. -1.
       -2    1    3    3    0  502  0.17984460912E+03 -0.46447169738E+03 -0.10740969777E+02  0.49819013392E+03  0.25500000920E-02 0.  1.
</event>
<event>
 5   0  0.9674819E-04  0.1000375E+04  0.7818609E-02  0.9308134E-01
       -2   -1    0    0    0  501  0.00000000000E+00  0.00000000000E+00  0.26006748856E+03  0.26006748858E+03  0.25500000920E-02 0.  1.
        2   -1    0    0  501    0  0.00000000000E+00  0.00000000000E+00 -0.96201000702E+03  0.96201000703E+03  0.25500000920E-02 0. -1.
    10030    2    1    2    0    0  0.00000000000E+00  0.00000000000E+00 -0.70194251846E+03  0.12220774956E+04  0.10003749827E+04 0.  0.
        4    1    3    3  502    0 -0.84818760005E+02 -0.48433624530E+03 -0.23894074618E+03  0.54669014409E+03  0.12699999809E+01 0. -1.
       -4    1    3    3    0  502  0.84818760005E+02  0.48433624530E+03 -0.46300177228E+03  0.67538735152E+03  0.12699999809E+01 0.  1.
</event>
<event>
 5   0  0.9741826E-04  0.9998359E+03  0.7818609E-02  0.9308725E-01
       -2   -1    0    0    0  501  0.00000000000E+00  0.00000000000E+00  0.30273963901E+03  0.30273963902E+03  0.25500000920E-02 0. -1.
        2   -1    0    0  501    0  0.00000000000E+00  0.00000000000E+00 -0.82552114197E+03  0.82552114197E+03  0.25500000920E-02 0.  1.
    10030    2    1    2    0    0  0.00000000000E+00  0.00000000000E+00 -0.52278150296E+03  0.11282607810E+04  0.99983593159E+03 0.  0.
        3    1    3    3  502    0  0.61673208795E+02 -0.31322631128E+03 -0.69551792735E+03  0.76528393700E+03  0.10100000352E+00 0.  1.
       -3    1    3    3    0  502 -0.61673208795E+02  0.31322631128E+03  0.17273642439E+03  0.36297684399E+03  0.10100000352E+00 0. -1.
</event>
<event>
 5   0  0.5758786E-04  0.1000202E+04  0.7818609E-02  0.9308323E-01
       -1   -1    0    0    0  501  0.00000000000E+00  0.00000000000E+00  0.38646162543E+03  0.38646162546E+03  0.50400001928E-02 0. -1.
        1   -1    0    0  501    0  0.00000000000E+00  0.00000000000E+00 -0.64715590506E+03  0.64715590508E+03  0.50400001928E-02 0.  1.
    10030    2    1    2    0    0  0.00000000000E+00  0.00000000000E+00 -0.26069427963E+03  0.10336175305E+04  0.10002018256E+04 0.  0.
        3    1    3    3  502    0  0.12219890831E+02 -0.38300287217E+02 -0.64548329037E+03  0.64673404586E+03  0.10100000352E+00 0.  1.
       -3    1    3    3    0  502 -0.12219890831E+02  0.38300287217E+02  0.38478901074E+03  0.38688348468E+03  0.10100000352E+00 0. -1.
</event>
<event>
 5   0  0.1006006E-03  0.1001244E+04  0.7818609E-02  0.9307181E-01
        2   -1    0    0  501    0  0.00000000000E+00  0.00000000000E+00  0.13034292258E+04  0.13034292259E+04  0.25500000920E-02 0.  1.
       -2   -1    0    0    0  501  0.00000000000E+00  0.00000000000E+00 -0.19227934697E+03  0.19227934699E+03  0.25500000920E-02 0. -1.
    10030    2    1    2    0    0  0.00000000000E+00  0.00000000000E+00  0.11111498789E+04  0.14957085728E+04  0.10012442667E+04 0.  0.
        2    1    3    3  502    0 -0.24792949309E+03  0.26763242642E+03  0.10676983204E+04  0.11283066306E+04  0.25500000920E-02 0.  1.
       -2    1    3    3    0  502  0.24792949309E+03 -0.26763242642E+03  0.43451558436E+02  0.36740194222E+03  0.25500000920E-02 0. -1.
</event>
<event>
 5   0  0.5960102E-04  0.9817756E+03  0.7818609E-02  0.9328762E-01
       -1   -1    0    0    0  501  0.00000000000E+00  0.00000000000E+00  0.60731183530E+03  0.60731183532E+03  0.50400001928E-02 0.  1.
        1   -1    0    0  501    0  0.00000000000E+00  0.00000000000E+00 -0.39678272160E+03  0.39678272163E+03  0.50400001928E-02 0. -1.
    10030    2    1    2    0    0  0.00000000000E+00  0.00000000000E+00  0.21052911370E+03  0.10040945570E+04  0.98177562182E+03 0.  0.
        5    1    3    3  502    0  0.31755310501E+03 -0.32672900822E+03  0.29205533396E+03  0.54121181381E+03  0.46999998093E+01 0.  1.
       -5    1    3    3    0  502 -0.31755310501E+03  0.32672900822E+03 -0.81526220260E+02  0.46288274315E+03  0.46999998093E+01 0. -1.
</event>
<event>
 5   0  0.5768102E-04  0.1001076E+04  0.7818609E-02  0.9307365E-01
       -1   -1    0    0    0  501  0.00000000000E+00  0.00000000000E+00  0.37798419252E+03  0.37798419255E+03  0.50400001928E-02 0.  1.
        1   -1    0    0  501    0  0.00000000000E+00  0.00000000000E+00 -0.66282799280E+03  0.66282799282E+03  0.50400001928E-02 0. -1.
    10030    2    1    2    0    0  0.00000000000E+00  0.00000000000E+00 -0.28484380029E+03  0.10408121854E+04  0.10010764280E+04 0.  0.
        4    1    3    3  502    0 -0.30496819022E+03  0.85104945113E+02  0.26063645106E+03  0.41009928219E+03  0.12699999809E+01 0.  1.
       -4    1    3    3    0  502  0.30496819022E+03 -0.85104945113E+02 -0.54548025134E+03  0.63071290318E+03  0.12699999809E+01 0. -1.
</event>
<event>
 5   0  0.1006006E-03  0.9955842E+03  0.7818609E-02  0.9313401E-01
        2   -1    0    0  501    0  0.00000000000E+00  0.00000000000E+00  0.59542350105E+03  0.59542350106E+03  0.25500000920E-02 0.  1.
       -2   -1    0    0    0  501  0.00000000000E+00  0.00000000000E+00 -0.41616925562E+03  0.41616925563E+03  0.25500000920E-02 0. -1.
    10030    2    1    2    0    0  0.00000000000E+00  0.00000000000E+00  0.17925424543E+03  0.10115927567E+04  0.99558416062E+03 0.  0.
        2    1    3    3  502    0 -0.32596832781E+03 -0.19681102370E+03  0.41541815766E+03  0.56352655262E+03  0.25500000920E-02 0.  1.
       -2    1    3    3    0  502  0.32596832781E+03  0.19681102370E+03 -0.23616391223E+03  0.44806620407E+03  0.25500000920E-02 0. -1.
</event>
<event>
 5   0  0.5960102E-04  0.1000319E+04  0.7818609E-02  0.9308196E-01
       -1   -1    0    0    0  501  0.00000000000E+00  0.00000000000E+00  0.26169539793E+03  0.26169539798E+03  0.50400001928E-02 0.  1.
        1   -1    0    0  501    0  0.00000000000E+00  0.00000000000E+00 -0.95591781797E+03  0.95591781798E+03  0.50400001928E-02 0. -1.
    10030    2    1    2    0    0  0.00000000000E+00  0.00000000000E+00 -0.69422242004E+03  0.12176132160E+04  0.10003185369E+04 0.  0.
        5    1    3    3  502    0  0.12517446980E+03  0.48257602669E+03 -0.29859084966E+03  0.58114271476E+03  0.46999998093E+01 0. -1.
       -5    1    3    3    0  502 -0.12517446980E+03 -0.48257602669E+03 -0.39563157037E+03  0.63647050120E+03  0.46999998093E+01 0.  1.
</event>
<event>
 5   0  0.5758786E-04  0.1002141E+04  0.7818609E-02  0.9306200E-01
       -1   -1    0    0    0  501  0.00000000000E+00  0.00000000000E+00  0.13872813818E+03  0.13872813827E+03  0.50400001928E-02 0.  1.
        1   -1    0    0  501    0  0.00000000000E+00  0.00000000000E+00 -0.18098097808E+04  0.18098097808E+04  0.50400001928E-02 0. -1.
    10030    2    1    2    0    0  0.00000000000E+00  0.00000000000E+00 -0.16710816426E+04  0.19485379190E+04  0.10021407914E+04 0.  0.
        3    1    3    3  502    0 -0.22545712213E+03  0.43048918172E+03 -0.10730387909E+04  0.11779491103E+04  0.10100000352E+00 0. -1.
       -3    1    3    3    0  502  0.22545712213E+03 -0.43048918172E+03 -0.59804285172E+03  0.77058880876E+03  0.10100000352E+00 0.  1.
</event>
<event>
 5   0  0.5758786E-04  0.1001031E+04  0.7818609E-02  0.9307415E-01
       -1   -1    0    0    0  501  0.00000000000E+00  0.00000000000E+00  0.36223512792E+03  0.36223512796E+03  0.50400001928E-02 0.  1.
        1   -1    0    0  501    0  0.00000000000E+00  0.00000000000E+00 -0.69158261313E+03  0.69158261315E+03  0.50400001928E-02 0. -1.
    10030    2    1    2    0    0  0.00000000000E+00  0.00000000000E+00 -0.32934748521E+03  0.10538177411E+04  0.10010305018E+04 0.  0.
        3    1    3    3  502    0 -0.49620524068E+03  0.29020334155E+02 -0.10280666703E+03  0.50757368102E+03  0.10100000352E+00 0.  1.
       -3    1    3    3    0  502  0.49620524068E+03 -0.29020334155E+02 -0.22654081818E+03  0.54624406009E+03  0.10100000352E+00 0. -1.
</event>
<event>
 5   0  0.5888774E-04  0.9996529E+03  0.7818609E-02  0.9308926E-01
       -1   -1    0    0    0  501  0.00000000000E+00  0.00000000000E+00  0.51849973517E+03  0.51849973520E+03  0.50400001928E-02 0.  1.
        1   -1    0    0  501    0  0.00000000000E+00  0.00000000000E+00 -0.48182564692E+03  0.48182564695E+03  0.50400001928E-02 0. -1.
    10030    2    1    2    0    0  0.00000000000E+00  0.00000000000E+00  0.36674088251E+02  0.10003253821E+04  0.99965288046E+03 0.  0.
        2    1    3    3  502    0  0.46507193830E+03 -0.13273815199E+03  0.14457715710E+03  0.50479092617E+03  0.25500000920E-02 0.  1.
       -2    1    3    3    0  502 -0.46507193830E+03  0.13273815199E+03 -0.10790306885E+03  0.49553445597E+03  0.25500000920E-02 0. -1.
</event>
<event>
 5   0  0.1020150E-03  0.9980010E+03  0.7818609E-02  0.9310740E-01
       -2   -1    0    0    0  501  0.00000000000E+00  0.00000000000E+00  0.70615828270E+03  0.70615828270E+03  0.25500000920E-02 0.  1.
        2   -1    0    0  501    0  0.00000000000E+00  0.00000000000E+00 -0.35261426809E+03  0.35261426810E+03  0.25500000920E-02 0. -1.
    10030    2    1    2    0    0  0.00000000000E+00  0.00000000000E+00  0.35354401461E+03  0.10587725508E+04  0.99800097398E+03 0.  0.
        5    1    3    3  502    0 -0.27159989164E+03 -0.74371420596E+02 -0.26023592751E+03  0.38346112880E+03  0.46999998093E+01 0. -1.
       -5    1    3    3    0  502  0.27159989164E+03  0.74371420596E+02  0.61377994212E+03  0.67531142200E+03  0.46999998093E+01 0.  1.
</event>
<event>
 5   0  0.5768102E-04  0.1001730E+04  0.7818609E-02  0.9306649E-01
        1   -1    0    0  501    0  0.00000000000E+00  0.00000000000E+00  0.45963861552E+03  0.45963861555E+03  0.50400001928E-02 0. -1.
       -1   -1    0    0    0  501  0.00000000000E+00  0.00000000000E+00 -0.54578901587E+03  0.54578901590E+03  0.50400001928E-02 0.  1.
    10030    2    1    2    0    0  0.00000000000E+00  0.00000000000E+00 -0.86150400354E+02  0.10054276314E+04  0.10017299190E+04 0.  0.
        4    1    3    3  502    0 -0.48049846174E+03  0.92522902148E+02  0.64206377320E+02  0.49352135814E+03  0.12699999809E+01 0. -1.
       -4    1    3    3    0  502  0.48049846174E+03 -0.92522902148E+02 -0.15035677767E+03  0.51190627330E+03  0.12699999809E+01 0.  1.
</event>
<event>
 5   0  0.5758786E-04  0.1010299E+04  0.7818609E-02  0.9297321E-01
        1   -1    0    0  501    0  0.00000000000E+00  0.00000000000E+00  0.18718446031E+04  0.18718446031E+04  0.50400001928E-02 0. -1.
       -1   -1    0    0    0  501  0.00000000000E+00  0.00000000000E+00 -0.13632327335E+03  0.13632327344E+03  0.50400001928E-02 0.  1.
    10030    2    1    2    0    0  0.00000000000E+00  0.00000000000E+00  0.17355213297E+04  0.20081678765E+04  0.10102989332E+04 0.  0.
        3    1    3    3  502    0  0.12572091497E+03  0.16868792108E+03  0.17806191434E+04  0.17930047148E+04  0.10100000352E+00 0. -1.
       -3    1    3    3    0  502 -0.12572091497E+03 -0.16868792108E+03 -0.45097813661E+02  0.21516316175E+03  0.10100000352E+00 0.  1.
</event>
<event>
 5   0  0.1006006E-03  0.1006706E+04  0.7818609E-02  0.9301221E-01
       -2   -1    0    0    0  501  0.00000000000E+00  0.00000000000E+00  0.40361637517E+03  0.40361637517E+03  0.25500000920E-02 0.  1.
        2   -1    0    0  501    0  0.00000000000E+00  0.00000000000E+00 -0.62773488693E+03  0.62773488694E+03  0.25500000920E-02 0. -1.
    10030    2    1    2    0    0  0.00000000000E+00  0.00000000000E+00 -0.22411851177E+03  0.10313512621E+04  0.10067056762E+04 0.  0.
        2    1    3    3  502    0  0.22983593241E+03 -0.16164888922E+03  0.31578798216E+03  0.42270198592E+03  0.25500000920E-02 0.  1.
       -2    1    3    3    0  502 -0.22983593241E+03  0.16164888922E+03 -0.53990649393E+03  0.60864927619E+03  0.25500000920E-02 0. -1.
</event>
<event>
 5   0  0.3854625E-04  0.1001359E+04  0.7818609E-02  0.9307056E-01
       -4   -1    0    0    0  501  0.00000000000E+00  0.00000000000E+00  0.17455475804E+03  0.17455937802E+03  0.12699999809E+01 0. -1.
        4   -1    0    0  501    0  0.00000000000E+00  0.00000000000E+00 -0.14360868646E+04  0.14360874261E+04  0.12699999809E+01 0.  1.
    10030    2    1    2    0    0  0.00000000000E+00  0.00000000000E+00 -0.12615321065E+04  0.16106468042E+04  0.10013590125E+04 0.  0.
        5    1    3    3  502    0 -0.45022568100E+03 -0.95425932654E+02 -0.94779449165E+03  0.10536345481E+04  0.46999998093E+01 0. -1.
       -5    1    3    3    0  502  0.45022568100E+03  0.95425932654E+02 -0.31373761489E+03  0.55701225610E+03  0.46999998093E+01 0.  1.
</event>
<event>
 5   0  0.1020150E-03  0.1004950E+04  0.7818609E-02  0.9303132E-01
       -2   -1    0    0    0  501  0.00000000000E+00  0.00000000000E+00  0.33134338932E+03  0.33134338933E+03  0.25500000920E-02 0.  1.
        2   -1    0    0  501    0  0.00000000000E+00  0.00000000000E+00 -0.76199291993E+03  0.76199291993E+03  0.25500000920E-02 0. -1.
    10030    2    1    2    0    0  0.00000000000E+00  0.00000000000E+00 -0.43064953060E+03  0.10933363093E+04  0.10049503803E+04 0.  0.
        5    1    3    3  502    0 -0.18660025721E+03  0.86679262498E+02  0.28338667884E+03  0.35023285151E+03  0.46999998093E+01 0.  1.
       -5    1    3    3    0  502  0.18660025721E+03 -0.86679262498E+02 -0.71403620944E+03  0.74310345775E+03  0.46999998093E+01 0. -1.
</event>
<event>
 5   0  0.5826939E-04  0.1000599E+04  0.7818609E-02  0.9307888E-01
       -1   -1    0    0    0  501  0.00000000000E+00  0.00000000000E+00  0.10763391630E+04  0.10763391630E+04  0.50400001928E-02 0. -1.
        1   -1    0    0  501    0  0.00000000000E+00  0.00000000000E+00 -0.23254699947E+03  0.23254699953E+03  0.50400001928E-02 0.  1.
    10030    2    1    2    0    0  0.00000000000E+00  0.00000000000E+00  0.84379216352E+03  0.13088861625E+04  0.10005987064E+04 0.  0.
        1    1    3    3  502    0 -0.37292325475E+03 -0.78185724979E+02  0.84600131180E+03  0.92784857661E+03  0.50400001928E-02 0. -1.
       -1    1    3    3    0  502  0.37292325475E+03  0.78185724979E+02 -0.22091482806E+01  0.38103758592E+03  0.50400001928E-02 0.  1.
</event>
<event>
 5   0  0.9741826E-04  0.9791377E+03  0.7818609E-02  0.9331727E-01
        2   -1    0    0  501    0  0.00000000000E+00  0.00000000000E+00  0.55358362728E+03  0.55358362729E+03  0.25500000920E-02 0.  1.
       -2   -1    0    0    0  501  0.00000000000E+00  0.00000000000E+00 -0.43295653413E+03  0.43295653414E+03  0.25500000920E-02 0. -1.
    10030    2    1    2    0    0  0.00000000000E+00  0.00000000000E+00  0.12062709315E+03  0.98654016142E+03  0.97913767903E+03 0.  0.
        3    1    3    3  502    0  0.20974079144E+03  0.21034596803E+03  0.45240985985E+03  0.54121282076E+03  0.10100000352E+00 0.  1.
       -3    1    3    3    0  502 -0.20974079144E+03 -0.21034596803E+03 -0.33178276670E+03  0.44532734067E+03  0.10100000352E+00 0. -1.
</event>
<event>
 5   0  0.1020150E-03  0.1002828E+04  0.7818609E-02  0.9305449E-01
       -2   -1    0    0    0  501  0.00000000000E+00  0.00000000000E+00  0.18958821688E+03  0.18958821690E+03  0.25500000920E-02 0. -1.
        2   -1    0    0  501    0  0.00000000000E+00  0.00000000000E+00 -0.13261152229E+04  0.13261152229E+04  0.25500000920E-02 0.  1.
    10030    2    1    2    0    0  0.00000000000E+00  0.00000000000E+00 -0.11365270060E+04  0.15157034398E+04  0.10028276432E+04 0.  0.
        5    1    3    3  502    0 -0.38549959933E+02 -0.22446310086E+03  0.10686346076E+03  0.25161810805E+03  0.46999998093E+01 0. -1.
       -5    1    3    3    0  502  0.38549959933E+02  0.22446310086E+03 -0.12433904668E+04  0.12640853318E+04  0.46999998093E+01 0.  1.
</event>
<event>
 5   0  0.5826939E-04  0.9936948E+03  0.7818609E-02  0.9315487E-01
        1   -1    0    0  501    0  0.00000000000E+00  0.00000000000E+00  0.16744379572E+04  0.16744379572E+04  0.50400001928E-02 0. -1.
       -1   -1    0    0    0  501  0.00000000000E+00  0.00000000000E+00 -0.14742697405E+03  0.14742697414E+03  0.50400001928E-02 0.  1.
    10030    2    1    2    0    0  0.00000000000E+00  0.00000000000E+00  0.15270109831E+04  0.18218649313E+04  0.99369476469E+03 0.  0.
        1    1    3    3  502    0 -0.10392344724E+03  0.39039072419E+03  0.23322924699E+03  0.46647709707E+03  0.50400001928E-02 0.  1.
       -1    1    3    3    0  502  0.10392344724E+03 -0.39039072419E+03  0.12937817361E+04  0.13553878342E+04  0.50400001928E-02 0. -1.
</event>
<event>
 5   0  0.1006006E-03  0.9986942E+03  0.7818609E-02  0.9309978E-01
       -2   -1    0    0    0  501  0.00000000000E+00  0.00000000000E+00  0.13437650514E+03  0.13437650516E+03  0.25500000920E-02 0.  1.
        2   -1    0    0  501    0  0.00000000000E+00  0.00000000000E+00 -0.18555886690E+04  0.18555886690E+04  0.25500000920E-02 0. -1.
    10030    2    1    2    0    0  0.00000000000E+00  0.00000000000E+00 -0.17212121639E+04  0.19899651742E+04  0.99869418810E+03 0.  0.
        2    1    3    3  502    0  0.25078853289E+03 -0.38546026869E+03 -0.47283279847E+03  0.65957968607E+03  0.25500000920E-02 0.  1.
       -2    1    3    3    0  502 -0.25078853289E+03  0.38546026869E+03 -0.12483793654E+04  0.13303854881E+04  0.25500000920E-02 0. -1.
</event>
<event>
 5   0  0.1020150E-03  0.1004412E+04  0.7818609E-02  0.9303719E-01
        2   -1    0    0  501    0  0.00000000000E+00  0.00000000000E+00  0.10405938244E+04  0.10405938244E+04  0.25500000920E-02 0.  1.
       -2   -1    0    0    0  501  0.00000000000E+00  0.00000000000E+00 -0.24237212002E+03  0.24237212003E+03  0.25500000920E-02 0. -1.
    10030    2    1    2    0    0  0.00000000000E+00  0.00000000000E+00  0.79822170435E+03  0.12829659444E+04  0.10044121292E+04 0.  0.
        5    1    3    3  502    0 -0.15340939729E+03  0.38603127536E+03  0.75956757838E+03  0.86574799154E+03  0.46999998093E+01 0.  1.
       -5    1    3    3    0  502  0.15340939729E+03 -0.38603127536E+03  0.38654125968E+02  0.41721795285E+03  0.46999998093E+01 0. -1.
</event>
<event>
 5   0  0.5888774E-04  0.1000790E+04  0.7818609E-02  0.9307679E-01
        1   -1    0    0  501    0  0.00000000000E+00  0.00000000000E+00  0.59995639687E+03  0.59995639689E+03  0.50400001928E-02 0.  1.
       -1   -1    0    0    0  501  0.00000000000E+00  0.00000000000E+00 -0.41735530366E+03  0.41735530369E+03  0.50400001928E-02 0. -1.
    10030    2    1    2    0    0  0.00000000000E+00  0.00000000000E+00  0.18260109321E+03  0.10173117006E+04  0.10007896567E+04 0.  0.
        2    1    3    3  502    0 -0.36079863039E+02 -0.13210719983E+03 -0.39793597265E+03  0.42084095226E+03  0.25500000920E-02 0. -1.
       -2    1    3    3    0  502  0.36079863039E+02  0.13210719983E+03  0.58053706586E+03  0.59647074832E+03  0.25500000920E-02 0.  1.
</event>
<event>
 5   0  0.1020150E-03  0.1000949E+04  0.7818609E-02  0.9307504E-01
        2   -1    0    0  501    0  0.00000000000E+00  0.00000000000E+00  0.17293474451E+04  0.17293474451E+04  0.25500000920E-02 0. -1.
       -2   -1    0    0    0  501  0.00000000000E+00  0.00000000000E+00 -0.14483779014E+03  0.14483779016E+03  0.25500000920E-02 0.  1.
    10030    2    1    2    0    0  0.00000000000E+00  0.00000000000E+00  0.15845096550E+04  0.18741852353E+04  0.10009492741E+04 0.  0.
        5    1    3    3  502    0  0.20625241411E+03  0.33791709153E+03  0.21902656311E+03  0.45246297574E+03  0.46999998093E+01 0.  1.
       -5    1    3    3    0  502 -0.20625241411E+03 -0.33791709153E+03  0.13654830919E+04  0.14217222595E+04  0.46999998093E+01 0. -1.
</event>
<event>
 5   0  0.5768102E-04  0.9980771E+03  0.7818609E-02  0.9310656E-01
       -1   -1    0    0    0  501  0.00000000000E+00  0.00000000000E+00  0.14246055802E+04  0.14246055802E+04  0.50400001928E-02 0.  1.
        1   -1    0    0  501    0  0.00000000000E+00  0.00000000000E+00 -0.17481293951E+03  0.17481293959E+03  0.50400001928E-02 0. -1.
    10030    2    1    2    0    0  0.00000000000E+00  0.00000000000E+00  0.12497926407E+04  0.15994185198E+04  0.99807712966E+03 0.  0.
        4    1    3    3  502    0 -0.32232086170E+03 -0.29746121724E+02  0.16236753903E+02  0.32410000728E+03  0.12699999809E+01 0. -1.
       -4    1    3    3    0  502  0.32232086170E+03  0.29746121724E+02  0.12335558868E+04  0.12753185125E+04  0.12699999809E+01 0.  1.
</event>
<event>
 5   0  0.5960102E-04  0.1000773E+04  0.7818609E-02  0.9307698E-01
       -1   -1    0    0    0  501  0.00000000000E+00  0.00000000000E+00  0.12706553436E+03  0.12706553446E+03  0.50400001928E-02 0.  1.
        1   -1    0    0  501    0  0.00000000000E+00  0.00000000000E+00 -0.19705307042E+04  0.19705307042E+04  0.50400001928E-02 0. -1.
    10030    2    1    2    0    0  0.00000000000E+00  0.00000000000E+00 -0.18434651699E+04  0.20975962387E+04  0.10007727754E+04 0.  0.
        5    1    3    3  502    0  0.16001489917E+03 -0.20099124814E+03 -0.18216908106E+04  0.18397232806E+04  0.46999998093E+01 0. -1.
       -5    1    3    3    0  502 -0.16001489917E+03  0.20099124814E+03 -0.21774359257E+02  0.25787295807E+03  0.46999998093E+01 0.  1.
</event>
<event>
 5   0  0.5960102E-04  0.9993254E+03  0.7818609E-02  0.9309285E-01
       -1   -1    0    0    0  501  0.00000000000E+00  0.00000000000E+00  0.15949167205E+03  0.15949167213E+03  0.50400001928E-02 0. -1.
        1   -1    0    0  501    0  0.00000000000E+00  0.00000000000E+00 -0.15653658926E+04  0.15653658926E+04  0.50400001928E-02 0.  1.
    10030    2    1    2    0    0  0.00000000000E+00  0.00000000000E+00 -0.14058742205E+04  0.17248575647E+04  0.99932541977E+03 0.  0.
        5    1    3    3  502    0 -0.21985088552E+03 -0.39960928125E+03 -0.10550571875E+04  0.11494301843E+04  0.46999998093E+01 0.  1.
       -5    1    3    3    0  502  0.21985088552E+03  0.39960928125E+03 -0.35081703298E+03  0.57542738044E+03  0.46999998093E+01 0. -1.
</event>
<event>
 5   0  0.3854625E-04  0.1002014E+04  0.7818609E-02  0.9306339E-01
       -3   -1    0    0    0  501  0.00000000000E+00  0.00000000000E+00  0.52950129189E+03  0.52950130153E+03  0.10100000352E+00 0.  1.
        3   -1    0    0  501    0  0.00000000000E+00  0.00000000000E+00 -0.47404614220E+03  0.47404615296E+03  0.10100000352E+00 0. -1.
    10030    2    1    2    0    0  0.00000000000E+00  0.00000000000E+00  0.55455149694E+02  0.10035474545E+04  0.10020140816E+04 0.  0.
        2    1    3    3  502    0  0.17521341085E+03  0.28110230794E+03 -0.34873300463E+03  0.48097084672E+03  0.25500000920E-02 0. -1.
       -2    1    3    3    0  502 -0.17521341085E+03 -0.28110230794E+03  0.40418815433E+03  0.52257660776E+03  0.25500000920E-02 0.  1.
</event>
<event>
 5   0  0.9741826E-04  0.9973028E+03  0.7818609E-02  0.9311508E-01
       -2   -1    0    0    0  501  0.00000000000E+00  0.00000000000E+00  0.20338825133E+03  0.20338825135E+03  0.25500000920E-02 0. -1.
        2   -1    0    0  501    0  0.00000000000E+00  0.00000000000E+00 -0.12225545530E+04  0.12225545530E+04  0.25500000920E-02 0.  1.
    10030    2    1    2    0    0  0.00000000000E+00  0.00000000000E+00 -0.10191663017E+04  0.14259428044E+04  0.99730282805E+03 0.  0.
        3    1    3    3  502    0 -0.26862397970E+03  0.36314786899E+03 -0.20756702608E+03  0.49711095113E+03  0.10100000352E+00 0. -1.
       -3    1    3    3    0  502  0.26862397970E+03 -0.36314786899E+03 -0.81159927561E+03  0.92883185324E+03  0.10100000352E+00 0.  1.
</event>
<event>
 5   0  0.5960102E-04  0.1001034E+04  0.7818609E-02  0.9307411E-01
        1   -1    0    0  501    0  0.00000000000E+00  0.00000000000E+00  0.11125322400E+04  0.11125322400E+04  0.50400001928E-02 0. -1.
       -1   -1    0    0    0  501  0.00000000000E+00  0.00000000000E+00 -0.22517772971E+03  0.22517772977E+03  0.50400001928E-02 0.  1.
    10030    2    1    2    0    0  0.00000000000E+00  0.00000000000E+00  0.88735451031E+03  0.13377099698E+04  0.10010344331E+04 0.  0.
        5    1    3    3  502    0 -0.32117387160E+03 -0.35842473943E+03  0.62726768397E+03  0.79063758258E+03  0.46999998093E+01 0. -1.
       -5    1    3    3    0  502  0.32117387160E+03  0.35842473943E+03  0.26008682635E+03  0.54707238723E+03  0.46999998093E+01 0.  1.
</event>
<event>
 5   0  0.5960102E-04  0.1000213E+04  0.7818609E-02  0.9308312E-01
        1   -1    0    0  501    0  0.00000000000E+00  0.00000000000E+00  0.37662589017E+03  0.37662589020E+03  0.50400001928E-02 0.  1.
       -1   -1    0    0    0  501  0.00000000000E+00  0.00000000000E+00 -0.66407107322E+03  0.66407107324E+03  0.50400001928E-02 0. -1.
    10030    2    1    2    0    0  0.00000000000E+00  0.00000000000E+00 -0.28744518306E+03  0.10406969634E+04  0.10002126956E+04 0.  0.
        5    1    3    3  502    0 -0.67551803819E+02 -0.14613043464E+03  0.34890381297E+03  0.38428285264E+03  0.46999998093E+01 0.  1.
       -5    1    3    3    0  502  0.67551803819E+02  0.14613043464E+03 -0.63634899602E+03  0.65641411081E+03  0.46999998093E+01 0. -1.
</event>
<event>
 5   0  0.9741826E-04  0.1001523E+04  0.7818609E-02  0.9306876E-01
       -2   -1    0    0    0  501  0.00000000000E+00  0.00000000000E+00  0.35497275825E+03  0.35497275826E+03  0.25500000920E-02 0.  1.
        2   -1    0    0  501    0  0.00000000000E+00  0.00000000000E+00 -0.70642668352E+03  0.70642668353E+03  0.25500000920E-02 0. -1.
    10030    2    1    2    0    0  0.00000000000E+00  0.00000000000E+00 -0.35145392527E+03  0.10613994418E+04  0.10015232965E+04 0.  0.
        3    1    3    3  502    0  0.10469528360E+03 -0.19105276494E+03  0.30211737286E+03  0.37247439990E+03  0.10100000352E+00 0.  1.
       -3    1    3    3    0  502 -0.10469528360E+03  0.19105276494E+03 -0.65357129813E+03  0.68892504189E+03  0.10100000352E+00 0. -1.
</event>
<event>
 5   0  0.1006749E-03  0.9989601E+03  0.7818609E-02  0.9309686E-01
       -2   -1    0    0    0  501  0.00000000000E+00  0.00000000000E+00  0.17503493757E+03  0.17503493758E+03  0.25500000920E-02 0. -1.
        2   -1    0    0  501    0  0.00000000000E+00  0.00000000000E+00 -0.14253172690E+04  0.14253172690E+04  0.25500000920E-02 0.  1.
    10030    2    1    2    0    0  0.00000000000E+00  0.00000000000E+00 -0.12502823314E+04  0.16003522066E+04  0.99896009771E+03 0.  0.
        1    1    3    3  502    0 -0.56670131149E+02 -0.30130955101E+03  0.65526293796E+01  0.30666249570E+03  0.50400001928E-02 0. -1.
       -1    1    3    3    0  502  0.56670131149E+02  0.30130955101E+03 -0.12568349608E+04  0.12936897109E+04  0.50400001928E-02 0.  1.
</event>
<event>
 5   0  0.9674819E-04  0.1000880E+04  0.7818609E-02  0.9307581E-01
        2   -1    0    0  501    0  0.00000000000E+00  0.00000000000E+00  0.63603785538E+03  0.63603785538E+03  0.25500000920E-02 0.  1.
       -2   -1    0    0    0  501  0.00000000000E+00  0.00000000000E+00 -0.39375006756E+03  0.39375006757E+03  0.25500000920E-02 0. -1.
    10030    2    1    2    0    0  0.00000000000E+00  0.00000000000E+00  0.24228778782E+03  0.10297879229E+04  0.10008795103E+04 0.  0.
        4    1    3    3  502    0  0.27417458682E+03  0.34326174141E+03 -0.12544055406E+03  0.45687774369E+03  0.12699999809E+01 0. -1.
       -4    1    3    3    0  502 -0.27417458682E+03 -0.34326174141E+03  0.36772834187E+03  0.57291017926E+03  0.12699999809E+01 0.  1.
</event>
<event>
 5   0  0.5888774E-04  0.1000305E+04  0.7818609E-02  0.9308210E-01
       -1   -1    0    0    0  501  0.00000000000E+00  0.00000000000E+00  0.12452923708E+03  0.12452923718E+03  0.50400001928E-02 0. -1.
        1   -1    0    0  501    0  0.00000000000E+00  0.00000000000E+00 -0.20087862722E+04  0.20087862722E+04  0.50400001928E-02 0.  1.
    10030    2    1    2    0    0  0.00000000000E+00  0.00000000000E+00 -0.18842570351E+04  0.21333155094E+04  0.10003051975E+04 0.  0.
        2    1    3    3  502    0 -0.15663469338E+02 -0.49522801198E+03 -0.10876583689E+04  0.11951974128E+04  0.25500000920E-02 0. -1.
       -2    1    3    3    0  502  0.15663469338E+02  0.49522801198E+03 -0.79659866622E+03  0.93811809659E+03  0.25500000920E-02 0.  1.
</event>
<event>
 5   0  0.1020150E-03  0.1000872E+04  0.7818609E-02  0.9307589E-01
        2   -1    0    0  501    0  0.00000000000E+00  0.00000000000E+00  0.21315239049E+04  0.21315239049E+04  0.25500000920E-02 0. -1.
       -2   -1    0    0    0  501  0.00000000000E+00  0.00000000000E+00 -0.11749162157E+03  0.11749162160E+03  0.25500000920E-02 0.  1.
    10030    2    1    2    0    0  0.00000000000E+00  0.00000000000E+00  0.20140322833E+04  0.22490155265E+04  0.10008720199E+04 0.  0.
        5    1    3    3  502    0 -0.36002641267E+03  0.34731838659E+03  0.10358827720E+04  0.11503583298E+04  0.46999998093E+01 0.  1.
       -5    1    3    3    0  502  0.36002641267E+03 -0.34731838659E+03  0.97814951131E+03  0.10986571967E+04  0.46999998093E+01 0. -1.
</event>
<event>
 5   0  0.5768102E-04  0.1005090E+04  0.7818609E-02  0.9302979E-01
       -1   -1    0    0    0  501  0.00000000000E+00  0.00000000000E+00  0.55874726500E+03  0.55874726502E+03  0.50400001928E-02 0.  1.
        1   -1    0    0  501    0  0.00000000000E+00  0.00000000000E+00 -0.45199633005E+03  0.45199633008E+03  0.50400001928E-02 0. -1.
    10030    2    1    2    0    0  0.00000000000E+00  0.00000000000E+00  0.10675093495E+03  0.10107435951E+04  0.10050904700E+04 0.  0.
        4    1    3    3  502    0  0.16023548923E+03  0.20363484884E+03 -0.37963613639E+03  0.45963874143E+03  0.12699999809E+01 0. -1.
       -4    1    3    3    0  502 -0.16023548923E+03 -0.20363484884E+03  0.48638707134E+03  0.55110485367E+03  0.12699999809E+01 0.  1.
</event>
<event>
 5   0  0.1006749E-03  0.9994525E+03  0.7818609E-02  0.9309145E-01
       -2   -1    0    0    0  501  0.00000000000E+00  0.00000000000E+00  0.37659089886E+03  0.37659089887E+03  0.25500000920E-02 0. -1.
        2   -1    0    0  501    0  0.00000000000E+00  0.00000000000E+00 -0.66312369455E+03  0.66312369456E+03  0.25500000920E-02 0.  1.
    10030    2    1    2    0    0  0.00000000000E+00  0.00000000000E+00 -0.28653279569E+03  0.10397145934E+04  0.99945254654E+03 0.  0.
        1    1    3    3  502    0  0.46247790611E+03  0.88366264118E+02 -0.31743847132E+03  0.56785701843E+03  0.50400001928E-02 0.  1.
       -1    1    3    3    0  502 -0.46247790611E+03 -0.88366264118E+02  0.30905675632E+02  0.47185757500E+03  0.50400001928E-02 0. -1.
</event>
<event>
 5   0  0.1020150E-03  0.1000895E+04  0.7818609E-02  0.9307564E-01
       -2   -1    0    0    0  501  0.00000000000E+00  0.00000000000E+00  0.41071938004E+03  0.41071938005E+03  0.25500000920E-02 0.  1.
        2   -1    0    0  501    0  0.00000000000E+00  0.00000000000E+00 -0.60977779197E+03  0.60977779198E+03  0.25500000920E-02 0. -1.
    10030    2    1    2    0    0  0.00000000000E+00  0.00000000000E+00 -0.19905841193E+03  0.10204971720E+04  0.10008947131E+04 0.  0.
        5    1    3    3  502    0 -0.29385324453E+03  0.39906865407E+03 -0.28743669370E+02  0.49644114304E+03  0.46999998093E+01 0. -1.
       -5    1    3    3    0  502  0.29385324453E+03 -0.39906865407E+03 -0.17031474256E+03  0.52405602898E+03  0.46999998093E+01 0.  1.
</event>
<event>
 5   0  0.1006006E-03  0.1000228E+04  0.7818609E-02  0.9308294E-01
        2   -1    0    0  501    0  0.00000000000E+00  0.00000000000E+00  0.66277954470E+03  0.66277954471E+03  0.25500000920E-02 0.  1.
       -2   -1    0    0    0  501  0.00000000000E+00  0.00000000000E+00 -0.37737156127E+03  0.37737156128E+03  0.25500000920E-02 0. -1.
    10030    2    1    2    0    0  0.00000000000E+00  0.00000000000E+00  0.28540798343E+03  0.10401511060E+04  0.10002282771E+04 0.  0.
        2    1    3    3  502    0 -0.11520175074E+03 -0.21478848174E+03 -0.31142838414E+03  0.39546576807E+03  0.25500000920E-02 0. -1.
       -2    1    3    3    0  502  0.11520175074E+03  0.21478848174E+03  0.59683636757E+03  0.64468533792E+03  0.25500000920E-02 0.  1.
</event>
<event>
 5   0  0.5826939E-04  0.1002484E+04  0.7818609E-02  0.9305825E-01
        1   -1    0    0  501    0  0.00000000000E+00  0.00000000000E+00  0.20763787221E+04  0.20763787221E+04  0.50400001928E-02 0. -1.
       -1   -1    0    0    0  501  0.00000000000E+00  0.00000000000E+00 -0.12100075468E+03  0.12100075479E+03  0.50400001928E-02 0.  1.
    10030    2    1    2    0    0  0.00000000000E+00  0.00000000000E+00  0.19553779674E+04  0.21973794769E+04  0.10024837006E+04 0.  0.
        1    1    3    3  502    0 -0.29961228015E+03 -0.10287131964E+02  0.18582089519E+04  0.18822363965E+04  0.50400001928E-02 0. -1.
       -1    1    3    3    0  502  0.29961228015E+03  0.10287131964E+02  0.97169015529E+02  0.31514308037E+03  0.50400001928E-02 0.  1.
</event>
<event>
 5   0  0.5768102E-04  0.1000451E+04  0.7818609E-02  0.9308051E-01
       -1   -1    0    0    0  501  0.00000000000E+00  0.00000000000E+00  0.36456868613E+03  0.36456868617E+03  0.50400001928E-02 0.  1.
        1   -1    0    0  501    0  0.00000000000E+00  0.00000000000E+00 -0.68635993739E+03  0.68635993741E+03  0.50400001928E-02 0. -1.
    10030    2    1    2    0    0  0.00000000000E+00  0.00000000000E+00 -0.32179125126E+03  0.10509286236E+04  0.10004505797E+04 0.  0.
        4    1    3    3  502    0  0.42770154893E+03  0.23468971631E+03 -0.27699755133E+03  0.56101437970E+03  0.12699999809E+01 0. -1.
       -4    1    3    3    0  502 -0.42770154893E+03 -0.23468971631E+03 -0.44793699928E+02  0.48991424387E+03  0.12699999809E+01 0.  1.
</event>
<event>
 5   0  0.1006006E-03  0.1000857E+04  0.7818609E-02  0.9307605E-01
        2   -1    0    0  501    0  0.00000000000E+00  0.00000000000E+00  0.75951762059E+03  0.75951762059E+03  0.25500000920E-02 0. -1.
       -2   -1    0    0    0  501  0.00000000000E+00  0.00000000000E+00 -0.32972093328E+03  0.32972093329E+03  0.25500000920E-02 0.  1.
    10030    2    1    2    0    0  0.00000000000E+00  0.00000000000E+00  0.42979668730E+03  0.10892385539E+04  0.10008573499E+04 0.  0.
        2    1    3    3  502    0 -0.84822670477E+02  0.12502405826E+03  0.73410442811E+03  0.74948996788E+03  0.25500000920E-02 0. -1.
       -2    1    3    3    0  502  0.84822670477E+02 -0.12502405826E+03 -0.30430774081E+03  0.33974858601E+03  0.25500000920E-02 0.  1.
</event>
<event>
 5   0  0.1020150E-03  0.1000100E+04  0.7818609E-02  0.9308435E-01
        2   -1    0    0  501    0  0.00000000000E+00  0.00000000000E+00  0.18670796510E+04  0.18670796510E+04  0.25500000920E-02 0.  1.
       -2   -1    0    0    0  501  0.00000000000E+00  0.00000000000E+00 -0.13392565189E+03  0.13392565191E+03  0.25500000920E-02 0. -1.
    10030    2    1    2    0    0  0.00000000000E+00  0.00000000000E+00  0.17331539991E+04  0.20010053029E+04  0.10000997139E+04 0.  0.
        5    1    3    3  502    0  0.49481523348E+03  0.33897569712E+02  0.99369682066E+03  0.11106064208E+04  0.46999998093E+01 0.  1.
       -5    1    3    3    0  502 -0.49481523348E+03 -0.33897569712E+02  0.73945717845E+03  0.89039888212E+03  0.46999998093E+01 0. -1.
</event>
<event>
 5   0  0.5768102E-04  0.1000244E+04  0.7818609E-02  0.9308277E-01
        1   -1    0    0  501    0  0.00000000000E+00  0.00000000000E+00  0.82941286436E+03  0.82941286437E+03  0.50400001928E-02 0. -1.
       -1   -1    0    0    0  501  0.00000000000E+00  0.00000000000E+00 -0.30156540609E+03  0.30156540613E+03  0.50400001928E-02 0.  1.
    10030    2    1    2    0    0  0.00000000000E+00  0.00000000000E+00  0.52784745827E+03  0.11309782705E+04  0.10002444247E+04 0.  0.
        4    1    3    3  502    0  0.22015597214E+02  0.42610931379E+03 -0.31071998654E+02  0.42780943868E+03  0.12699999809E+01 0.  1.
       -4    1    3    3    0  502 -0.22015597214E+02 -0.42610931379E+03  0.55891945692E+03  0.70316883182E+03  0.12699999809E+01 0. -1.
</event>
<event>
 5   0  0.5888774E-04  0.1001463E+04  0.7818609E-02  0.9306941E-01
        1   -1    0    0  501    0  0.00000000000E+00  0.00000000000E+00  0.21641303980E+03  0.21641303986E+03  0.50400001928E-02 0.  1.
       -1   -1    0    0    0  501  0.00000000000E+00  0.00000000000E+00 -0.11585815706E+04  0.11585815706E+04  0.50400001928E-02 0. -1.
    10030    2    1    2    0    0  0.00000000000E+00  0.00000000000E+00 -0.94216853080E+03  0.13749946105E+04  0.10014632486E+04 0.  0.
        2    1    3    3  502    0 -0.46109936097E+03  0.59877975053E+02 -0.72623126874E+03  0.86232815580E+03  0.25500000920E-02 0. -1.
       -2    1    3    3    0  502  0.46109936097E+03 -0.59877975053E+02 -0.21593726206E+03  0.51266645467E+03  0.25500000920E-02 0.  1.
</event>
<event>
 5   0  0.9674819E-04  0.9992619E+03  0.7818609E-02  0.9309355E-01
        2   -1    0    0  501    0  0.00000000000E+00  0.00000000000E+00  0.89736110803E+03  0.89736110804E+03  0.25500000920E-02 0. -1.
       -2   -1    0    0    0  501  0.00000000000E+00  0.00000000000E+00 -0.27818351552E+03  0.27818351553E+03  0.25500000920E-02 0.  1.
    10030    2    1    2    0    0  0.00000000000E+00  0.00000000000E+00  0.61917759251E+03  0.11755446236E+04  0.99926186305E+03 0.  0.
        4    1    3    3  502    0 -0.49914887760E+03 -0.17707506217E+02  0.29441821987E+03  0.57978173382E+03  0.12699999809E+01 0. -1.
       -4    1    3    3    0  502  0.49914887760E+03  0.17707506217E+02  0.32475937264E+03  0.59576288975E+03  0.12699999809E+01 0.  1.
</event>
<event>
 5   0  0.5960102E-04  0.9996921E+03  0.7818609E-02  0.9308883E-01
       -1   -1    0    0    0  501  0.00000000000E+00  0.00000000000E+00  0.92562451581E+03  0.92562451582E+03  0.50400001928E-02 0.  1.
        1   -1    0    0  501    0  0.00000000000E+00  0.00000000000E+00 -0.26992161830E+03  0.26992161835E+03  0.50400001928E-02 0. -1.
    10030    2    1    2    0    0  0.00000000000E+00  0.00000000000E+00  0.65570289750E+03  0.11955461342E+04  0.99969208716E+03 0.  0.
        5    1    3    3  502    0 -0.32940388261E+03  0.39058666042E+02 -0.11928537389E+03  0.35253877474E+03  0.46999998093E+01 0. -1.
       -5    1    3    3    0  502  0.32940388261E+03 -0.39058666042E+02  0.77498827139E+03  0.84300735944E+03  0.46999998093E+01 0.  1.
</event>
<event>
 5   0  0.9674819E-04  0.9994259E+03  0.7818609E-02  0.9309175E-01
       -2   -1    0    0    0  501  0.00000000000E+00  0.00000000000E+00  0.30845042012E+03  0.30845042013E+03  0.25500000920E-02 0. -1.
        2   -1    0    0  501    0  0.00000000000E+00  0.00000000000E+00 -0.80957274944E+03  0.80957274945E+03  0.25500000920E-02 0.  1.
    10030    2    1    2    0    0  0.00000000000E+00  0.00000000000E+00 -0.50112232932E+03  0.11180231696E+04  0.99942594461E+03 0.  0.
        4    1    3    3  502    0  0.28455281338E+03  0.46519694703E+02 -0.70713158955E+03  0.76365639095E+03  0.12699999809E+01 0.  1.
       -4    1    3    3    0  502 -0.28455281338E+03 -0.46519694703E+02  0.20600926022E+03  0.35436677863E+03  0.12699999809E+01 0. -1.
</event>
<event>
 5   0  0.9674819E-04  0.1000167E+04  0.7818609E-02  0.9308362E-01
        2   -1    0    0  501    0  0.00000000000E+00  0.00000000000E+00  0.38607277246E+03  0.38607277247E+03  0.25500000920E-02 0.  1.
       -2   -1    0    0    0  501  0.00000000000E+00  0.00000000000E+00 -0.64776240984E+03  0.64776240984E+03  0.25500000920E-02 0. -1.
    10030    2    1    2    0    0  0.00000000000E+00  0.00000000000E+00 -0.26168963738E+03  0.10338351823E+04  0.10001668450E+04 0.  0.
        4    1    3    3  502    0  0.32063837004E+03  0.19780074480E+03  0.20908364604E+03  0.43087316339E+03  0.12699999809E+01 0.  1.
       -4    1    3    3    0  502 -0.32063837004E+03 -0.19780074480E+03 -0.47077328342E+03  0.60296201893E+03  0.12699999809E+01 0. -1.
</event>
<event>
 5   0  0.9741826E-04  0.1000068E+04  0.7818609E-02  0.9308470E-01
       -2   -1    0    0    0  501  0.00000000000E+00  0.00000000000E+00  0.16488868430E+03  0.16488868432E+03  0.25500000920E-02 0.  1.
        2   -1    0    0  501    0  0.00000000000E+00  0.00000000000E+00 -0.15163806285E+04  0.15163806285E+04  0.25500000920E-02 0. -1.
    10030    2    1    2    0    0  0.00000000000E+00  0.00000000000E+00 -0.13514919442E+04  0.16812693128E+04  0.10000680112E+04 0.  0.
        3    1    3    3  502    0 -0.76302093991E+02  0.49392737869E+03 -0.70220649576E+03  0.86190500512E+03  0.10100000352E+00 0. -1.
       -3    1    3    3    0  502  0.76302093991E+02 -0.49392737869E+03 -0.64928544839E+03  0.81936430766E+03  0.10100000352E+00 0.  1.
</event>
<event>
 5   0  0.5888774E-04  0.9989678E+03  0.7818609E-02  0.9309678E-01
       -1   -1    0    0    0  501  0.00000000000E+00  0.00000000000E+00  0.16779008088E+03  0.16779008096E+03  0.50400001928E-02 0.  1.
        1   -1    0    0  501    0  0.00000000000E+00  0.00000000000E+00 -0.14868825702E+04  0.14868825702E+04  0.50400001928E-02 0. -1.
    10030    2    1    2    0    0  0.00000000000E+00  0.00000000000E+00 -0.13190924893E+04  0.16546726512E+04  0.99896776082E+03 0.  0.
        2    1    3    3  502    0 -0.31473418297E+03 -0.36329553200E+03 -0.43460184261E+03  0.64801235414E+03  0.25500000920E-02 0. -1.
       -2    1    3    3    0  502  0.31473418297E+03  0.36329553200E+03 -0.88449064670E+03  0.10066602970E+04  0.25500000920E-02 0.  1.
</event>
<event>
 5   0  0.5768102E-04  0.1002204E+04  0.7818609E-02  0.9306131E-01
        1   -1    0    0  501    0  0.00000000000E+00  0.00000000000E+00  0.25704549170E+03  0.25704549175E+03  0.50400001928E-02 0.  1.
       -1   -1    0    0    0  501  0.00000000000E+00  0.00000000000E+00 -0.97688285281E+03  0.97688285283E+03  0.50400001928E-02 0. -1.
    10030    2    1    2    0    0  0.00000000000E+00  0.00000000000E+00 -0.71983736111E+03  0.12339283446E+04  0.10022042372E+04 0.  0.
        4    1    3    3  502    0  0.37767143136E+03  0.45141217087E+02 -0.76158205213E+03  0.85128272305E+03  0.12699999809E+01 0. -1.
       -4    1    3    3    0  502 -0.37767143136E+03 -0.45141217087E+02  0.41744691020E+02  0.38264562153E+03  0.12699999809E+01 0.  1.
</event>
<event>
 5   0  0.5960102E-04  0.1000940E+04  0.7818609E-02  0.9307515E-01
       -1   -1    0    0    0  501  0.00000000000E+00  0.00000000000E+00  0.59639682994E+03  0.59639682996E+03  0.50400001928E-02 0.  1.
        1   -1    0    0  501    0  0.00000000000E+00  0.00000000000E+00 -0.41997209946E+03  0.41997209949E+03  0.50400001928E-02 0. -1.
    10030    2    1    2    0    0  0.00000000000E+00  0.00000000000E+00  0.17642473048E+03  0.10163689295E+04  0.10009396162E+04 0.  0.
        5    1    3    3  502    0  0.17050423234E+03  0.27595594305E+03 -0.29874537737E+03  0.44101504084E+03  0.46999998093E+01 0. -1.
       -5    1    3    3    0  502 -0.17050423234E+03 -0.27595594305E+03  0.47517010785E+03  0.57535388861E+03  0.46999998093E+01 0.  1.
</event>
<event>
 5   0  0.1006749E-03  0.1018273E+04  0.7818609E-02  0.9288727E-01
        2   -1    0    0  501    0  0.00000000000E+00  0.00000000000E+00  0.21356284983E+04  0.21356284983E+04  0.25500000920E-02 0.  1.
       -2   -1    0    0    0  501  0.00000000000E+00  0.00000000000E+00 -0.12137880483E+03  0.12137880486E+03  0.25500000920E-02 0. -1.
    10030    2    1    2    0    0  0.00000000000E+00  0.00000000000E+00  0.20142496934E+04  0.22570073031E+04  0.10182731160E+04 0.  0.
        1    1    3    3  502    0  0.44860963574E+03 -0.59351630933E+02  0.15243205635E+04  0.15900711939E+04  0.50400001928E-02 0.  1.
       -1    1    3    3    0  502 -0.44860963574E+03  0.59351630933E+02  0.48992912989E+03  0.66693610917E+03  0.50400001928E-02 0. -1.
</event>
<event>
 5   0  0.1020150E-03  0.9997573E+03  0.7818609E-02  0.9308811E-01
       -2   -1    0    0    0  501  0.00000000000E+00  0.00000000000E+00  0.48536137884E+03  0.48536137885E+03  0.25500000920E-02 0.  1.
        2   -1    0    0  501    0  0.00000000000E+00  0.00000000000E+00 -0.51483016676E+03  0.51483016676E+03  0.25500000920E-02 0. -1.
    10030    2    1    2    0    0  0.00000000000E+00  0.00000000000E+00 -0.29468787916E+02  0.10001915456E+04  0.99975732978E+03 0.  0.
        5    1    3    3  502    0 -0.47172143208E+03  0.23639150535E+02  0.14897246324E+03  0.49527245404E+03  0.46999998093E+01 0.  1.
       -5    1    3    3    0  502  0.47172143208E+03 -0.23639150535E+02 -0.17844125115E+03  0.50491909158E+03  0.46999998093E+01 0. -1.
</event>
<event>
 5   0  0.9674819E-04  0.1001340E+04  0.7818609E-02  0.9307077E-01
        2   -1    0    0  501    0  0.00000000000E+00  0.00000000000E+00  0.36153383940E+03  0.36153383941E+03  0.25500000920E-02 0.  1.
       -2   -1    0    0    0  501  0.00000000000E+00  0.00000000000E+00 -0.69335239391E+03  0.69335239391E+03  0.25500000920E-02 0. -1.
    10030    2    1    2    0    0  0.00000000000E+00  0.00000000000E+00 -0.33181855450E+03  0.10548862333E+04  0.10013398085E+04 0.  0.
        4    1    3    3  502    0 -0.11927597816E+03 -0.45429399467E+03 -0.34855564005E+03  0.58489523820E+03  0.12699999809E+01 0. -1.
       -4    1    3    3    0  502  0.11927597816E+03  0.45429399467E+03  0.16737085542E+02  0.46999099512E+03  0.12699999809E+01 0.  1.
</event>
<event>
 5   0  0.5960102E-04  0.1001097E+04  0.7818609E-02  0.9307343E-01
       -1   -1    0    0    0  501  0.00000000000E+00  0.00000000000E+00  0.38961995507E+03  0.38961995510E+03  0.50400001928E-02 0. -1.
        1   -1    0    0  501    0  0.00000000000E+00  0.00000000000E+00 -0.64305921730E+03  0.64305921732E+03  0.50400001928E-02 0.  1.
    10030    2    1    2    0    0  0.00000000000E+00  0.00000000000E+00 -0.25343926223E+03  0.10326791724E+04  0.10010968053E+04 0.  0.
        5    1    3    3  502    0 -0.10309752874E+03  0.20732333286E+03 -0.58446951701E+03  0.62868018188E+03  0.46999998093E+01 0.  1.
       -5    1    3    3    0  502  0.10309752874E+03 -0.20732333286E+03  0.33103025478E+03  0.40399899054E+03  0.46999998093E+01 0. -1.
</event>
<event>
 5   0  0.5826939E-04  0.9994931E+03  0.7818609E-02  0.9309101E-01
       -1   -1    0    0    0  501  0.00000000000E+00  0.00000000000E+00  0.10758101532E+04  0.10758101532E+04  0.50400001928E-02 0.  1.
        1   -1    0    0  501    0  0.00000000000E+00  0.00000000000E+00 -0.23214745935E+03  0.23214745941E+03  0.50400001928E-02 0. -1.
    10030    2    1    2    0    0  0.00000000000E+00  0.00000000000E+00  0.84366269388E+03  0.13079576127E+04  0.99949305923E+03 0.  0.
        1    1    3    3  502    0  0.22134722184E+03  0.86338909081E+02  0.99717471514E+03  0.10250884900E+04  0.50400001928E-02 0.  1.
       -1    1    3    3    0  502 -0.22134722184E+03 -0.86338909081E+02 -0.15351202126E+03  0.28286912263E+03  0.50400001928E-02 0. -1.
</event>
<event>
 5   0  0.5888774E-04  0.9994595E+03  0.7818609E-02  0.9309138E-01
       -1   -1    0    0    0  501  0.00000000000E+00  0.00000000000E+00  0.23713189793E+03  0.23713189798E+03  0.50400001928E-02 0. -1.
        1   -1    0    0  501    0  0.00000000000E+00  0.00000000000E+00 -0.10531262466E+04  0.10531262466E+04  0.50400001928E-02 0.  1.
    10030    2    1    2    0    0  0.00000000000E+00  0.00000000000E+00 -0.81599434865E+03  0.12902581446E+04  0.99945950524E+03 0.  0.
        2    1    3    3  502    0  0.19514942164E+02  0.49699155864E+03 -0.47055705333E+03  0.68469364154E+03  0.25500000920E-02 0.  1.
       -2    1    3    3    0  502 -0.19514942164E+02 -0.49699155864E+03 -0.34543729532E+03  0.60556450303E+03  0.25500000920E-02 0. -1.
</event>
<event>
 5   0  0.5888774E-04  0.9996544E+03  0.7818609E-02  0.9308924E-01
        1   -1    0    0  501    0  0.00000000000E+00  0.00000000000E+00  0.36649134554E+03  0.36649134558E+03  0.50400001928E-02 0. -1.
       -1   -1    0    0    0  501  0.00000000000E+00  0.00000000000E+00 -0.68167296271E+03  0.68167296273E+03  0.50400001928E-02 0.  1.
    10030    2    1    2    0    0  0.00000000000E+00  0.00000000000E+00 -0.31518161717E+03  0.10481643083E+04  0.99965442299E+03 0.  0.
        2    1    3    3  502    0 -0.15174131873E+03  0.46093081280E+03 -0.32009880989E+02  0.48632013580E+03  0.25500000920E-02 0. -1.
       -2    1    3    3    0  502  0.15174131873E+03 -0.46093081280E+03 -0.28317173618E+03  0.56184417251E+03  0.25500000920E-02 0.  1.
</event>
<event>
 5   0  0.5758786E-04  0.1004450E+04  0.7818609E-02  0.9303677E-01
        1   -1    0    0  501    0  0.00000000000E+00  0.00000000000E+00  0.63796842761E+03  0.63796842763E+03  0.50400001928E-02 0.  1.
       -1   -1    0    0    0  501  0.00000000000E+00  0.00000000000E+00 -0.39536445638E+03  0.39536445641E+03  0.50400001928E-02 0. -1.
    10030    2    1    2    0    0  0.00000000000E+00  0.00000000000E+00  0.24260397123E+03  0.10333328840E+04  0.10044501792E+04 0.  0.
        3    1    3    3  502    0  0.37703189391E+03 -0.14295664815E+03 -0.18670721502E+03  0.44435261518E+03  0.10100000352E+00 0. -1.
       -3    1    3    3    0  502 -0.37703189391E+03  0.14295664815E+03  0.42931118625E+03  0.58898026887E+03  0.10100000352E+00 0.  1.
</event>
<event>
 5   0  0.1006749E-03  0.9983258E+03  0.7818609E-02  0.9310383E-01
       -2   -1    0    0    0  501  0.00000000000E+00  0.00000000000E+00  0.67231744568E+03  0.67231744568E+03  0.25500000920E-02 0. -1.
        2   -1    0    0  501    0  0.00000000000E+00  0.00000000000E+00 -0.37060410907E+03  0.37060410908E+03  0.25500000920E-02 0.  1.
    10030    2    1    2    0    0  0.00000000000E+00  0.00000000000E+00  0.30171333661E+03  0.10429215548E+04  0.99832581451E+03 0.  0.
        1    1    3    3  502    0 -0.19008159064E+03 -0.25742482698E+02  0.63227857151E+03  0.66073434793E+03  0.50400001928E-02 0. -1.
       -1    1    3    3    0  502  0.19008159064E+03  0.25742482698E+02 -0.33056523491E+03  0.38218720684E+03  0.50400001928E-02 0.  1.
</event>
<event>
 5   0  0.5888774E-04  0.1001301E+04  0.7818609E-02  0.9307119E-01
       -1   -1    0    0    0  501  0.00000000000E+00  0.00000000000E+00  0.32535017674E+03  0.32535017678E+03  0.50400001928E-02 0. -1.
        1   -1    0    0  501    0  0.00000000000E+00  0.00000000000E+00 -0.77040382391E+03  0.77040382393E+03  0.50400001928E-02 0.  1.
    10030    2    1    2    0    0  0.00000000000E+00  0.00000000000E+00 -0.44505364717E+03  0.10957540007E+04  0.10013011941E+04 0.  0.
        2    1    3    3  502    0 -0.25691752210E+03 -0.15650140188E+03 -0.66046633782E+03  0.72575139363E+03  0.25500000920E-02 0.  1.
       -2    1    3    3    0  502  0.25691752210E+03  0.15650140188E+03  0.21541269065E+03  0.37000260709E+03  0.25500000920E-02 0. -1.
</event>
<event>
 5   0  0.5826939E-04  0.1001224E+04  0.7818609E-02  0.9307203E-01
        1   -1    0    0  501    0  0.00000000000E+00  0.00000000000E+00  0.14945809456E+04  0.14945809456E+04  0.50400001928E-02 0. -1.
       -1   -1    0    0    0  501  0.00000000000E+00  0.00000000000E+00 -0.16768070941E+03  0.16768070949E+03  0.50400001928E-02 0.  1.
    10030    2    1    2    0    0  0.00000000000E+00  0.00000000000E+00  0.13269002362E+04  0.16622616551E+04  0.10012240375E+04 0.  0.
        1    1    3    3  502    0  0.48963256372E+03  0.30121214354E+01  0.83649089846E+03  0.96926061694E+03  0.50400001928E-02 0.  1.
       -1    1    3    3    0  502 -0.48963256372E+03 -0.30121214354E+01  0.49040933773E+03  0.69300103816E+03  0.50400001928E-02 0. -1.
</event>
<event>
 5   0  0.9674819E-04  0.1003411E+04  0.7818609E-02  0.9304811E-01
       -2   -1    0    0    0  501  0.00000000000E+00  0.00000000000E+00  0.45896049141E+03  0.45896049142E+03  0.25500000920E-02 0.  1.
        2   -1    0    0  501    0  0.00000000000E+00  0.00000000000E+00 -0.54843174942E+03  0.54843174943E+03  0.25500000920E-02 0. -1.
    10030    2    1    2    0    0  0.00000000000E+00  0.00000000000E+00 -0.89471258016E+02  0.10073922408E+04  0.10034111923E+04 0.  0.
        4    1    3    3  502    0  0.34150671926E+03  0.17604355915E+03 -0.36864349214E+03  0.53246390602E+03  0.12699999809E+01 0. -1.
       -4    1    3    3    0  502 -0.34150671926E+03 -0.17604355915E+03  0.27917223412E+03  0.47492833483E+03  0.12699999809E+01 0.  1.
</event>
<event>
 5   0  0.5960102E-04  0.1000286E+04  0.7818609E-02  0.9308232E-01
       -1   -1    0    0    0  501  0.00000000000E+00  0.00000000000E+00  0.71869015028E+03  0.71869015030E+03  0.50400001928E-02 0. -1.
        1   -1    0    0  501    0  0.00000000000E+00  0.00000000000E+00 -0.34805379078E+03  0.34805379082E+03  0.50400001928E-02 0.  1.
    10030    2    1    2    0    0  0.00000000000E+00  0.00000000000E+00  0.37063635950E+03  0.10667439411E+04  0.10002856217E+04 0.  0.
        5    1    3    3  502    0  0.27990014557E+03  0.39505953631E+03  0.51674085719E+02  0.48693780902E+03  0.46999998093E+01 0.  1.
       -5    1    3    3    0  502 -0.27990014557E+03 -0.39505953631E+03  0.31896227378E+03  0.57980613209E+03  0.46999998093E+01 0. -1.
</event>
<event>
 5   0  0.5960102E-04  0.1000258E+04  0.7818609E-02  0.9308262E-01
       -1   -1    0    0    0  501  0.00000000000E+00  0.00000000000E+00  0.18864944890E+03  0.18864944897E+03  0.50400001928E-02 0.  1.
        1   -1    0    0  501    0  0.00000000000E+00  0.00000000000E+00 -0.13258919927E+04  0.13258919928E+04  0.50400001928E-02 0. -1.
    10030    2    1    2    0    0  0.00000000000E+00  0.00000000000E+00 -0.11372425438E+04  0.15145414417E+04  0.10002575544E+04 0.  0.
        5    1    3    3  502    0  0.29284248605E+03  0.12272117717E+03  0.16416552508E+02  0.31797610312E+03  0.46999998093E+01 0.  1.
       -5    1    3    3    0  502 -0.29284248605E+03 -0.12272117717E+03 -0.11536590964E+04  0.11965653386E+04  0.46999998093E+01 0. -1.
</event>
<event>
 5   0  0.5888774E-04  0.1000594E+04  0.7818609E-02  0.9307893E-01
       -1   -1    0    0    0  501  0.00000000000E+00  0.00000000000E+00  0.11156344770E+03  0.11156344781E+03  0.50400001928E-02 0.  1.
        1   -1    0    0  501    0  0.00000000000E+00  0.00000000000E+00 -0.22435418456E+04  0.22435418456E+04  0.50400001928E-02 0. -1.
    10030    2    1    2    0    0  0.00000000000E+00  0.00000000000E+00 -0.21319783979E+04  0.23551052935E+04  0.10005943504E+04 0.  0.
        2    1    3    3  502    0 -0.25050487447E+03  0.32107708909E+03 -0.38197898797E+03  0.55834678877E+03  0.25500000920E-02 0.  1.
       -2    1    3    3    0  502  0.25050487447E+03 -0.32107708909E+03 -0.17499994100E+04  0.17967585047E+04  0.25500000920E-02 0. -1.
</event>
<event>
 5   0  0.1006749E-03  0.9962232E+03  0.7818609E-02  0.9312697E-01
        2   -1    0    0  501    0  0.00000000000E+00  0.00000000000E+00  0.80614680666E+03  0.80614680666E+03  0.25500000920E-02 0. -1.
       -2   -1    0    0    0  501  0.00000000000E+00  0.00000000000E+00 -0.30777912653E+03  0.30777912654E+03  0.25500000920E-02 0.  1.
    10030    2    1    2    0    0  0.00000000000E+00  0.00000000000E+00  0.49836768013E+03  0.11139259332E+04  0.99622318787E+03 0.  0.
        1    1    3    3  502    0 -0.57205392463E+02 -0.83657095062E+02 -0.29612927836E+03  0.31299123951E+03  0.50400001928E-02 0.  1.
       -1    1    3    3    0  502  0.57205392463E+02  0.83657095062E+02  0.79449695849E+03  0.80093469369E+03  0.50400001928E-02 0. -1.
</event>
<event>
 5   0  0.5888774E-04  0.1000541E+04  0.7818609E-02  0.9307951E-01
       -1   -1    0    0    0  501  0.00000000000E+00  0.00000000000E+00  0.38975752483E+03  0.38975752486E+03  0.50400001928E-02 0.  1.
        1   -1    0    0  501    0  0.00000000000E+00  0.00000000000E+00 -0.64211898963E+03  0.64211898965E+03  0.50400001928E-02 0. -1.
    10030    2    1    2    0    0  0.00000000000E+00  0.00000000000E+00 -0.25236146480E+03  0.10318765145E+04  0.10005412696E+04 0.  0.
        2    1    3    3  502    0  0.42465367536E+03 -0.23428461933E+03 -0.25270411658E+03  0.54688152044E+03  0.25500000920E-02 0. -1.
       -2    1    3    3    0  502 -0.42465367536E+03  0.23428461933E+03  0.34265177503E+00  0.48499499407E+03  0.25500000920E-02 0.  1.
</event>
<event>
 5   0  0.1006749E-03  0.9991524E+03  0.7818609E-02  0.9309475E-01
       -2   -1    0    0    0  501  0.00000000000E+00  0.00000000000E+00  0.51720888884E+03  0.51720888884E+03  0.25500000920E-02 0.  1.
        2   -1    0    0  501    0  0.00000000000E+00  0.00000000000E+00 -0.48254463563E+03  0.48254463564E+03  0.25500000920E-02 0. -1.
    10030    2    1    2    0    0  0.00000000000E+00  0.00000000000E+00  0.34664253206E+02  0.99975352448E+03  0.99915239041E+03 0.  0.
        1    1    3    3  502    0 -0.48324582172E+03 -0.12624685369E+03  0.27901744426E+02  0.50024324048E+03  0.50400001928E-02 0. -1.
       -1    1    3    3    0  502  0.48324582172E+03  0.12624685369E+03  0.67625087802E+01  0.49951028400E+03  0.50400001928E-02 0.  1.
</event>
<event>
 5   0  0.9741826E-04  0.9989586E+03  0.7818609E-02  0.9309688E-01
        2   -1    0    0  501    0  0.00000000000E+00  0.00000000000E+00  0.11318452137E+04  0.11318452137E+04  0.25500000920E-02 0.  1.
       -2   -1    0    0    0  501  0.00000000000E+00  0.00000000000E+00 -0.22041845254E+03  0.22041845256E+03  0.25500000920E-02 0. -1.
    10030    2    1    2    0    0  0.00000000000E+00  0.00000000000E+00  0.91142676116E+03  0.13522636663E+04  0.99895859881E+03 0.  0.
        3    1    3    3  502    0 -0.13714812997E+03  0.19409431360E+03 -0.13897514724E+03  0.27531130358E+03  0.10100000352E+00 0. -1.
       -3    1    3    3    0  502  0.13714812997E+03 -0.19409431360E+03  0.10504019084E+04  0.10769523627E+04  0.10100000352E+00 0.  1.
</event>
<event>
 5   0  0.9741826E-04  0.9976974E+03  0.7818609E-02  0.9311074E-01
       -2   -1    0    0    0  501  0.00000000000E+00  0.00000000000E+00  0.12918354594E+03  0.12918354596E+03  0.25500000920E-02 0. -1.
        2   -1    0    0  501    0  0.00000000000E+00  0.00000000000E+00 -0.19263289410E+04  0.19263289410E+04  0.25500000920E-02 0.  1.
    10030    2    1    2    0    0  0.00000000000E+00  0.00000000000E+00 -0.17971453950E+04  0.20555124869E+04  0.99769735543E+03 0.  0.
        3    1    3    3  502    0 -0.47913121849E+03 -0.43171880361E+02 -0.11704911051E+04  0.12654959396E+04  0.10100000352E+00 0. -1.
       -3    1    3    3    0  502  0.47913121849E+03  0.43171880361E+02 -0.62665428992E+03  0.79001654733E+03  0.10100000352E+00 0.  1.
</event>
<event>
 5   0  0.5826939E-04  0.1001460E+04  0.7818609E-02  0.9306945E-01
       -1   -1    0    0    0  501  0.00000000000E+00  0.00000000000E+00  0.18867130475E+03  0.18867130481E+03  0.50400001928E-02 0. -1.
        1   -1    0    0  501    0  0.00000000000E+00  0.00000000000E+00 -0.13289267515E+04  0.13289267515E+04  0.50400001928E-02 0.  1.
    10030    2    1    2    0    0  0.00000000000E+00  0.00000000000E+00 -0.11402554468E+04  0.15175980563E+04  0.10014596231E+04 0.  0.
        1    1    3    3  502    0 -0.21159009427E+03 -0.34856283894E+03 -0.10105395199E+04  0.10897047958E+04  0.50400001928E-02 0.  1.
       -1    1    3    3    0  502  0.21159009427E+03  0.34856283894E+03 -0.12971592683E+03  0.42789326050E+03  0.50400001928E-02 0. -1.
</event>
<event>
 5   0  0.5960102E-04  0.9989360E+03  0.7818609E-02  0.9309713E-01
       -1   -1    0    0    0  501  0.00000000000E+00  0.00000000000E+00  0.54801512602E+03  0.54801512604E+03  0.50400001928E-02 0.  1.
        1   -1    0    0  501    0  0.00000000000E+00  0.00000000000E+00 -0.45522151224E+03  0.45522151227E+03  0.50400001928E-02 0. -1.
    10030    2    1    2    0    0  0.00000000000E+00  0.00000000000E+00  0.92793613775E+02  0.10032366383E+04  0.99893598278E+03 0.  0.
        5    1    3    3  502    0  0.49129066221E+03 -0.50550235611E+02 -0.28249110158E+02  0.49471400154E+03  0.46999998093E+01 0.  1.
       -5    1    3    3    0  502 -0.49129066221E+03  0.50550235611E+02  0.12104272393E+03  0.50852263677E+03  0.46999998093E+01 0. -1.
</event>
<event>
 5   0  0.9741826E-04  0.9969802E+03  0.7818609E-02  0.9311863E-01
       -2   -1    0    0    0  501  0.00000000000E+00  0.00000000000E+00  0.22999952660E+03  0.22999952662E+03  0.25500000920E-02 0. -1.
        2   -1    0    0  501    0  0.00000000000E+00  0.00000000000E+00 -0.10804037737E+04  0.10804037737E+04  0.25500000920E-02 0.  1.
    10030    2    1    2    0    0  0.00000000000E+00  0.00000000000E+00 -0.85040424712E+03  0.13104033003E+04  0.99698015328E+03 0.  0.
        3    1    3    3  502    0  0.24708539872E+03  0.27475700170E+03  0.14572346455E+02  0.36980395850E+03  0.10100000352E+00 0. -1.
       -3    1    3    3    0  502 -0.24708539872E+03 -0.27475700170E+03 -0.86497659358E+03  0.94059934185E+03  0.10100000352E+00 0.  1.
</event>
<event>
 5   0  0.5960102E-04  0.9991779E+03  0.7818609E-02  0.9309447E-01
       -1   -1    0    0    0  501  0.00000000000E+00  0.00000000000E+00  0.27550104170E+03  0.27550104174E+03  0.50400001928E-02 0. -1.
        1   -1    0    0  501    0  0.00000000000E+00  0.00000000000E+00 -0.90594620094E+03  0.90594620095E+03  0.50400001928E-02 0.  1.
    10030    2    1    2    0    0  0.00000000000E+00  0.00000000000E+00 -0.63044515924E+03  0.11814472427E+04  0.99917790632E+03 0.  0.
        5    1    3    3  502    0 -0.12816104895E+03 -0.15898744989E+03  0.22386826163E+03  0.30305338186E+03  0.46999998093E+01 0. -1.
       -5    1    3    3    0  502  0.12816104895E+03  0.15898744989E+03 -0.85431342087E+03  0.87839386084E+03  0.46999998093E+01 0.  1.
</event>
<event>
 5   0  0.1006006E-03  0.1000876E+04  0.7818609E-02  0.9307585E-01
        2   -1    0    0  501    0  0.00000000000E+00  0.00000000000E+00  0.59341262296E+03  0.59341262296E+03  0.25500000920E-02 0.  1.
       -2   -1    0    0    0  501  0.00000000000E+00  0.00000000000E+00 -0.42203002785E+03  0.42203002786E+03  0.25500000920E-02 0. -1.
    10030    2    1    2    0    0  0.00000000000E+00  0.00000000000E+00  0.17138259511E+03  0.10154426508E+04  0.10008755083E+04 0.  0.
        2    1    3    3  502    0 -0.26279597413E+03 -0.25496262238E+03  0.43178714127E+03  0.56613408147E+03  0.25500000920E-02 0.  1.
       -2    1    3    3    0  502  0.26279597413E+03  0.25496262238E+03 -0.26040454616E+03  0.44930856935E+03  0.25500000920E-02 0. -1.
</event>
<event>
 5   0  0.5826939E-04  0.9986944E+03  0.7818609E-02  0.9309978E-01
        1   -1    0    0  501    0  0.00000000000E+00  0.00000000000E+00  0.44640542631E+03  0.44640542634E+03  0.50400001928E-02 0. -1.
       -1   -1    0    0    0  501  0.00000000000E+00  0.00000000000E+00 -0.55856765949E+03  0.55856765951E+03  0.50400001928E-02 0.  1.
    10030    2    1    2    0    0  0.00000000000E+00  0.00000000000E+00 -0.11216223318E+03  0.10049730859E+04  0.99869441609E+03 0.  0.
        1    1    3    3  502    0 -0.48765713377E+03  0.32210982768E+02  0.47035582960E+02  0.49097797672E+03  0.50400001928E-02 0.  1.
       -1    1    3    3    0  502  0.48765713377E+03 -0.32210982768E+02 -0.15919781614E+03  0.51399510914E+03  0.50400001928E-02 0. -1.
</event>
<event>
 5   0  0.5826939E-04  0.1000095E+04  0.7818609E-02  0.9308440E-01
       -1   -1    0    0    0  501  0.00000000000E+00  0.00000000000E+00  0.32813473695E+03  0.32813473699E+03  0.50400001928E-02 0.  1.
        1   -1    0    0  501    0  0.00000000000E+00  0.00000000000E+00 -0.76202709379E+03  0.76202709381E+03  0.50400001928E-02 0. -1.
    10030    2    1    2    0    0  0.00000000000E+00  0.00000000000E+00 -0.43389235684E+03  0.10901618308E+04  0.10000951155E+04 0.  0.
        1    1    3    3  502    0 -0.22670598813E+02 -0.46848667489E+02  0.32517427927E+03  0.32931302073E+03  0.50400001928E-02 0.  1.
       -1    1    3    3    0  502  0.22670598813E+02  0.46848667489E+02 -0.75906663611E+03  0.76084881007E+03  0.50400001928E-02 0. -1.
</event>
<event>
 5   0  0.5888774E-04  0.9891266E+03  0.7818609E-02  0.9320552E-01
        1   -1    0    0  501    0  0.00000000000E+00  0.00000000000E+00  0.55817927310E+03  0.55817927312E+03  0.50400001928E-02 0.  1.
       -1   -1    0    0    0  501  0.00000000000E+00  0.00000000000E+00 -0.43819770102E+03  0.43819770105E+03  0.50400001928E-02 0. -1.
    10030    2    1    2    0    0  0.00000000000E+00  0.00000000000E+00  0.11998157208E+03  0.99637697418E+03  0.98912663347E+03 0.  0.
        2    1    3    3  502    0 -0.34999248413E+03 -0.15882818580E+03 -0.25353289033E+03  0.46043464035E+03  0.25500000920E-02 0. -1.
       -2    1    3    3    0  502  0.34999248413E+03  0.15882818580E+03  0.37351446241E+03  0.53594233382E+03  0.25500000920E-02 0.  1.
</event>
<event>
 5   0  0.9674819E-04  0.1001211E+04  0.7818609E-02  0.9307218E-01
        2   -1    0    0  501    0  0.00000000000E+00  0.00000000000E+00  0.10178388710E+04  0.10178388710E+04  0.25500000920E-02 0. -1.
       -2   -1    0    0    0  501  0.00000000000E+00  0.00000000000E+00 -0.24621347641E+03  0.24621347643E+03  0.25500000920E-02 0.  1.
    10030    2    1    2    0    0  0.00000000000E+00  0.00000000000E+00  0.77162539463E+03  0.12640523475E+04  0.10012105610E+04 0.  0.
        4    1    3    3  502    0 -0.31388854283E+03 -0.15545983422E+03 -0.65723241542E+02  0.35639154697E+03  0.12699999809E+01 0.  1.
       -4    1    3    3    0  502  0.31388854283E+03  0.15545983422E+03  0.83734863617E+03  0.90766080050E+03  0.12699999809E+01 0. -1.
</event>
<event>
 5   0  0.5758786E-04  0.9945391E+03  0.7818609E-02  0.9314555E-01
       -1   -1    0    0    0  501  0.00000000000E+00  0.00000000000E+00  0.33507839048E+03  0.33507839051E+03  0.50400001928E-02 0.  1.
        1   -1    0    0  501    0  0.00000000000E+00  0.00000000000E+00 -0.73796763279E+03  0.73796763281E+03  0.50400001928E-02 0. -1.
    10030    2    1    2    0    0  0.00000000000E+00  0.00000000000E+00 -0.40288924231E+03  0.10730460233E+04  0.99453910260E+03 0.  0.
        3    1    3    3  502    0  0.24932591781E+03 -0.19625086516E+03 -0.61455133999E+03  0.69162936249E+03  0.10100000352E+00 0. -1.
       -3    1    3    3    0  502 -0.24932591781E+03  0.19625086516E+03  0.21166209768E+03  0.38141666084E+03  0.10100000352E+00 0.  1.
</event>
<event>
 5   0  0.5960102E-04  0.9963471E+03  0.7818609E-02  0.9312560E-01
        1   -1    0    0  501    0  0.00000000000E+00  0.00000000000E+00  0.12200704736E+04  0.12200704736E+04  0.50400001928E-02 0.  1.
       -1   -1    0    0    0  501  0.00000000000E+00  0.00000000000E+00 -0.20341192284E+03  0.20341192290E+03  0.50400001928E-02 0. -1.
    10030    2    1    2    0    0  0.00000000000E+00  0.00000000000E+00  0.10166585508E+04  0.14234823965E+04  0.99634709031E+03 0.  0.
        5    1    3    3  502    0 -0.39091481787E+03  0.30721047819E+03  0.46401377129E+03  0.68009083414E+03  0.46999998093E+01 0. -1.
       -5    1    3    3    0  502  0.39091481787E+03 -0.30721047819E+03  0.55264477950E+03  0.74339156240E+03  0.46999998093E+01 0.  1.
</event>
<event>
 5   0  0.5768102E-04  0.1000901E+04  0.7818609E-02  0.9307557E-01
       -1   -1    0    0    0  501  0.00000000000E+00  0.00000000000E+00  0.88222260766E+03  0.88222260767E+03  0.50400001928E-02 0. -1.
        1   -1    0    0  501    0  0.00000000000E+00  0.00000000000E+00 -0.28388632148E+03  0.28388632153E+03  0.50400001928E-02 0.  1.
    10030    2    1    2    0    0  0.00000000000E+00  0.00000000000E+00  0.59833628617E+03  0.11661089292E+04  0.10009014554E+04 0.  0.
        4    1    3    3  502    0  0.18664684584E+03 -0.18528167144E+03  0.79521912097E+03  0.83758068632E+03  0.12699999809E+01 0. -1.
       -4    1    3    3    0  502 -0.18664684584E+03  0.18528167144E+03 -0.19688283480E+03  0.32852824288E+03  0.12699999809E+01 0.  1.
</event>
<event>
 5   0  0.1006006E-03  0.1002066E+04  0.7818609E-02  0.9306282E-01
        2   -1    0    0  501    0  0.00000000000E+00  0.00000000000E+00  0.88679107817E+03  0.88679107817E+03  0.25500000920E-02 0. -1.
       -2   -1    0    0    0  501  0.00000000000E+00  0.00000000000E+00 -0.28308152499E+03  0.28308152500E+03  0.25500000920E-02 0.  1.
    10030    2    1    2    0    0  0.00000000000E+00  0.00000000000E+00  0.60370955318E+03  0.11698726032E+04  0.10020662069E+04 0.  0.
        2    1    3    3  502    0  0.80665685277E+02 -0.38202076329E+03 -0.64711712725E+02  0.39577066862E+03  0.25500000920E-02 0.  1.
       -2    1    3    3    0  502 -0.80665685277E+02  0.38202076329E+03  0.66842126590E+03  0.77410193456E+03  0.25500000920E-02 0. -1.
</event>
<event>
 5   0  0.3854625E-04  0.9994155E+03  0.7818609E-02  0.9309186E-01
        3   -1    0    0  501    0  0.00000000000E+00  0.00000000000E+00  0.77812346897E+03  0.77812347553E+03  0.10100000352E+00 0. -1.
       -3   -1    0    0    0  501  0.00000000000E+00  0.00000000000E+00 -0.32091029927E+03  0.32091031517E+03  0.10100000352E+00 0.  1.
    10030    2    1    2    0    0  0.00000000000E+00  0.00000000000E+00  0.45721316970E+03  0.10990337907E+04  0.99941552446E+03 0.  0.
        3    1    3    3  502    0  0.23870176750E+03  0.12076498140E+03 -0.23553654086E+03  0.35642697264E+03  0.10100000352E+00 0.  1.
       -3    1    3    3    0  502 -0.23870176750E+03 -0.12076498140E+03  0.69274971056E+03  0.74260681806E+03  0.10100000352E+00 0. -1.
</event>
<event>
 5   0  0.9674819E-04  0.1013520E+04  0.7818609E-02  0.9293840E-01
        2   -1    0    0  501    0  0.00000000000E+00  0.00000000000E+00  0.38061717973E+03  0.38061717974E+03  0.25500000920E-02 0.  1.
       -2   -1    0    0    0  501  0.00000000000E+00  0.00000000000E+00 -0.67470823862E+03  0.67470823862E+03  0.25500000920E-02 0. -1.
    10030    2    1    2    0    0  0.00000000000E+00  0.00000000000E+00 -0.29409105889E+03  0.10553254184E+04  0.10135197027E+04 0.  0.
        4    1    3    3  502    0  0.41923217979E+02 -0.49709533515E+03 -0.54248152223E+02  0.50180255415E+03  0.12699999809E+01 0.  1.
       -4    1    3    3    0  502 -0.41923217979E+02  0.49709533515E+03 -0.23984290666E+03  0.55352286421E+03  0.12699999809E+01 0. -1.
</event>
<event>
 5   0  0.9674819E-04  0.1000020E+04  0.7818609E-02  0.9308523E-01
        2   -1    0    0  501    0  0.00000000000E+00  0.00000000000E+00  0.15663516563E+04  0.15663516563E+04  0.25500000920E-02 0. -1.
       -2   -1    0    0    0  501  0.00000000000E+00  0.00000000000E+00 -0.15961281355E+03  0.15961281357E+03  0.25500000920E-02 0.  1.
    10030    2    1    2    0    0  0.00000000000E+00  0.00000000000E+00  0.14067388428E+04  0.17259644699E+04  0.10000195896E+04 0.  0.
        4    1    3    3  502    0 -0.32142647775E+03  0.25772454616E+02  0.13629120525E+04  0.14005392090E+04  0.12699999809E+01 0. -1.
       -4    1    3    3    0  502  0.32142647775E+03 -0.25772454616E+02  0.43826790255E+02  0.32542526094E+03  0.12699999809E+01 0.  1.
</event>
<event>
 5   0  0.5768102E-04  0.9999110E+03  0.7818609E-02  0.9308642E-01
        1   -1    0    0  501    0  0.00000000000E+00  0.00000000000E+00  0.63617954803E+03  0.63617954805E+03  0.50400001928E-02 0.  1.
       -1   -1    0    0    0  501  0.00000000000E+00  0.00000000000E+00 -0.39290085174E+03  0.39290085178E+03  0.50400001928E-02 0. -1.
    10030    2    1    2    0    0  0.00000000000E+00  0.00000000000E+00  0.24327869629E+03  0.10290803998E+04  0.99991096865E+03 0.  0.
        4    1    3    3  502    0 -0.21527754687E+03 -0.27299978041E+03 -0.24811936209E+03  0.42712777132E+03  0.12699999809E+01 0. -1.
       -4    1    3    3    0  502  0.21527754687E+03  0.27299978041E+03  0.49139805837E+03  0.60195262850E+03  0.12699999809E+01 0.  1.
</event>
<event>
 5   0  0.1006006E-03  0.9978895E+03  0.7818609E-02  0.9310863E-01
        2   -1    0    0  501    0  0.00000000000E+00  0.00000000000E+00  0.52985671772E+03  0.52985671772E+03  0.25500000920E-02 0.  1.
       -2   -1    0    0    0  501  0.00000000000E+00  0.00000000000E+00 -0.46983619384E+03  0.46983619384E+03  0.25500000920E-02 0. -1.
    10030    2    1    2    0    0  0.00000000000E+00  0.00000000000E+00  0.60020523882E+02  0.99969291157E+03  0.99788949997E+03 0.  0.
        2    1    3    3  502    0 -0.71393281714E+02  0.21474403741E+03 -0.41546611960E+03  0.47310051662E+03  0.25500000920E-02 0. -1.
       -2    1    3    3    0  502  0.71393281714E+02 -0.21474403741E+03  0.47548664348E+03  0.52659239495E+03  0.25500000920E-02 0.  1.
</event>
<event>
 5   0  0.9674819E-04  0.9982148E+03  0.7818609E-02  0.9310505E-01
       -2   -1    0    0    0  501  0.00000000000E+00  0.00000000000E+00  0.41971221861E+03  0.41971221862E+03  0.25500000920E-02 0.  1.
        2   -1    0    0  501    0  0.00000000000E+00  0.00000000000E+00 -0.59352141303E+03  0.59352141304E+03  0.25500000920E-02 0. -1.
    10030    2    1    2    0    0  0.00000000000E+00  0.00000000000E+00 -0.17380919442E+03  0.10132336317E+04  0.99821478463E+03 0.  0.
        4    1    3    3  502    0 -0.41722235288E+03  0.82542575358E+02 -0.35202164862E+03  0.55209475862E+03  0.12699999809E+01 0.  1.
       -4    1    3    3    0  502  0.41722235288E+03 -0.82542575358E+02  0.17821245420E+03  0.46113887304E+03  0.12699999809E+01 0. -1.
</event>
<event>
 5   0  0.1020150E-03  0.9986294E+03  0.7818609E-02  0.9310049E-01
        2   -1    0    0  501    0  0.00000000000E+00  0.00000000000E+00  0.11886357879E+04  0.11886357879E+04  0.25500000920E-02 0.  1.
       -2   -1    0    0    0  501  0.00000000000E+00  0.00000000000E+00 -0.20974900244E+03  0.20974900246E+03  0.25500000920E-02 0. -1.
    10030    2    1    2    0    0  0.00000000000E+00  0.00000000000E+00  0.97888678547E+03  0.13983847904E+04  0.99862940231E+03 0.  0.
        5    1    3    3  502    0 -0.15067057023E+03  0.46808070815E+03  0.36823892198E+03  0.61434775473E+03  0.46999998093E+01 0. -1.
       -5    1    3    3    0  502  0.15067057023E+03 -0.46808070815E+03  0.61064786349E+03  0.78403703565E+03  0.46999998093E+01 0.  1.
</event>
<event>
 5   0  0.3854625E-04  0.1000328E+04  0.7818609E-02  0.9308185E-01
        4   -1    0    0  501    0  0.00000000000E+00  0.00000000000E+00  0.15291257467E+04  0.15291262741E+04  0.12699999809E+01 0. -1.
       -4   -1    0    0    0  501  0.00000000000E+00  0.00000000000E+00 -0.16359651651E+03  0.16360144595E+03  0.12699999809E+01 0.  1.
    10030    2    1    2    0    0  0.00000000000E+00  0.00000000000E+00  0.13655292302E+04  0.16927277201E+04  0.10003284739E+04 0.  0.
        4    1    3    3  502    0  0.46199203227E+03  0.99837017190E+02  0.40595827557E+03  0.62306324100E+03  0.12699999809E+01 0.  1.
       -4    1    3    3    0  502 -0.46199203227E+03 -0.99837017190E+02  0.95957095466E+03  0.10696644791E+04  0.12699999809E+01 0. -1.
</event>
<event>
 5   0  0.1020150E-03  0.1001956E+04  0.7818609E-02  0.9306402E-01
        2   -1    0    0  501    0  0.00000000000E+00  0.00000000000E+00  0.14899508067E+04  0.14899508067E+04  0.25500000920E-02 0.  1.
       -2   -1    0    0    0  501  0.00000000000E+00  0.00000000000E+00 -0.16844784992E+03  0.16844784994E+03  0.25500000920E-02 0. -1.
    10030    2    1    2    0    0  0.00000000000E+00  0.00000000000E+00  0.13215029568E+04  0.16583986566E+04  0.10019561066E+04 0.  0.
        5    1    3    3  502    0  0.24434077659E+03  0.37647391303E+03  0.10290829937E+04  0.11227060702E+04  0.46999998093E+01 0.  1.
       -5    1    3    3    0  502 -0.24434077659E+03 -0.37647391303E+03  0.29241996312E+03  0.53569258641E+03  0.46999998093E+01 0. -1.
</event>
<event>
 5   0  0.5960102E-04  0.9987773E+03  0.7818609E-02  0.9309887E-01
        1   -1    0    0  501    0  0.00000000000E+00  0.00000000000E+00  0.14139098906E+04  0.14139098906E+04  0.50400001928E-02 0.  1.
       -1   -1    0    0    0  501  0.00000000000E+00  0.00000000000E+00 -0.17638255785E+03  0.17638255792E+03  0.50400001928E-02 0. -1.
    10030    2    1    2    0    0  0.00000000000E+00  0.00000000000E+00  0.12375273327E+04  0.15902924485E+04  0.99877733882E+03 0.  0.
        5    1    3    3  502    0  0.26944577393E+03  0.13221963322E+03 -0.16705162539E+02  0.30063966629E+03  0.46999998093E+01 0. -1.
       -5    1    3    3    0  502 -0.26944577393E+03 -0.13221963322E+03  0.12542324953E+04  0.12896527822E+04  0.46999998093E+01 0.  1.
</event>
<event>
 5   0  0.5888774E-04  0.1000412E+04  0.7818609E-02  0.9308093E-01
        1   -1    0    0  501    0  0.00000000000E+00  0.00000000000E+00  0.52168583454E+03  0.52168583456E+03  0.50400001928E-02 0.  1.
       -1   -1    0    0    0  501  0.00000000000E+00  0.00000000000E+00 -0.47961095788E+03  0.47961095790E+03  0.50400001928E-02 0. -1.
    10030    2    1    2    0    0  0.00000000000E+00  0.00000000000E+00  0.42074876659E+02  0.10012967925E+04  0.10004124006E+04 0.  0.
        2    1    3    3  502    0 -0.43941148002E+02  0.44881910182E+02 -0.47564820457E+03  0.47977747432E+03  0.25500000920E-02 0. -1.
       -2    1    3    3    0  502  0.43941148002E+02 -0.44881910182E+02  0.51772308123E+03  0.52151931814E+03  0.25500000920E-02 0.  1.
</event>
<event>
 5   0  0.1006749E-03  0.9986512E+03  0.7818609E-02  0.9310025E-01
        2   -1    0    0  501    0  0.00000000000E+00  0.00000000000E+00  0.82245293780E+03  0.82245293781E+03  0.25500000920E-02 0. -1.
       -2   -1    0    0    0  501  0.00000000000E+00  0.00000000000E+00 -0.30314931632E+03  0.30314931633E+03  0.25500000920E-02 0.  1.
    10030    2    1    2    0    0  0.00000000000E+00  0.00000000000E+00  0.51930362148E+03  0.11256022541E+04  0.99865118196E+03 0.  0.
        1    1    3    3  502    0  0.37958291879E+03  0.26293565891E+03  0.45475712089E+02  0.46398964792E+03  0.50400001928E-02 0. -1.
       -1    1    3    3    0  502 -0.37958291879E+03 -0.26293565891E+03  0.47382790939E+03  0.66161260622E+03  0.50400001928E-02 0.  1.
</event>
<event>
 5   0  0.5768102E-04  0.9979893E+03  0.7818609E-02  0.9310753E-01
       -1   -1    0    0    0  501  0.00000000000E+00  0.00000000000E+00  0.89426578019E+03  0.89426578021E+03  0.50400001928E-02 0.  1.
        1   -1    0    0  501    0  0.00000000000E+00  0.00000000000E+00 -0.27843588518E+03  0.27843588522E+03  0.50400001928E-02 0. -1.
    10030    2    1    2    0    0  0.00000000000E+00  0.00000000000E+00  0.61582989501E+03  0.11727016654E+04  0.99798934689E+03 0.  0.
        4    1    3    3  502    0  0.11827146003E+03  0.41493544820E+03  0.13363784544E+02  0.43167090251E+03  0.12699999809E+01 0.  1.
       -4    1    3    3    0  502 -0.11827146003E+03 -0.41493544820E+03  0.60246611047E+03  0.74103076292E+03  0.12699999809E+01 0. -1.
</event>
<event>
 5   0  0.9741826E-04  0.9994993E+03  0.7818609E-02  0.9309094E-01
       -2   -1    0    0    0  501  0.00000000000E+00  0.00000000000E+00  0.31561101477E+03  0.31561101478E+03  0.25500000920E-02 0. -1.
        2   -1    0    0  501    0  0.00000000000E+00  0.00000000000E+00 -0.79132126181E+03  0.79132126182E+03  0.25500000920E-02 0.  1.
    10030    2    1    2    0    0  0.00000000000E+00  0.00000000000E+00 -0.47571024704E+03  0.11069322766E+04  0.99949928757E+03 0.  0.
        3    1    3    3  502    0  0.41204033512E+03  0.21839166357E+03 -0.38884585331E+02  0.46795745283E+03  0.10100000352E+00 0. -1.
       -3    1    3    3    0  502 -0.41204033512E+03 -0.21839166357E+03 -0.43682566171E+03  0.63897482377E+03  0.10100000352E+00 0.  1.
</event>
<event>
 5   0  0.5960102E-04  0.1001187E+04  0.7818609E-02  0.9307244E-01
        1   -1    0    0  501    0  0.00000000000E+00  0.00000000000E+00  0.54822015315E+03  0.54822015318E+03  0.50400001928E-02 0.  1.
       -1   -1    0    0    0  501  0.00000000000E+00  0.00000000000E+00 -0.45710451323E+03  0.45710451326E+03  0.50400001928E-02 0. -1.
    10030    2    1    2    0    0  0.00000000000E+00  0.00000000000E+00  0.91115639924E+02  0.10053246664E+04  0.10011871079E+04 0.  0.
        5    1    3    3  502    0  0.39043013435E+02 -0.13380267992E+03 -0.43720374447E+03  0.45890818061E+03  0.46999998093E+01 0. -1.
       -5    1    3    3    0  502 -0.39043013435E+02  0.13380267992E+03  0.52831938439E+03  0.54641648582E+03  0.46999998093E+01 0.  1.
</event>
<event>
 5   0  0.5758786E-04  0.1001074E+04  0.7818609E-02  0.9307368E-01
        1   -1    0    0  501    0  0.00000000000E+00  0.00000000000E+00  0.21823074839E+03  0.21823074844E+03  0.50400001928E-02 0.  1.
       -1   -1    0    0    0  501  0.00000000000E+00  0.00000000000E+00 -0.11480386960E+04  0.11480386960E+04  0.50400001928E-02 0. -1.
    10030    2    1    2    0    0  0.00000000000E+00  0.00000000000E+00 -0.92980794764E+03  0.13662694445E+04  0.10010741109E+04 0.  0.
        3    1    3    3  502    0  0.18356506084E+03  0.58014492623E+02 -0.10954897445E+04  0.11122767656E+04  0.10100000352E+00 0. -1.
       -3    1    3    3    0  502 -0.18356506084E+03 -0.58014492623E+02  0.16568179682E+03  0.25399267886E+03  0.10100000352E+00 0.  1.
</event>
<event>
 5   0  0.3854625E-04  0.9997984E+03  0.7818609E-02  0.9308766E-01
       -3   -1    0    0    0  501  0.00000000000E+00  0.00000000000E+00  0.18199539149E+03  0.18199541952E+03  0.10100000352E+00 0. -1.
        3   -1    0    0  501    0  0.00000000000E+00  0.00000000000E+00 -0.13731071330E+04  0.13731071367E+04  0.10100000352E+00 0.  1.
    10030    2    1    2    0    0  0.00000000000E+00  0.00000000000E+00 -0.11911117415E+04  0.15551025562E+04  0.99979836949E+03 0.  0.
        2    1    3    3  502    0 -0.48874534813E+01  0.36122376115E+03 -0.58109045632E+02  0.36590047009E+03  0.25500000920E-02 0. -1.
       -2    1    3    3    0  502  0.48874534813E+01 -0.36122376115E+03 -0.11330026959E+04  0.11892020861E+04  0.25500000920E-02 0.  1.
</event>
<event>
 5   0  0.1006006E-03  0.9959885E+03  0.7818609E-02  0.9312956E-01
        2   -1    0    0  501    0  0.00000000000E+00  0.00000000000E+00  0.10956974204E+04  0.10956974204E+04  0.25500000920E-02 0. -1.
       -2   -1    0    0    0  501  0.00000000000E+00  0.00000000000E+00 -0.22633826332E+03  0.22633826333E+03  0.25500000920E-02 0.  1.
    10030    2    1    2    0    0  0.00000000000E+00  0.00000000000E+00  0.86935915711E+03  0.13220356838E+04  0.99598845630E+03 0.  0.
        2    1    3    3  502    0 -0.56033762398E+02 -0.26445059057E+03 -0.12047510988E+03  0.29595295148E+03  0.25500000920E-02 0.  1.
       -2    1    3    3    0  502  0.56033762398E+02  0.26445059057E+03  0.98983426699E+03  0.10260827323E+04  0.25500000920E-02 0. -1.
</event>
<event>
 5   0  0.1020150E-03  0.1001442E+04  0.7818609E-02  0.9306964E-01
        2   -1    0    0  501    0  0.00000000000E+00  0.00000000000E+00  0.14995642040E+04  0.14995642040E+04  0.25500000920E-02 0.  1.
       -2   -1    0    0    0  501  0.00000000000E+00  0.00000000000E+00 -0.16719636015E+03  0.16719636017E+03  0.25500000920E-02 0. -1.
    10030    2    1    2    0    0  0.00000000000E+00  0.00000000000E+00  0.13323678439E+04  0.16667605642E+04  0.10014423134E+04 0.  0.
        5    1    3    3  502    0  0.35794317578E+03 -0.34634688062E+03  0.75137750239E+03  0.90148195761E+03  0.46999998093E+01 0.  1.
       -5    1    3    3    0  502 -0.35794317578E+03  0.34634688062E+03  0.58099034148E+03  0.76527860658E+03  0.46999998093E+01 0. -1.
</event>
<event>
 5   0  0.5768102E-04  0.9993512E+03  0.7818609E-02  0.9309257E-01
        1   -1    0    0  501    0  0.00000000000E+00  0.00000000000E+00  0.90844253552E+03  0.90844253553E+03  0.50400001928E-02 0.  1.
       -1   -1    0    0    0  501  0.00000000000E+00  0.00000000000E+00 -0.27483929737E+03  0.27483929742E+03  0.50400001928E-02 0. -1.
    10030    2    1    2    0    0  0.00000000000E+00  0.00000000000E+00  0.63360323815E+03  0.11832818330E+04  0.99935120594E+03 0.  0.
        4    1    3    3  502    0 -0.23416882689E+03 -0.24971060153E+03  0.74777578036E+03  0.82241148740E+03  0.12699999809E+01 0.  1.
       -4    1    3    3    0  502  0.23416882689E+03  0.24971060153E+03 -0.11417254222E+03  0.36087034556E+03  0.12699999809E+01 0. -1.
</event>
<event>
 5   0  0.9674819E-04  0.9907116E+03  0.7818609E-02  0.9318791E-01
       -2   -1    0    0    0  501  0.00000000000E+00  0.00000000000E+00  0.98343652776E+02  0.98343652809E+02  0.25500000920E-02 0. -1.
        2   -1    0    0  501    0  0.00000000000E+00  0.00000000000E+00 -0.24951013324E+04  0.24951013324E+04  0.25500000920E-02 0.  1.
    10030    2    1    2    0    0  0.00000000000E+00  0.00000000000E+00 -0.23967576797E+04  0.25934449853E+04  0.99071162126E+03 0.  0.
        4    1    3    3  502    0 -0.25961229837E+03  0.23820096133E+03 -0.21098612863E+04  0.21390779564E+04  0.12699999809E+01 0.  1.
       -4    1    3    3    0  502  0.25961229837E+03 -0.23820096133E+03 -0.28689639338E+03  0.45436702882E+03  0.12699999809E+01 0. -1.
</event>
<event>
 5   0  0.5960102E-04  0.9995273E+03  0.7818609E-02  0.9309063E-01
        1   -1    0    0  501    0  0.00000000000E+00  0.00000000000E+00  0.50660303002E+03  0.50660303004E+03  0.50400001928E-02 0. -1.
       -1   -1    0    0    0  501  0.00000000000E+00  0.00000000000E+00 -0.49301661183E+03  0.49301661186E+03  0.50400001928E-02 0.  1.
    10030    2    1    2    0    0  0.00000000000E+00  0.00000000000E+00  0.13586418188E+02  0.99961964190E+03  0.99952730714E+03 0.  0.
        5    1    3    3  502    0  0.45065206358E+02 -0.49763780550E+03  0.15001350549E+02  0.49992138263E+03  0.46999998093E+01 0. -1.
       -5    1    3    3    0  502 -0.45065206358E+02  0.49763780550E+03 -0.14149323609E+01  0.49969825927E+03  0.46999998093E+01 0.  1.
</event>
<event>
 5   0  0.1006006E-03  0.9988106E+03  0.7818609E-02  0.9309850E-01
        2   -1    0    0  501    0  0.00000000000E+00  0.00000000000E+00  0.11284495640E+04  0.11284495640E+04  0.25500000920E-02 0. -1.
       -2   -1    0    0    0  501  0.00000000000E+00  0.00000000000E+00 -0.22101620267E+03  0.22101620268E+03  0.25500000920E-02 0.  1.
    10030    2    1    2    0    0  0.00000000000E+00  0.00000000000E+00  0.90743336131E+03  0.13494657667E+04  0.99881056771E+03 0.  0.
        2    1    3    3  502    0  0.19605393041E+03  0.40376530949E+03  0.15789014451E+03  0.47580759401E+03  0.25500000920E-02 0.  1.
       -2    1    3    3    0  502 -0.19605393041E+03 -0.40376530949E+03  0.74954321681E+03  0.87365817265E+03  0.25500000920E-02 0. -1.
</event>
<event>
 5   0  0.9741826E-04  0.9996240E+03  0.7818609E-02  0.9308957E-01
       -2   -1    0    0    0  501  0.00000000000E+00  0.00000000000E+00  0.13827709802E+04  0.13827709802E+04  0.25500000920E-02 0. -1.
        2   -1    0    0  501    0  0.00000000000E+00  0.00000000000E+00 -0.18066046184E+03  0.18066046186E+03  0.25500000920E-02 0.  1.
    10030    2    1    2    0    0  0.00000000000E+00  0.00000000000E+00  0.12021105183E+04  0.15634314420E+04  0.99962401715E+03 0.  0.
        3    1    3    3  502    0  0.19184413267E+03 -0.43358587154E+03  0.84840361562E+03  0.97189998685E+03  0.10100000352E+00 0.  1.
       -3    1    3    3    0  502 -0.19184413267E+03  0.43358587154E+03  0.35370690271E+03  0.59153145518E+03  0.10100000352E+00 0. -1.
</event>
<event>
 5   0  0.5888774E-04  0.9995230E+03  0.7818609E-02  0.9309068E-01
       -1   -1    0    0    0  501  0.00000000000E+00  0.00000000000E+00  0.23717369526E+03  0.23717369531E+03  0.50400001928E-02 0. -1.
        1   -1    0    0  501    0  0.00000000000E+00  0.00000000000E+00 -0.10530744597E+04  0.10530744597E+04  0.50400001928E-02 0.  1.
    10030    2    1    2    0    0  0.00000000000E+00  0.00000000000E+00 -0.81590076444E+03  0.12902481550E+04  0.99952300831E+03 0.  0.
        2    1    3    3  502    0 -0.28370342547E+03  0.19478353804E+03  0.59857872211E+02  0.34930105237E+03  0.25500000920E-02 0. -1.
       -2    1    3    3    0  502  0.28370342547E+03 -0.19478353804E+03 -0.87575863665E+03  0.94094710266E+03  0.25500000920E-02 0.  1.
</event>
<event>
 5   0  0.5960102E-04  0.9993706E+03  0.7818609E-02  0.9309235E-01
       -1   -1    0    0    0  501  0.00000000000E+00  0.00000000000E+00  0.82326209048E+03  0.82326209050E+03  0.50400001928E-02 0. -1.
        1   -1    0    0  501    0  0.00000000000E+00  0.00000000000E+00 -0.30328785426E+03  0.30328785430E+03  0.50400001928E-02 0.  1.
    10030    2    1    2    0    0  0.00000000000E+00  0.00000000000E+00  0.51997423623E+03  0.11265499448E+04  0.99937058781E+03 0.  0.
        5    1    3    3  502    0  0.17475757381E+03  0.44352822741E+03  0.42872172394E+03  0.64115669277E+03  0.46999998093E+01 0. -1.
       -5    1    3    3    0  502 -0.17475757381E+03 -0.44352822741E+03  0.91252512287E+02  0.48539325202E+03  0.46999998093E+01 0.  1.
</event>
<event>
 5   0  0.9741826E-04  0.9765582E+03  0.7818609E-02  0.9334636E-01
        2   -1    0    0  501    0  0.00000000000E+00  0.00000000000E+00  0.12254570280E+04  0.12254570280E+04  0.25500000920E-02 0.  1.
       -2   -1    0    0    0  501  0.00000000000E+00  0.00000000000E+00 -0.19455309471E+03  0.19455309473E+03  0.25500000920E-02 0. -1.
    10030    2    1    2    0    0  0.00000000000E+00  0.00000000000E+00  0.10309039333E+04  0.14200101227E+04  0.97655815444E+03 0.  0.
        3    1    3    3  502    0 -0.28104131891E+03 -0.19628060291E+03  0.10210641426E+04  0.10770711636E+04  0.10100000352E+00 0.  1.
       -3    1    3    3    0  502  0.28104131891E+03  0.19628060291E+03  0.98397907233E+01  0.34293895914E+03  0.10100000352E+00 0. -1.
</event>
<event>
 5   0  0.9741826E-04  0.9876710E+03  0.7818609E-02  0.9322171E-01
        2   -1    0    0  501    0  0.00000000000E+00  0.00000000000E+00  0.61817769811E+03  0.61817769812E+03  0.25500000920E-02 0. -1.
       -2   -1    0    0    0  501  0.00000000000E+00  0.00000000000E+00 -0.39450385687E+03  0.39450385688E+03  0.25500000920E-02 0.  1.
    10030    2    1    2    0    0  0.00000000000E+00  0.00000000000E+00  0.22367384124E+03  0.10126815550E+04  0.98767096980E+03 0.  0.
        3    1    3    3  502    0 -0.13059058393E+03 -0.40420101788E+03 -0.14641645440E+03  0.44929962363E+03  0.10100000352E+00 0.  1.
       -3    1    3    3    0  502  0.13059058393E+03  0.40420101788E+03  0.37009029564E+03  0.56338193137E+03  0.10100000352E+00 0. -1.
</event>
<event>
 5   0  0.1006006E-03  0.9946643E+03  0.7818609E-02  0.9314416E-01
       -2   -1    0    0    0  501  0.00000000000E+00  0.00000000000E+00  0.29653729659E+03  0.29653729660E+03  0.25500000920E-02 0.  1.
        2   -1    0    0  501    0  0.00000000000E+00  0.00000000000E+00 -0.83409157594E+03  0.83409157595E+03  0.25500000920E-02 0. -1.
    10030    2    1    2    0    0  0.00000000000E+00  0.00000000000E+00 -0.53755427935E+03  0.11306288726E+04  0.99466428718E+03 0.  0.
        2    1    3    3  502    0 -0.78709956050E+02  0.32893383687E+02 -0.82571312893E+03  0.83010806717E+03  0.25500000920E-02 0. -1.
       -2    1    3    3    0  502  0.78709956050E+02 -0.32893383687E+02  0.28815884958E+03  0.30052080539E+03  0.25500000920E-02 0.  1.
</event>
<event>
 5   0  0.5826939E-04  0.1000955E+04  0.7818609E-02  0.9307498E-01
       -1   -1    0    0    0  501  0.00000000000E+00  0.00000000000E+00  0.33822592795E+03  0.33822592799E+03  0.50400001928E-02 0. -1.
        1   -1    0    0  501    0  0.00000000000E+00  0.00000000000E+00 -0.74056349789E+03  0.74056349790E+03  0.50400001928E-02 0.  1.
    10030    2    1    2    0    0  0.00000000000E+00  0.00000000000E+00 -0.40233756994E+03  0.10787894259E+04  0.10009550965E+04 0.  0.
        1    1    3    3  502    0 -0.35372631696E+03  0.61245680068E+02 -0.57700341481E+03  0.67956330196E+03  0.50400001928E-02 0.  1.
       -1    1    3    3    0  502  0.35372631696E+03 -0.61245680068E+02  0.17466584488E+03  0.39922612393E+03  0.50400001928E-02 0. -1.
</event>
<event>
 5   0  0.9674819E-04  0.1001006E+04  0.7818609E-02  0.9307442E-01
       -2   -1    0    0    0  501  0.00000000000E+00  0.00000000000E+00  0.21264360152E+03  0.21264360154E+03  0.25500000920E-02 0. -1.
        2   -1    0    0  501    0  0.00000000000E+00  0.00000000000E+00 -0.11780432788E+04  0.11780432788E+04  0.25500000920E-02 0.  1.
    10030    2    1    2    0    0  0.00000000000E+00  0.00000000000E+00 -0.96539967729E+03  0.13906868804E+04  0.10010062249E+04 0.  0.
        4    1    3    3  502    0  0.43004743701E+03 -0.11787809117E+01 -0.12697793217E+03  0.44840516920E+03  0.12699999809E+01 0. -1.
       -4    1    3    3    0  502 -0.43004743701E+03  0.11787809117E+01 -0.83842174511E+03  0.94228171116E+03  0.12699999809E+01 0.  1.
</event>
<event>
 5   0  0.9741826E-04  0.1007885E+04  0.7818609E-02  0.9299938E-01
       -2   -1    0    0    0  501  0.00000000000E+00  0.00000000000E+00  0.18284436892E+03  0.18284436894E+03  0.25500000920E-02 0. -1.
        2   -1    0    0  501    0  0.00000000000E+00  0.00000000000E+00 -0.13889306687E+04  0.13889306687E+04  0.25500000920E-02 0.  1.
    10030    2    1    2    0    0  0.00000000000E+00  0.00000000000E+00 -0.12060862998E+04  0.15717750377E+04  0.10078852149E+04 0.  0.
        3    1    3    3  502    0 -0.20587883558E+03  0.20852625407E+03 -0.12424080092E+04  0.12764979299E+04  0.10100000352E+00 0.  1.
       -3    1    3    3    0  502  0.20587883558E+03 -0.20852625407E+03  0.36321709401E+02  0.29527710773E+03  0.10100000352E+00 0. -1.
</event>
<event>
 5   0  0.5888774E-04  0.9993300E+03  0.7818609E-02  0.9309280E-01
       -1   -1    0    0    0  501  0.00000000000E+00  0.00000000000E+00  0.30213270077E+03  0.30213270081E+03  0.50400001928E-02 0. -1.
        1   -1    0    0  501    0  0.00000000000E+00  0.00000000000E+00 -0.82634249444E+03  0.82634249445E+03  0.50400001928E-02 0.  1.
    10030    2    1    2    0    0  0.00000000000E+00  0.00000000000E+00 -0.52420979367E+03  0.11284751953E+04  0.99932995479E+03 0.  0.
        2    1    3    3  502    0  0.48822025072E+03 -0.60403119404E+01 -0.38198226240E+03  0.61992414647E+03  0.25500000920E-02 0.  1.
       -2    1    3    3    0  502 -0.48822025072E+03  0.60403119404E+01 -0.14222753127E+03  0.50855104880E+03  0.25500000920E-02 0. -1.
</event>
<event>
 5   0  0.5826939E-04  0.1000197E+04  0.7818609E-02  0.9308329E-01
        1   -1    0    0  501    0  0.00000000000E+00  0.00000000000E+00  0.38609660186E+03  0.38609660189E+03  0.50400001928E-02 0. -1.
       -1   -1    0    0    0  501  0.00000000000E+00  0.00000000000E+00 -0.64776177751E+03  0.64776177753E+03  0.50400001928E-02 0.  1.
    10030    2    1    2    0    0  0.00000000000E+00  0.00000000000E+00 -0.26166517565E+03  0.10338583794E+04  0.10001972228E+04 0.  0.
        1    1    3    3  502    0  0.20210371805E+03 -0.21971685837E+03  0.28388992026E+03  0.41196467998E+03  0.50400001928E-02 0. -1.
       -1    1    3    3    0  502 -0.20210371805E+03  0.21971685837E+03 -0.54555509591E+03  0.62189369944E+03  0.50400001928E-02 0.  1.
</event>
<event>
 5   0  0.1006749E-03  0.1001474E+04  0.7818609E-02  0.9306929E-01
       -2   -1    0    0    0  501  0.00000000000E+00  0.00000000000E+00  0.41714035782E+03  0.41714035783E+03  0.25500000920E-02 0. -1.
        2   -1    0    0  501    0  0.00000000000E+00  0.00000000000E+00 -0.60108729725E+03  0.60108729726E+03  0.25500000920E-02 0.  1.
    10030    2    1    2    0    0  0.00000000000E+00  0.00000000000E+00 -0.18394693943E+03  0.10182276551E+04  0.10014744535E+04 0.  0.
        1    1    3    3  502    0  0.78103993400E+02 -0.17930727182E+03 -0.56064721113E+03  0.59378163233E+03  0.50400001928E-02 0.  1.
       -1    1    3    3    0  502 -0.78103993400E+02  0.17930727182E+03  0.37670027170E+03  0.42444602276E+03  0.50400001928E-02 0. -1.
</event>
<event>
 5   0  0.5960102E-04  0.1000265E+04  0.7818609E-02  0.9308254E-01
        1   -1    0    0  501    0  0.00000000000E+00  0.00000000000E+00  0.43169945799E+03  0.43169945802E+03  0.50400001928E-02 0.  1.
       -1   -1    0    0    0  501  0.00000000000E+00  0.00000000000E+00 -0.57941387575E+03  0.57941387577E+03  0.50400001928E-02 0. -1.
    10030    2    1    2    0    0  0.00000000000E+00  0.00000000000E+00 -0.14771441775E+03  0.10111133338E+04  0.10002652771E+04 0.  0.
        5    1    3    3  502    0  0.91163365485E+01  0.17910661350E+03 -0.54576958496E+03  0.57449875235E+03  0.46999998093E+01 0. -1.
       -5    1    3    3    0  502 -0.91163365485E+01 -0.17910661350E+03  0.39805516720E+03  0.43661458144E+03  0.46999998093E+01 0.  1.
</event>
<event>
 5   0  0.5768102E-04  0.9991132E+03  0.7818609E-02  0.9309518E-01
       -1   -1    0    0    0  501  0.00000000000E+00  0.00000000000E+00  0.21815021087E+03  0.21815021093E+03  0.50400001928E-02 0.  1.
        1   -1    0    0  501    0  0.00000000000E+00  0.00000000000E+00 -0.11439677157E+04  0.11439677157E+04  0.50400001928E-02 0. -1.
    10030    2    1    2    0    0  0.00000000000E+00  0.00000000000E+00 -0.92581750480E+03  0.13621179266E+04  0.99911320369E+03 0.  0.
        4    1    3    3  502    0 -0.42137503982E+03 -0.10763726745E+03 -0.79800019913E+03  0.90881716326E+03  0.12699999809E+01 0. -1.
       -4    1    3    3    0  502  0.42137503982E+03  0.10763726745E+03 -0.12781730567E+03  0.45330076335E+03  0.12699999809E+01 0.  1.
</event>
<event>
 5   0  0.9741826E-04  0.1000959E+04  0.7818609E-02  0.9307493E-01
       -2   -1    0    0    0  501  0.00000000000E+00  0.00000000000E+00  0.24313952225E+03  0.24313952226E+03  0.25500000920E-02 0. -1.
        2   -1    0    0  501    0  0.00000000000E+00  0.00000000000E+00 -0.10301900715E+04  0.10301900715E+04  0.25500000920E-02 0.  1.
    10030    2    1    2    0    0  0.00000000000E+00  0.00000000000E+00 -0.78705054924E+03  0.12733295938E+04  0.10009593834E+04 0.  0.
        3    1    3    3  502    0  0.12420773509E+03 -0.70329315036E+02 -0.10037481429E+04  0.10138462006E+04  0.10100000352E+00 0.  1.
       -3    1    3    3    0  502 -0.12420773509E+03  0.70329315036E+02  0.21669759365E+03  0.25948339311E+03  0.10100000352E+00 0. -1.
</event>
<event>
 5   0  0.5768102E-04  0.1002353E+04  0.7818609E-02  0.9305968E-01
        1   -1    0    0  501    0  0.00000000000E+00  0.00000000000E+00  0.53209042119E+03  0.53209042121E+03  0.50400001928E-02 0. -1.
       -1   -1    0    0    0  501  0.00000000000E+00  0.00000000000E+00 -0.47205868499E+03  0.47205868502E+03  0.50400001928E-02 0.  1.
    10030    2    1    2    0    0  0.00000000000E+00  0.00000000000E+00  0.60031736197E+02  0.10041491062E+04  0.10023530407E+04 0.  0.
        4    1    3    3  502    0  0.90086603482E+02 -0.11605004111E+02  0.52377428370E+03  0.53159325185E+03  0.12699999809E+01 0. -1.
       -4    1    3    3    0  502 -0.90086603482E+02  0.11605004111E+02 -0.46374254750E+03  0.47255585438E+03  0.12699999809E+01 0.  1.
</event>
<event>
 5   0  0.5826939E-04  0.1009652E+04  0.7818609E-02  0.9298022E-01
       -1   -1    0    0    0  501  0.00000000000E+00  0.00000000000E+00  0.25297488433E+03  0.25297488438E+03  0.50400001928E-02 0.  1.
        1   -1    0    0  501    0  0.00000000000E+00  0.00000000000E+00 -0.10074093291E+04  0.10074093292E+04  0.50400001928E-02 0. -1.
    10030    2    1    2    0    0  0.00000000000E+00  0.00000000000E+00 -0.75443444481E+03  0.12603842135E+04  0.10096519372E+04 0.  0.
        1    1    3    3  502    0  0.90964257996E+02  0.40131409218E+03 -0.74228171275E+03  0.84871057371E+03  0.50400001928E-02 0. -1.
       -1    1    3    3    0  502 -0.90964257996E+02 -0.40131409218E+03 -0.12152732061E+02  0.41167363983E+03  0.50400001928E-02 0.  1.
</event>
<event>
 5   0  0.5888774E-04  0.1015150E+04  0.7818609E-02  0.9292083E-01
        1   -1    0    0  501    0  0.00000000000E+00  0.00000000000E+00  0.16840027679E+04  0.16840027679E+04  0.50400001928E-02 0. -1.
       -1   -1    0    0    0  501  0.00000000000E+00  0.00000000000E+00 -0.15298798452E+03  0.15298798461E+03  0.50400001928E-02 0.  1.
    10030    2    1    2    0    0  0.00000000000E+00  0.00000000000E+00  0.15310147834E+04  0.18369907525E+04  0.10151496234E+04 0.  0.
        2    1    3    3  502    0  0.19689380014E+03 -0.46391755680E+03  0.87476627054E+03  0.10095556924E+04  0.25500000920E-02 0. -1.
       -2    1    3    3    0  502 -0.19689380014E+03  0.46391755680E+03  0.65624851282E+03  0.82743506006E+03  0.25500000920E-02 0.  1.
</event>
<event>
 5   0  0.1006749E-03  0.9886075E+03  0.7818609E-02  0.9321129E-01
        2   -1    0    0  501    0  0.00000000000E+00  0.00000000000E+00  0.10793475848E+04  0.10793475848E+04  0.25500000920E-02 0. -1.
       -2   -1    0    0    0  501  0.00000000000E+00  0.00000000000E+00 -0.22637395422E+03  0.22637395423E+03  0.25500000920E-02 0.  1.
    10030    2    1    2    0    0  0.00000000000E+00  0.00000000000E+00  0.85297363061E+03  0.13057215391E+04  0.98860746663E+03 0.  0.
        1    1    3    3  502    0  0.14871435937E+02  0.88288499062E+02  0.10685489671E+04  0.10722932965E+04  0.50400001928E-02 0. -1.
       -1    1    3    3    0  502 -0.14871435937E+02 -0.88288499062E+02 -0.21557533650E+03  0.23342824252E+03  0.50400001928E-02 0.  1.
</event>
<event>
 5   0  0.3854625E-04  0.1000332E+04  0.7818609E-02  0.9308180E-01
       -3   -1    0    0    0  501  0.00000000000E+00  0.00000000000E+00  0.80218240632E+03  0.80218241268E+03  0.10100000352E+00 0. -1.
        3   -1    0    0  501    0  0.00000000000E+00  0.00000000000E+00 -0.31185701193E+03  0.31185702828E+03  0.10100000352E+00 0.  1.
    10030    2    1    2    0    0  0.00000000000E+00  0.00000000000E+00  0.49032539440E+03  0.11140394410E+04  0.10003323866E+04 0.  0.
        2    1    3    3  502    0 -0.12284925788E+03  0.11471903361E+03 -0.27946161843E+03  0.32611530632E+03  0.25500000920E-02 0.  1.
       -2    1    3    3    0  502  0.12284925788E+03 -0.11471903361E+03  0.76978701282E+03  0.78792413464E+03  0.25500000920E-02 0. -1.
</event>
<event>
 5   0  0.9741826E-04  0.1000927E+04  0.7818609E-02  0.9307529E-01
       -2   -1    0    0    0  501  0.00000000000E+00  0.00000000000E+00  0.44539123234E+03  0.44539123235E+03  0.25500000920E-02 0.  1.
        2   -1    0    0  501    0  0.00000000000E+00  0.00000000000E+00 -0.56234554067E+03  0.56234554067E+03  0.25500000920E-02 0. -1.
    10030    2    1    2    0    0  0.00000000000E+00  0.00000000000E+00 -0.11695430833E+03  0.10077367730E+04  0.10009271170E+04 0.  0.
        3    1    3    3  502    0  0.13121710635E+03  0.47938235862E+03  0.55955195669E+00  0.49701679856E+03  0.10100000352E+00 0. -1.
       -3    1    3    3    0  502 -0.13121710635E+03 -0.47938235862E+03 -0.11751386029E+03  0.51071997446E+03  0.10100000352E+00 0.  1.
</event>
<event>
 5   0  0.1006006E-03  0.1003883E+04  0.7818609E-02  0.9304296E-01
       -2   -1    0    0    0  501  0.00000000000E+00  0.00000000000E+00  0.21216029681E+03  0.21216029682E+03  0.25500000920E-02 0. -1.
        2   -1    0    0  501    0  0.00000000000E+00  0.00000000000E+00 -0.11875228878E+04  0.11875228878E+04  0.25500000920E-02 0.  1.
    10030    2    1    2    0    0  0.00000000000E+00  0.00000000000E+00 -0.97536259096E+03  0.13996831846E+04  0.10038828783E+04 0.  0.
        2    1    3    3  502    0  0.37568116321E+03  0.19912885232E+03 -0.85960529816E+03  0.95901507018E+03  0.25500000920E-02 0. -1.
       -2    1    3    3    0  502 -0.37568116321E+03 -0.19912885232E+03 -0.11575729280E+03  0.44066811441E+03  0.25500000920E-02 0.  1.
</event>
<event>
 5   0  0.9674819E-04  0.9958171E+03  0.7818609E-02  0.9313144E-01
        2   -1    0    0  501    0  0.00000000000E+00  0.00000000000E+00  0.19914033713E+04  0.19914033713E+04  0.25500000920E-02 0. -1.
       -2   -1    0    0    0  501  0.00000000000E+00  0.00000000000E+00 -0.12449156792E+03  0.12449156795E+03  0.25500000920E-02 0.  1.
    10030    2    1    2    0    0  0.00000000000E+00  0.00000000000E+00  0.18669118034E+04  0.21158949393E+04  0.99581710788E+03 0.  0.
        4    1    3    3  502    0 -0.20315730095E+03 -0.16164030602E+03  0.30708686008E+02  0.26142898416E+03  0.12699999809E+01 0.  1.
       -4    1    3    3    0  502  0.20315730095E+03  0.16164030602E+03  0.18362031174E+04  0.18544659551E+04  0.12699999809E+01 0. -1.
</event>
<event>
 5   0  0.9741826E-04  0.9998151E+03  0.7818609E-02  0.9308748E-01
       -2   -1    0    0    0  501  0.00000000000E+00  0.00000000000E+00  0.66200672267E+03  0.66200672268E+03  0.25500000920E-02 0.  1.
        2   -1    0    0  501    0  0.00000000000E+00  0.00000000000E+00 -0.37749999945E+03  0.37749999946E+03  0.25500000920E-02 0. -1.
    10030    2    1    2    0    0  0.00000000000E+00  0.00000000000E+00  0.28450672322E+03  0.10395067221E+04  0.99981505781E+03 0.  0.
        3    1    3    3  502    0  0.39914500973E+03 -0.29261528336E+03  0.21552879554E+03  0.53980840560E+03  0.10100000352E+00 0.  1.
       -3    1    3    3    0  502 -0.39914500973E+03  0.29261528336E+03  0.68977927677E+02  0.49969831654E+03  0.10100000352E+00 0. -1.
</event>
<event>
 5   0  0.5826939E-04  0.1000639E+04  0.7818609E-02  0.9307845E-01
        1   -1    0    0  501    0  0.00000000000E+00  0.00000000000E+00  0.18161828131E+04  0.18161828132E+04  0.50400001928E-02 0.  1.
       -1   -1    0    0    0  501  0.00000000000E+00  0.00000000000E+00 -0.13782723841E+03  0.13782723850E+03  0.50400001928E-02 0. -1.
    10030    2    1    2    0    0  0.00000000000E+00  0.00000000000E+00  0.16783555747E+04  0.19540100516E+04  0.10006387194E+04 0.  0.
        1    1    3    3  502    0 -0.25941075918E+02 -0.11130911355E+03  0.17903492833E+04  0.17939936495E+04  0.50400001928E-02 0.  1.
       -1    1    3    3    0  502  0.25941075918E+02  0.11130911355E+03 -0.11199370856E+03  0.16001640216E+03  0.50400001928E-02 0. -1.
</event>
<event>
 5   0  0.5960102E-04  0.1001471E+04  0.7818609E-02  0.9306933E-01
        1   -1    0    0  501    0  0.00000000000E+00  0.00000000000E+00  0.61282734674E+03  0.61282734676E+03  0.50400001928E-02 0.  1.
       -1   -1    0    0    0  501  0.00000000000E+00  0.00000000000E+00 -0.40914598725E+03  0.40914598728E+03  0.50400001928E-02 0. -1.
    10030    2    1    2    0    0  0.00000000000E+00  0.00000000000E+00  0.20368135949E+03  0.10219733340E+04  0.10014706183E+04 0.  0.
        5    1    3    3  502    0  0.33195510062E+03  0.37222817571E+03  0.14708521996E+03  0.52000399571E+03  0.46999998093E+01 0.  1.
       -5    1    3    3    0  502 -0.33195510062E+03 -0.37222817571E+03  0.56596139528E+02  0.50196933834E+03  0.46999998093E+01 0. -1.
</event>
<event>
 5   0  0.3854625E-04  0.9993277E+03  0.7818609E-02  0.9309282E-01
        3   -1    0    0  501    0  0.00000000000E+00  0.00000000000E+00  0.19849263190E+03  0.19849265759E+03  0.10100000352E+00 0.  1.
       -3   -1    0    0    0  501  0.00000000000E+00  0.00000000000E+00 -0.12577996115E+04  0.12577996155E+04  0.10100000352E+00 0. -1.
    10030    2    1    2    0    0  0.00000000000E+00  0.00000000000E+00 -0.10593069796E+04  0.14562922731E+04  0.99932772791E+03 0.  0.
        4    1    3    3  502    0  0.46300526965E+03 -0.13108335055E+03 -0.72573992094E+03  0.87077940390E+03  0.12699999809E+01 0.  1.
       -4    1    3    3    0  502 -0.46300526965E+03  0.13108335055E+03 -0.33356705865E+03  0.58551286923E+03  0.12699999809E+01 0. -1.
</event>
<event>
 5   0  0.9674819E-04  0.1000259E+04  0.7818609E-02  0.9308261E-01
       -2   -1    0    0    0  501  0.00000000000E+00  0.00000000000E+00  0.56269595936E+03  0.56269595936E+03  0.25500000920E-02 0.  1.
        2   -1    0    0  501    0  0.00000000000E+00  0.00000000000E+00 -0.44451994657E+03  0.44451994657E+03  0.25500000920E-02 0. -1.
    10030    2    1    2    0    0  0.00000000000E+00  0.00000000000E+00  0.11817601279E+03  0.10072159059E+04  0.10002591220E+04 0.  0.
        4    1    3    3  502    0 -0.25807160046E+03  0.42835733120E+03  0.52962049502E+02  0.50288919827E+03  0.12699999809E+01 0.  1.
       -4    1    3    3    0  502  0.25807160046E+03 -0.42835733120E+03  0.65213963288E+02  0.50432670766E+03  0.12699999809E+01 0. -1.
</event>
<event>
 5   0  0.1006006E-03  0.9977289E+03  0.7818609E-02  0.9311039E-01
       -2   -1    0    0    0  501  0.00000000000E+00  0.00000000000E+00  0.62136780330E+03  0.62136780331E+03  0.25500000920E-02 0. -1.
        2   -1    0    0  501    0  0.00000000000E+00  0.00000000000E+00 -0.40051272908E+03  0.40051272909E+03  0.25500000920E-02 0.  1.
    10030    2    1    2    0    0  0.00000000000E+00  0.00000000000E+00  0.22085507422E+03  0.10218805324E+04  0.99772885028E+03 0.  0.
        2    1    3    3  502    0  0.20491160332E+03  0.20836044138E+03  0.52451984477E+03  0.60043642983E+03  0.25500000920E-02 0. -1.
       -2    1    3    3    0  502 -0.20491160332E+03 -0.20836044138E+03 -0.30366477055E+03  0.42144410257E+03  0.25500000920E-02 0.  1.
</event>
<event>
 5   0  0.5888774E-04  0.9983601E+03  0.7818609E-02  0.9310345E-01
        1   -1    0    0  501    0  0.00000000000E+00  0.00000000000E+00  0.54815633123E+03  0.54815633125E+03  0.50400001928E-02 0.  1.
       -1   -1    0    0    0  501  0.00000000000E+00  0.00000000000E+00 -0.45457965076E+03  0.45457965079E+03  0.50400001928E-02 0. -1.
    10030    2    1    2    0    0  0.00000000000E+00  0.00000000000E+00  0.93576680467E+02  0.10027359820E+04  0.99836008261E+03 0.  0.
        2    1    3    3  502    0 -0.78022259739E+00 -0.18418314044E+03  0.51277952971E+03  0.54485492020E+03  0.25500000920E-02 0.  1.
       -2    1    3    3    0  502  0.78022259739E+00  0.18418314044E+03 -0.41920284924E+03  0.45788106184E+03  0.25500000920E-02 0. -1.
</event>
<event>
 5   0  0.3854625E-04  0.9990017E+03  0.7818609E-02  0.9309640E-01
       -4   -1    0    0    0  501  0.00000000000E+00  0.00000000000E+00  0.13019938516E+04  0.13019944710E+04  0.12699999809E+01 0.  1.
        4   -1    0    0  501    0  0.00000000000E+00  0.00000000000E+00 -0.19162723582E+03  0.19163144420E+03  0.12699999809E+01 0. -1.
    10030    2    1    2    0    0  0.00000000000E+00  0.00000000000E+00  0.11103666158E+04  0.14936259152E+04  0.99900167823E+03 0.  0.
        1    1    3    3  502    0  0.31035308154E+03  0.18430712958E+03  0.38960352718E+02  0.36305104647E+03  0.50400001928E-02 0. -1.
       -1    1    3    3    0  502 -0.31035308154E+03 -0.18430712958E+03  0.10714062631E+04  0.11305748687E+04  0.50400001928E-02 0.  1.
</event>
<event>
 5   0  0.1006749E-03  0.1001091E+04  0.7818609E-02  0.9307349E-01
        2   -1    0    0  501    0  0.00000000000E+00  0.00000000000E+00  0.12264232971E+04  0.12264232971E+04  0.25500000920E-02 0.  1.
       -2   -1    0    0    0  501  0.00000000000E+00  0.00000000000E+00 -0.20428982644E+03  0.20428982646E+03  0.25500000920E-02 0. -1.
    10030    2    1    2    0    0  0.00000000000E+00  0.00000000000E+00  0.10221334707E+04  0.14307131236E+04  0.10010910099E+04 0.  0.
        1    1    3    3  502    0  0.27372098272E+00 -0.25996146279E+03 -0.10024666797E+03  0.27862058705E+03  0.50400001928E-02 0. -1.
       -1    1    3    3    0  502 -0.27372098272E+00  0.25996146279E+03  0.11223801387E+04  0.11520925365E+04  0.50400001928E-02 0.  1.
</event>
<event>
 5   0  0.5768102E-04  0.9999861E+03  0.7818609E-02  0.9308560E-01
        1   -1    0    0  501    0  0.00000000000E+00  0.00000000000E+00  0.19804848906E+04  0.19804848906E+04  0.50400001928E-02 0.  1.
       -1   -1    0    0    0  501  0.00000000000E+00  0.00000000000E+00 -0.12622820495E+03  0.12622820505E+03  0.50400001928E-02 0. -1.
    10030    2    1    2    0    0  0.00000000000E+00  0.00000000000E+00  0.18542566856E+04  0.21067130957E+04  0.99998610548E+03 0.  0.
        4    1    3    3  502    0  0.12171082642E+01 -0.14348669333E+03 -0.81914443192E+02  0.16523165986E+03  0.12699999809E+01 0. -1.
       -4    1    3    3    0  502 -0.12171082642E+01  0.14348669333E+03  0.19361711288E+04  0.19414814358E+04  0.12699999809E+01 0.  1.
</event>
<event>
 5   0  0.5960102E-04  0.1004119E+04  0.7818609E-02  0.9304038E-01
        1   -1    0    0  501    0  0.00000000000E+00  0.00000000000E+00  0.14487830290E+04  0.14487830290E+04  0.50400001928E-02 0. -1.
       -1   -1    0    0    0  501  0.00000000000E+00  0.00000000000E+00 -0.17398316076E+03  0.17398316083E+03  0.50400001928E-02 0.  1.
    10030    2    1    2    0    0  0.00000000000E+00  0.00000000000E+00  0.12747998682E+04  0.16227661898E+04  0.10041192174E+04 0.  0.
        5    1    3    3  502    0 -0.36626724660E+02 -0.47814539360E+03  0.87752800209E+03  0.10000210092E+04  0.46999998093E+01 0.  1.
       -5    1    3    3    0  502  0.36626724660E+02  0.47814539360E+03  0.39727186613E+03  0.62274518063E+03  0.46999998093E+01 0. -1.
</event>
<event>
 5   0  0.5826939E-04  0.9983594E+03  0.7818609E-02  0.9310346E-01
        1   -1    0    0  501    0  0.00000000000E+00  0.00000000000E+00  0.58721370883E+03  0.58721370885E+03  0.50400001928E-02 0. -1.
       -1   -1    0    0    0  501  0.00000000000E+00  0.00000000000E+00 -0.42434361277E+03  0.42434361280E+03  0.50400001928E-02 0.  1.
    10030    2    1    2    0    0  0.00000000000E+00  0.00000000000E+00  0.16287009606E+03  0.10115573216E+04  0.99835942766E+03 0.  0.
        1    1    3    3  502    0  0.18009072237E+03 -0.31202386136E+03  0.43152965401E+03  0.56214713435E+03  0.50400001928E-02 0. -1.
       -1    1    3    3    0  502 -0.18009072237E+03  0.31202386136E+03 -0.26865955795E+03  0.44941018730E+03  0.50400001928E-02 0.  1.
</event>
<event>
 5   0  0.5758786E-04  0.1006101E+04  0.7818609E-02  0.9301878E-01
        1   -1    0    0  501    0  0.00000000000E+00  0.00000000000E+00  0.11487789461E+04  0.11487789462E+04  0.50400001928E-02 0.  1.
       -1   -1    0    0    0  501  0.00000000000E+00  0.00000000000E+00 -0.22028594305E+03  0.22028594311E+03  0.50400001928E-02 0. -1.
    10030    2    1    2    0    0  0.00000000000E+00  0.00000000000E+00  0.92849300310E+03  0.13690648893E+04  0.10061010954E+04 0.  0.
        3    1    3    3  502    0 -0.60261165460E+02 -0.22337753627E+03  0.10720840215E+04  0.10967648295E+04  0.10100000352E+00 0.  1.
       -3    1    3    3    0  502  0.60261165460E+02  0.22337753627E+03 -0.14359101844E+03  0.27230005977E+03  0.10100000352E+00 0. -1.
</event>
<event>
 5   0  0.9741826E-04  0.1000364E+04  0.7818609E-02  0.9308145E-01
        2   -1    0    0  501    0  0.00000000000E+00  0.00000000000E+00  0.98472075993E+03  0.98472075994E+03  0.25500000920E-02 0. -1.
       -2   -1    0    0    0  501  0.00000000000E+00  0.00000000000E+00 -0.25406401926E+03  0.25406401928E+03  0.25500000920E-02 0.  1.
    10030    2    1    2    0    0  0.00000000000E+00  0.00000000000E+00  0.73065674067E+03  0.12387847792E+04  0.10003641620E+04 0.  0.
        3    1    3    3  502    0  0.83177783004E+02 -0.62221146599E+02  0.97121676411E+03  0.97675586907E+03  0.10100000352E+00 0. -1.
       -3    1    3    3    0  502 -0.83177783004E+02  0.62221146599E+02 -0.24056002345E+03  0.26202891014E+03  0.10100000352E+00 0.  1.
</event>
<event>
 5   0  0.1006749E-03  0.1000351E+04  0.7818609E-02  0.9308160E-01
       -2   -1    0    0    0  501  0.00000000000E+00  0.00000000000E+00  0.19046386959E+03  0.19046386961E+03  0.25500000920E-02 0. -1.
        2   -1    0    0  501    0  0.00000000000E+00  0.00000000000E+00 -0.13135058872E+04  0.13135058872E+04  0.25500000920E-02 0.  1.
    10030    2    1    2    0    0  0.00000000000E+00  0.00000000000E+00 -0.11230420176E+04  0.15039697568E+04  0.10003507665E+04 0.  0.
        1    1    3    3  502    0 -0.35657996138E+03  0.33128447278E+02 -0.10864972857E+04  0.11439943683E+04  0.50400001928E-02 0.  1.
       -1    1    3    3    0  502  0.35657996138E+03 -0.33128447278E+02 -0.36544731923E+02  0.35997538851E+03  0.50400001928E-02 0. -1.
</event>
<event>
 5   0  0.3854625E-04  0.1000660E+04  0.7818609E-02  0.9307821E-01
        3   -1    0    0  501    0  0.00000000000E+00  0.00000000000E+00  0.21209795283E+04  0.21209795307E+04  0.10100000352E+00 0. -1.
       -3   -1    0    0    0  501  0.00000000000E+00  0.00000000000E+00 -0.11802568416E+03  0.11802572738E+03  0.10100000352E+00 0.  1.
    10030    2    1    2    0    0  0.00000000000E+00  0.00000000000E+00  0.20029538441E+04  0.22390052581E+04  0.10006600042E+04 0.  0.
        2    1    3    3  502    0  0.22976823742E+03  0.39421761121E+03  0.14607382577E+04  0.15303454595E+04  0.25500000920E-02 0. -1.
       -2    1    3    3    0  502 -0.22976823742E+03 -0.39421761121E+03  0.54221558638E+03  0.70865979852E+03  0.25500000920E-02 0.  1.
</event>
<event>
 5   0  0.9674819E-04  0.1000796E+04  0.7818609E-02  0.9307672E-01
       -2   -1    0    0    0  501  0.00000000000E+00  0.00000000000E+00  0.26226607947E+03  0.26226607948E+03  0.25500000920E-02 0.  1.
        2   -1    0    0  501    0  0.00000000000E+00  0.00000000000E+00 -0.95474923894E+03  0.95474923894E+03  0.25500000920E-02 0. -1.
    10030    2    1    2    0    0  0.00000000000E+00  0.00000000000E+00 -0.69248315947E+03  0.12170153184E+04  0.10007963625E+04 0.  0.
        4    1    3    3  502    0 -0.17992260524E+03  0.13230305987E+03 -0.89078146799E+03  0.91835150141E+03  0.12699999809E+01 0. -1.
       -4    1    3    3    0  502  0.17992260524E+03 -0.13230305987E+03  0.19829830852E+03  0.29866381701E+03  0.12699999809E+01 0.  1.
</event>
<event>
 5   0  0.5888774E-04  0.9990884E+03  0.7818609E-02  0.9309545E-01
       -1   -1    0    0    0  501  0.00000000000E+00  0.00000000000E+00  0.23963323877E+03  0.23963323882E+03  0.50400001928E-02 0. -1.
        1   -1    0    0  501    0  0.00000000000E+00  0.00000000000E+00 -0.10413598324E+04  0.10413598324E+04  0.50400001928E-02 0.  1.
    10030    2    1    2    0    0  0.00000000000E+00  0.00000000000E+00 -0.80172659360E+03  0.12809930712E+04  0.99908844332E+03 0.  0.
        2    1    3    3  502    0  0.35013502637E+03  0.13351630619E+03  0.22683662516E+02  0.37541402379E+03  0.25500000920E-02 0. -1.
       -2    1    3    3    0  502 -0.35013502637E+03 -0.13351630619E+03 -0.82441025611E+03  0.90557904740E+03  0.25500000920E-02 0.  1.
</event>
<event>
 5   0  0.1020150E-03  0.9922394E+03  0.7818609E-02  0.9317098E-01
       -2   -1    0    0    0  501  0.00000000000E+00  0.00000000000E+00  0.75250525626E+03  0.75250525626E+03  0.25500000920E-02 0. -1.
        2   -1    0    0  501    0  0.00000000000E+00  0.00000000000E+00 -0.32708708389E+03  0.32708708390E+03  0.25500000920E-02 0.  1.
    10030    2    1    2    0    0  0.00000000000E+00  0.00000000000E+00  0.42541817237E+03  0.10795923402E+04  0.99223938621E+03 0.  0.
        5    1    3    3  502    0 -0.45568664506E+03  0.88828913045E+02  0.40294985532E+03  0.61476139288E+03  0.46999998093E+01 0.  1.
       -5    1    3    3    0  502  0.45568664506E+03 -0.88828913045E+02  0.22468317053E+02  0.46483094728E+03  0.46999998093E+01 0. -1.
</event>
<event>
 5   0  0.1020150E-03  0.9990494E+03  0.7818609E-02  0.9309588E-01
        2   -1    0    0  501    0  0.00000000000E+00  0.00000000000E+00  0.17302005989E+04  0.17302005989E+04  0.25500000920E-02 0. -1.
       -2   -1    0    0    0  501  0.00000000000E+00  0.00000000000E+00 -0.14421732861E+03  0.14421732864E+03  0.25500000920E-02 0.  1.
    10030    2    1    2    0    0  0.00000000000E+00  0.00000000000E+00  0.15859832703E+04  0.18744179275E+04  0.99904936486E+03 0.  0.
        5    1    3    3  502    0  0.49109853161E+03  0.58205928957E+02  0.92482226971E+03  0.10487535547E+04  0.46999998093E+01 0. -1.
       -5    1    3    3    0  502 -0.49109853161E+03 -0.58205928957E+02  0.66116100056E+03  0.82566437284E+03  0.46999998093E+01 0.  1.
</event>
<event>
 5   0  0.9741826E-04  0.9996861E+03  0.7818609E-02  0.9308889E-01
        2   -1    0    0  501    0  0.00000000000E+00  0.00000000000E+00  0.79795429864E+03  0.79795429865E+03  0.25500000920E-02 0.  1.
       -2   -1    0    0    0  501  0.00000000000E+00  0.00000000000E+00 -0.31310448446E+03  0.31310448447E+03  0.25500000920E-02 0. -1.
    10030    2    1    2    0    0  0.00000000000E+00  0.00000000000E+00  0.48484981419E+03  0.11110587831E+04  0.99968608934E+03 0.  0.
        3    1    3    3  502    0 -0.21468586305E+03  0.44936650096E+03  0.19497434467E+03  0.53482265963E+03  0.10100000352E+00 0.  1.
       -3    1    3    3    0  502  0.21468586305E+03 -0.44936650096E+03  0.28987546952E+03  0.57623612348E+03  0.10100000352E+00 0. -1.
</event>
<event>
 5   0  0.1020150E-03  0.9988768E+03  0.7818609E-02  0.9309778E-01
        2   -1    0    0  501    0  0.00000000000E+00  0.00000000000E+00  0.32186062753E+03  0.32186062754E+03  0.25500000920E-02 0.  1.
       -2   -1    0    0    0  501  0.00000000000E+00  0.00000000000E+00 -0.77498977441E+03  0.77498977441E+03  0.25500000920E-02 0. -1.
    10030    2    1    2    0    0  0.00000000000E+00  0.00000000000E+00 -0.45312914688E+03  0.10968504020E+04  0.99887675942E+03 0.  0.
        5    1    3    3  502    0 -0.18928243985E+03 -0.45009698315E+03 -0.11138888236E+03  0.50084399706E+03  0.46999998093E+01 0.  1.
       -5    1    3    3    0  502  0.18928243985E+03  0.45009698315E+03 -0.34174026453E+03  0.59600640489E+03  0.46999998093E+01 0. -1.
</event>
<event>
 5   0  0.1006006E-03  0.1010903E+04  0.7818609E-02  0.9296667E-01
        2   -1    0    0  501    0  0.00000000000E+00  0.00000000000E+00  0.96051298918E+03  0.96051298919E+03  0.25500000920E-02 0. -1.
       -2   -1    0    0    0  501  0.00000000000E+00  0.00000000000E+00 -0.26598409573E+03  0.26598409574E+03  0.25500000920E-02 0.  1.
    10030    2    1    2    0    0  0.00000000000E+00  0.00000000000E+00  0.69452889345E+03  0.12264970849E+04  0.10109029209E+04 0.  0.
        2    1    3    3  502    0 -0.47006892245E+03 -0.91725093111E+02  0.54328490553E+03  0.72424910987E+03  0.25500000920E-02 0. -1.
       -2    1    3    3    0  502  0.47006892245E+03  0.91725093111E+02  0.15124398792E+03  0.50224797506E+03  0.25500000920E-02 0.  1.
</event>
<event>
 5   0  0.1020150E-03  0.1003859E+04  0.7818609E-02  0.9304322E-01
       -2   -1    0    0    0  501  0.00000000000E+00  0.00000000000E+00  0.98491475398E+02  0.98491475431E+02  0.25500000920E-02 0.  1.
        2   -1    0    0  501    0  0.00000000000E+00  0.00000000000E+00 -0.25579210704E+04  0.25579210705E+04  0.25500000920E-02 0. -1.
    10030    2    1    2    0    0  0.00000000000E+00  0.00000000000E+00 -0.24594295951E+04  0.26564125459E+04  0.10038593930E+04 0.  0.
        5    1    3    3  502    0  0.46985079143E+03  0.11052693959E+03 -0.15938472740E+04  0.16653369610E+04  0.46999998093E+01 0.  1.
       -5    1    3    3    0  502 -0.46985079143E+03 -0.11052693959E+03 -0.86558232102E+03  0.99107558492E+03  0.46999998093E+01 0. -1.
</event>
<event>
 5   0  0.1006006E-03  0.1012471E+04  0.7818609E-02  0.9294972E-01
       -2   -1    0    0    0  501  0.00000000000E+00  0.00000000000E+00  0.41393130889E+03  0.41393130890E+03  0.25500000920E-02 0. -1.
        2   -1    0    0  501    0  0.00000000000E+00  0.00000000000E+00 -0.61912237110E+03  0.61912237111E+03  0.25500000920E-02 0.  1.
    10030    2    1    2    0    0  0.00000000000E+00  0.00000000000E+00 -0.20519106221E+03  0.10330536800E+04  0.10124705101E+04 0.  0.
        2    1    3    3  502    0  0.28363191112E+03  0.22087353237E+03  0.26108000775E+03  0.44429151326E+03  0.25500000920E-02 0. -1.
       -2    1    3    3    0  502 -0.28363191112E+03 -0.22087353237E+03 -0.46627106995E+03  0.58876216674E+03  0.25500000920E-02 0.  1.
</event>
<event>
 5   0  0.9674819E-04  0.1001288E+04  0.7818609E-02  0.9307134E-01
       -2   -1    0    0    0  501  0.00000000000E+00  0.00000000000E+00  0.43390884637E+03  0.43390884638E+03  0.25500000920E-02 0. -1.
        2   -1    0    0  501    0  0.00000000000E+00  0.00000000000E+00 -0.57764256714E+03  0.57764256714E+03  0.25500000920E-02 0.  1.
    10030    2    1    2    0    0  0.00000000000E+00  0.00000000000E+00 -0.14373372076E+03  0.10115514135E+04  0.10012876109E+04 0.  0.
        4    1    3    3  502    0  0.42651783749E+03  0.13915153064E+03 -0.29631988447E+03  0.53766876514E+03  0.12699999809E+01 0.  1.
       -4    1    3    3    0  502 -0.42651783749E+03 -0.13915153064E+03  0.15258616371E+03  0.47388264838E+03  0.12699999809E+01 0. -1.
</event>
<event>
 5   0  0.1006749E-03  0.9989339E+03  0.7818609E-02  0.9309715E-01
        2   -1    0    0  501    0  0.00000000000E+00  0.00000000000E+00  0.48564779928E+03  0.48564779928E+03  0.25500000920E-02 0. -1.
       -2   -1    0    0    0  501  0.00000000000E+00  0.00000000000E+00 -0.51367933746E+03  0.51367933746E+03  0.25500000920E-02 0.  1.
    10030    2    1    2    0    0  0.00000000000E+00  0.00000000000E+00 -0.28031538179E+02  0.99932713675E+03  0.99893391128E+03 0.  0.
        1    1    3    3  502    0  0.36558839246E+03  0.28358173076E+03  0.17419060615E+03  0.49438430196E+03  0.50400001928E-02 0. -1.
       -1    1    3    3    0  502 -0.36558839246E+03 -0.28358173076E+03 -0.20222214433E+03  0.50494283479E+03  0.50400001928E-02 0.  1.
</event>
<event>
 5   0  0.5826939E-04  0.1000215E+04  0.7818609E-02  0.9308309E-01
       -1   -1    0    0    0  501  0.00000000000E+00  0.00000000000E+00  0.30763740130E+03  0.30763740134E+03  0.50400001928E-02 0. -1.
        1   -1    0    0  501    0  0.00000000000E+00  0.00000000000E+00 -0.81299481488E+03  0.81299481490E+03  0.50400001928E-02 0.  1.
    10030    2    1    2    0    0  0.00000000000E+00  0.00000000000E+00 -0.50535741359E+03  0.11206322162E+04  0.10002152011E+04 0.  0.
        1    1    3    3  502    0  0.29984614512E+03  0.13526040082E+03  0.16937505508E+03  0.36998783235E+03  0.50400001928E-02 0. -1.
       -1    1    3    3    0  502 -0.29984614512E+03 -0.13526040082E+03 -0.67473246866E+03  0.75064438389E+03  0.50400001928E-02 0.  1.
</event>
<event>
 5   0  0.5960102E-04  0.9998417E+03  0.7818609E-02  0.9308718E-01
        1   -1    0    0  501    0  0.00000000000E+00  0.00000000000E+00  0.50575307567E+03  0.50575307569E+03  0.50400001928E-02 0. -1.
       -1   -1    0    0    0  501  0.00000000000E+00  0.00000000000E+00 -0.49415585511E+03  0.49415585513E+03  0.50400001928E-02 0.  1.
    10030    2    1    2    0    0  0.00000000000E+00  0.00000000000E+00  0.11597220561E+02  0.99990893083E+03  0.99984167468E+03 0.  0.
        5    1    3    3  502    0  0.26360241388E+03  0.42474525289E+03  0.38006890076E+01  0.49993129297E+03  0.46999998093E+01 0. -1.
       -5    1    3    3    0  502 -0.26360241388E+03 -0.42474525289E+03  0.77965315530E+01  0.49997763786E+03  0.46999998093E+01 0.  1.
</event>
<event>
 5   0  0.5888774E-04  0.9972804E+03  0.7818609E-02  0.9311533E-01
        1   -1    0    0  501    0  0.00000000000E+00  0.00000000000E+00  0.82669168635E+03  0.82669168637E+03  0.50400001928E-02 0.  1.
       -1   -1    0    0    0  501  0.00000000000E+00  0.00000000000E+00 -0.30076756080E+03  0.30076756085E+03  0.50400001928E-02 0. -1.
    10030    2    1    2    0    0  0.00000000000E+00  0.00000000000E+00  0.52592412555E+03  0.11274592472E+04  0.99728038600E+03 0.  0.
        2    1    3    3  502    0 -0.19790375088E+02  0.49824723400E+03  0.26264849528E+03  0.56358335428E+03  0.25500000920E-02 0.  1.
       -2    1    3    3    0  502  0.19790375088E+02 -0.49824723400E+03  0.26327563027E+03  0.56387589294E+03  0.25500000920E-02 0. -1.
</event>
<event>
 5   0  0.5960102E-04  0.9957581E+03  0.7818609E-02  0.9313210E-01
       -1   -1    0    0    0  501  0.00000000000E+00  0.00000000000E+00  0.40431407187E+03  0.40431407190E+03  0.50400001928E-02 0. -1.
        1   -1    0    0  501    0  0.00000000000E+00  0.00000000000E+00 -0.61309650807E+03  0.61309650809E+03  0.50400001928E-02 0.  1.
    10030    2    1    2    0    0  0.00000000000E+00  0.00000000000E+00 -0.20878243620E+03  0.10174105800E+04  0.99575809443E+03 0.  0.
        5    1    3    3  502    0 -0.14737323954E+02 -0.11898824208E+03  0.38931987707E+03  0.40739102488E+03  0.46999998093E+01 0. -1.
       -5    1    3    3    0  502  0.14737323954E+02  0.11898824208E+03 -0.59810231328E+03  0.61001955511E+03  0.46999998093E+01 0.  1.
</event>
<event>
 5   0  0.1006749E-03  0.1001617E+04  0.7818609E-02  0.9306773E-01
        2   -1    0    0  501    0  0.00000000000E+00  0.00000000000E+00  0.11239698039E+04  0.11239698039E+04  0.25500000920E-02 0. -1.
       -2   -1    0    0    0  501  0.00000000000E+00  0.00000000000E+00 -0.22314590566E+03  0.22314590567E+03  0.25500000920E-02 0.  1.
    10030    2    1    2    0    0  0.00000000000E+00  0.00000000000E+00  0.90082389824E+03  0.13471157096E+04  0.10016172120E+04 0.  0.
        1    1    3    3  502    0  0.14317591896E+03  0.45019933752E+03  0.67397358457E+03  0.82305478554E+03  0.50400001928E-02 0. -1.
       -1    1    3    3    0  502 -0.14317591896E+03 -0.45019933752E+03  0.22685031367E+03  0.52406092404E+03  0.50400001928E-02 0.  1.
</event>
<event>
 5   0  0.9674819E-04  0.1005277E+04  0.7818609E-02  0.9302776E-01
        2   -1    0    0  501    0  0.00000000000E+00  0.00000000000E+00  0.10885464826E+04  0.10885464826E+04  0.25500000920E-02 0.  1.
       -2   -1    0    0    0  501  0.00000000000E+00  0.00000000000E+00 -0.23209441809E+03  0.23209441810E+03  0.25500000920E-02 0. -1.
    10030    2    1    2    0    0  0.00000000000E+00  0.00000000000E+00  0.85645206454E+03  0.13206409007E+04  0.10052772005E+04 0.  0.
        4    1    3    3  502    0 -0.20488192608E+02 -0.15087164742E+03 -0.20106889520E+03  0.25221485592E+03  0.12699999809E+01 0. -1.
       -4    1    3    3    0  502  0.20488192608E+02  0.15087164742E+03  0.10575209597E+04  0.10684260448E+04  0.12699999809E+01 0.  1.
</event>
<event>
 5   0  0.5768102E-04  0.9998184E+03  0.7818609E-02  0.9308744E-01
       -1   -1    0    0    0  501  0.00000000000E+00  0.00000000000E+00  0.16111597749E+03  0.16111597757E+03  0.50400001928E-02 0. -1.
        1   -1    0    0  501    0  0.00000000000E+00  0.00000000000E+00 -0.15511138382E+04  0.15511138382E+04  0.50400001928E-02 0.  1.
    10030    2    1    2    0    0  0.00000000000E+00  0.00000000000E+00 -0.13899978607E+04  0.17122298158E+04  0.99981842815E+03 0.  0.
        4    1    3    3  502    0  0.49052661616E+03 -0.87640391443E+02 -0.62627481569E+03  0.80032428242E+03  0.12699999809E+01 0. -1.
       -4    1    3    3    0  502 -0.49052661616E+03  0.87640391443E+02 -0.76372304500E+03  0.91190553334E+03  0.12699999809E+01 0.  1.
</event>
<event>
 5   0  0.5888774E-04  0.9929196E+03  0.7818609E-02  0.9316345E-01
        1   -1    0    0  501    0  0.00000000000E+00  0.00000000000E+00  0.63863353353E+03  0.63863353355E+03  0.50400001928E-02 0.  1.
       -1   -1    0    0    0  501  0.00000000000E+00  0.00000000000E+00 -0.38593701917E+03  0.38593701921E+03  0.50400001928E-02 0. -1.
    10030    2    1    2    0    0  0.00000000000E+00  0.00000000000E+00  0.25269651436E+03  0.10245705528E+04  0.99291957842E+03 0.  0.
        2    1    3    3  502    0  0.49330726024E+02  0.42920823165E+03  0.37872406203E+03  0.57453036630E+03  0.25500000920E-02 0.  1.
       -2    1    3    3    0  502 -0.49330726024E+02 -0.42920823165E+03 -0.12602754767E+03  0.45004018645E+03  0.25500000920E-02 0. -1.
</event>
<event>
 5   0  0.5888774E-04  0.9999885E+03  0.7818609E-02  0.9308557E-01
       -1   -1    0    0    0  501  0.00000000000E+00  0.00000000000E+00  0.91663388924E+03  0.91663388925E+03  0.50400001928E-02 0. -1.
        1   -1    0    0  501    0  0.00000000000E+00  0.00000000000E+00 -0.27273074888E+03  0.27273074893E+03  0.50400001928E-02 0.  1.
    10030    2    1    2    0    0  0.00000000000E+00  0.00000000000E+00  0.64390314035E+03  0.11893646382E+04  0.99998849413E+03 0.  0.
        2    1    3    3  502    0 -0.34474040856E+03 -0.64948420288E+02  0.74569420226E+03  0.82408985547E+03  0.25500000920E-02 0. -1.
       -2    1    3    3    0  502  0.34474040856E+03  0.64948420288E+02 -0.10179106191E+03  0.36527478271E+03  0.25500000920E-02 0.  1.
</event>
<event>
 5   0  0.1006006E-03  0.1000366E+04  0.7818609E-02  0.9308144E-01
       -2   -1    0    0    0  501  0.00000000000E+00  0.00000000000E+00  0.40053695830E+03  0.40053695831E+03  0.25500000920E-02 0. -1.
        2   -1    0    0  501    0  0.00000000000E+00  0.00000000000E+00 -0.62461904717E+03  0.62461904718E+03  0.25500000920E-02 0.  1.
    10030    2    1    2    0    0  0.00000000000E+00  0.00000000000E+00 -0.22408208888E+03  0.10251560055E+04  0.10003659595E+04 0.  0.
        2    1    3    3  502    0 -0.44631891376E+03 -0.22374426082E+03 -0.80941918050E+02  0.50578024985E+03  0.25500000920E-02 0.  1.
       -2    1    3    3    0  502  0.44631891376E+03  0.22374426082E+03 -0.14314017083E+03  0.51937575564E+03  0.25500000920E-02 0. -1.
</event>
<event>
 5   0  0.5826939E-04  0.9999364E+03  0.7818609E-02  0.9308615E-01
        1   -1    0    0  501    0  0.00000000000E+00  0.00000000000E+00  0.99601535222E+03  0.99601535224E+03  0.50400001928E-02 0. -1.
       -1   -1    0    0    0  501  0.00000000000E+00  0.00000000000E+00 -0.25096820279E+03  0.25096820284E+03  0.50400001928E-02 0.  1.
    10030    2    1    2    0    0  0.00000000000E+00  0.00000000000E+00  0.74504714944E+03  0.12469835551E+04  0.99993636384E+03 0.  0.
        1    1    3    3  502    0 -0.37143424107E+03  0.33415551773E+03  0.34936452393E+03  0.60965471873E+03  0.50400001928E-02 0.  1.
       -1    1    3    3    0  502  0.37143424107E+03 -0.33415551773E+03  0.39568262551E+03  0.63732883634E+03  0.50400001928E-02 0. -1.
</event>
<event>
 5   0  0.5888774E-04  0.1000659E+04  0.7818609E-02  0.9307822E-01
       -1   -1    0    0    0  501  0.00000000000E+00  0.00000000000E+00  0.65713965549E+03  0.65713965551E+03  0.50400001928E-02 0.  1.
        1   -1    0    0  501    0  0.00000000000E+00  0.00000000000E+00 -0.38093815585E+03  0.38093815589E+03  0.50400001928E-02 0. -1.
    10030    2    1    2    0    0  0.00000000000E+00  0.00000000000E+00  0.27620149963E+03  0.10380778114E+04  0.10006589200E+04 0.  0.
        2    1    3    3  502    0  0.11984323255E+03  0.96384621430E+02  0.63201064935E+03  0.65045357754E+03  0.25500000920E-02 0.  1.
       -2    1    3    3    0  502 -0.11984323255E+03 -0.96384621430E+02 -0.35580914972E+03  0.38762423385E+03  0.25500000920E-02 0. -1.
</event>
<event>
 5   0  0.5758786E-04  0.1000314E+04  0.7818609E-02  0.9308201E-01
        1   -1    0    0  501    0  0.00000000000E+00  0.00000000000E+00  0.66307676481E+03  0.66307676483E+03  0.50400001928E-02 0.  1.
       -1   -1    0    0    0  501  0.00000000000E+00  0.00000000000E+00 -0.37726671650E+03  0.37726671653E+03  0.50400001928E-02 0. -1.
    10030    2    1    2    0    0  0.00000000000E+00  0.00000000000E+00  0.28581004831E+03  0.10403434814E+04  0.10003135386E+04 0.  0.
        3    1    3    3  502    0 -0.61632392969E+02 -0.11801319885E+03 -0.35849891081E+03  0.38242273235E+03  0.10100000352E+00 0. -1.
       -3    1    3    3    0  502  0.61632392969E+02  0.11801319885E+03  0.64430895912E+03  0.65792074901E+03  0.10100000352E+00 0.  1.
</event>
<event>
 5   0  0.5768102E-04  0.9994099E+03  0.7818609E-02  0.9309192E-01
        1   -1    0    0  501    0  0.00000000000E+00  0.00000000000E+00  0.10100083800E+04  0.10100083800E+04  0.50400001928E-02 0.  1.
       -1   -1    0    0    0  501  0.00000000000E+00  0.00000000000E+00 -0.24723066933E+03  0.24723066938E+03  0.50400001928E-02 0. -1.
    10030    2    1    2    0    0  0.00000000000E+00  0.00000000000E+00  0.76277771067E+03  0.12572390494E+04  0.99940992162E+03 0.  0.
        4    1    3    3  502    0  0.40126779045E+03  0.29715643170E+03  0.40609307246E+03  0.64360778504E+03  0.12699999809E+01 0.  1.
       -4    1    3    3    0  502 -0.40126779045E+03 -0.29715643170E+03  0.35668463821E+03  0.61363126435E+03  0.12699999809E+01 0. -1.
</event>
<event>
 5   0  0.9674819E-04  0.9979430E+03  0.7818609E-02  0.9310804E-01
        2   -1    0    0  501    0  0.00000000000E+00  0.00000000000E+00  0.21893614067E+04  0.21893614067E+04  0.25500000920E-02 0.  1.
       -2   -1    0    0    0  501  0.00000000000E+00  0.00000000000E+00 -0.11371926996E+03  0.11371926999E+03  0.25500000920E-02 0. -1.
    10030    2    1    2    0    0  0.00000000000E+00  0.00000000000E+00  0.20756421367E+04  0.23030806767E+04  0.99794304624E+03 0.  0.
        4    1    3    3  502    0  0.54227350954E+02 -0.40771536120E+03  0.38589118919E+03  0.56399117382E+03  0.12699999809E+01 0. -1.
       -4    1    3    3    0  502 -0.54227350954E+02  0.40771536120E+03  0.16897509475E+04  0.17390895029E+04  0.12699999809E+01 0.  1.
</event>
<event>
 5   0  0.1006006E-03  0.9968679E+03  0.7818609E-02  0.9311987E-01
        2   -1    0    0  501    0  0.00000000000E+00  0.00000000000E+00  0.15317127212E+04  0.15317127212E+04  0.25500000920E-02 0. -1.
       -2   -1    0    0    0  501  0.00000000000E+00  0.00000000000E+00 -0.16219516571E+03  0.16219516573E+03  0.25500000920E-02 0.  1.
    10030    2    1    2    0    0  0.00000000000E+00  0.00000000000E+00  0.13695175555E+04  0.16939078869E+04  0.99686789225E+03 0.  0.
        2    1    3    3  502    0 -0.30050064662E+03 -0.38874244362E+03  0.54243801411E+03  0.73188819177E+03  0.25500000920E-02 0.  1.
       -2    1    3    3    0  502  0.30050064662E+03  0.38874244362E+03  0.82707954140E+03  0.96201969518E+03  0.25500000920E-02 0. -1.
</event>
<event>
 5   0  0.1020150E-03  0.1000388E+04  0.7818609E-02  0.9308119E-01
        2   -1    0    0  501    0  0.00000000000E+00  0.00000000000E+00  0.19111820716E+04  0.19111820716E+04  0.25500000920E-02 0.  1.
       -2   -1    0    0    0  501  0.00000000000E+00  0.00000000000E+00 -0.13091072909E+03  0.13091072911E+03  0.25500000920E-02 0. -1.
    10030    2    1    2    0    0  0.00000000000E+00  0.00000000000E+00  0.17802713425E+04  0.20420928007E+04  0.10003884015E+04 0.  0.
        5    1    3    3  502    0 -0.36098795065E+03  0.53569660013E+01  0.15967650530E+04  0.16370771888E+04  0.46999998093E+01 0.  1.
       -5    1    3    3    0  502  0.36098795065E+03 -0.53569660013E+01  0.18350628948E+03  0.40501561189E+03  0.46999998093E+01 0. -1.
</event>
<event>
 5   0  0.9741826E-04  0.9997843E+03  0.7818609E-02  0.9308781E-01
       -2   -1    0    0    0  501  0.00000000000E+00  0.00000000000E+00  0.27049154984E+03  0.27049154985E+03  0.25500000920E-02 0. -1.
        2   -1    0    0  501    0  0.00000000000E+00  0.00000000000E+00 -0.92384458318E+03  0.92384458318E+03  0.25500000920E-02 0.  1.
    10030    2    1    2    0    0  0.00000000000E+00  0.00000000000E+00 -0.65335303334E+03  0.11943361330E+04  0.99978428297E+03 0.  0.
        3    1    3    3  502    0 -0.41095755325E+03  0.21854527031E+03 -0.10886698326E+03  0.47801692019E+03  0.10100000352E+00 0. -1.
       -3    1    3    3    0  502  0.41095755325E+03 -0.21854527031E+03 -0.54448605008E+03  0.71631921284E+03  0.10100000352E+00 0.  1.
</event>
<event>
 5   0  0.1006749E-03  0.1004943E+04  0.7818609E-02  0.9303140E-01
        2   -1    0    0  501    0  0.00000000000E+00  0.00000000000E+00  0.15759526561E+04  0.15759526561E+04  0.25500000920E-02 0. -1.
       -2   -1    0    0    0  501  0.00000000000E+00  0.00000000000E+00 -0.16020642241E+03  0.16020642243E+03  0.25500000920E-02 0.  1.
    10030    2    1    2    0    0  0.00000000000E+00  0.00000000000E+00  0.14157462337E+04  0.17361590786E+04  0.10049432560E+04 0.  0.
        1    1    3    3  502    0 -0.49769812318E+03 -0.40979678327E-01  0.82724538303E+03  0.96542133147E+03  0.50400001928E-02 0.  1.
       -1    1    3    3    0  502  0.49769812318E+03  0.40979678327E-01  0.58850085068E+03  0.77073774708E+03  0.50400001928E-02 0. -1.
</event>
<event>
 5   0  0.5758786E-04  0.1000254E+04  0.7818609E-02  0.9308267E-01
        1   -1    0    0  501    0  0.00000000000E+00  0.00000000000E+00  0.67386948481E+03  0.67386948483E+03  0.50400001928E-02 0.  1.
       -1   -1    0    0    0  501  0.00000000000E+00  0.00000000000E+00 -0.37118002833E+03  0.37118002837E+03  0.50400001928E-02 0. -1.
    10030    2    1    2    0    0  0.00000000000E+00  0.00000000000E+00  0.30268945648E+03  0.10450495132E+04  0.10002537568E+04 0.  0.
        3    1    3    3  502    0 -0.35040352271E+03  0.20526141081E+03  0.45632874353E+03  0.61086071069E+03  0.10100000352E+00 0.  1.
       -3    1    3    3    0  502  0.35040352271E+03 -0.20526141081E+03 -0.15363928705E+03  0.43418880251E+03  0.10100000352E+00 0. -1.
</event>
<event>
 5   0  0.5758786E-04  0.1002130E+04  0.7818609E-02  0.9306211E-01
        1   -1    0    0  501    0  0.00000000000E+00  0.00000000000E+00  0.11149355557E+04  0.11149355557E+04  0.50400001928E-02 0.  1.
       -1   -1    0    0    0  501  0.00000000000E+00  0.00000000000E+00 -0.22518459829E+03  0.22518459835E+03  0.50400001928E-02 0. -1.
    10030    2    1    2    0    0  0.00000000000E+00  0.00000000000E+00  0.88975095737E+03  0.13401201540E+04  0.10021303613E+04 0.  0.
        3    1    3    3  502    0  0.35909253324E+03  0.24113043279E+03  0.10663578615E+03  0.44549134013E+03  0.10100000352E+00 0. -1.
       -3    1    3    3    0  502 -0.35909253324E+03 -0.24113043279E+03  0.78311517122E+03  0.89462881389E+03  0.10100000352E+00 0.  1.
</event>
<event>
 5   0  0.1020150E-03  0.9996209E+03  0.7818609E-02  0.9308961E-01
        2   -1    0    0  501    0  0.00000000000E+00  0.00000000000E+00  0.87455142916E+03  0.87455142916E+03  0.25500000920E-02 0. -1.
       -2   -1    0    0    0  501  0.00000000000E+00  0.00000000000E+00 -0.28564415584E+03  0.28564415585E+03  0.25500000920E-02 0.  1.
    10030    2    1    2    0    0  0.00000000000E+00  0.00000000000E+00  0.58890727332E+03  0.11601955850E+04  0.99962093761E+03 0.  0.
        5    1    3    3  502    0  0.12737867233E+03  0.11379601782E+03 -0.25069127249E+03  0.30338599826E+03  0.46999998093E+01 0.  1.
       -5    1    3    3    0  502 -0.12737867233E+03 -0.11379601782E+03  0.83959854581E+03  0.85680958676E+03  0.46999998093E+01 0. -1.
</event>
<event>
 5   0  0.5768102E-04  0.9994339E+03  0.7818609E-02  0.9309166E-01
        1   -1    0    0  501    0  0.00000000000E+00  0.00000000000E+00  0.11485847591E+04  0.11485847591E+04  0.50400001928E-02 0.  1.
       -1   -1    0    0    0  501  0.00000000000E+00  0.00000000000E+00 -0.21741279702E+03  0.21741279708E+03  0.50400001928E-02 0. -1.
    10030    2    1    2    0    0  0.00000000000E+00  0.00000000000E+00  0.93117196209E+03  0.13659975562E+04  0.99943389003E+03 0.  0.
        4    1    3    3  502    0  0.39480953001E+03 -0.15392659792E+02  0.88374633357E+03  0.96804994394E+03  0.12699999809E+01 0.  1.
       -4    1    3    3    0  502 -0.39480953001E+03  0.15392659792E+02  0.47425628517E+02  0.39794761225E+03  0.12699999809E+01 0. -1.
</event>
<event>
 5   0  0.1006749E-03  0.9979045E+03  0.7818609E-02  0.9310846E-01
       -2   -1    0    0    0  501  0.00000000000E+00  0.00000000000E+00  0.11417729679E+03  0.11417729681E+03  0.25500000920E-02 0. -1.
        2   -1    0    0  501    0  0.00000000000E+00  0.00000000000E+00 -0.21804102910E+04  0.21804102910E+04  0.25500000920E-02 0.  1.
    10030    2    1    2    0    0  0.00000000000E+00  0.00000000000E+00 -0.20662329943E+04  0.22945875879E+04  0.99790451036E+03 0.  0.
        1    1    3    3  502    0 -0.24822101876E+03  0.33436675968E+03 -0.40114138881E+03  0.57821208736E+03  0.50400001928E-02 0. -1.
       -1    1    3    3    0  502  0.24822101876E+03 -0.33436675968E+03 -0.16650916054E+04  0.17163755005E+04  0.50400001928E-02 0.  1.
</event>
<event>
 5   0  0.9741826E-04  0.1000708E+04  0.7818609E-02  0.9307769E-01
       -2   -1    0    0    0  501  0.00000000000E+00  0.00000000000E+00  0.32956667834E+03  0.32956667835E+03  0.25500000920E-02 0. -1.
        2   -1    0    0  501    0  0.00000000000E+00  0.00000000000E+00 -0.75964562076E+03  0.75964562077E+03  0.25500000920E-02 0.  1.
    10030    2    1    2    0    0  0.00000000000E+00  0.00000000000E+00 -0.43007894242E+03  0.10892122991E+04  0.10007075176E+04 0.  0.
        3    1    3    3  502    0  0.47739067089E+03  0.13863325452E+03 -0.15315273150E+03  0.52016997345E+03  0.10100000352E+00 0.  1.
       -3    1    3    3    0  502 -0.47739067089E+03 -0.13863325452E+03 -0.27692621092E+03  0.56904232567E+03  0.10100000352E+00 0. -1.
</event>
<event>
 5   0  0.5826939E-04  0.1002686E+04  0.7818609E-02  0.9305604E-01
        1   -1    0    0  501    0  0.00000000000E+00  0.00000000000E+00  0.37112083686E+03  0.37112083690E+03  0.50400001928E-02 0.  1.
       -1   -1    0    0    0  501  0.00000000000E+00  0.00000000000E+00 -0.67725846581E+03  0.67725846583E+03  0.50400001928E-02 0. -1.
    10030    2    1    2    0    0  0.00000000000E+00  0.00000000000E+00 -0.30613762895E+03  0.10483793027E+04  0.10026858504E+04 0.  0.
        1    1    3    3  502    0 -0.66953985107E+01  0.29943362219E+03 -0.57343442053E+03  0.64694076787E+03  0.50400001928E-02 0. -1.
       -1    1    3    3    0  502  0.66953985107E+01 -0.29943362219E+03  0.26729679157E+03  0.40143853486E+03  0.50400001928E-02 0.  1.
</event>
<event>
 5   0  0.9741826E-04  0.9996601E+03  0.7818609E-02  0.9308918E-01
       -2   -1    0    0    0  501  0.00000000000E+00  0.00000000000E+00  0.22006206284E+03  0.22006206285E+03  0.25500000920E-02 0. -1.
        2   -1    0    0  501    0  0.00000000000E+00  0.00000000000E+00 -0.11352709169E+04  0.11352709169E+04  0.25500000920E-02 0.  1.
    10030    2    1    2    0    0  0.00000000000E+00  0.00000000000E+00 -0.91520885403E+03  0.13553329797E+04  0.99966006193E+03 0.  0.
        3    1    3    3  502    0 -0.28508496922E+03  0.94671344188E+02 -0.99923338019E+03  0.10434095367E+04  0.10100000352E+00 0.  1.
       -3    1    3    3    0  502  0.28508496922E+03 -0.94671344188E+02  0.84024526154E+02  0.31192344298E+03  0.10100000352E+00 0. -1.
</event>
<event>
 5   0  0.1006749E-03  0.1002155E+04  0.7818609E-02  0.9306185E-01
        2   -1    0    0  501    0  0.00000000000E+00  0.00000000000E+00  0.77081059142E+03  0.77081059142E+03  0.25500000920E-02 0. -1.
       -2   -1    0    0    0  501  0.00000000000E+00  0.00000000000E+00 -0.32573313680E+03  0.32573313681E+03  0.25500000920E-02 0.  1.
    10030    2    1    2    0    0  0.00000000000E+00  0.00000000000E+00  0.44507745462E+03  0.10965437282E+04  0.10021547821E+04 0.  0.
        1    1    3    3  502    0  0.29670809927E+03  0.32335415850E+03 -0.42075499834E+02  0.44086727674E+03  0.50400001928E-02 0.  1.
       -1    1    3    3    0  502 -0.29670809927E+03 -0.32335415850E+03  0.48715295445E+03  0.65567645150E+03  0.50400001928E-02 0. -1.
</event>
<event>
 5   0  0.5888774E-04  0.1000702E+04  0.7818609E-02  0.9307775E-01
       -1   -1    0    0    0  501  0.00000000000E+00  0.00000000000E+00  0.29308693223E+03  0.29308693227E+03  0.50400001928E-02 0.  1.
        1   -1    0    0  501    0  0.00000000000E+00  0.00000000000E+00 -0.85418680027E+03  0.85418680028E+03  0.50400001928E-02 0. -1.
    10030    2    1    2    0    0  0.00000000000E+00  0.00000000000E+00 -0.56109986804E+03  0.11472737326E+04  0.10007017315E+04 0.  0.
        2    1    3    3  502    0  0.76676896649E+00  0.12069778452E+03 -0.83724597552E+03  0.84590151120E+03  0.25500000920E-02 0. -1.
       -2    1    3    3    0  502 -0.76676896649E+00 -0.12069778452E+03  0.27614610748E+03  0.30137222135E+03  0.25500000920E-02 0.  1.
</event>
<event>
 5   0  0.9674819E-04  0.1001210E+04  0.7818609E-02  0.9307219E-01
        2   -1    0    0  501    0  0.00000000000E+00  0.00000000000E+00  0.15044588648E+04  0.15044588648E+04  0.25500000920E-02 0. -1.
       -2   -1    0    0    0  501  0.00000000000E+00  0.00000000000E+00 -0.16657503940E+03  0.16657503942E+03  0.25500000920E-02 0.  1.
    10030    2    1    2    0    0  0.00000000000E+00  0.00000000000E+00  0.13378838254E+04  0.16710339042E+04  0.10012098575E+04 0.  0.
        4    1    3    3  502    0  0.23275347219E+03 -0.10523274830E+03 -0.49617970750E+02  0.26021465380E+03  0.12699999809E+01 0.  1.
       -4    1    3    3    0  502 -0.23275347219E+03  0.10523274830E+03  0.13875017961E+04  0.14108192504E+04  0.12699999809E+01 0. -1.
</event>
<event>
 5   0  0.1006006E-03  0.1001875E+04  0.7818609E-02  0.9306490E-01
       -2   -1    0    0    0  501  0.00000000000E+00  0.00000000000E+00  0.20933712930E+03  0.20933712932E+03  0.25500000920E-02 0. -1.
        2   -1    0    0  501    0  0.00000000000E+00  0.00000000000E+00 -0.11987290611E+04  0.11987290611E+04  0.25500000920E-02 0.  1.
    10030    2    1    2    0    0  0.00000000000E+00  0.00000000000E+00 -0.98939193182E+03  0.14080661904E+04  0.10018752427E+04 0.  0.
        2    1    3    3  502    0 -0.13987507439E+03 -0.47524433999E+03 -0.59907965215E+03  0.77737934675E+03  0.25500000920E-02 0.  1.
       -2    1    3    3    0  502  0.13987507439E+03  0.47524433999E+03 -0.39031227967E+03  0.63068684369E+03  0.25500000920E-02 0. -1.
</event>
<event>
 5   0  0.5758786E-04  0.1000868E+04  0.7818609E-02  0.9307594E-01
        1   -1    0    0  501    0  0.00000000000E+00  0.00000000000E+00  0.15603817164E+03  0.15603817172E+03  0.50400001928E-02 0.  1.
       -1   -1    0    0    0  501  0.00000000000E+00  0.00000000000E+00 -0.16049530655E+04  0.16049530655E+04  0.50400001928E-02 0. -1.
    10030    2    1    2    0    0  0.00000000000E+00  0.00000000000E+00 -0.14489148939E+04  0.17609912372E+04  0.10008675077E+04 0.  0.
        3    1    3    3  502    0  0.17274271158E+03  0.19537415262E+03 -0.14759422393E+04  0.14988050600E+04  0.10100000352E+00 0. -1.
       -3    1    3    3    0  502 -0.17274271158E+03 -0.19537415262E+03  0.27027345458E+02  0.26218617721E+03  0.10100000352E+00 0.  1.
</event>
<event>
 5   0  0.5768102E-04  0.1010732E+04  0.7818609E-02  0.9296851E-01
       -1   -1    0    0    0  501  0.00000000000E+00  0.00000000000E+00  0.68013968151E+03  0.68013968153E+03  0.50400001928E-02 0. -1.
        1   -1    0    0  501    0  0.00000000000E+00  0.00000000000E+00 -0.37550370694E+03  0.37550370697E+03  0.50400001928E-02 0.  1.
    10030    2    1    2    0    0  0.00000000000E+00  0.00000000000E+00  0.30463597457E+03  0.10556433885E+04  0.10107323517E+04 0.  0.
        4    1    3    3  502    0 -0.18667281319E+03 -0.46295509224E+03  0.69951906381E+02  0.50405261503E+03  0.12699999809E+01 0. -1.
       -4    1    3    3    0  502  0.18667281319E+03  0.46295509224E+03  0.23468406819E+03  0.55159077347E+03  0.12699999809E+01 0.  1.
</event>
<event>
 5   0  0.5960102E-04  0.1003977E+04  0.7818609E-02  0.9304194E-01
        1   -1    0    0  501    0  0.00000000000E+00  0.00000000000E+00  0.18628264571E+04  0.18628264571E+04  0.50400001928E-02 0. -1.
       -1   -1    0    0    0  501  0.00000000000E+00  0.00000000000E+00 -0.13527421442E+03  0.13527421452E+03  0.50400001928E-02 0.  1.
    10030    2    1    2    0    0  0.00000000000E+00  0.00000000000E+00  0.17275522427E+04  0.19981006716E+04  0.10039768637E+04 0.  0.
        5    1    3    3  502    0  0.14053005201E+03 -0.20219600307E+03  0.17343280929E+04  0.17517271314E+04  0.46999998093E+01 0. -1.
       -5    1    3    3    0  502 -0.14053005201E+03  0.20219600307E+03 -0.67758502020E+01  0.24637354022E+03  0.46999998093E+01 0.  1.
</event>
<event>
 5   0  0.5768102E-04  0.9894786E+03  0.7818609E-02  0.9320160E-01
        1   -1    0    0  501    0  0.00000000000E+00  0.00000000000E+00  0.57355244873E+03  0.57355244875E+03  0.50400001928E-02 0.  1.
       -1   -1    0    0    0  501  0.00000000000E+00  0.00000000000E+00 -0.42675605668E+03  0.42675605671E+03  0.50400001928E-02 0. -1.
    10030    2    1    2    0    0  0.00000000000E+00  0.00000000000E+00  0.14679639204E+03  0.10003085055E+04  0.98947861290E+03 0.  0.
        4    1    3    3  502    0  0.21150821995E+03  0.26051506457E+03 -0.29412106054E+03  0.44622039075E+03  0.12699999809E+01 0. -1.
       -4    1    3    3    0  502 -0.21150821995E+03 -0.26051506457E+03  0.44091745258E+03  0.55408811471E+03  0.12699999809E+01 0.  1.
</event>
<event>
 5   0  0.5826939E-04  0.9994134E+03  0.7818609E-02  0.9309188E-01
        1   -1    0    0  501    0  0.00000000000E+00  0.00000000000E+00  0.52397603866E+03  0.52397603868E+03  0.50400001928E-02 0. -1.
       -1   -1    0    0    0  501  0.00000000000E+00  0.00000000000E+00 -0.47656149942E+03  0.47656149945E+03  0.50400001928E-02 0.  1.
    10030    2    1    2    0    0  0.00000000000E+00  0.00000000000E+00  0.47414539235E+02  0.10005375381E+04  0.99941344132E+03 0.  0.
        1    1    3    3  502    0  0.27610746559E+03 -0.10368641442E+03 -0.38013285906E+03  0.48113116263E+03  0.50400001928E-02 0.  1.
       -1    1    3    3    0  502 -0.27610746559E+03  0.10368641442E+03  0.42754739830E+03  0.51940637550E+03  0.50400001928E-02 0. -1.
</event>
<event>
 5   0  0.1020150E-03  0.9963554E+03  0.7818609E-02  0.9312551E-01
        2   -1    0    0  501    0  0.00000000000E+00  0.00000000000E+00  0.12804195183E+03  0.12804195186E+03  0.25500000920E-02 0. -1.
       -2   -1    0    0    0  501  0.00000000000E+00  0.00000000000E+00 -0.19382790984E+04  0.19382790984E+04  0.25500000920E-02 0.  1.
    10030    2    1    2    0    0  0.00000000000E+00  0.00000000000E+00 -0.18102371465E+04  0.20663210502E+04  0.99635543653E+03 0.  0.
        5    1    3    3  502    0  0.35876977770E+03  0.24628241905E+03 -0.14079570011E+04  0.14736810341E+04  0.46999998093E+01 0.  1.
       -5    1    3    3    0  502 -0.35876977770E+03 -0.24628241905E+03 -0.40228014549E+03  0.59264001618E+03  0.46999998093E+01 0. -1.
</event>
<event>
 5   0  0.5768102E-04  0.9998721E+03  0.7818609E-02  0.9308685E-01
       -1   -1    0    0    0  501  0.00000000000E+00  0.00000000000E+00  0.23164644508E+03  0.23164644513E+03  0.50400001928E-02 0. -1.
        1   -1    0    0  501    0  0.00000000000E+00  0.00000000000E+00 -0.10789549145E+04  0.10789549145E+04  0.50400001928E-02 0.  1.
    10030    2    1    2    0    0  0.00000000000E+00  0.00000000000E+00 -0.84730846944E+03  0.13106013597E+04  0.99987213261E+03 0.  0.
        4    1    3    3  502    0 -0.18193242296E+03 -0.27325538241E+03 -0.91787940232E+03  0.97481901943E+03  0.12699999809E+01 0.  1.
       -4    1    3    3    0  502  0.18193242296E+03  0.27325538241E+03  0.70570932886E+02  0.33578234023E+03  0.12699999809E+01 0. -1.
</event>
<event>
 5   0  0.3854625E-04  0.9992666E+03  0.7818609E-02  0.9309350E-01
       -4   -1    0    0    0  501  0.00000000000E+00  0.00000000000E+00  0.10097635654E+04  0.10097643640E+04  0.12699999809E+01 0.  1.
        4   -1    0    0  501    0  0.00000000000E+00  0.00000000000E+00 -0.24721717549E+03  0.24722043758E+03  0.12699999809E+01 0. -1.
    10030    2    1    2    0    0  0.00000000000E+00  0.00000000000E+00  0.76254638986E+03  0.12569848016E+04  0.99926662845E+03 0.  0.
        4    1    3    3  502    0  0.27349493661E+03  0.38419642466E+03  0.17371672418E+03  0.50257883584E+03  0.12699999809E+01 0.  1.
       -4    1    3    3    0  502 -0.27349493661E+03 -0.38419642466E+03  0.58882966568E+03  0.75440596575E+03  0.12699999809E+01 0. -1.
</event>
<event>
 5   0  0.9741826E-04  0.1000743E+04  0.7818609E-02  0.9307730E-01
       -2   -1    0    0    0  501  0.00000000000E+00  0.00000000000E+00  0.26996971375E+03  0.26996971377E+03  0.25500000920E-02 0.  1.
        2   -1    0    0  501    0  0.00000000000E+00  0.00000000000E+00 -0.92740614230E+03  0.92740614230E+03  0.25500000920E-02 0. -1.
    10030    2    1    2    0    0  0.00000000000E+00  0.00000000000E+00 -0.65743642854E+03  0.11973758561E+04  0.10007428656E+04 0.  0.
        3    1    3    3  502    0 -0.64965089580E+02 -0.14130339177E+03 -0.89775371974E+03  0.91112505338E+03  0.10100000352E+00 0. -1.
       -3    1    3    3    0  502  0.64965089580E+02  0.14130339177E+03  0.24031729120E+03  0.28625080269E+03  0.10100000352E+00 0.  1.
</event>
<event>
 5   0  0.9741826E-04  0.1002383E+04  0.7818609E-02  0.9305935E-01
       -2   -1    0    0    0  501  0.00000000000E+00  0.00000000000E+00  0.40951006170E+03  0.40951006171E+03  0.25500000920E-02 0.  1.
        2   -1    0    0  501    0  0.00000000000E+00  0.00000000000E+00 -0.61339868311E+03  0.61339868311E+03  0.25500000920E-02 0. -1.
    10030    2    1    2    0    0  0.00000000000E+00  0.00000000000E+00 -0.20388862140E+03  0.10229087448E+04  0.10023830257E+04 0.  0.
        3    1    3    3  502    0 -0.93640738070E+02  0.72891700027E+02 -0.59885594146E+03  0.61049998901E+03  0.10100000352E+00 0. -1.
       -3    1    3    3    0  502  0.93640738070E+02 -0.72891700027E+02  0.39496732006E+03  0.41240875582E+03  0.10100000352E+00 0.  1.
</event>
<event>
 5   0  0.5960102E-04  0.1003483E+04  0.7818609E-02  0.9304733E-01
       -1   -1    0    0    0  501  0.00000000000E+00  0.00000000000E+00  0.54856487231E+03  0.54856487234E+03  0.50400001928E-02 0.  1.
        1   -1    0    0  501    0  0.00000000000E+00  0.00000000000E+00 -0.45891506217E+03  0.45891506220E+03  0.50400001928E-02 0. -1.
    10030    2    1    2    0    0  0.00000000000E+00  0.00000000000E+00  0.89649810140E+02  0.10074799345E+04  0.10034832983E+04 0.  0.
        5    1    3    3  502    0 -0.15983999846E+03 -0.38177395249E+03  0.32954283418E+03  0.52907536842E+03  0.46999998093E+01 0.  1.
       -5    1    3    3    0  502  0.15983999846E+03  0.38177395249E+03 -0.23989302404E+03  0.47840456612E+03  0.46999998093E+01 0. -1.
</event>
<event>
 5   0  0.1020150E-03  0.9990847E+03  0.7818609E-02  0.9309549E-01
        2   -1    0    0  501    0  0.00000000000E+00  0.00000000000E+00  0.71768530811E+03  0.71768530811E+03  0.25500000920E-02 0. -1.
       -2   -1    0    0    0  501  0.00000000000E+00  0.00000000000E+00 -0.34770472793E+03  0.34770472794E+03  0.25500000920E-02 0.  1.
    10030    2    1    2    0    0  0.00000000000E+00  0.00000000000E+00  0.36998058018E+03  0.10653900360E+04  0.99908473074E+03 0.  0.
        5    1    3    3  502    0  0.34779241522E+03  0.69603357914E+01  0.56726797925E+03  0.66544951773E+03  0.46999998093E+01 0. -1.
       -5    1    3    3    0  502 -0.34779241522E+03 -0.69603357914E+01 -0.19728739908E+03  0.39994051832E+03  0.46999998093E+01 0.  1.
</event>
<event>
 5   0  0.9741826E-04  0.9992771E+03  0.7818609E-02  0.9309338E-01
        2   -1    0    0  501    0  0.00000000000E+00  0.00000000000E+00  0.17400572261E+04  0.17400572261E+04  0.25500000920E-02 0.  1.
       -2   -1    0    0    0  501  0.00000000000E+00  0.00000000000E+00 -0.14346577920E+03  0.14346577922E+03  0.25500000920E-02 0. -1.
    10030    2    1    2    0    0  0.00000000000E+00  0.00000000000E+00  0.15965914469E+04  0.18835230054E+04  0.99927707032E+03 0.  0.
        3    1    3    3  502    0  0.90746394451E+02  0.13297343755E+03 -0.93240865450E+02  0.18603954523E+03  0.10100000352E+00 0. -1.
       -3    1    3    3    0  502 -0.90746394451E+02 -0.13297343755E+03  0.16898323124E+04  0.16974834601E+04  0.10100000352E+00 0.  1.
</event>
<event>
 5   0  0.5758786E-04  0.1000205E+04  0.7818609E-02  0.9308320E-01
       -1   -1    0    0    0  501  0.00000000000E+00  0.00000000000E+00  0.14342842904E+03  0.14342842913E+03  0.50400001928E-02 0.  1.
        1   -1    0    0  501    0  0.00000000000E+00  0.00000000000E+00 -0.17437445243E+04  0.17437445244E+04  0.50400001928E-02 0. -1.
    10030    2    1    2    0    0  0.00000000000E+00  0.00000000000E+00 -0.16003160953E+04  0.18871729535E+04  0.10002050547E+04 0.  0.
        3    1    3    3  502    0  0.19426717755E+02 -0.11190132052E+03  0.11877305933E+03  0.16433609682E+03  0.10100000352E+00 0.  1.
       -3    1    3    3    0  502 -0.19426717755E+02  0.11190132052E+03 -0.17190891546E+04  0.17228368567E+04  0.10100000352E+00 0. -1.
</event>
<event>
 5   0  0.5758786E-04  0.1000143E+04  0.7818609E-02  0.9308388E-01
       -1   -1    0    0    0  501  0.00000000000E+00  0.00000000000E+00  0.51163647720E+03  0.51163647723E+03  0.50400001928E-02 0. -1.
        1   -1    0    0  501    0  0.00000000000E+00  0.00000000000E+00 -0.48876820349E+03  0.48876820352E+03  0.50400001928E-02 0.  1.
    10030    2    1    2    0    0  0.00000000000E+00  0.00000000000E+00  0.22868273708E+02  0.10004046807E+04  0.10001432734E+04 0.  0.
        3    1    3    3  502    0 -0.35438812166E+03  0.34707263908E+03 -0.51995953872E+02  0.49875239046E+03  0.10100000352E+00 0. -1.
       -3    1    3    3    0  502  0.35438812166E+03 -0.34707263908E+03  0.74864227580E+02  0.50165229028E+03  0.10100000352E+00 0.  1.
</event>
<event>
 5   0  0.5768102E-04  0.9995389E+03  0.7818609E-02  0.9309051E-01
        1   -1    0    0  501    0  0.00000000000E+00  0.00000000000E+00  0.21887115148E+04  0.21887115148E+04  0.50400001928E-02 0. -1.
       -1   -1    0    0    0  501  0.00000000000E+00  0.00000000000E+00 -0.11411714835E+03  0.11411714846E+03  0.50400001928E-02 0.  1.
    10030    2    1    2    0    0  0.00000000000E+00  0.00000000000E+00  0.20745943664E+04  0.23028286632E+04  0.99953892723E+03 0.  0.
        4    1    3    3  502    0  0.20026218099E+03  0.29004064981E+03  0.22099320883E+03  0.41601458019E+03  0.12699999809E+01 0.  1.
       -4    1    3    3    0  502 -0.20026218099E+03 -0.29004064981E+03  0.18536011576E+04  0.18868140831E+04  0.12699999809E+01 0. -1.
</event>
<event>
 5   0  0.1006749E-03  0.9965257E+03  0.7818609E-02  0.9312364E-01
        2   -1    0    0  501    0  0.00000000000E+00  0.00000000000E+00  0.10008515843E+04  0.10008515843E+04  0.25500000920E-02 0.  1.
       -2   -1    0    0    0  501  0.00000000000E+00  0.00000000000E+00 -0.24805461223E+03  0.24805461224E+03  0.25500000920E-02 0. -1.
    10030    2    1    2    0    0  0.00000000000E+00  0.00000000000E+00  0.75279697208E+03  0.12489061966E+04  0.99652566782E+03 0.  0.
        1    1    3    3  502    0  0.25802232421E+03  0.30223779452E+03  0.75309164874E+03  0.85151056109E+03  0.50400001928E-02 0.  1.
       -1    1    3    3    0  502 -0.25802232421E+03 -0.30223779452E+03 -0.29467665955E+00  0.39739563547E+03  0.50400001928E-02 0. -1.
</event>
<event>
 5   0  0.3854625E-04  0.9995400E+03  0.7818609E-02  0.9309049E-01
       -4   -1    0    0    0  501  0.00000000000E+00  0.00000000000E+00  0.94495294412E+03  0.94495379755E+03  0.12699999809E+01 0.  1.
        4   -1    0    0  501    0  0.00000000000E+00  0.00000000000E+00 -0.26431760890E+03  0.26432065995E+03  0.12699999809E+01 0. -1.
    10030    2    1    2    0    0  0.00000000000E+00  0.00000000000E+00  0.68063533521E+03  0.12092744575E+04  0.99954002122E+03 0.  0.
        2    1    3    3  502    0 -0.30524314142E+03  0.30360851889E+03  0.64738257231E+03  0.77746749325E+03  0.25500000920E-02 0.  1.
       -2    1    3    3    0  502  0.30524314142E+03 -0.30360851889E+03  0.33252762902E+02  0.43180696425E+03  0.25500000920E-02 0. -1.
</event>
<event>
 5   0  0.1006006E-03  0.1001497E+04  0.7818609E-02  0.9306904E-01
       -2   -1    0    0    0  501  0.00000000000E+00  0.00000000000E+00  0.90503625799E+02  0.90503625835E+02  0.25500000920E-02 0. -1.
        2   -1    0    0  501    0  0.00000000000E+00  0.00000000000E+00 -0.27705971747E+04  0.27705971747E+04  0.25500000920E-02 0.  1.
    10030    2    1    2    0    0  0.00000000000E+00  0.00000000000E+00 -0.26800935489E+04  0.28611008006E+04  0.10014970594E+04 0.  0.
        2    1    3    3  502    0  0.45351559163E+03 -0.36998060549E+02 -0.19372790742E+04  0.19899988592E+04  0.25500000920E-02 0.  1.
       -2    1    3    3    0  502 -0.45351559163E+03  0.36998060549E+02 -0.74281447469E+03  0.87110194131E+03  0.25500000920E-02 0. -1.
</event>
<event>
 5   0  0.9741826E-04  0.9990576E+03  0.7818609E-02  0.9309579E-01
        2   -1    0    0  501    0  0.00000000000E+00  0.00000000000E+00  0.12707252541E+04  0.12707252541E+04  0.25500000920E-02 0.  1.
       -2   -1    0    0    0  501  0.00000000000E+00  0.00000000000E+00 -0.19636739400E+03  0.19636739402E+03  0.25500000920E-02 0. -1.
    10030    2    1    2    0    0  0.00000000000E+00  0.00000000000E+00  0.10743578601E+04  0.14670926481E+04  0.99905756922E+03 0.  0.
        3    1    3    3  502    0 -0.36075587383E+03 -0.41470566863E+02  0.33458522067E+02  0.36466983879E+03  0.10100000352E+00 0. -1.
       -3    1    3    3    0  502  0.36075587383E+03  0.41470566863E+02  0.10408993380E+04  0.11024228093E+04  0.10100000352E+00 0.  1.
</event>
<event>
 5   0  0.5888774E-04  0.9993506E+03  0.7818609E-02  0.9309257E-01
       -1   -1    0    0    0  501  0.00000000000E+00  0.00000000000E+00  0.24581903269E+03  0.24581903274E+03  0.50400001928E-02 0. -1.
        1   -1    0    0  501    0  0.00000000000E+00  0.00000000000E+00 -0.10156878899E+04  0.10156878899E+04  0.50400001928E-02 0.  1.
    10030    2    1    2    0    0  0.00000000000E+00  0.00000000000E+00 -0.76986885716E+03  0.12615069226E+04  0.99935061843E+03 0.  0.
        2    1    3    3  502    0  0.11400151568E+03  0.48539017554E+03 -0.34353768610E+03  0.60548997503E+03  0.25500000920E-02 0. -1.
       -2    1    3    3    0  502 -0.11400151568E+03 -0.48539017554E+03 -0.42633117106E+03  0.65601694758E+03  0.25500000920E-02 0.  1.
</event>
<event>
 5   0  0.5826939E-04  0.1000163E+04  0.7818609E-02  0.9308366E-01
        1   -1    0    0  501    0  0.00000000000E+00  0.00000000000E+00  0.16191663108E+04  0.16191663108E+04  0.50400001928E-02 0. -1.
       -1   -1    0    0    0  501  0.00000000000E+00  0.00000000000E+00 -0.15445074556E+03  0.15445074564E+03  0.50400001928E-02 0.  1.
    10030    2    1    2    0    0  0.00000000000E+00  0.00000000000E+00  0.14647155652E+04  0.17736170564E+04  0.10001628747E+04 0.  0.
        1    1    3    3  502    0 -0.33708446195E+03  0.17576787283E+03  0.13085152735E+04  0.13626197198E+04  0.50400001928E-02 0. -1.
       -1    1    3    3    0  502  0.33708446195E+03 -0.17576787283E+03  0.15620029172E+03  0.41099733669E+03  0.50400001928E-02 0.  1.
</event>
<event>
 5   0  0.9741826E-04  0.9988133E+03  0.7818609E-02  0.9309847E-01
        2   -1    0    0  501    0  0.00000000000E+00  0.00000000000E+00  0.56340026027E+03  0.56340026028E+03  0.25500000920E-02 0. -1.
       -2   -1    0    0    0  501  0.00000000000E+00  0.00000000000E+00 -0.44268174911E+03  0.44268174911E+03  0.25500000920E-02 0.  1.
    10030    2    1    2    0    0  0.00000000000E+00  0.00000000000E+00  0.12071851116E+03  0.10060820094E+04  0.99881332124E+03 0.  0.
        3    1    3    3  502    0  0.42079355535E+03  0.25064778372E+03  0.15861643383E+03  0.51483075956E+03  0.10100000352E+00 0. -1.
       -3    1    3    3    0  502 -0.42079355535E+03 -0.25064778372E+03 -0.37897922671E+02  0.49125124982E+03  0.10100000352E+00 0.  1.
</event>
<event>
 5   0  0.1020150E-03  0.1000970E+04  0.7818609E-02  0.9307482E-01
       -2   -1    0    0    0  501  0.00000000000E+00  0.00000000000E+00  0.30861320963E+03  0.30861320964E+03  0.25500000920E-02 0. -1.
        2   -1    0    0  501    0  0.00000000000E+00  0.00000000000E+00 -0.81164745753E+03  0.81164745754E+03  0.25500000920E-02 0.  1.
    10030    2    1    2    0    0  0.00000000000E+00  0.00000000000E+00 -0.50303424790E+03  0.11202606672E+04  0.10009697837E+04 0.  0.
        5    1    3    3  502    0 -0.54317375728E+01 -0.41018762988E+03  0.69316769389E+02  0.41606525930E+03  0.46999998093E+01 0. -1.
       -5    1    3    3    0  502  0.54317375728E+01  0.41018762988E+03 -0.57235101729E+03  0.70419540788E+03  0.46999998093E+01 0.  1.
</event>
<event>
 5   0  0.5758786E-04  0.9996391E+03  0.7818609E-02  0.9308941E-01
        1   -1    0    0  501    0  0.00000000000E+00  0.00000000000E+00  0.71604295917E+03  0.71604295919E+03  0.50400001928E-02 0.  1.
       -1   -1    0    0    0  501  0.00000000000E+00  0.00000000000E+00 -0.34888910107E+03  0.34888910110E+03  0.50400001928E-02 0. -1.
    10030    2    1    2    0    0  0.00000000000E+00  0.00000000000E+00  0.36715385811E+03  0.10649320603E+04  0.99963910364E+03 0.  0.
        3    1    3    3  502    0  0.43190782009E+03 -0.50436876047E+02 -0.78956773733E+02  0.44195296790E+03  0.10100000352E+00 0. -1.
       -3    1    3    3    0  502 -0.43190782009E+03  0.50436876047E+02  0.44611063184E+03  0.62297909239E+03  0.10100000352E+00 0.  1.
</event>
<event>
 5   0  0.5888774E-04  0.1000108E+04  0.7818609E-02  0.9308426E-01
        1   -1    0    0  501    0  0.00000000000E+00  0.00000000000E+00  0.45860305240E+03  0.45860305243E+03  0.50400001928E-02 0.  1.
       -1   -1    0    0    0  501  0.00000000000E+00  0.00000000000E+00 -0.54525169559E+03  0.54525169561E+03  0.50400001928E-02 0. -1.
    10030    2    1    2    0    0  0.00000000000E+00  0.00000000000E+00 -0.86648643184E+02  0.10038547480E+04  0.10001081780E+04 0.  0.
        2    1    3    3  502    0 -0.38016909296E+03  0.27297413607E+03  0.13343384971E+03  0.48667033036E+03  0.25500000920E-02 0. -1.
       -2    1    3    3    0  502  0.38016909296E+03 -0.27297413607E+03 -0.22008249290E+03  0.51718441768E+03  0.25500000920E-02 0.  1.
</event>
<event>
 5   0  0.5888774E-04  0.1001793E+04  0.7818609E-02  0.9306581E-01
        1   -1    0    0  501    0  0.00000000000E+00  0.00000000000E+00  0.10507845787E+04  0.10507845787E+04  0.50400001928E-02 0.  1.
       -1   -1    0    0    0  501  0.00000000000E+00  0.00000000000E+00 -0.23877122978E+03  0.23877122984E+03  0.50400001928E-02 0. -1.
    10030    2    1    2    0    0  0.00000000000E+00  0.00000000000E+00  0.81201334894E+03  0.12895558086E+04  0.10017926455E+04 0.  0.
        2    1    3    3  502    0  0.75549051847E+02 -0.48315351584E+03  0.54555380515E+03  0.73264857430E+03  0.25500000920E-02 0.  1.
       -2    1    3    3    0  502 -0.75549051847E+02  0.48315351584E+03  0.26645954379E+03  0.55690723428E+03  0.25500000920E-02 0. -1.
</event>
<event>
 5   0  0.9674819E-04  0.9996224E+03  0.7818609E-02  0.9308959E-01
       -2   -1    0    0    0  501  0.00000000000E+00  0.00000000000E+00  0.15205510901E+03  0.15205510903E+03  0.25500000920E-02 0. -1.
        2   -1    0    0  501    0  0.00000000000E+00  0.00000000000E+00 -0.16428991925E+04  0.16428991925E+04  0.25500000920E-02 0.  1.
    10030    2    1    2    0    0  0.00000000000E+00  0.00000000000E+00 -0.14908440835E+04  0.17949543015E+04  0.99962236035E+03 0.  0.
        4    1    3    3  502    0  0.45013012537E+03 -0.67437047822E+02 -0.11162308621E+04  0.12054616691E+04  0.12699999809E+01 0.  1.
       -4    1    3    3    0  502 -0.45013012537E+03  0.67437047822E+02 -0.37461322138E+03  0.58949263245E+03  0.12699999809E+01 0. -1.
</event>
<event>
 5   0  0.5960102E-04  0.9967939E+03  0.7818609E-02  0.9312068E-01
        1   -1    0    0  501    0  0.00000000000E+00  0.00000000000E+00  0.52505158731E+03  0.52505158733E+03  0.50400001928E-02 0. -1.
       -1   -1    0    0    0  501  0.00000000000E+00  0.00000000000E+00 -0.47309543308E+03  0.47309543310E+03  0.50400001928E-02 0.  1.
    10030    2    1    2    0    0  0.00000000000E+00  0.00000000000E+00  0.51956154231E+02  0.99814702044E+03  0.99679387661E+03 0.  0.
        5    1    3    3  502    0  0.18502025732E+03 -0.80193951377E+02  0.48235311689E+03  0.52282902065E+03  0.46999998093E+01 0. -1.
       -5    1    3    3    0  502 -0.18502025732E+03  0.80193951377E+02 -0.43039696266E+03  0.47531799979E+03  0.46999998093E+01 0.  1.
</event>
<event>
 5   0  0.1020150E-03  0.9976794E+03  0.7818609E-02  0.9311094E-01
        2   -1    0    0  501    0  0.00000000000E+00  0.00000000000E+00  0.57204189541E+03  0.57204189541E+03  0.25500000920E-02 0. -1.
       -2   -1    0    0    0  501  0.00000000000E+00  0.00000000000E+00 -0.43500493427E+03  0.43500493428E+03  0.25500000920E-02 0.  1.
    10030    2    1    2    0    0  0.00000000000E+00  0.00000000000E+00  0.13703696113E+03  0.10070468297E+04  0.99767940165E+03 0.  0.
        5    1    3    3  502    0 -0.41410346752E+03 -0.18816990531E+03  0.27520768240E+03  0.53164927680E+03  0.46999998093E+01 0. -1.
       -5    1    3    3    0  502  0.41410346752E+03  0.18816990531E+03 -0.13817072127E+03  0.47539755289E+03  0.46999998093E+01 0.  1.
</event>
<event>
 5   0  0.5888774E-04  0.9993001E+03  0.7818609E-02  0.9309313E-01
        1   -1    0    0  501    0  0.00000000000E+00  0.00000000000E+00  0.43860417016E+03  0.43860417018E+03  0.50400001928E-02 0. -1.
       -1   -1    0    0    0  501  0.00000000000E+00  0.00000000000E+00 -0.56919241619E+03  0.56919241621E+03  0.50400001928E-02 0.  1.
    10030    2    1    2    0    0  0.00000000000E+00  0.00000000000E+00 -0.13058824603E+03  0.10077965864E+04  0.99930008984E+03 0.  0.
        2    1    3    3  502    0 -0.91512615236E+02  0.69697047200E+02 -0.55565652305E+03  0.56743846252E+03  0.25500000920E-02 0.  1.
       -2    1    3    3    0  502  0.91512615236E+02 -0.69697047200E+02  0.42506827701E+03  0.44035812388E+03  0.25500000920E-02 0. -1.
</event>
<event>
 5   0  0.1006749E-03  0.9992269E+03  0.7818609E-02  0.9309393E-01
       -2   -1    0    0    0  501  0.00000000000E+00  0.00000000000E+00  0.37818758661E+03  0.37818758662E+03  0.25500000920E-02 0.  1.
        2   -1    0    0  501    0  0.00000000000E+00  0.00000000000E+00 -0.66002595395E+03  0.66002595395E+03  0.25500000920E-02 0. -1.
    10030    2    1    2    0    0  0.00000000000E+00  0.00000000000E+00 -0.28183836734E+03  0.10382135406E+04  0.99922694646E+03 0.  0.
        1    1    3    3  502    0  0.39877564534E+03 -0.21480673071E+03  0.78137672218E+02  0.45964055818E+03  0.50400001928E-02 0.  1.
       -1    1    3    3    0  502 -0.39877564534E+03  0.21480673071E+03 -0.35997603956E+03  0.57857298240E+03  0.50400001928E-02 0. -1.
</event>
<event>
 5   0  0.5960102E-04  0.1000689E+04  0.7818609E-02  0.9307789E-01
       -1   -1    0    0    0  501  0.00000000000E+00  0.00000000000E+00  0.16530158461E+03  0.16530158468E+03  0.50400001928E-02 0. -1.
        1   -1    0    0  501    0  0.00000000000E+00  0.00000000000E+00 -0.15144734020E+04  0.15144734020E+04  0.50400001928E-02 0.  1.
    10030    2    1    2    0    0  0.00000000000E+00  0.00000000000E+00 -0.13491718174E+04  0.16797749867E+04  0.10006894688E+04 0.  0.
        5    1    3    3  502    0  0.36932823049E+03  0.27666620798E+03 -0.99910759359E+03  0.11005387799E+04  0.46999998093E+01 0.  1.
       -5    1    3    3    0  502 -0.36932823049E+03 -0.27666620798E+03 -0.35006422378E+03  0.57923620678E+03  0.46999998093E+01 0. -1.
</event>
<event>
 5   0  0.3854625E-04  0.9999167E+03  0.7818609E-02  0.9308636E-01
       -4   -1    0    0    0  501  0.00000000000E+00  0.00000000000E+00  0.53164458042E+03  0.53164609732E+03  0.12699999809E+01 0.  1.
        4   -1    0    0  501    0  0.00000000000E+00  0.00000000000E+00 -0.47015758529E+03  0.47015930057E+03  0.12699999809E+01 0. -1.
    10030    2    1    2    0    0  0.00000000000E+00  0.00000000000E+00  0.61486995128E+02  0.10018053979E+04  0.99991669886E+03 0.  0.
        3    1    3    3  502    0 -0.42331146012E+03  0.22675181437E+03  0.17010823036E+03  0.50945637480E+03  0.10100000352E+00 0.  1.
       -3    1    3    3    0  502  0.42331146012E+03 -0.22675181437E+03 -0.10862123523E+03  0.49234902308E+03  0.10100000352E+00 0. -1.
</event>
<event>
 5   0  0.1006006E-03  0.9964878E+03  0.7818609E-02  0.9312405E-01
        2   -1    0    0  501    0  0.00000000000E+00  0.00000000000E+00  0.17422958625E+04  0.17422958625E+04  0.25500000920E-02 0. -1.
       -2   -1    0    0    0  501  0.00000000000E+00  0.00000000000E+00 -0.14248269118E+03  0.14248269120E+03  0.25500000920E-02 0.  1.
    10030    2    1    2    0    0  0.00000000000E+00  0.00000000000E+00  0.15998131714E+04  0.18847785538E+04  0.99648783907E+03 0.  0.
        2    1    3    3  502    0  0.34752995527E+03  0.11637983158E+03  0.14383157622E+04  0.14842754349E+04  0.25500000920E-02 0. -1.
       -2    1    3    3    0  502 -0.34752995527E+03 -0.11637983158E+03  0.16149740920E+03  0.40050311883E+03  0.25500000920E-02 0.  1.
</event>
<event>
 5   0  0.1006006E-03  0.9975030E+03  0.7818609E-02  0.9311288E-01
       -2   -1    0    0    0  501  0.00000000000E+00  0.00000000000E+00  0.39838663440E+03  0.39838663441E+03  0.25500000920E-02 0.  1.
        2   -1    0    0  501    0  0.00000000000E+00  0.00000000000E+00 -0.62440113683E+03  0.62440113683E+03  0.25500000920E-02 0. -1.
    10030    2    1    2    0    0  0.00000000000E+00  0.00000000000E+00 -0.22601450242E+03  0.10227877712E+04  0.99750301739E+03 0.  0.
        2    1    3    3  502    0 -0.46906058765E+03  0.13055247372E+03 -0.22387428198E+03  0.53589315859E+03  0.25500000920E-02 0. -1.
       -2    1    3    3    0  502  0.46906058765E+03 -0.13055247372E+03 -0.21402204451E+01  0.48689461266E+03  0.25500000920E-02 0.  1.
</event>
<event>
 5   0  0.9674819E-04  0.1001567E+04  0.7818609E-02  0.9306827E-01
        2   -1    0    0  501    0  0.00000000000E+00  0.00000000000E+00  0.14464428189E+04  0.14464428189E+04  0.25500000920E-02 0. -1.
       -2   -1    0    0    0  501  0.00000000000E+00  0.00000000000E+00 -0.17338004897E+03  0.17338004899E+03  0.25500000920E-02 0.  1.
    10030    2    1    2    0    0  0.00000000000E+00  0.00000000000E+00  0.12730627699E+04  0.16198228679E+04  0.10015674252E+04 0.  0.
        4    1    3    3  502    0 -0.30610223771E+03 -0.14348431592E+03  0.12340451429E+04  0.12795137188E+04  0.12699999809E+01 0. -1.
       -4    1    3    3    0  502  0.30610223771E+03  0.14348431592E+03  0.39017626978E+02  0.34030914910E+03  0.12699999809E+01 0.  1.
</event>
<event>
 5   0  0.1006006E-03  0.1000295E+04  0.7818609E-02  0.9308221E-01
        2   -1    0    0  501    0  0.00000000000E+00  0.00000000000E+00  0.17780400911E+04  0.17780400911E+04  0.25500000920E-02 0.  1.
       -2   -1    0    0    0  501  0.00000000000E+00  0.00000000000E+00 -0.14068733555E+03  0.14068733558E+03  0.25500000920E-02 0. -1.
    10030    2    1    2    0    0  0.00000000000E+00  0.00000000000E+00  0.16373527555E+04  0.19187274267E+04  0.10002954023E+04 0.  0.
        2    1    3    3  502    0  0.25017143152E+03  0.40717274753E+03  0.53564311394E+03  0.71783628844E+03  0.25500000920E-02 0. -1.
       -2    1    3    3    0  502 -0.25017143152E+03 -0.40717274753E+03  0.11017096416E+04  0.12008911382E+04  0.25500000920E-02 0.  1.
</event>
<event>
 5   0  0.1006006E-03  0.1001057E+04  0.7818609E-02  0.9307386E-01
       -2   -1    0    0    0  501  0.00000000000E+00  0.00000000000E+00  0.13669037313E+03  0.13669037315E+03  0.25500000920E-02 0. -1.
        2   -1    0    0  501    0  0.00000000000E+00  0.00000000000E+00 -0.18328194839E+04  0.18328194839E+04  0.25500000920E-02 0.  1.
    10030    2    1    2    0    0  0.00000000000E+00  0.00000000000E+00 -0.16961291108E+04  0.19695098571E+04  0.10010569997E+04 0.  0.
        2    1    3    3  502    0  0.40002163914E+03  0.28954330446E+03 -0.10088186862E+04  0.11231953430E+04  0.25500000920E-02 0.  1.
       -2    1    3    3    0  502 -0.40002163914E+03 -0.28954330446E+03 -0.68731042457E+03  0.84631451404E+03  0.25500000920E-02 0. -1.
</event>
<event>
 5   0  0.9741826E-04  0.9978534E+03  0.7818609E-02  0.9310902E-01
        2   -1    0    0  501    0  0.00000000000E+00  0.00000000000E+00  0.11493310438E+04  0.11493310438E+04  0.25500000920E-02 0.  1.
       -2   -1    0    0    0  501  0.00000000000E+00  0.00000000000E+00 -0.21658499226E+03  0.21658499227E+03  0.25500000920E-02 0. -1.
    10030    2    1    2    0    0  0.00000000000E+00  0.00000000000E+00  0.93274605156E+03  0.13659160361E+04  0.99785340654E+03 0.  0.
        3    1    3    3  502    0  0.36599062062E+03 -0.33655749717E+03  0.40980501590E+03  0.64432929822E+03  0.10100000352E+00 0.  1.
       -3    1    3    3    0  502 -0.36599062062E+03  0.33655749717E+03  0.52294103566E+03  0.72158673787E+03  0.10100000352E+00 0. -1.
</event>
<event>
 5   0  0.5768102E-04  0.1001484E+04  0.7818609E-02  0.9306919E-01
       -1   -1    0    0    0  501  0.00000000000E+00  0.00000000000E+00  0.31210243680E+03  0.31210243685E+03  0.50400001928E-02 0.  1.
        1   -1    0    0  501    0  0.00000000000E+00  0.00000000000E+00 -0.80339813009E+03  0.80339813010E+03  0.50400001928E-02 0. -1.
    10030    2    1    2    0    0  0.00000000000E+00  0.00000000000E+00 -0.49129569328E+03  0.11155005669E+04  0.10014839273E+04 0.  0.
        4    1    3    3  502    0 -0.44624890078E+03 -0.22381839106E+03 -0.20239170894E+03  0.53869914644E+03  0.12699999809E+01 0.  1.
       -4    1    3    3    0  502  0.44624890078E+03  0.22381839106E+03 -0.28890398434E+03  0.57680142051E+03  0.12699999809E+01 0. -1.
</event>
<event>
 5   0  0.5826939E-04  0.9995628E+03  0.7818609E-02  0.9309024E-01
        1   -1    0    0  501    0  0.00000000000E+00  0.00000000000E+00  0.11982362811E+04  0.11982362811E+04  0.50400001928E-02 0.  1.
       -1   -1    0    0    0  501  0.00000000000E+00  0.00000000000E+00 -0.20845759054E+03  0.20845759060E+03  0.50400001928E-02 0. -1.
    10030    2    1    2    0    0  0.00000000000E+00  0.00000000000E+00  0.98977869059E+03  0.14066938717E+04  0.99956280065E+03 0.  0.
        1    1    3    3  502    0  0.22940581405E+03  0.79332300288E+02  0.11097092054E+04  0.11359468130E+04  0.50400001928E-02 0.  1.
       -1    1    3    3    0  502 -0.22940581405E+03 -0.79332300288E+02 -0.11993051484E+03  0.27074705871E+03  0.50400001928E-02 0. -1.
</event>
<event>
 5   0  0.5758786E-04  0.1001537E+04  0.7818609E-02  0.9306861E-01
        1   -1    0    0  501    0  0.00000000000E+00  0.00000000000E+00  0.45906537128E+03  0.45906537131E+03  0.50400001928E-02 0.  1.
       -1   -1    0    0    0  501  0.00000000000E+00  0.00000000000E+00 -0.54626019273E+03  0.54626019276E+03  0.50400001928E-02 0. -1.
    10030    2    1    2    0    0  0.00000000000E+00  0.00000000000E+00 -0.87194821452E+02  0.10053255641E+04  0.10015370951E+04 0.  0.
        3    1    3    3  502    0  0.20736594052E+03  0.14084048386E+03 -0.47874900385E+03  0.54040475023E+03  0.10100000352E+00 0. -1.
       -3    1    3    3    0  502 -0.20736594052E+03 -0.14084048386E+03  0.39155418240E+03  0.46492081384E+03  0.10100000352E+00 0.  1.
</event>
<event>
 5   0  0.5888774E-04  0.1001726E+04  0.7818609E-02  0.9306654E-01
        1   -1    0    0  501    0  0.00000000000E+00  0.00000000000E+00  0.46456148993E+03  0.46456148995E+03  0.50400001928E-02 0.  1.
       -1   -1    0    0    0  501  0.00000000000E+00  0.00000000000E+00 -0.54000063297E+03  0.54000063299E+03  0.50400001928E-02 0. -1.
    10030    2    1    2    0    0  0.00000000000E+00  0.00000000000E+00 -0.75439143039E+02  0.10045621229E+04  0.10017255086E+04 0.  0.
        2    1    3    3  502    0 -0.39090775844E+03 -0.29245792464E+03 -0.14994260452E+03  0.51070862334E+03  0.25500000920E-02 0. -1.
       -2    1    3    3    0  502  0.39090775844E+03  0.29245792464E+03  0.74503461484E+02  0.49385349961E+03  0.25500000920E-02 0.  1.
</event>
<event>
 5   0  0.5826939E-04  0.9997402E+03  0.7818609E-02  0.9308830E-01
       -1   -1    0    0    0  501  0.00000000000E+00  0.00000000000E+00  0.99142320614E+03  0.99142320615E+03  0.50400001928E-02 0.  1.
        1   -1    0    0  501    0  0.00000000000E+00  0.00000000000E+00 -0.25203174070E+03  0.25203174075E+03  0.50400001928E-02 0. -1.
    10030    2    1    2    0    0  0.00000000000E+00  0.00000000000E+00  0.73939146544E+03  0.12434549469E+04  0.99974019915E+03 0.  0.
        1    1    3    3  502    0 -0.88341660631E+02 -0.36321102773E+03  0.78247945766E+03  0.86717968228E+03  0.50400001928E-02 0. -1.
       -1    1    3    3    0  502  0.88341660631E+02  0.36321102773E+03 -0.43087992222E+02  0.37627526462E+03  0.50400001928E-02 0.  1.
</event>
<event>
 5   0  0.9674819E-04  0.9987583E+03  0.7818609E-02  0.9309908E-01
       -2   -1    0    0    0  501  0.00000000000E+00  0.00000000000E+00  0.16384417491E+03  0.16384417493E+03  0.25500000920E-02 0. -1.
        2   -1    0    0  501    0  0.00000000000E+00  0.00000000000E+00 -0.15220530838E+04  0.15220530838E+04  0.25500000920E-02 0.  1.
    10030    2    1    2    0    0  0.00000000000E+00  0.00000000000E+00 -0.13582089089E+04  0.16858972587E+04  0.99875829248E+03 0.  0.
        4    1    3    3  502    0  0.67914793993E+02  0.43425328064E+03 -0.10792321653E+04  0.11653033984E+04  0.12699999809E+01 0.  1.
       -4    1    3    3    0  502 -0.67914793993E+02 -0.43425328064E+03 -0.27897674365E+03  0.52059386030E+03  0.12699999809E+01 0. -1.
</event>
<event>
 5   0  0.9674819E-04  0.9993563E+03  0.7818609E-02  0.9309251E-01
       -2   -1    0    0    0  501  0.00000000000E+00  0.00000000000E+00  0.24605561856E+03  0.24605561857E+03  0.25500000920E-02 0.  1.
        2   -1    0    0  501    0  0.00000000000E+00  0.00000000000E+00 -0.10147228228E+04  0.10147228228E+04  0.25500000920E-02 0. -1.
    10030    2    1    2    0    0  0.00000000000E+00  0.00000000000E+00 -0.76866720423E+03  0.12607784414E+04  0.99935629650E+03 0.  0.
        4    1    3    3  502    0 -0.31181701554E+03  0.37384067841E+03 -0.24221591912E+03  0.54374338468E+03  0.12699999809E+01 0.  1.
       -4    1    3    3    0  502  0.31181701554E+03 -0.37384067841E+03 -0.52645128512E+03  0.71703505668E+03  0.12699999809E+01 0. -1.
</event>
<event>
 5   0  0.1006006E-03  0.1001161E+04  0.7818609E-02  0.9307273E-01
       -2   -1    0    0    0  501  0.00000000000E+00  0.00000000000E+00  0.45379906886E+03  0.45379906886E+03  0.25500000920E-02 0. -1.
        2   -1    0    0  501    0  0.00000000000E+00  0.00000000000E+00 -0.55218405661E+03  0.55218405661E+03  0.25500000920E-02 0.  1.
    10030    2    1    2    0    0  0.00000000000E+00  0.00000000000E+00 -0.98384987752E+02  0.10059831255E+04  0.10011605480E+04 0.  0.
        2    1    3    3  502    0 -0.14263962627E+03 -0.46126008593E+03 -0.18201729317E+03  0.51598180673E+03  0.25500000920E-02 0.  1.
       -2    1    3    3    0  502  0.14263962627E+03  0.46126008593E+03  0.83632305422E+02  0.49000131875E+03  0.25500000920E-02 0. -1.
</event>
<event>
 5   0  0.5960102E-04  0.1000529E+04  0.7818609E-02  0.9307965E-01
       -1   -1    0    0    0  501  0.00000000000E+00  0.00000000000E+00  0.31289544851E+03  0.31289544855E+03  0.50400001928E-02 0.  1.
        1   -1    0    0  501    0  0.00000000000E+00  0.00000000000E+00 -0.79983455852E+03  0.79983455854E+03  0.50400001928E-02 0. -1.
    10030    2    1    2    0    0  0.00000000000E+00  0.00000000000E+00 -0.48693911001E+03  0.11127300071E+04  0.10005290460E+04 0.  0.
        5    1    3    3  502    0  0.31863392172E+03  0.10249104348E+03 -0.65692683020E+03  0.73729705025E+03  0.46999998093E+01 0. -1.
       -5    1    3    3    0  502 -0.31863392172E+03 -0.10249104348E+03  0.16998772020E+03  0.37543295684E+03  0.46999998093E+01 0.  1.
</event>
<event>
 5   0  0.5768102E-04  0.1000302E+04  0.7818609E-02  0.9308213E-01
       -1   -1    0    0    0  501  0.00000000000E+00  0.00000000000E+00  0.34180660707E+03  0.34180660711E+03  0.50400001928E-02 0. -1.
        1   -1    0    0  501    0  0.00000000000E+00  0.00000000000E+00 -0.73185009451E+03  0.73185009453E+03  0.50400001928E-02 0.  1.
    10030    2    1    2    0    0  0.00000000000E+00  0.00000000000E+00 -0.39004348744E+03  0.10736567016E+04  0.10003023497E+04 0.  0.
        4    1    3    3  502    0  0.29050769756E+03 -0.37949559882E+03 -0.36771833420E+02  0.47933851556E+03  0.12699999809E+01 0. -1.
       -4    1    3    3    0  502 -0.29050769756E+03  0.37949559882E+03 -0.35327165402E+03  0.59431818608E+03  0.12699999809E+01 0.  1.
</event>
<event>
 5   0  0.5758786E-04  0.1004922E+04  0.7818609E-02  0.9303163E-01
       -1   -1    0    0    0  501  0.00000000000E+00  0.00000000000E+00  0.99155714980E+03  0.99155714982E+03  0.50400001928E-02 0. -1.
        1   -1    0    0  501    0  0.00000000000E+00  0.00000000000E+00 -0.25461683534E+03  0.25461683539E+03  0.50400001928E-02 0.  1.
    10030    2    1    2    0    0  0.00000000000E+00  0.00000000000E+00  0.73694031446E+03  0.12461739852E+04  0.10049221733E+04 0.  0.
        3    1    3    3  502    0  0.30584486078E+03 -0.12658345562E+03 -0.10030700288E+03  0.34586985288E+03  0.10100000352E+00 0.  1.
       -3    1    3    3    0  502 -0.30584486078E+03  0.12658345562E+03  0.83724731734E+03  0.90030413233E+03  0.10100000352E+00 0. -1.
</event>
<event>
 5   0  0.3854625E-04  0.9998003E+03  0.7818609E-02  0.9308764E-01
       -3   -1    0    0    0  501  0.00000000000E+00  0.00000000000E+00  0.32040522321E+03  0.32040523913E+03  0.10100000352E+00 0.  1.
        3   -1    0    0  501    0  0.00000000000E+00  0.00000000000E+00 -0.77995033494E+03  0.77995034148E+03  0.10100000352E+00 0. -1.
    10030    2    1    2    0    0  0.00000000000E+00  0.00000000000E+00 -0.45954511173E+03  0.11003555806E+04  0.99980032710E+03 0.  0.
        3    1    3    3  502    0 -0.43274543804E+03 -0.15872160797E+03 -0.16820470211E+02  0.46124191201E+03  0.10100000352E+00 0.  1.
       -3    1    3    3    0  502  0.43274543804E+03  0.15872160797E+03 -0.44272464152E+03  0.63911366860E+03  0.10100000352E+00 0. -1.
</event>
<event>
 5   0  0.5768102E-04  0.9937325E+03  0.7818609E-02  0.9315446E-01
       -1   -1    0    0    0  501  0.00000000000E+00  0.00000000000E+00  0.26969685893E+03  0.26969685897E+03  0.50400001928E-02 0. -1.
        1   -1    0    0  501    0  0.00000000000E+00  0.00000000000E+00 -0.91538359307E+03  0.91538359309E+03  0.50400001928E-02 0.  1.
    10030    2    1    2    0    0  0.00000000000E+00  0.00000000000E+00 -0.64568673415E+03  0.11850804521E+04  0.99373251894E+03 0.  0.
        4    1    3    3  502    0 -0.95337001453E+02  0.15703523240E+03 -0.87339213422E+03  0.89250470087E+03  0.12699999809E+01 0. -1.
       -4    1    3    3    0  502  0.95337001453E+02 -0.15703523240E+03  0.22770540007E+03  0.29257575119E+03  0.12699999809E+01 0.  1.
</event>
<event>
 5   0  0.5888774E-04  0.9994113E+03  0.7818609E-02  0.9309191E-01
       -1   -1    0    0    0  501  0.00000000000E+00  0.00000000000E+00  0.14647609547E+03  0.14647609556E+03  0.50400001928E-02 0. -1.
        1   -1    0    0  501    0  0.00000000000E+00  0.00000000000E+00 -0.17047540658E+04  0.17047540658E+04  0.50400001928E-02 0.  1.
    10030    2    1    2    0    0  0.00000000000E+00  0.00000000000E+00 -0.15582779703E+04  0.18512301613E+04  0.99941126546E+03 0.  0.
        2    1    3    3  502    0  0.43631522501E+03 -0.69950785133E+02 -0.34694199059E+03  0.56181209738E+03  0.25500000920E-02 0. -1.
       -2    1    3    3    0  502 -0.43631522501E+03  0.69950785133E+02 -0.12113359797E+04  0.12894180640E+04  0.25500000920E-02 0.  1.
</event>
<event>
 5   0  0.1006749E-03  0.1002872E+04  0.7818609E-02  0.9305401E-01
        2   -1    0    0  501    0  0.00000000000E+00  0.00000000000E+00  0.73414626148E+03  0.73414626148E+03  0.25500000920E-02 0. -1.
       -2   -1    0    0    0  501  0.00000000000E+00  0.00000000000E+00 -0.34249010059E+03  0.34249010060E+03  0.25500000920E-02 0.  1.
    10030    2    1    2    0    0  0.00000000000E+00  0.00000000000E+00  0.39165616089E+03  0.10766363621E+04  0.10028715311E+04 0.  0.
        1    1    3    3  502    0 -0.36202207710E+03  0.11148506318E+03 -0.15689420353E+03  0.41000572526E+03  0.50400001928E-02 0.  1.
       -1    1    3    3    0  502  0.36202207710E+03 -0.11148506318E+03  0.54855036441E+03  0.66663063682E+03  0.50400001928E-02 0. -1.
</event>
<event>
 5   0  0.1006006E-03  0.9994412E+03  0.7818609E-02  0.9309158E-01
        2   -1    0    0  501    0  0.00000000000E+00  0.00000000000E+00  0.12846343272E+04  0.12846343272E+04  0.25500000920E-02 0. -1.
       -2   -1    0    0    0  501  0.00000000000E+00  0.00000000000E+00 -0.19439047492E+03  0.19439047494E+03  0.25500000920E-02 0.  1.
    10030    2    1    2    0    0  0.00000000000E+00  0.00000000000E+00  0.10902438522E+04  0.14790248021E+04  0.99944119781E+03 0.  0.
        2    1    3    3  502    0  0.67727881310E+02 -0.38604890668E+03  0.86368236269E+02  0.40134809891E+03  0.25500000920E-02 0.  1.
       -2    1    3    3    0  502 -0.67727881310E+02  0.38604890668E+03  0.10038756160E+04  0.10776767032E+04  0.25500000920E-02 0. -1.
</event>
<event>
 5   0  0.9741826E-04  0.9987883E+03  0.7818609E-02  0.9309875E-01
       -2   -1    0    0    0  501  0.00000000000E+00  0.00000000000E+00  0.52942164226E+03  0.52942164227E+03  0.25500000920E-02 0. -1.
        2   -1    0    0  501    0  0.00000000000E+00  0.00000000000E+00 -0.47106976420E+03  0.47106976421E+03  0.25500000920E-02 0.  1.
    10030    2    1    2    0    0  0.00000000000E+00  0.00000000000E+00  0.58351878058E+02  0.10004914065E+04  0.99878832230E+03 0.  0.
        3    1    3    3  502    0 -0.11284401715E+03  0.45635104958E+03 -0.13964768397E+03  0.49039936633E+03  0.10100000352E+00 0.  1.
       -3    1    3    3    0  502  0.11284401715E+03 -0.45635104958E+03  0.19799956203E+03  0.51009204015E+03  0.10100000352E+00 0. -1.
</event>
<event>
 5   0  0.1020150E-03  0.1000038E+04  0.7818609E-02  0.9308503E-01
        2   -1    0    0  501    0  0.00000000000E+00  0.00000000000E+00  0.33322427334E+03  0.33322427335E+03  0.25500000920E-02 0.  1.
       -2   -1    0    0    0  501  0.00000000000E+00  0.00000000000E+00 -0.75030211188E+03  0.75030211188E+03  0.25500000920E-02 0. -1.
    10030    2    1    2    0    0  0.00000000000E+00  0.00000000000E+00 -0.41707783854E+03  0.10835263852E+04  0.10000377513E+04 0.  0.
        5    1    3    3  502    0  0.25412921012E+03 -0.34092309184E+02 -0.67362163288E+03  0.72078577626E+03  0.46999998093E+01 0. -1.
       -5    1    3    3    0  502 -0.25412921012E+03  0.34092309184E+02  0.25654379434E+03  0.36274060897E+03  0.46999998093E+01 0.  1.
</event>
<event>
 5   0  0.5960102E-04  0.1000483E+04  0.7818609E-02  0.9308015E-01
        1   -1    0    0  501    0  0.00000000000E+00  0.00000000000E+00  0.62645717660E+03  0.62645717662E+03  0.50400001928E-02 0. -1.
       -1   -1    0    0    0  501  0.00000000000E+00  0.00000000000E+00 -0.39945521705E+03  0.39945521708E+03  0.50400001928E-02 0.  1.
    10030    2    1    2    0    0  0.00000000000E+00  0.00000000000E+00  0.22700195955E+03  0.10259123937E+04  0.10004830583E+04 0.  0.
        5    1    3    3  502    0 -0.27341242056E+03  0.35069416421E+03  0.34840598694E+03  0.56493324408E+03  0.46999998093E+01 0. -1.
       -5    1    3    3    0  502  0.27341242056E+03 -0.35069416421E+03 -0.12140402739E+03  0.46097914963E+03  0.46999998093E+01 0.  1.
</event>
<event>
 5   0  0.5888774E-04  0.1006594E+04  0.7818609E-02  0.9301342E-01
        1   -1    0    0  501    0  0.00000000000E+00  0.00000000000E+00  0.46891366675E+03  0.46891366678E+03  0.50400001928E-02 0.  1.
       -1   -1    0    0    0  501  0.00000000000E+00  0.00000000000E+00 -0.54020169328E+03  0.54020169330E+03  0.50400001928E-02 0. -1.
    10030    2    1    2    0    0  0.00000000000E+00  0.00000000000E+00 -0.71288026525E+02  0.10091153601E+04  0.10065941721E+04 0.  0.
        2    1    3    3  502    0  0.36981467225E+03 -0.21682058605E+03  0.22870926144E+03  0.48588268607E+03  0.25500000920E-02 0.  1.
       -2    1    3    3    0  502 -0.36981467225E+03  0.21682058605E+03 -0.29999728797E+03  0.52323267400E+03  0.25500000920E-02 0. -1.
</event>
<event>
 5   0  0.5960102E-04  0.1002018E+04  0.7818609E-02  0.9306335E-01
       -1   -1    0    0    0  501  0.00000000000E+00  0.00000000000E+00  0.22734028457E+03  0.22734028463E+03  0.50400001928E-02 0. -1.
        1   -1    0    0  501    0  0.00000000000E+00  0.00000000000E+00 -0.11041149763E+04  0.11041149764E+04  0.50400001928E-02 0.  1.
    10030    2    1    2    0    0  0.00000000000E+00  0.00000000000E+00 -0.87677469178E+03  0.13314552610E+04  0.10020175906E+04 0.  0.
        5    1    3    3  502    0 -0.20510331835E+03 -0.25820824659E+03 -0.93954644420E+03  0.99574518859E+03  0.46999998093E+01 0.  1.
       -5    1    3    3    0  502  0.20510331835E+03  0.25820824659E+03  0.62771752418E+02  0.33571007239E+03  0.46999998093E+01 0. -1.
</event>
<event>
 5   0  0.1006006E-03  0.1006268E+04  0.7818609E-02  0.9301697E-01
       -2   -1    0    0    0  501  0.00000000000E+00  0.00000000000E+00  0.15547572039E+03  0.15547572041E+03  0.25500000920E-02 0. -1.
        2   -1    0    0  501    0  0.00000000000E+00  0.00000000000E+00 -0.16281878140E+04  0.16281878140E+04  0.25500000920E-02 0.  1.
    10030    2    1    2    0    0  0.00000000000E+00  0.00000000000E+00 -0.14727120936E+04  0.17836635344E+04  0.10062677046E+04 0.  0.
        2    1    3    3  502    0 -0.49046072523E+03  0.31793030504E+02 -0.54560131979E+03  0.73433188678E+03  0.25500000920E-02 0. -1.
       -2    1    3    3    0  502  0.49046072523E+03 -0.31793030504E+02 -0.92711077379E+03  0.10493316476E+04  0.25500000920E-02 0.  1.
</event>
<event>
 5   0  0.1006749E-03  0.1002134E+04  0.7818609E-02  0.9306208E-01
        2   -1    0    0  501    0  0.00000000000E+00  0.00000000000E+00  0.71668372114E+03  0.71668372115E+03  0.25500000920E-02 0.  1.
       -2   -1    0    0    0  501  0.00000000000E+00  0.00000000000E+00 -0.35031912001E+03  0.35031912002E+03  0.25500000920E-02 0. -1.
    10030    2    1    2    0    0  0.00000000000E+00  0.00000000000E+00  0.36636460113E+03  0.10670028412E+04  0.10021337446E+04 0.  0.
        1    1    3    3  502    0  0.23007019013E+03  0.17081197391E+03 -0.25447133347E+03  0.38322928177E+03  0.50400001928E-02 0. -1.
       -1    1    3    3    0  502 -0.23007019013E+03 -0.17081197391E+03  0.62083593460E+03  0.68377355940E+03  0.50400001928E-02 0.  1.
</event>
<event>
 5   0  0.1006749E-03  0.1000653E+04  0.7818609E-02  0.9307829E-01
       -2   -1    0    0    0  501  0.00000000000E+00  0.00000000000E+00  0.26733409624E+03  0.26733409625E+03  0.25500000920E-02 0. -1.
        2   -1    0    0  501    0  0.00000000000E+00  0.00000000000E+00 -0.93638166023E+03  0.93638166023E+03  0.25500000920E-02 0.  1.
    10030    2    1    2    0    0  0.00000000000E+00  0.00000000000E+00 -0.66904756399E+03  0.12037157565E+04  0.10006532764E+04 0.  0.
        1    1    3    3  502    0  0.19451169765E+03  0.43175131016E+03 -0.14024873739E+03  0.49387620181E+03  0.50400001928E-02 0.  1.
       -1    1    3    3    0  502 -0.19451169765E+03 -0.43175131016E+03 -0.52879882660E+03  0.70983955468E+03  0.50400001928E-02 0. -1.
</event>
<event>
 5   0  0.9741826E-04  0.1003705E+04  0.7818609E-02  0.9304490E-01
       -2   -1    0    0    0  501  0.00000000000E+00  0.00000000000E+00  0.71743063503E+03  0.71743063504E+03  0.25500000920E-02 0. -1.
        2   -1    0    0  501    0  0.00000000000E+00  0.00000000000E+00 -0.35105272585E+03  0.35105272586E+03  0.25500000920E-02 0.  1.
    10030    2    1    2    0    0  0.00000000000E+00  0.00000000000E+00  0.36637790918E+03  0.10684833609E+04  0.10037050962E+04 0.  0.
        3    1    3    3  502    0 -0.98283203651E+02 -0.41989791748E+03 -0.90051764192E+02  0.44054872564E+03  0.10100000352E+00 0.  1.
       -3    1    3    3    0  502  0.98283203651E+02  0.41989791748E+03  0.45642967337E+03  0.62793463526E+03  0.10100000352E+00 0. -1.
</event>
<event>
 5   0  0.5768102E-04  0.9991797E+03  0.7818609E-02  0.9309445E-01
       -1   -1    0    0    0  501  0.00000000000E+00  0.00000000000E+00  0.32819762817E+03  0.32819762821E+03  0.50400001928E-02 0.  1.
        1   -1    0    0  501    0  0.00000000000E+00  0.00000000000E+00 -0.76048697457E+03  0.76048697458E+03  0.50400001928E-02 0. -1.
    10030    2    1    2    0    0  0.00000000000E+00  0.00000000000E+00 -0.43228934639E+03  0.10886846028E+04  0.99917970624E+03 0.  0.
        4    1    3    3  502    0 -0.37667056305E+03  0.25202538300E+03 -0.44519183129E+03  0.63529118229E+03  0.12699999809E+01 0. -1.
       -4    1    3    3    0  502  0.37667056305E+03 -0.25202538300E+03  0.12902484903E+02  0.45339342051E+03  0.12699999809E+01 0.  1.
</event>
<event>
 5   0  0.9741826E-04  0.9992709E+03  0.7818609E-02  0.9309345E-01
        2   -1    0    0  501    0  0.00000000000E+00  0.00000000000E+00  0.85721365826E+03  0.85721365827E+03  0.25500000920E-02 0.  1.
       -2   -1    0    0    0  501  0.00000000000E+00  0.00000000000E+00 -0.29121743891E+03  0.29121743893E+03  0.25500000920E-02 0. -1.
    10030    2    1    2    0    0  0.00000000000E+00  0.00000000000E+00  0.56599621935E+03  0.11484310972E+04  0.99927086652E+03 0.  0.
        3    1    3    3  502    0 -0.22177083345E+03 -0.38202954711E+03  0.14682105863E+02  0.44197788617E+03  0.10100000352E+00 0.  1.
       -3    1    3    3    0  502  0.22177083345E+03  0.38202954711E+03  0.55131411349E+03  0.70645321102E+03  0.10100000352E+00 0. -1.
</event>
<event>
 5   0  0.5888774E-04  0.9781735E+03  0.7818609E-02  0.9332813E-01
       -1   -1    0    0    0  501  0.00000000000E+00  0.00000000000E+00  0.18022948126E+03  0.18022948133E+03  0.50400001928E-02 0. -1.
        1   -1    0    0  501    0  0.00000000000E+00  0.00000000000E+00 -0.13272291898E+04  0.13272291899E+04  0.50400001928E-02 0.  1.
    10030    2    1    2    0    0  0.00000000000E+00  0.00000000000E+00 -0.11469997086E+04  0.15074586712E+04  0.97817345796E+03 0.  0.
        2    1    3    3  502    0  0.48189464793E+03 -0.70281642213E+02 -0.64317147456E+03  0.80674128854E+03  0.25500000920E-02 0.  1.
       -2    1    3    3    0  502 -0.48189464793E+03  0.70281642213E+02 -0.50382823402E+03  0.70071738265E+03  0.25500000920E-02 0. -1.
</event>
<event>
 5   0  0.1020150E-03  0.1001942E+04  0.7818609E-02  0.9306418E-01
       -2   -1    0    0    0  501  0.00000000000E+00  0.00000000000E+00  0.61873246282E+03  0.61873246283E+03  0.25500000920E-02 0.  1.
        2   -1    0    0  501    0  0.00000000000E+00  0.00000000000E+00 -0.40562261163E+03  0.40562261164E+03  0.25500000920E-02 0. -1.
    10030    2    1    2    0    0  0.00000000000E+00  0.00000000000E+00  0.21310985119E+03  0.10243550745E+04  0.10019418695E+04 0.  0.
        5    1    3    3  502    0  0.34263325486E+03  0.17163335765E+03 -0.22329874989E+03  0.44355380563E+03  0.46999998093E+01 0. -1.
       -5    1    3    3    0  502 -0.34263325486E+03 -0.17163335765E+03  0.43640860108E+03  0.58080126884E+03  0.46999998093E+01 0.  1.
</event>
<event>
 5   0  0.9741826E-04  0.9937655E+03  0.7818609E-02  0.9315409E-01
        2   -1    0    0  501    0  0.00000000000E+00  0.00000000000E+00  0.96842501626E+03  0.96842501626E+03  0.25500000920E-02 0.  1.
       -2   -1    0    0    0  501  0.00000000000E+00  0.00000000000E+00 -0.25494228443E+03  0.25494228445E+03  0.25500000920E-02 0. -1.
    10030    2    1    2    0    0  0.00000000000E+00  0.00000000000E+00  0.71348273182E+03  0.12233673007E+04  0.99376553766E+03 0.  0.
        3    1    3    3  502    0  0.37549820676E+03  0.25158318472E+03  0.61082404068E+03  0.75986776546E+03  0.10100000352E+00 0.  1.
       -3    1    3    3    0  502 -0.37549820676E+03 -0.25158318472E+03  0.10265869115E+03  0.46349953525E+03  0.10100000352E+00 0. -1.
</event>
<event>
 5   0  0.5888774E-04  0.1001447E+04  0.7818609E-02  0.9306959E-01
        1   -1    0    0  501    0  0.00000000000E+00  0.00000000000E+00  0.46195572855E+03  0.46195572858E+03  0.50400001928E-02 0. -1.
       -1   -1    0    0    0  501  0.00000000000E+00  0.00000000000E+00 -0.54274494449E+03  0.54274494451E+03  0.50400001928E-02 0.  1.
    10030    2    1    2    0    0  0.00000000000E+00  0.00000000000E+00 -0.80789215939E+02  0.10047006731E+04  0.10014472253E+04 0.  0.
        2    1    3    3  502    0 -0.31289392234E+03 -0.19137125889E+03 -0.38238115245E+03  0.52984989490E+03  0.25500000920E-02 0.  1.
       -2    1    3    3    0  502  0.31289392234E+03  0.19137125889E+03  0.30159193651E+03  0.47485077819E+03  0.25500000920E-02 0. -1.
</event>
<event>
 5   0  0.5888774E-04  0.1001575E+04  0.7818609E-02  0.9306819E-01
       -1   -1    0    0    0  501  0.00000000000E+00  0.00000000000E+00  0.37274526771E+03  0.37274526774E+03  0.50400001928E-02 0. -1.
        1   -1    0    0  501    0  0.00000000000E+00  0.00000000000E+00 -0.67281421547E+03  0.67281421549E+03  0.50400001928E-02 0.  1.
    10030    2    1    2    0    0  0.00000000000E+00  0.00000000000E+00 -0.30006894777E+03  0.10455594832E+04  0.10015753889E+04 0.  0.
        2    1    3    3  502    0 -0.39871536615E+02 -0.22054868739E+03  0.31746793517E+03  0.38860951198E+03  0.25500000920E-02 0. -1.
       -2    1    3    3    0  502  0.39871536615E+02  0.22054868739E+03 -0.61753688293E+03  0.65694997125E+03  0.25500000920E-02 0.  1.
</event>
<event>
 5   0  0.5960102E-04  0.9975926E+03  0.7818609E-02  0.9311189E-01
        1   -1    0    0  501    0  0.00000000000E+00  0.00000000000E+00  0.21385404923E+03  0.21385404929E+03  0.50400001928E-02 0. -1.
       -1   -1    0    0    0  501  0.00000000000E+00  0.00000000000E+00 -0.11633998500E+04  0.11633998500E+04  0.50400001928E-02 0.  1.
    10030    2    1    2    0    0  0.00000000000E+00  0.00000000000E+00 -0.94954580077E+03  0.13772538993E+04  0.99759264001E+03 0.  0.
        5    1    3    3  502    0  0.11777096423E+03  0.22736261139E+03  0.11615927779E+03  0.28120957468E+03  0.46999998093E+01 0. -1.
       -5    1    3    3    0  502 -0.11777096423E+03 -0.22736261139E+03 -0.10657050786E+04  0.10960443246E+04  0.46999998093E+01 0.  1.
</event>
<event>
 5   0  0.1006006E-03  0.9989176E+03  0.7818609E-02  0.9309733E-01
        2   -1    0    0  501    0  0.00000000000E+00  0.00000000000E+00  0.93168524120E+03  0.93168524120E+03  0.25500000920E-02 0.  1.
       -2   -1    0    0    0  501  0.00000000000E+00  0.00000000000E+00 -0.26775039677E+03  0.26775039679E+03  0.25500000920E-02 0. -1.
    10030    2    1    2    0    0  0.00000000000E+00  0.00000000000E+00  0.66393484442E+03  0.11994356380E+04  0.99891760022E+03 0.  0.
        2    1    3    3  502    0 -0.48469338008E+03 -0.10608400836E+03  0.40070994865E+03  0.63776951360E+03  0.25500000920E-02 0.  1.
       -2    1    3    3    0  502  0.48469338008E+03  0.10608400836E+03  0.26322489577E+03  0.56166612439E+03  0.25500000920E-02 0. -1.
</event>
<event>
 5   0  0.1006006E-03  0.9976460E+03  0.7818609E-02  0.9311130E-01
       -2   -1    0    0    0  501  0.00000000000E+00  0.00000000000E+00  0.14607106765E+03  0.14607106767E+03  0.25500000920E-02 0. -1.
        2   -1    0    0  501    0  0.00000000000E+00  0.00000000000E+00 -0.17034474147E+04  0.17034474147E+04  0.25500000920E-02 0.  1.
    10030    2    1    2    0    0  0.00000000000E+00  0.00000000000E+00 -0.15573763471E+04  0.18495184824E+04  0.99764599447E+03 0.  0.
        2    1    3    3  502    0 -0.43372389325E+02 -0.13947709109E+03 -0.16629131056E+04  0.16693157341E+04  0.25500000920E-02 0.  1.
       -2    1    3    3    0  502  0.43372389325E+02  0.13947709109E+03  0.10553675856E+03  0.18020274833E+03  0.25500000920E-02 0. -1.
</event>
<event>
 5   0  0.5758786E-04  0.1000217E+04  0.7818609E-02  0.9308307E-01
        1   -1    0    0  501    0  0.00000000000E+00  0.00000000000E+00  0.69529985299E+03  0.69529985301E+03  0.50400001928E-02 0. -1.
       -1   -1    0    0    0  501  0.00000000000E+00  0.00000000000E+00 -0.35971291975E+03  0.35971291978E+03  0.50400001928E-02 0.  1.
    10030    2    1    2    0    0  0.00000000000E+00  0.00000000000E+00  0.33558693325E+03  0.10550127728E+04  0.10002166570E+04 0.  0.
        3    1    3    3  502    0 -0.38181644234E+03  0.13230207937E+03  0.47858935291E+03  0.62636683722E+03  0.10100000352E+00 0. -1.
       -3    1    3    3    0  502  0.38181644234E+03 -0.13230207937E+03 -0.14300241967E+03  0.42864593557E+03  0.10100000352E+00 0.  1.
</event>
<event>
 5   0  0.9674819E-04  0.9988439E+03  0.7818609E-02  0.9309814E-01
       -2   -1    0    0    0  501  0.00000000000E+00  0.00000000000E+00  0.37251971774E+03  0.37251971774E+03  0.25500000920E-02 0. -1.
        2   -1    0    0  501    0  0.00000000000E+00  0.00000000000E+00 -0.66955459320E+03  0.66955459320E+03  0.25500000920E-02 0.  1.
    10030    2    1    2    0    0  0.00000000000E+00  0.00000000000E+00 -0.29703487546E+03  0.10420743109E+04  0.99884390787E+03 0.  0.
        4    1    3    3  502    0  0.31036283433E+03  0.22197726633E+03  0.18764183055E+03  0.42521766799E+03  0.12699999809E+01 0. -1.
       -4    1    3    3    0  502 -0.31036283433E+03 -0.22197726633E+03 -0.48467670602E+03  0.61685664295E+03  0.12699999809E+01 0.  1.
</event>
<event>
 5   0  0.5826939E-04  0.1004044E+04  0.7818609E-02  0.9304120E-01
        1   -1    0    0  501    0  0.00000000000E+00  0.00000000000E+00  0.33710005629E+03  0.33710005633E+03  0.50400001928E-02 0. -1.
       -1   -1    0    0    0  501  0.00000000000E+00  0.00000000000E+00 -0.74762999871E+03  0.74762999872E+03  0.50400001928E-02 0.  1.
    10030    2    1    2    0    0  0.00000000000E+00  0.00000000000E+00 -0.41052994242E+03  0.10847300551E+04  0.10040440522E+04 0.  0.
        1    1    3    3  502    0 -0.88666359994E+02 -0.33603311950E+03  0.18612722777E+03  0.39423765135E+03  0.50400001928E-02 0. -1.
       -1    1    3    3    0  502  0.88666359994E+02  0.33603311950E+03 -0.59665717019E+03  0.69049240370E+03  0.50400001928E-02 0.  1.
</event>
<event>
 5   0  0.1006006E-03  0.1001384E+04  0.7818609E-02  0.9307028E-01
        2   -1    0    0  501    0  0.00000000000E+00  0.00000000000E+00  0.11380897130E+04  0.11380897130E+04  0.25500000920E-02 0.  1.
       -2   -1    0    0    0  501  0.00000000000E+00  0.00000000000E+00 -0.22027471510E+03  0.22027471511E+03  0.25500000920E-02 0. -1.
    10030    2    1    2    0    0  0.00000000000E+00  0.00000000000E+00  0.91781499794E+03  0.13583644281E+04  0.10013838171E+04 0.  0.
        2    1    3    3  502    0 -0.72346335649E+02  0.48971991726E+03  0.56071453804E+03  0.74797084356E+03  0.25500000920E-02 0.  1.
       -2    1    3    3    0  502  0.72346335649E+02 -0.48971991726E+03  0.35710045990E+03  0.61039358459E+03  0.25500000920E-02 0. -1.
</event>
<event>
 5   0  0.5758786E-04  0.1000608E+04  0.7818609E-02  0.9307878E-01
       -1   -1    0    0    0  501  0.00000000000E+00  0.00000000000E+00  0.23534280773E+03  0.23534280778E+03  0.50400001928E-02 0.  1.
        1   -1    0    0  501    0  0.00000000000E+00  0.00000000000E+00 -0.10635730213E+04  0.10635730213E+04  0.50400001928E-02 0. -1.
    10030    2    1    2    0    0  0.00000000000E+00  0.00000000000E+00 -0.82823021356E+03  0.12989158291E+04  0.10006083372E+04 0.  0.
        3    1    3    3  502    0  0.42547505413E+03  0.24039209011E+03 -0.27498606717E+03  0.56074479580E+03  0.10100000352E+00 0.  1.
       -3    1    3    3    0  502 -0.42547505413E+03 -0.24039209011E+03 -0.55324414639E+03  0.73817103329E+03  0.10100000352E+00 0. -1.
</event>
<event>
 5   0  0.1006749E-03  0.9991325E+03  0.7818609E-02  0.9309497E-01
       -2   -1    0    0    0  501  0.00000000000E+00  0.00000000000E+00  0.12850088915E+03  0.12850088917E+03  0.25500000920E-02 0.  1.
        2   -1    0    0  501    0  0.00000000000E+00  0.00000000000E+00 -0.19421378130E+04  0.19421378130E+04  0.25500000920E-02 0. -1.
    10030    2    1    2    0    0  0.00000000000E+00  0.00000000000E+00 -0.18136369238E+04  0.20706387021E+04  0.99913249540E+03 0.  0.
        1    1    3    3  502    0  0.12143938344E+03 -0.47492658413E+03 -0.70735086720E+03  0.86060910611E+03  0.50400001928E-02 0.  1.
       -1    1    3    3    0  502 -0.12143938344E+03  0.47492658413E+03 -0.11062860566E+04  0.12100295960E+04  0.50400001928E-02 0. -1.
</event>
<event>
 5   0  0.3854625E-04  0.9995479E+03  0.7818609E-02  0.9309041E-01
        4   -1    0    0  501    0  0.00000000000E+00  0.00000000000E+00  0.76833913367E+03  0.76834018327E+03  0.12699999809E+01 0. -1.
       -4   -1    0    0    0  501  0.00000000000E+00  0.00000000000E+00 -0.32508047249E+03  0.32508295325E+03  0.12699999809E+01 0.  1.
    10030    2    1    2    0    0  0.00000000000E+00  0.00000000000E+00  0.44325866118E+03  0.10934231365E+04  0.99954785516E+03 0.  0.
        2    1    3    3  502    0  0.66236003109E+02 -0.60560064986E+02  0.75945346365E+03  0.76473805518E+03  0.25500000920E-02 0. -1.
       -2    1    3    3    0  502 -0.66236003109E+02  0.60560064986E+02 -0.31619480247E+03  0.32868508134E+03  0.25500000920E-02 0.  1.
</event>
<event>
 5   0  0.5826939E-04  0.9989810E+03  0.7818609E-02  0.9309663E-01
       -1   -1    0    0    0  501  0.00000000000E+00  0.00000000000E+00  0.16121664711E+03  0.16121664719E+03  0.50400001928E-02 0.  1.
        1   -1    0    0  501    0  0.00000000000E+00  0.00000000000E+00 -0.15475496868E+04  0.15475496868E+04  0.50400001928E-02 0. -1.
    10030    2    1    2    0    0  0.00000000000E+00  0.00000000000E+00 -0.13863330397E+04  0.17087663340E+04  0.99898102448E+03 0.  0.
        1    1    3    3  502    0  0.34960079107E+02 -0.37366185074E+03 -0.12569743248E+04  0.13118040398E+04  0.50400001928E-02 0. -1.
       -1    1    3    3    0  502 -0.34960079107E+02  0.37366185074E+03 -0.12935871496E+03  0.39696229417E+03  0.50400001928E-02 0.  1.
</event>
<event>
 5   0  0.5768102E-04  0.9926609E+03  0.7818609E-02  0.9316631E-01
       -1   -1    0    0    0  501  0.00000000000E+00  0.00000000000E+00  0.78735738755E+03  0.78735738756E+03  0.50400001928E-02 0. -1.
        1   -1    0    0  501    0  0.00000000000E+00  0.00000000000E+00 -0.31287431492E+03  0.31287431496E+03  0.50400001928E-02 0.  1.
    10030    2    1    2    0    0  0.00000000000E+00  0.00000000000E+00  0.47448307263E+03  0.11002317025E+04  0.99266087514E+03 0.  0.
        4    1    3    3  502    0  0.37844829318E+03  0.14667306939E+03  0.55386624422E+03  0.68666260222E+03  0.12699999809E+01 0. -1.
       -4    1    3    3    0  502 -0.37844829318E+03 -0.14667306939E+03 -0.79383171594E+02  0.41356910031E+03  0.12699999809E+01 0.  1.
</event>
<event>
 5   0  0.5768102E-04  0.1002631E+04  0.7818609E-02  0.9305664E-01
       -1   -1    0    0    0  501  0.00000000000E+00  0.00000000000E+00  0.36146891998E+03  0.36146892001E+03  0.50400001928E-02 0.  1.
        1   -1    0    0  501    0  0.00000000000E+00  0.00000000000E+00 -0.69526624085E+03  0.69526624087E+03  0.50400001928E-02 0. -1.
    10030    2    1    2    0    0  0.00000000000E+00  0.00000000000E+00 -0.33379732088E+03  0.10567351609E+04  0.10026308138E+04 0.  0.
        4    1    3    3  502    0  0.40198722199E+02 -0.49672197716E+03 -0.22430686473E+03  0.54650145684E+03  0.12699999809E+01 0. -1.
       -4    1    3    3    0  502 -0.40198722199E+02  0.49672197716E+03 -0.10949045614E+03  0.51023370405E+03  0.12699999809E+01 0.  1.
</event>
<event>
 5   0  0.1006006E-03  0.9998973E+03  0.7818609E-02  0.9308657E-01
        2   -1    0    0  501    0  0.00000000000E+00  0.00000000000E+00  0.15310209655E+04  0.15310209655E+04  0.25500000920E-02 0.  1.
       -2   -1    0    0    0  501  0.00000000000E+00  0.00000000000E+00 -0.16325617847E+03  0.16325617849E+03  0.25500000920E-02 0. -1.
    10030    2    1    2    0    0  0.00000000000E+00  0.00000000000E+00  0.13677647871E+04  0.16942771440E+04  0.99989725876E+03 0.  0.
        2    1    3    3  502    0 -0.59316693764E+02 -0.21283646943E+03  0.14438032498E+04  0.14606113984E+04  0.25500000920E-02 0.  1.
       -2    1    3    3    0  502  0.59316693764E+02  0.21283646943E+03 -0.76038462736E+02  0.23366574567E+03  0.25500000920E-02 0. -1.
</event>
<event>
 5   0  0.1006006E-03  0.1000374E+04  0.7818609E-02  0.9308134E-01
       -2   -1    0    0    0  501  0.00000000000E+00  0.00000000000E+00  0.46745777596E+03  0.46745777597E+03  0.25500000920E-02 0. -1.
        2   -1    0    0  501    0  0.00000000000E+00  0.00000000000E+00 -0.53520827679E+03  0.53520827680E+03  0.25500000920E-02 0.  1.
    10030    2    1    2    0    0  0.00000000000E+00  0.00000000000E+00 -0.67750500831E+02  0.10026660528E+04  0.10003744714E+04 0.  0.
        2    1    3    3  502    0 -0.48618950019E+03 -0.86338089557E+02 -0.11376212781E+03  0.50673101102E+03  0.25500000920E-02 0.  1.
       -2    1    3    3    0  502  0.48618950019E+03  0.86338089557E+02  0.46011626981E+02  0.49593504174E+03  0.25500000920E-02 0. -1.
</event>
<event>
 5   0  0.9674819E-04  0.9830166E+03  0.7818609E-02  0.9327371E-01
       -2   -1    0    0    0  501  0.00000000000E+00  0.00000000000E+00  0.36272895595E+03  0.36272895596E+03  0.25500000920E-02 0. -1.
        2   -1    0    0  501    0  0.00000000000E+00  0.00000000000E+00 -0.66600807628E+03  0.66600807628E+03  0.25500000920E-02 0.  1.
    10030    2    1    2    0    0  0.00000000000E+00  0.00000000000E+00 -0.30327912032E+03  0.10287370322E+04  0.98301661059E+03 0.  0.
        4    1    3    3  502    0  0.25617456315E+03 -0.45033834402E+02 -0.58807997321E+03  0.64303430767E+03  0.12699999809E+01 0.  1.
       -4    1    3    3    0  502 -0.25617456315E+03  0.45033834402E+02  0.28480085289E+03  0.38570272458E+03  0.12699999809E+01 0. -1.
</event>
<event>
 5   0  0.1020150E-03  0.9969886E+03  0.7818609E-02  0.9311854E-01
        2   -1    0    0  501    0  0.00000000000E+00  0.00000000000E+00  0.11237545234E+04  0.11237545234E+04  0.25500000920E-02 0. -1.
       -2   -1    0    0    0  501  0.00000000000E+00  0.00000000000E+00 -0.22113064232E+03  0.22113064234E+03  0.25500000920E-02 0.  1.
    10030    2    1    2    0    0  0.00000000000E+00  0.00000000000E+00  0.90262388109E+03  0.13448851658E+04  0.99698858487E+03 0.  0.
        5    1    3    3  502    0 -0.47298454687E+03 -0.34058519900E+02  0.24408224582E+03  0.53335972577E+03  0.46999998093E+01 0.  1.
       -5    1    3    3    0  502  0.47298454687E+03  0.34058519900E+02  0.65854163527E+03  0.81152543998E+03  0.46999998093E+01 0. -1.
</event>
<event>
 5   0  0.1006006E-03  0.9986362E+03  0.7818609E-02  0.9310042E-01
       -2   -1    0    0    0  501  0.00000000000E+00  0.00000000000E+00  0.55583144287E+03  0.55583144287E+03  0.25500000920E-02 0.  1.
        2   -1    0    0  501    0  0.00000000000E+00  0.00000000000E+00 -0.44855068733E+03  0.44855068734E+03  0.25500000920E-02 0. -1.
    10030    2    1    2    0    0  0.00000000000E+00  0.00000000000E+00  0.10728075553E+03  0.10043821302E+04  0.99863622155E+03 0.  0.
        2    1    3    3  502    0 -0.27081420908E+03  0.30585892974E+02 -0.36714798265E+03  0.45724552907E+03  0.25500000920E-02 0. -1.
       -2    1    3    3    0  502  0.27081420908E+03 -0.30585892974E+02  0.47442873818E+03  0.54713660114E+03  0.25500000920E-02 0.  1.
</event>
<event>
 5   0  0.1006749E-03  0.1000082E+04  0.7818609E-02  0.9308454E-01
       -2   -1    0    0    0  501  0.00000000000E+00  0.00000000000E+00  0.22629580484E+03  0.22629580486E+03  0.25500000920E-02 0. -1.
        2   -1    0    0  501    0  0.00000000000E+00  0.00000000000E+00 -0.11049309758E+04  0.11049309758E+04  0.25500000920E-02 0.  1.
    10030    2    1    2    0    0  0.00000000000E+00  0.00000000000E+00 -0.87863517099E+03  0.13312267807E+04  0.10000824856E+04 0.  0.
        1    1    3    3  502    0  0.18011594611E+03 -0.19922214384E+03 -0.10007745044E+04  0.10361857099E+04  0.50400001928E-02 0.  1.
       -1    1    3    3    0  502 -0.18011594611E+03  0.19922214384E+03  0.12213933346E+03  0.29504107078E+03  0.50400001928E-02 0. -1.
</event>
<event>
 5   0  0.9674819E-04  0.9998345E+03  0.7818609E-02  0.9308726E-01
       -2   -1    0    0    0  501  0.00000000000E+00  0.00000000000E+00  0.12603926500E+03  0.12603926502E+03  0.25500000920E-02 0.  1.
        2   -1    0    0  501    0  0.00000000000E+00  0.00000000000E+00 -0.19828521994E+04  0.19828521994E+04  0.25500000920E-02 0. -1.
    10030    2    1    2    0    0  0.00000000000E+00  0.00000000000E+00 -0.18568129344E+04  0.21088914645E+04  0.99983445398E+03 0.  0.
        4    1    3    3  502    0  0.12130837650E+03  0.37091593532E+03 -0.15874260990E+04  0.16346918933E+04  0.12699999809E+01 0. -1.
       -4    1    3    3    0  502 -0.12130837650E+03 -0.37091593532E+03 -0.26938683540E+03  0.47419957113E+03  0.12699999809E+01 0.  1.
</event>
<event>
 5   0  0.9674819E-04  0.1000194E+04  0.7818609E-02  0.9308332E-01
        2   -1    0    0  501    0  0.00000000000E+00  0.00000000000E+00  0.57360057978E+03  0.57360057979E+03  0.25500000920E-02 0. -1.
       -2   -1    0    0    0  501  0.00000000000E+00  0.00000000000E+00 -0.43601219592E+03  0.43601219593E+03  0.25500000920E-02 0.  1.
    10030    2    1    2    0    0  0.00000000000E+00  0.00000000000E+00  0.13758838386E+03  0.10096127757E+04  0.10001936780E+04 0.  0.
        4    1    3    3  502    0 -0.45964518954E+03  0.10702207331E+03 -0.98195923026E+02  0.48204924711E+03  0.12699999809E+01 0. -1.
       -4    1    3    3    0  502  0.45964518954E+03 -0.10702207331E+03  0.23578430689E+03  0.52756352861E+03  0.12699999809E+01 0.  1.
</event>
<event>
 5   0  0.1020150E-03  0.1000215E+04  0.7818609E-02  0.9308309E-01
       -2   -1    0    0    0  501  0.00000000000E+00  0.00000000000E+00  0.25174925591E+03  0.25174925593E+03  0.25500000920E-02 0.  1.
        2   -1    0    0  501    0  0.00000000000E+00  0.00000000000E+00 -0.99347959263E+03  0.99347959264E+03  0.25500000920E-02 0. -1.
    10030    2    1    2    0    0  0.00000000000E+00  0.00000000000E+00 -0.74173033672E+03  0.12452288486E+04  0.10002154732E+04 0.  0.
        5    1    3    3  502    0  0.26452230407E+03  0.38570580013E+03 -0.59127820603E+03  0.75390518006E+03  0.46999998093E+01 0. -1.
       -5    1    3    3    0  502 -0.26452230407E+03 -0.38570580013E+03 -0.15045213069E+03  0.49132366850E+03  0.46999998093E+01 0.  1.
</event>
<event>
 5   0  0.5888774E-04  0.1001169E+04  0.7818609E-02  0.9307264E-01
        1   -1    0    0  501    0  0.00000000000E+00  0.00000000000E+00  0.11206355482E+04  0.11206355482E+04  0.50400001928E-02 0.  1.
       -1   -1    0    0    0  501  0.00000000000E+00  0.00000000000E+00 -0.22360941627E+03  0.22360941632E+03  0.50400001928E-02 0. -1.
    10030    2    1    2    0    0  0.00000000000E+00  0.00000000000E+00  0.89702613191E+03  0.13442449645E+04  0.10011686388E+04 0.  0.
        2    1    3    3  502    0 -0.20256637753E+03  0.45768814709E+03  0.45999145445E+03  0.67978210881E+03  0.25500000920E-02 0. -1.
       -2    1    3    3    0  502  0.20256637753E+03 -0.45768814709E+03  0.43703467746E+03  0.66446285570E+03  0.25500000920E-02 0.  1.
</event>
<event>
 5   0  0.1020150E-03  0.1001987E+04  0.7818609E-02  0.9306368E-01
       -2   -1    0    0    0  501  0.00000000000E+00  0.00000000000E+00  0.30626304120E+03  0.30626304121E+03  0.25500000920E-02 0. -1.
        2   -1    0    0  501    0  0.00000000000E+00  0.00000000000E+00 -0.81953852680E+03  0.81953852680E+03  0.25500000920E-02 0.  1.
    10030    2    1    2    0    0  0.00000000000E+00  0.00000000000E+00 -0.51327548559E+03  0.11258015680E+04  0.10019867496E+04 0.  0.
        5    1    3    3  502    0 -0.41766877785E+03 -0.27655814290E+03 -0.24947352686E+03  0.55963447446E+03  0.46999998093E+01 0. -1.
       -5    1    3    3    0  502  0.41766877785E+03  0.27655814290E+03 -0.26380195873E+03  0.56616709356E+03  0.46999998093E+01 0.  1.
</event>
<event>
 5   0  0.9741826E-04  0.9974727E+03  0.7818609E-02  0.9311321E-01
       -2   -1    0    0    0  501  0.00000000000E+00  0.00000000000E+00  0.23612199497E+03  0.23612199498E+03  0.25500000920E-02 0. -1.
        2   -1    0    0  501    0  0.00000000000E+00  0.00000000000E+00 -0.10534297202E+04  0.10534297202E+04  0.25500000920E-02 0.  1.
    10030    2    1    2    0    0  0.00000000000E+00  0.00000000000E+00 -0.81730772522E+03  0.12895517152E+04  0.99747266047E+03 0.  0.
        3    1    3    3  502    0  0.36363296788E+03  0.20963502909E+03 -0.75690519933E+03  0.86549481322E+03  0.10100000352E+00 0. -1.
       -3    1    3    3    0  502 -0.36363296788E+03 -0.20963502909E+03 -0.60402525896E+02  0.42405690194E+03  0.10100000352E+00 0.  1.
</event>
<event>
 5   0  0.3854625E-04  0.9921410E+03  0.7818609E-02  0.9317207E-01
       -4   -1    0    0    0  501  0.00000000000E+00  0.00000000000E+00  0.10132360317E+04  0.10132368276E+04  0.12699999809E+01 0. -1.
        4   -1    0    0  501    0  0.00000000000E+00  0.00000000000E+00 -0.24286871497E+03  0.24287203546E+03  0.12699999809E+01 0.  1.
    10030    2    1    2    0    0  0.00000000000E+00  0.00000000000E+00  0.77036731675E+03  0.12561088631E+04  0.99214095431E+03 0.  0.
        4    1    3    3  502    0 -0.24492616149E+03  0.39873619828E+03  0.59362219134E+03  0.75588907874E+03  0.12699999809E+01 0. -1.
       -4    1    3    3    0  502  0.24492616149E+03 -0.39873619828E+03  0.17674512540E+03  0.50021978435E+03  0.12699999809E+01 0.  1.
</event>
<event>
 5   0  0.5826939E-04  0.1002520E+04  0.7818609E-02  0.9305786E-01
        1   -1    0    0  501    0  0.00000000000E+00  0.00000000000E+00  0.14650115328E+04  0.14650115328E+04  0.50400001928E-02 0.  1.
       -1   -1    0    0    0  501  0.00000000000E+00  0.00000000000E+00 -0.17150811281E+03  0.17150811288E+03  0.50400001928E-02 0. -1.
    10030    2    1    2    0    0  0.00000000000E+00  0.00000000000E+00  0.12935034200E+04  0.16365196457E+04  0.10025195525E+04 0.  0.
        1    1    3    3  502    0 -0.93978059337E+02  0.39409689081E+03  0.16493689789E+03  0.43743389820E+03  0.50400001928E-02 0. -1.
       -1    1    3    3    0  502  0.93978059337E+02 -0.39409689081E+03  0.11285665221E+04  0.11990857475E+04  0.50400001928E-02 0.  1.
</event>
<event>
 5   0  0.5960102E-04  0.9992484E+03  0.7818609E-02  0.9309370E-01
       -1   -1    0    0    0  501  0.00000000000E+00  0.00000000000E+00  0.16648752140E+03  0.16648752148E+03  0.50400001928E-02 0.  1.
        1   -1    0    0  501    0  0.00000000000E+00  0.00000000000E+00 -0.14993576146E+04  0.14993576146E+04  0.50400001928E-02 0. -1.
    10030    2    1    2    0    0  0.00000000000E+00  0.00000000000E+00 -0.13328700932E+04  0.16658451361E+04  0.99924838357E+03 0.  0.
        5    1    3    3  502    0 -0.33195965887E+03 -0.35391267629E+03 -0.46812150758E+03  0.67424864362E+03  0.46999998093E+01 0.  1.
       -5    1    3    3    0  502  0.33195965887E+03  0.35391267629E+03 -0.86474858558E+03  0.99159649244E+03  0.46999998093E+01 0. -1.
</event>
<event>
 5   0  0.5960102E-04  0.1001487E+04  0.7818609E-02  0.9306915E-01
        1   -1    0    0  501    0  0.00000000000E+00  0.00000000000E+00  0.12641035966E+04  0.12641035966E+04  0.50400001928E-02 0.  1.
       -1   -1    0    0    0  501  0.00000000000E+00  0.00000000000E+00 -0.19835736864E+03  0.19835736871E+03  0.50400001928E-02 0. -1.
    10030    2    1    2    0    0  0.00000000000E+00  0.00000000000E+00  0.10657462279E+04  0.14624609653E+04  0.10014874201E+04 0.  0.
        5    1    3    3  502    0  0.32769024451E+03 -0.36180759485E+03  0.37002280386E+03  0.61255579126E+03  0.46999998093E+01 0. -1.
       -5    1    3    3    0  502 -0.32769024451E+03  0.36180759485E+03  0.69572342406E+03  0.84990517402E+03  0.46999998093E+01 0.  1.
</event>
<event>
 5   0  0.3854625E-04  0.1000876E+04  0.7818609E-02  0.9307584E-01
        3   -1    0    0  501    0  0.00000000000E+00  0.00000000000E+00  0.23316679233E+03  0.23316681420E+03  0.10100000352E+00 0. -1.
       -3   -1    0    0    0  501  0.00000000000E+00  0.00000000000E+00 -0.10740732181E+04  0.10740732229E+04  0.10100000352E+00 0.  1.
    10030    2    1    2    0    0  0.00000000000E+00  0.00000000000E+00 -0.84090642581E+03  0.13072400371E+04  0.10008760651E+04 0.  0.
        5    1    3    3  502    0 -0.47728564864E+02 -0.16973994906E+03  0.19122154615E+03  0.26014887261E+03  0.46999998093E+01 0. -1.
       -5    1    3    3    0  502  0.47728564864E+02  0.16973994906E+03 -0.10321279720E+04  0.10470911645E+04  0.46999998093E+01 0.  1.
</event>
<event>
 5   0  0.1006749E-03  0.1002964E+04  0.7818609E-02  0.9305299E-01
       -2   -1    0    0    0  501  0.00000000000E+00  0.00000000000E+00  0.29392929669E+03  0.29392929670E+03  0.25500000920E-02 0. -1.
        2   -1    0    0  501    0  0.00000000000E+00  0.00000000000E+00 -0.85559496453E+03  0.85559496453E+03  0.25500000920E-02 0.  1.
    10030    2    1    2    0    0  0.00000000000E+00  0.00000000000E+00 -0.56166566784E+03  0.11495242612E+04  0.10029644584E+04 0.  0.
        1    1    3    3  502    0 -0.14701584714E+03  0.36020342936E+03  0.81829331206E+02  0.39756283692E+03  0.50400001928E-02 0. -1.
       -1    1    3    3    0  502  0.14701584714E+03 -0.36020342936E+03 -0.64349499904E+03  0.75196142431E+03  0.50400001928E-02 0.  1.
</event>
<event>
 5   0  0.1006749E-03  0.1003703E+04  0.7818609E-02  0.9304492E-01
        2   -1    0    0  501    0  0.00000000000E+00  0.00000000000E+00  0.11603969564E+04  0.11603969564E+04  0.25500000920E-02 0.  1.
       -2   -1    0    0    0  501  0.00000000000E+00  0.00000000000E+00 -0.21704219720E+03  0.21704219721E+03  0.25500000920E-02 0. -1.
    10030    2    1    2    0    0  0.00000000000E+00  0.00000000000E+00  0.94335475922E+03  0.13774391536E+04  0.10037033527E+04 0.  0.
        1    1    3    3  502    0  0.96811275893E+02  0.12990821387E+01 -0.20410350168E+03  0.22590340895E+03  0.50400001928E-02 0. -1.
       -1    1    3    3    0  502 -0.96811275893E+02 -0.12990821387E+01  0.11474582609E+04  0.11515357447E+04  0.50400001928E-02 0.  1.
</event>
<event>
 5   0  0.5768102E-04  0.1005337E+04  0.7818609E-02  0.9302710E-01
       -1   -1    0    0    0  501  0.00000000000E+00  0.00000000000E+00  0.31462522300E+03  0.31462522305E+03  0.50400001928E-02 0. -1.
        1   -1    0    0  501    0  0.00000000000E+00  0.00000000000E+00 -0.80310076972E+03  0.80310076974E+03  0.50400001928E-02 0.  1.
    10030    2    1    2    0    0  0.00000000000E+00  0.00000000000E+00 -0.48847554672E+03  0.11177259928E+04  0.10053372744E+04 0.  0.
        4    1    3    3  502    0  0.27102875600E+03 -0.16317084076E+03 -0.67853858203E+03  0.74866382980E+03  0.12699999809E+01 0.  1.
       -4    1    3    3    0  502 -0.27102875600E+03  0.16317084076E+03  0.19006303531E+03  0.36906216298E+03  0.12699999809E+01 0. -1.
</event>
<event>
 5   0  0.1006006E-03  0.9953565E+03  0.7818609E-02  0.9313652E-01
       -2   -1    0    0    0  501  0.00000000000E+00  0.00000000000E+00  0.27034440749E+03  0.27034440750E+03  0.25500000920E-02 0. -1.
        2   -1    0    0  501    0  0.00000000000E+00  0.00000000000E+00 -0.91617824177E+03  0.91617824178E+03  0.25500000920E-02 0.  1.
    10030    2    1    2    0    0  0.00000000000E+00  0.00000000000E+00 -0.64583383429E+03  0.11865226493E+04  0.99535654705E+03 0.  0.
        2    1    3    3  502    0  0.73950504193E+02  0.39201852908E+03  0.31780831065E+02  0.40019648355E+03  0.25500000920E-02 0. -1.
       -2    1    3    3    0  502 -0.73950504193E+02 -0.39201852908E+03 -0.67761466535E+03  0.78632616573E+03  0.25500000920E-02 0.  1.
</event>
<event>
 5   0  0.3854625E-04  0.1003434E+04  0.7818609E-02  0.9304786E-01
       -3   -1    0    0    0  501  0.00000000000E+00  0.00000000000E+00  0.23219984965E+03  0.23219987161E+03  0.10100000352E+00 0.  1.
        3   -1    0    0  501    0  0.00000000000E+00  0.00000000000E+00 -0.10840659582E+04  0.10840659629E+04  0.10100000352E+00 0. -1.
    10030    2    1    2    0    0  0.00000000000E+00  0.00000000000E+00 -0.85186610851E+03  0.13162658345E+04  0.10034340438E+04 0.  0.
        4    1    3    3  502    0 -0.45149847279E+03 -0.19900846284E+03 -0.30669174037E+03  0.58096185394E+03  0.12699999809E+01 0. -1.
       -4    1    3    3    0  502  0.45149847279E+03  0.19900846284E+03 -0.54517436813E+03  0.73530398053E+03  0.12699999809E+01 0.  1.
</event>
<event>
 5   0  0.1020150E-03  0.9993000E+03  0.7818609E-02  0.9309313E-01
        2   -1    0    0  501    0  0.00000000000E+00  0.00000000000E+00  0.47794959966E+03  0.47794959966E+03  0.25500000920E-02 0.  1.
       -2   -1    0    0    0  501  0.00000000000E+00  0.00000000000E+00 -0.52233563082E+03  0.52233563082E+03  0.25500000920E-02 0. -1.
    10030    2    1    2    0    0  0.00000000000E+00  0.00000000000E+00 -0.44386031158E+02  0.10002852305E+04  0.99929996626E+03 0.  0.
        5    1    3    3  502    0 -0.21944334119E+02  0.23290602687E+03  0.41971847040E+03  0.48053351137E+03  0.46999998093E+01 0.  1.
       -5    1    3    3    0  502  0.21944334119E+02 -0.23290602687E+03 -0.46410450156E+03  0.51975171911E+03  0.46999998093E+01 0. -1.
</event>
<event>
 5   0  0.1020150E-03  0.1000966E+04  0.7818609E-02  0.9307486E-01
       -2   -1    0    0    0  501  0.00000000000E+00  0.00000000000E+00  0.18385877243E+03  0.18385877245E+03  0.25500000920E-02 0. -1.
        2   -1    0    0  501    0  0.00000000000E+00  0.00000000000E+00 -0.13623665775E+04  0.13623665775E+04  0.25500000920E-02 0.  1.
    10030    2    1    2    0    0  0.00000000000E+00  0.00000000000E+00 -0.11785078050E+04  0.15462253499E+04  0.10009656269E+04 0.  0.
        5    1    3    3  502    0 -0.10302626010E+03  0.21497570024E+03  0.90485091745E+02  0.25502667270E+03  0.46999998093E+01 0. -1.
       -5    1    3    3    0  502  0.10302626010E+03 -0.21497570024E+03 -0.12689928968E+04  0.12911986772E+04  0.46999998093E+01 0.  1.
</event>
<event>
 5   0  0.5826939E-04  0.9912113E+03  0.7818609E-02  0.9318237E-01
        1   -1    0    0  501    0  0.00000000000E+00  0.00000000000E+00  0.43063704251E+03  0.43063704254E+03  0.50400001928E-02 0. -1.
       -1   -1    0    0    0  501  0.00000000000E+00  0.00000000000E+00 -0.57037585925E+03  0.57037585927E+03  0.50400001928E-02 0.  1.
    10030    2    1    2    0    0  0.00000000000E+00  0.00000000000E+00 -0.13973881673E+03  0.10010129018E+04  0.99121132595E+03 0.  0.
        1    1    3    3  502    0  0.24917417413E+03  0.36354460581E+03 -0.29876575957E+03  0.53245979058E+03  0.50400001928E-02 0.  1.
       -1    1    3    3    0  502 -0.24917417413E+03 -0.36354460581E+03  0.15902694284E+03  0.46855311123E+03  0.50400001928E-02 0. -1.
</event>
<event>
 5   0  0.5768102E-04  0.1000204E+04  0.7818609E-02  0.9308322E-01
       -1   -1    0    0    0  501  0.00000000000E+00  0.00000000000E+00  0.36953575577E+03  0.36953575581E+03  0.50400001928E-02 0.  1.
        1   -1    0    0  501    0  0.00000000000E+00  0.00000000000E+00 -0.67679997239E+03  0.67679997241E+03  0.50400001928E-02 0. -1.
    10030    2    1    2    0    0  0.00000000000E+00  0.00000000000E+00 -0.30726421662E+03  0.10463357282E+04  0.10002035579E+04 0.  0.
        4    1    3    3  502    0  0.18527162304E+03 -0.63902952842E+02  0.32768785206E+03  0.38182470189E+03  0.12699999809E+01 0.  1.
       -4    1    3    3    0  502 -0.18527162304E+03  0.63902952842E+02 -0.63495206868E+03  0.66451102633E+03  0.12699999809E+01 0. -1.
</event>
<event>
 5   0  0.9741826E-04  0.1005690E+04  0.7818609E-02  0.9302326E-01
       -2   -1    0    0    0  501  0.00000000000E+00  0.00000000000E+00  0.20384560329E+03  0.20384560330E+03  0.25500000920E-02 0. -1.
        2   -1    0    0  501    0  0.00000000000E+00  0.00000000000E+00 -0.12404155889E+04  0.12404155889E+04  0.25500000920E-02 0.  1.
    10030    2    1    2    0    0  0.00000000000E+00  0.00000000000E+00 -0.10365699856E+04  0.14442611922E+04  0.10056903381E+04 0.  0.
        3    1    3    3  502    0  0.31724700455E+03 -0.34851354774E+03 -0.77009620406E+03  0.90285963946E+03  0.10100000352E+00 0.  1.
       -3    1    3    3    0  502 -0.31724700455E+03  0.34851354774E+03 -0.26647378154E+03  0.54140155273E+03  0.10100000352E+00 0. -1.
</event>
<event>
 5   0  0.1006749E-03  0.9998833E+03  0.7818609E-02  0.9308673E-01
        2   -1    0    0  501    0  0.00000000000E+00  0.00000000000E+00  0.68157832931E+03  0.68157832932E+03  0.25500000920E-02 0.  1.
       -2   -1    0    0    0  501  0.00000000000E+00  0.00000000000E+00 -0.36671011710E+03  0.36671011711E+03  0.25500000920E-02 0. -1.
    10030    2    1    2    0    0  0.00000000000E+00  0.00000000000E+00  0.31486821222E+03  0.10482884464E+04  0.99988333112E+03 0.  0.
        1    1    3    3  502    0  0.13498321834E+03 -0.15194826640E+03 -0.32144169700E+03  0.38030712522E+03  0.50400001928E-02 0. -1.
       -1    1    3    3    0  502 -0.13498321834E+03  0.15194826640E+03  0.63630990922E+03  0.66798132121E+03  0.50400001928E-02 0.  1.
</event>
<event>
 5   0  0.1020150E-03  0.1000498E+04  0.7818609E-02  0.9307998E-01
       -2   -1    0    0    0  501  0.00000000000E+00  0.00000000000E+00  0.33353972245E+03  0.33353972246E+03  0.25500000920E-02 0.  1.
        2   -1    0    0  501    0  0.00000000000E+00  0.00000000000E+00 -0.75028322961E+03  0.75028322961E+03  0.25500000920E-02 0. -1.
    10030    2    1    2    0    0  0.00000000000E+00  0.00000000000E+00 -0.41674350716E+03  0.10838229521E+04  0.10004983961E+04 0.  0.
        5    1    3    3  502    0 -0.21238930535E+03  0.40190344894E+03 -0.43454602858E+03  0.62887831911E+03  0.46999998093E+01 0.  1.
       -5    1    3    3    0  502  0.21238930535E+03 -0.40190344894E+03  0.17802521425E+02  0.45494463296E+03  0.46999998093E+01 0. -1.
</event>
<event>
 5   0  0.3854625E-04  0.9990525E+03  0.7818609E-02  0.9309585E-01
        4   -1    0    0  501    0  0.00000000000E+00  0.00000000000E+00  0.64749226932E+03  0.64749351482E+03  0.12699999809E+01 0.  1.
       -4   -1    0    0    0  501  0.00000000000E+00  0.00000000000E+00 -0.38537102754E+03  0.38537312020E+03  0.12699999809E+01 0. -1.
    10030    2    1    2    0    0  0.00000000000E+00  0.00000000000E+00  0.26212124178E+03  0.10328666350E+04  0.99905252131E+03 0.  0.
        4    1    3    3  502    0 -0.39057441361E+03  0.26954761803E+03 -0.30168283663E+02  0.47551659192E+03  0.12699999809E+01 0.  1.
       -4    1    3    3    0  502  0.39057441361E+03 -0.26954761803E+03  0.29228952544E+03  0.55735004309E+03  0.12699999809E+01 0. -1.
</event>
<event>
 5   0  0.9741826E-04  0.1010960E+04  0.7818609E-02  0.9296605E-01
       -2   -1    0    0    0  501  0.00000000000E+00  0.00000000000E+00  0.16335882210E+03  0.16335882212E+03  0.25500000920E-02 0.  1.
        2   -1    0    0  501    0  0.00000000000E+00  0.00000000000E+00 -0.15641031508E+04  0.15641031508E+04  0.25500000920E-02 0. -1.
    10030    2    1    2    0    0  0.00000000000E+00  0.00000000000E+00 -0.14007443288E+04  0.17274619730E+04  0.10109600356E+04 0.  0.
        3    1    3    3  502    0 -0.42887649123E+03 -0.26117970392E+02 -0.24540954979E+03  0.49481617843E+03  0.10100000352E+00 0. -1.
       -3    1    3    3    0  502  0.42887649123E+03  0.26117970392E+02 -0.11553347790E+04  0.12326457945E+04  0.10100000352E+00 0.  1.
</event>
<event>
 5   0  0.9674819E-04  0.9859339E+03  0.7818609E-02  0.9324108E-01
       -2   -1    0    0    0  501  0.00000000000E+00  0.00000000000E+00  0.21849834521E+04  0.21849834521E+04  0.25500000920E-02 0.  1.
        2   -1    0    0  501    0  0.00000000000E+00  0.00000000000E+00 -0.11122116705E+03  0.11122116708E+03  0.25500000920E-02 0. -1.
    10030    2    1    2    0    0  0.00000000000E+00  0.00000000000E+00  0.20737622850E+04  0.22962046192E+04  0.98593389142E+03 0.  0.
        4    1    3    3  502    0 -0.11516103487E+03 -0.31773214108E+03  0.18727132857E+04  0.19029641196E+04  0.12699999809E+01 0.  1.
       -4    1    3    3    0  502  0.11516103487E+03  0.31773214108E+03  0.20104899937E+03  0.39324049953E+03  0.12699999809E+01 0. -1.
</event>
<event>
 5   0  0.5960102E-04  0.1000321E+04  0.7818609E-02  0.9308193E-01
       -1   -1    0    0    0  501  0.00000000000E+00  0.00000000000E+00  0.96902463134E+03  0.96902463136E+03  0.50400001928E-02 0. -1.
        1   -1    0    0  501    0  0.00000000000E+00  0.00000000000E+00 -0.25815679260E+03  0.25815679265E+03  0.50400001928E-02 0.  1.
    10030    2    1    2    0    0  0.00000000000E+00  0.00000000000E+00  0.71086783874E+03  0.12271814240E+04  0.10003205303E+04 0.  0.
        5    1    3    3  502    0 -0.20823721714E+03 -0.44991598861E+03  0.27451177237E+03  0.56671504178E+03  0.46999998093E+01 0.  1.
       -5    1    3    3    0  502  0.20823721714E+03  0.44991598861E+03  0.43635606636E+03  0.66046638223E+03  0.46999998093E+01 0. -1.
</event>
<event>
 5   0  0.9741826E-04  0.9976644E+03  0.7818609E-02  0.9311110E-01
        2   -1    0    0  501    0  0.00000000000E+00  0.00000000000E+00  0.48070122906E+03  0.48070122907E+03  0.25500000920E-02 0.  1.
       -2   -1    0    0    0  501  0.00000000000E+00  0.00000000000E+00 -0.51764707467E+03  0.51764707467E+03  0.25500000920E-02 0. -1.
    10030    2    1    2    0    0  0.00000000000E+00  0.00000000000E+00 -0.36945845602E+02  0.99834830374E+03  0.99766444262E+03 0.  0.
        3    1    3    3  502    0 -0.19324194073E+03  0.22897943318E+03 -0.41756900101E+03  0.51394348841E+03  0.10100000352E+00 0. -1.
       -3    1    3    3    0  502  0.19324194073E+03 -0.22897943318E+03  0.38062315541E+03  0.48440481533E+03  0.10100000352E+00 0.  1.
</event>
<event>
 5   0  0.9674819E-04  0.9979899E+03  0.7818609E-02  0.9310752E-01
        2   -1    0    0  501    0  0.00000000000E+00  0.00000000000E+00  0.40443565027E+03  0.40443565027E+03  0.25500000920E-02 0. -1.
       -2   -1    0    0    0  501  0.00000000000E+00  0.00000000000E+00 -0.61566277421E+03  0.61566277422E+03  0.25500000920E-02 0.  1.
    10030    2    1    2    0    0  0.00000000000E+00  0.00000000000E+00 -0.21122712394E+03  0.10200984245E+04  0.99798992869E+03 0.  0.
        4    1    3    3  502    0 -0.86884808761E+01 -0.54526522609E+02  0.40130192748E+03  0.40508453595E+03  0.12699999809E+01 0. -1.
       -4    1    3    3    0  502  0.86884808761E+01  0.54526522609E+02 -0.61252905142E+03  0.61501388854E+03  0.12699999809E+01 0.  1.
</event>
<event>
 5   0  0.1006749E-03  0.9998989E+03  0.7818609E-02  0.9308656E-01
       -2   -1    0    0    0  501  0.00000000000E+00  0.00000000000E+00  0.15435961972E+03  0.15435961974E+03  0.25500000920E-02 0. -1.
        2   -1    0    0  501    0  0.00000000000E+00  0.00000000000E+00 -0.16192671452E+04  0.16192671452E+04  0.25500000920E-02 0.  1.
    10030    2    1    2    0    0  0.00000000000E+00  0.00000000000E+00 -0.14649075254E+04  0.17736267649E+04  0.99989891645E+03 0.  0.
        1    1    3    3  502    0 -0.15509072935E+03  0.32943994261E+03 -0.12477138623E+03  0.38490480507E+03  0.50400001928E-02 0. -1.
       -1    1    3    3    0  502  0.15509072935E+03 -0.32943994261E+03 -0.13401361392E+04  0.13887219598E+04  0.50400001928E-02 0.  1.
</event>
<event>
 5   0  0.5768102E-04  0.9975675E+03  0.7818609E-02  0.9311217E-01
       -1   -1    0    0    0  501  0.00000000000E+00  0.00000000000E+00  0.18670826641E+03  0.18670826648E+03  0.50400001928E-02 0. -1.
        1   -1    0    0  501    0  0.00000000000E+00  0.00000000000E+00 -0.13324810511E+04  0.13324810511E+04  0.50400001928E-02 0.  1.
    10030    2    1    2    0    0  0.00000000000E+00  0.00000000000E+00 -0.11457727847E+04  0.15191893176E+04  0.99756749572E+03 0.  0.
        4    1    3    3  502    0 -0.19625263518E+03 -0.20737376967E+03 -0.11957194774E+04  0.12293354541E+04  0.12699999809E+01 0.  1.
       -4    1    3    3    0  502  0.19625263518E+03  0.20737376967E+03  0.49946692717E+02  0.28985386348E+03  0.12699999809E+01 0. -1.
</event>
<event>
 5   0  0.9741826E-04  0.9995915E+03  0.7818609E-02  0.9308993E-01
        2   -1    0    0  501    0  0.00000000000E+00  0.00000000000E+00  0.61351642758E+03  0.61351642759E+03  0.25500000920E-02 0. -1.
       -2   -1    0    0    0  501  0.00000000000E+00  0.00000000000E+00 -0.40715418557E+03  0.40715418558E+03  0.25500000920E-02 0.  1.
    10030    2    1    2    0    0  0.00000000000E+00  0.00000000000E+00  0.20636224202E+03  0.10206706132E+04  0.99959147938E+03 0.  0.
        3    1    3    3  502    0 -0.15010314243E+03  0.39887376533E+03 -0.16340793113E+03  0.45643553345E+03  0.10100000352E+00 0.  1.
       -3    1    3    3    0  502  0.15010314243E+03 -0.39887376533E+03  0.36977017315E+03  0.56423507972E+03  0.10100000352E+00 0. -1.
</event>
<event>
 5   0  0.1020150E-03  0.9992170E+03  0.7818609E-02  0.9309404E-01
        2   -1    0    0  501    0  0.00000000000E+00  0.00000000000E+00  0.12869553182E+04  0.12869553183E+04  0.25500000920E-02 0.  1.
       -2   -1    0    0    0  501  0.00000000000E+00  0.00000000000E+00 -0.19395283787E+03  0.19395283788E+03  0.25500000920E-02 0. -1.
    10030    2    1    2    0    0  0.00000000000E+00  0.00000000000E+00  0.10930024804E+04  0.14809081561E+04  0.99921696582E+03 0.  0.
        5    1    3    3  502    0  0.41180158979E+03  0.19507507594E+03  0.24294220221E+03  0.51640859619E+03  0.46999998093E+01 0. -1.
       -5    1    3    3    0  502 -0.41180158979E+03 -0.19507507594E+03  0.85006027817E+03  0.96449955994E+03  0.46999998093E+01 0.  1.
</event>
<event>
 5   0  0.5758786E-04  0.1006421E+04  0.7818609E-02  0.9301530E-01
       -1   -1    0    0    0  501  0.00000000000E+00  0.00000000000E+00  0.65729389053E+03  0.65729389055E+03  0.50400001928E-02 0.  1.
        1   -1    0    0  501    0  0.00000000000E+00  0.00000000000E+00 -0.38524753431E+03  0.38524753434E+03  0.50400001928E-02 0. -1.
    10030    2    1    2    0    0  0.00000000000E+00  0.00000000000E+00  0.27204635622E+03  0.10425414249E+04  0.10064210862E+04 0.  0.
        3    1    3    3  502    0  0.11369202938E+03 -0.27864768719E+03 -0.28175062158E+03  0.41225457436E+03  0.10100000352E+00 0. -1.
       -3    1    3    3    0  502 -0.11369202938E+03  0.27864768719E+03  0.55379697780E+03  0.63028685053E+03  0.10100000352E+00 0.  1.
</event>
<event>
 5   0  0.3854625E-04  0.1018255E+04  0.7818609E-02  0.9288747E-01
       -3   -1    0    0    0  501  0.00000000000E+00  0.00000000000E+00  0.21156921089E+03  0.21156923500E+03  0.10100000352E+00 0.  1.
        3   -1    0    0  501    0  0.00000000000E+00  0.00000000000E+00 -0.12251812309E+04  0.12251812350E+04  0.10100000352E+00 0. -1.
    10030    2    1    2    0    0  0.00000000000E+00  0.00000000000E+00 -0.10136120200E+04  0.14367504700E+04  0.10182546764E+04 0.  0.
        3    1    3    3  502    0  0.36322620336E+03 -0.25452458018E+03 -0.85953908103E+03  0.96722462682E+03  0.10100000352E+00 0. -1.
       -3    1    3    3    0  502 -0.36322620336E+03  0.25452458018E+03 -0.15407293896E+03  0.46952584321E+03  0.10100000352E+00 0.  1.
</event>
<event>
 5   0  0.5768102E-04  0.1002867E+04  0.7818609E-02  0.9305406E-01
        1   -1    0    0  501    0  0.00000000000E+00  0.00000000000E+00  0.10140477794E+04  0.10140477794E+04  0.50400001928E-02 0.  1.
       -1   -1    0    0    0  501  0.00000000000E+00  0.00000000000E+00 -0.24795255293E+03  0.24795255298E+03  0.50400001928E-02 0. -1.
    10030    2    1    2    0    0  0.00000000000E+00  0.00000000000E+00  0.76609522645E+03  0.12620003324E+04  0.10028673606E+04 0.  0.
        4    1    3    3  502    0  0.22816336421E+03 -0.26777632147E+03  0.83268545758E+03  0.90395208019E+03  0.12699999809E+01 0.  1.
       -4    1    3    3    0  502 -0.22816336421E+03  0.26777632147E+03 -0.66590231130E+02  0.35804825218E+03  0.12699999809E+01 0. -1.
</event>
<event>
 5   0  0.9674819E-04  0.1023995E+04  0.7818609E-02  0.9282612E-01
        2   -1    0    0  501    0  0.00000000000E+00  0.00000000000E+00  0.16955101965E+04  0.16955101965E+04  0.25500000920E-02 0. -1.
       -2   -1    0    0    0  501  0.00000000000E+00  0.00000000000E+00 -0.15460912505E+03  0.15460912507E+03  0.25500000920E-02 0.  1.
    10030    2    1    2    0    0  0.00000000000E+00  0.00000000000E+00  0.15409010714E+04  0.18501193216E+04  0.10239948203E+04 0.  0.
        4    1    3    3  502    0 -0.49068362956E+03 -0.11334266422E+03  0.60365213367E+03  0.78613897959E+03  0.12699999809E+01 0. -1.
       -4    1    3    3    0  502  0.49068362956E+03  0.11334266422E+03  0.93724893775E+03  0.10639803420E+04  0.12699999809E+01 0.  1.
</event>
<event>
 5   0  0.5758786E-04  0.1000938E+04  0.7818609E-02  0.9307517E-01
        1   -1    0    0  501    0  0.00000000000E+00  0.00000000000E+00  0.51429423501E+03  0.51429423503E+03  0.50400001928E-02 0.  1.
       -1   -1    0    0    0  501  0.00000000000E+00  0.00000000000E+00 -0.48701549408E+03  0.48701549410E+03  0.50400001928E-02 0. -1.
    10030    2    1    2    0    0  0.00000000000E+00  0.00000000000E+00  0.27278740929E+02  0.10013097291E+04  0.10009380820E+04 0.  0.
        3    1    3    3  502    0 -0.97543033722E+02 -0.11185152647E+03 -0.46449608811E+03  0.48762899163E+03  0.10100000352E+00 0. -1.
       -3    1    3    3    0  502  0.97543033722E+02  0.11185152647E+03  0.49177482904E+03  0.51368073751E+03  0.10100000352E+00 0.  1.
</event>
<event>
 5   0  0.1020150E-03  0.1000026E+04  0.7818609E-02  0.9308516E-01
       -2   -1    0    0    0  501  0.00000000000E+00  0.00000000000E+00  0.42294161684E+03  0.42294161685E+03  0.25500000920E-02 0. -1.
        2   -1    0    0  501    0  0.00000000000E+00  0.00000000000E+00 -0.59112916444E+03  0.59112916445E+03  0.25500000920E-02 0.  1.
    10030    2    1    2    0    0  0.00000000000E+00  0.00000000000E+00 -0.16818754760E+03  0.10140707813E+04  0.10000262488E+04 0.  0.
        5    1    3    3  502    0 -0.45681453192E+03 -0.13360597156E+02 -0.28975486150E+03  0.54114507472E+03  0.46999998093E+01 0.  1.
       -5    1    3    3    0  502  0.45681453192E+03  0.13360597156E+02  0.12156731390E+03  0.47292570658E+03  0.46999998093E+01 0. -1.
</event>
<event>
 5   0  0.1006006E-03  0.9970110E+03  0.7818609E-02  0.9311829E-01
        2   -1    0    0  501    0  0.00000000000E+00  0.00000000000E+00  0.55307781954E+03  0.55307781954E+03  0.25500000920E-02 0.  1.
       -2   -1    0    0    0  501  0.00000000000E+00  0.00000000000E+00 -0.44931785942E+03  0.44931785943E+03  0.25500000920E-02 0. -1.
    10030    2    1    2    0    0  0.00000000000E+00  0.00000000000E+00  0.10375996011E+03  0.10023956790E+04  0.99701101694E+03 0.  0.
        2    1    3    3  502    0 -0.48905359634E+03 -0.55027821828E+02 -0.27960876748E+02  0.49293335442E+03  0.25500000920E-02 0. -1.
       -2    1    3    3    0  502  0.48905359634E+03  0.55027821828E+02  0.13172083686E+03  0.50946232455E+03  0.25500000920E-02 0.  1.
</event>
<event>
 5   0  0.1020150E-03  0.9964274E+03  0.7818609E-02  0.9312472E-01
       -2   -1    0    0    0  501  0.00000000000E+00  0.00000000000E+00  0.17499816217E+03  0.17499816219E+03  0.25500000920E-02 0.  1.
        2   -1    0    0  501    0  0.00000000000E+00  0.00000000000E+00 -0.14183972643E+04  0.14183972643E+04  0.25500000920E-02 0. -1.
    10030    2    1    2    0    0  0.00000000000E+00  0.00000000000E+00 -0.12433991021E+04  0.15933954265E+04  0.99642744744E+03 0.  0.
        5    1    3    3  502    0  0.40636624457E+03 -0.26102992059E+03 -0.42634190970E+03  0.64425123837E+03  0.46999998093E+01 0. -1.
       -5    1    3    3    0  502 -0.40636624457E+03  0.26102992059E+03 -0.81705719244E+03  0.94914418814E+03  0.46999998093E+01 0.  1.
</event>
<event>
 5   0  0.5960102E-04  0.9929830E+03  0.7818609E-02  0.9316275E-01
       -1   -1    0    0    0  501  0.00000000000E+00  0.00000000000E+00  0.43978951249E+03  0.43978951252E+03  0.50400001928E-02 0.  1.
        1   -1    0    0  501    0  0.00000000000E+00  0.00000000000E+00 -0.56050404399E+03  0.56050404401E+03  0.50400001928E-02 0. -1.
    10030    2    1    2    0    0  0.00000000000E+00  0.00000000000E+00 -0.12071453149E+03  0.10002935565E+04  0.99298298129E+03 0.  0.
        5    1    3    3  502    0  0.15050383809E+03 -0.98919934859E+02  0.40569901326E+03  0.44390352347E+03  0.46999998093E+01 0.  1.
       -5    1    3    3    0  502 -0.15050383809E+03  0.98919934859E+02 -0.52641354475E+03  0.55639003306E+03  0.46999998093E+01 0. -1.
</event>
<event>
 5   0  0.5768102E-04  0.1000253E+04  0.7818609E-02  0.9308267E-01
        1   -1    0    0  501    0  0.00000000000E+00  0.00000000000E+00  0.42449125806E+03  0.42449125809E+03  0.50400001928E-02 0.  1.
       -1   -1    0    0    0  501  0.00000000000E+00  0.00000000000E+00 -0.58923824463E+03  0.58923824465E+03  0.50400001928E-02 0. -1.
    10030    2    1    2    0    0  0.00000000000E+00  0.00000000000E+00 -0.16474698656E+03  0.10137295027E+04  0.10002529356E+04 0.  0.
        4    1    3    3  502    0  0.42109115328E+03  0.12757085036E+03  0.15859621931E+03  0.46770338347E+03  0.12699999809E+01 0.  1.
       -4    1    3    3    0  502 -0.42109115328E+03 -0.12757085036E+03 -0.32334320587E+03  0.54602611926E+03  0.12699999809E+01 0. -1.
</event>
<event>
 5   0  0.9741826E-04  0.1000406E+04  0.7818609E-02  0.9308100E-01
       -2   -1    0    0    0  501  0.00000000000E+00  0.00000000000E+00  0.41883981100E+03  0.41883981101E+03  0.25500000920E-02 0. -1.
        2   -1    0    0  501    0  0.00000000000E+00  0.00000000000E+00 -0.59737156213E+03  0.59737156214E+03  0.25500000920E-02 0.  1.
    10030    2    1    2    0    0  0.00000000000E+00  0.00000000000E+00 -0.17853175114E+03  0.10162113731E+04  0.10004059020E+04 0.  0.
        3    1    3    3  502    0 -0.39709053127E+03 -0.27112413887E+03  0.50803176607E+02  0.48349784039E+03  0.10100000352E+00 0.  1.
       -3    1    3    3    0  502  0.39709053127E+03  0.27112413887E+03 -0.22933492774E+03  0.53271353276E+03  0.10100000352E+00 0. -1.
</event>
<event>
 5   0  0.5888774E-04  0.9997471E+03  0.7818609E-02  0.9308822E-01
        1   -1    0    0  501    0  0.00000000000E+00  0.00000000000E+00  0.31744347547E+03  0.31744347551E+03  0.50400001928E-02 0. -1.
       -1   -1    0    0    0  501  0.00000000000E+00  0.00000000000E+00 -0.78714347492E+03  0.78714347494E+03  0.50400001928E-02 0.  1.
    10030    2    1    2    0    0  0.00000000000E+00  0.00000000000E+00 -0.46969999945E+03  0.11045869504E+04  0.99974708882E+03 0.  0.
        2    1    3    3  502    0 -0.49674022306E+03 -0.34187517214E+02 -0.28368865396E+03  0.57306098099E+03  0.25500000920E-02 0. -1.
       -2    1    3    3    0  502  0.49674022306E+03  0.34187517214E+02 -0.18601134550E+03  0.53152596945E+03  0.25500000920E-02 0.  1.
</event>
<event>
 5   0  0.9674819E-04  0.1001530E+04  0.7818609E-02  0.9306868E-01
       -2   -1    0    0    0  501  0.00000000000E+00  0.00000000000E+00  0.10644780278E+03  0.10644780281E+03  0.25500000920E-02 0.  1.
        2   -1    0    0  501    0  0.00000000000E+00  0.00000000000E+00 -0.23557628016E+04  0.23557628016E+04  0.25500000920E-02 0. -1.
    10030    2    1    2    0    0  0.00000000000E+00  0.00000000000E+00 -0.22493149988E+04  0.24622106044E+04  0.10015303773E+04 0.  0.
        4    1    3    3  502    0 -0.41587384682E+03  0.26766568736E+02 -0.18072772355E+04  0.18547021659E+04  0.12699999809E+01 0. -1.
       -4    1    3    3    0  502  0.41587384682E+03 -0.26766568736E+02 -0.44203776335E+03  0.60750843845E+03  0.12699999809E+01 0.  1.
</event>
<event>
 5   0  0.5768102E-04  0.1001249E+04  0.7818609E-02  0.9307176E-01
       -1   -1    0    0    0  501  0.00000000000E+00  0.00000000000E+00  0.40603517534E+03  0.40603517537E+03  0.50400001928E-02 0.  1.
        1   -1    0    0  501    0  0.00000000000E+00  0.00000000000E+00 -0.61724970631E+03  0.61724970633E+03  0.50400001928E-02 0. -1.
    10030    2    1    2    0    0  0.00000000000E+00  0.00000000000E+00 -0.21121453097E+03  0.10232848817E+04  0.10012494050E+04 0.  0.
        4    1    3    3  502    0 -0.26091236368E+03  0.52342507152E+02  0.32776326136E+03  0.42219115099E+03  0.12699999809E+01 0.  1.
       -4    1    3    3    0  502  0.26091236368E+03 -0.52342507152E+02 -0.53897779233E+03  0.60109373072E+03  0.12699999809E+01 0. -1.
</event>
<event>
 5   0  0.5826939E-04  0.9998486E+03  0.7818609E-02  0.9308711E-01
       -1   -1    0    0    0  501  0.00000000000E+00  0.00000000000E+00  0.12351765456E+03  0.12351765466E+03  0.50400001928E-02 0. -1.
        1   -1    0    0  501    0  0.00000000000E+00  0.00000000000E+00 -0.20233895320E+04  0.20233895320E+04  0.50400001928E-02 0.  1.
    10030    2    1    2    0    0  0.00000000000E+00  0.00000000000E+00 -0.18998718774E+04  0.21469071866E+04  0.99984864729E+03 0.  0.
        1    1    3    3  502    0  0.23014542397E+03 -0.18069795372E+03 -0.79563215559E+02  0.30323088884E+03  0.50400001928E-02 0. -1.
       -1    1    3    3    0  502 -0.23014542397E+03  0.18069795372E+03 -0.18203086618E+04  0.18436762978E+04  0.50400001928E-02 0.  1.
</event>
<event>
 5   0  0.5960102E-04  0.1003314E+04  0.7818609E-02  0.9304917E-01
       -1   -1    0    0    0  501  0.00000000000E+00  0.00000000000E+00  0.42045213591E+03  0.42045213594E+03  0.50400001928E-02 0.  1.
        1   -1    0    0  501    0  0.00000000000E+00  0.00000000000E+00 -0.59854572453E+03  0.59854572455E+03  0.50400001928E-02 0. -1.
    10030    2    1    2    0    0  0.00000000000E+00  0.00000000000E+00 -0.17809358862E+03  0.10189978605E+04  0.10033141648E+04 0.  0.
        5    1    3    3  502    0  0.14292839362E+03 -0.29124285649E+03  0.29953934343E+03  0.44158446012E+03  0.46999998093E+01 0.  1.
       -5    1    3    3    0  502 -0.14292839362E+03  0.29124285649E+03 -0.47763293205E+03  0.57741340038E+03  0.46999998093E+01 0. -1.
</event>
<event>
 5   0  0.5758786E-04  0.9976678E+03  0.7818609E-02  0.9311106E-01
       -1   -1    0    0    0  501  0.00000000000E+00  0.00000000000E+00  0.26175876950E+03  0.26175876955E+03  0.50400001928E-02 0.  1.
        1   -1    0    0  501    0  0.00000000000E+00  0.00000000000E+00 -0.95062815826E+03  0.95062815828E+03  0.50400001928E-02 0. -1.
    10030    2    1    2    0    0  0.00000000000E+00  0.00000000000E+00 -0.68886938877E+03  0.12123869278E+04  0.99766779440E+03 0.  0.
        3    1    3    3  502    0 -0.18365964179E+03 -0.19716488677E+03 -0.85458211302E+03  0.89605549755E+03  0.10100000352E+00 0. -1.
       -3    1    3    3    0  502  0.18365964179E+03  0.19716488677E+03  0.16571272425E+03  0.31633143027E+03  0.10100000352E+00 0.  1.
</event>
<event>
 5   0  0.1006006E-03  0.9991999E+03  0.7818609E-02  0.9309423E-01
        2   -1    0    0  501    0  0.00000000000E+00  0.00000000000E+00  0.17616102644E+04  0.17616102644E+04  0.25500000920E-02 0.  1.
       -2   -1    0    0    0  501  0.00000000000E+00  0.00000000000E+00 -0.14168860640E+03  0.14168860642E+03  0.25500000920E-02 0. -1.
    10030    2    1    2    0    0  0.00000000000E+00  0.00000000000E+00  0.16199216580E+04  0.19032988708E+04  0.99919988672E+03 0.  0.
        2    1    3    3  502    0 -0.41807946976E+03  0.26383083157E+03  0.94735855713E+03  0.10685903736E+04  0.25500000920E-02 0. -1.
       -2    1    3    3    0  502  0.41807946976E+03 -0.26383083157E+03  0.67256310083E+03  0.83470849722E+03  0.25500000920E-02 0.  1.
</event>
<event>
 5   0  0.5768102E-04  0.9993928E+03  0.7818609E-02  0.9309211E-01
       -1   -1    0    0    0  501  0.00000000000E+00  0.00000000000E+00  0.21482740324E+04  0.21482740324E+04  0.50400001928E-02 0.  1.
        1   -1    0    0  501    0  0.00000000000E+00  0.00000000000E+00 -0.11623122034E+03  0.11623122045E+03  0.50400001928E-02 0. -1.
    10030    2    1    2    0    0  0.00000000000E+00  0.00000000000E+00  0.20320428121E+04  0.22645052529E+04  0.99939284076E+03 0.  0.
        4    1    3    3  502    0 -0.28442756882E+03  0.21551108769E+03  0.22344606498E+03  0.42103898594E+03  0.12699999809E+01 0. -1.
       -4    1    3    3    0  502  0.28442756882E+03 -0.21551108769E+03  0.18085967471E+04  0.18434662669E+04  0.12699999809E+01 0.  1.
</event>
<event>
 5   0  0.9741826E-04  0.1000267E+04  0.7818609E-02  0.9308252E-01
        2   -1    0    0  501    0  0.00000000000E+00  0.00000000000E+00  0.14023893277E+04  0.14023893277E+04  0.25500000920E-02 0. -1.
       -2   -1    0    0    0  501  0.00000000000E+00  0.00000000000E+00 -0.17836231161E+03  0.17836231163E+03  0.25500000920E-02 0.  1.
    10030    2    1    2    0    0  0.00000000000E+00  0.00000000000E+00  0.12240270161E+04  0.15807516393E+04  0.10002667690E+04 0.  0.
        3    1    3    3  502    0 -0.45491918637E+02  0.34334064384E+03  0.11822063154E+04  0.12318945145E+04  0.10100000352E+00 0. -1.
       -3    1    3    3    0  502  0.45491918637E+02 -0.34334064384E+03  0.41820700695E+02  0.34885712488E+03  0.10100000352E+00 0.  1.
</event>
<event>
 5   0  0.3854625E-04  0.9991510E+03  0.7818609E-02  0.9309476E-01
        3   -1    0    0  501    0  0.00000000000E+00  0.00000000000E+00  0.25393334488E+03  0.25393336497E+03  0.10100000352E+00 0. -1.
       -3   -1    0    0    0  501  0.00000000000E+00  0.00000000000E+00 -0.98283924150E+03  0.98283924669E+03  0.10100000352E+00 0.  1.
    10030    2    1    2    0    0  0.00000000000E+00  0.00000000000E+00 -0.72890589661E+03  0.12367726117E+04  0.99915098299E+03 0.  0.
        3    1    3    3  502    0  0.17657002639E+03 -0.46709121757E+03 -0.34590699073E+03  0.60745603643E+03  0.10100000352E+00 0.  1.
       -3    1    3    3    0  502 -0.17657002639E+03  0.46709121757E+03 -0.38299890588E+03  0.62931657523E+03  0.10100000352E+00 0. -1.
</event>
<event>
 5   0  0.9674819E-04  0.9948941E+03  0.7818609E-02  0.9314163E-01
        2   -1    0    0  501    0  0.00000000000E+00  0.00000000000E+00  0.72278292135E+03  0.72278292135E+03  0.25500000920E-02 0.  1.
       -2   -1    0    0    0  501  0.00000000000E+00  0.00000000000E+00 -0.34236224081E+03  0.34236224082E+03  0.25500000920E-02 0. -1.
    10030    2    1    2    0    0  0.00000000000E+00  0.00000000000E+00  0.38042068054E+03  0.10651451622E+04  0.99489412619E+03 0.  0.
        4    1    3    3  502    0  0.17029208165E+03 -0.46194137264E+03  0.11403316461E+03  0.50536561059E+03  0.12699999809E+01 0. -1.
       -4    1    3    3    0  502 -0.17029208165E+03  0.46194137264E+03  0.26638751593E+03  0.55977955159E+03  0.12699999809E+01 0.  1.
</event>
<event>
 5   0  0.5826939E-04  0.9996697E+03  0.7818609E-02  0.9308907E-01
       -1   -1    0    0    0  501  0.00000000000E+00  0.00000000000E+00  0.19825949371E+03  0.19825949378E+03  0.50400001928E-02 0.  1.
        1   -1    0    0  501    0  0.00000000000E+00  0.00000000000E+00 -0.12601407641E+04  0.12601407641E+04  0.50400001928E-02 0. -1.
    10030    2    1    2    0    0  0.00000000000E+00  0.00000000000E+00 -0.10618812704E+04  0.14584002579E+04  0.99966968534E+03 0.  0.
        1    1    3    3  502    0  0.38291949236E+02  0.42471029919E+03 -0.15053936481E+03  0.45222473616E+03  0.50400001928E-02 0. -1.
       -1    1    3    3    0  502 -0.38291949236E+02 -0.42471029919E+03 -0.91134190556E+03  0.10061755217E+04  0.50400001928E-02 0.  1.
</event>
<event>
 5   0  0.1020150E-03  0.9989625E+03  0.7818609E-02  0.9309683E-01
        2   -1    0    0  501    0  0.00000000000E+00  0.00000000000E+00  0.43190968630E+03  0.43190968631E+03  0.25500000920E-02 0.  1.
       -2   -1    0    0    0  501  0.00000000000E+00  0.00000000000E+00 -0.57762427249E+03  0.57762427250E+03  0.25500000920E-02 0. -1.
    10030    2    1    2    0    0  0.00000000000E+00  0.00000000000E+00 -0.14571458619E+03  0.10095339588E+04  0.99896249847E+03 0.  0.
        5    1    3    3  502    0 -0.17973283716E+03  0.13425796902E+03  0.37810523640E+03  0.43967573824E+03  0.46999998093E+01 0.  1.
       -5    1    3    3    0  502  0.17973283716E+03 -0.13425796902E+03 -0.52381982260E+03  0.56985822057E+03  0.46999998093E+01 0. -1.
</event>
<event>
 5   0  0.3854625E-04  0.1001000E+04  0.7818609E-02  0.9307448E-01
        3   -1    0    0  501    0  0.00000000000E+00  0.00000000000E+00  0.11177003830E+04  0.11177003876E+04  0.10100000352E+00 0. -1.
       -3   -1    0    0    0  501  0.00000000000E+00  0.00000000000E+00 -0.22412128052E+03  0.22412130328E+03  0.10100000352E+00 0.  1.
    10030    2    1    2    0    0  0.00000000000E+00  0.00000000000E+00  0.89357910253E+03  0.13418216909E+04  0.10010004184E+04 0.  0.
        1    1    3    3  502    0 -0.10139808643E+03  0.35821878823E+03 -0.16171295319E+01  0.37229677316E+03  0.50400001928E-02 0.  1.
       -1    1    3    3    0  502  0.10139808643E+03 -0.35821878823E+03  0.89519623206E+03  0.96952491773E+03  0.50400001928E-02 0. -1.
</event>
<event>
 5   0  0.1006749E-03  0.1000180E+04  0.7818609E-02  0.9308347E-01
        2   -1    0    0  501    0  0.00000000000E+00  0.00000000000E+00  0.11422629052E+04  0.11422629052E+04  0.25500000920E-02 0.  1.
       -2   -1    0    0    0  501  0.00000000000E+00  0.00000000000E+00 -0.21894273950E+03  0.21894273952E+03  0.25500000920E-02 0. -1.
    10030    2    1    2    0    0  0.00000000000E+00  0.00000000000E+00  0.92332016567E+03  0.13612056447E+04  0.10001803232E+04 0.  0.
        1    1    3    3  502    0  0.26927753939E+03 -0.90734017154E+02 -0.98399633059E+02  0.30070840178E+03  0.50400001928E-02 0. -1.
       -1    1    3    3    0  502 -0.26927753939E+03  0.90734017154E+02  0.10217197987E+04  0.10604972429E+04  0.50400001928E-02 0.  1.
</event>
<event>
 5   0  0.9741826E-04  0.1001759E+04  0.7818609E-02  0.9306618E-01
        2   -1    0    0  501    0  0.00000000000E+00  0.00000000000E+00  0.92118808262E+03  0.92118808262E+03  0.25500000920E-02 0. -1.
       -2   -1    0    0    0  501  0.00000000000E+00  0.00000000000E+00 -0.27234423943E+03  0.27234423944E+03  0.25500000920E-02 0.  1.
    10030    2    1    2    0    0  0.00000000000E+00  0.00000000000E+00  0.64884384319E+03  0.11935323221E+04  0.10017589885E+04 0.  0.
        3    1    3    3  502    0 -0.11484738236E+03 -0.19474745435E+03  0.85693379347E+03  0.88625731523E+03  0.10100000352E+00 0. -1.
       -3    1    3    3    0  502  0.11484738236E+03  0.19474745435E+03 -0.20808995028E+03  0.30727500683E+03  0.10100000352E+00 0.  1.
</event>
<event>
 5   0  0.5826939E-04  0.1000740E+04  0.7818609E-02  0.9307734E-01
       -1   -1    0    0    0  501  0.00000000000E+00  0.00000000000E+00  0.22524716976E+03  0.22524716981E+03  0.50400001928E-02 0.  1.
        1   -1    0    0  501    0  0.00000000000E+00  0.00000000000E+00 -0.11115346232E+04  0.11115346233E+04  0.50400001928E-02 0. -1.
    10030    2    1    2    0    0  0.00000000000E+00  0.00000000000E+00 -0.88628745348E+03  0.13367817931E+04  0.10007397824E+04 0.  0.
        1    1    3    3  502    0  0.31778477311E+03 -0.31677461122E+03 -0.14734246181E+03  0.47227440902E+03  0.50400001928E-02 0.  1.
       -1    1    3    3    0  502 -0.31778477311E+03  0.31677461122E+03 -0.73894499167E+03  0.86450738405E+03  0.50400001928E-02 0. -1.
</event>
<event>
 5   0  0.3854625E-04  0.9989887E+03  0.7818609E-02  0.9309655E-01
        4   -1    0    0  501    0  0.00000000000E+00  0.00000000000E+00  0.45254619678E+03  0.45254797881E+03  0.12699999809E+01 0. -1.
       -4   -1    0    0    0  501  0.00000000000E+00  0.00000000000E+00 -0.55130936233E+03  0.55131082511E+03  0.12699999809E+01 0.  1.
    10030    2    1    2    0    0  0.00000000000E+00  0.00000000000E+00 -0.98763165542E+02  0.10038588039E+04  0.99898865627E+03 0.  0.
        5    1    3    3  502    0 -0.10493165660E+03 -0.46492800012E+03 -0.19945420371E+03  0.51669407509E+03  0.46999998093E+01 0.  1.
       -5    1    3    3    0  502  0.10493165660E+03  0.46492800012E+03  0.10069103817E+03  0.48716472884E+03  0.46999998093E+01 0. -1.
</event>
<event>
 5   0  0.1006749E-03  0.1001524E+04  0.7818609E-02  0.9306874E-01
        2   -1    0    0  501    0  0.00000000000E+00  0.00000000000E+00  0.84302397643E+03  0.84302397644E+03  0.25500000920E-02 0. -1.
       -2   -1    0    0    0  501  0.00000000000E+00  0.00000000000E+00 -0.29745626616E+03  0.29745626617E+03  0.25500000920E-02 0.  1.
    10030    2    1    2    0    0  0.00000000000E+00  0.00000000000E+00  0.54556771028E+03  0.11404802426E+04  0.10015243668E+04 0.  0.
        1    1    3    3  502    0  0.45813352503E+03 -0.19034993734E+03  0.19518747948E+03  0.53312060322E+03  0.50400001928E-02 0.  1.
       -1    1    3    3    0  502 -0.45813352503E+03  0.19034993734E+03  0.35038023080E+03  0.60735963939E+03  0.50400001928E-02 0. -1.
</event>
<event>
 5   0  0.9741826E-04  0.9995453E+03  0.7818609E-02  0.9309044E-01
        2   -1    0    0  501    0  0.00000000000E+00  0.00000000000E+00  0.53033674432E+03  0.53033674432E+03  0.25500000920E-02 0. -1.
       -2   -1    0    0    0  501  0.00000000000E+00  0.00000000000E+00 -0.47097005103E+03  0.47097005104E+03  0.25500000920E-02 0.  1.
    10030    2    1    2    0    0  0.00000000000E+00  0.00000000000E+00  0.59366693287E+02  0.10013067954E+04  0.99954534373E+03 0.  0.
        3    1    3    3  502    0  0.36082600217E+02 -0.46609342882E+03  0.20670829973E+03  0.51114906808E+03  0.10100000352E+00 0. -1.
       -3    1    3    3    0  502 -0.36082600217E+02  0.46609342882E+03 -0.14734160644E+03  0.49015772728E+03  0.10100000352E+00 0.  1.
</event>
<event>
 5   0  0.5960102E-04  0.1000662E+04  0.7818609E-02  0.9307819E-01
        1   -1    0    0  501    0  0.00000000000E+00  0.00000000000E+00  0.39449922800E+03  0.39449922803E+03  0.50400001928E-02 0.  1.
       -1   -1    0    0    0  501  0.00000000000E+00  0.00000000000E+00 -0.63455419422E+03  0.63455419424E+03  0.50400001928E-02 0. -1.
    10030    2    1    2    0    0  0.00000000000E+00  0.00000000000E+00 -0.24005496623E+03  0.10290534223E+04  0.10006620604E+04 0.  0.
        5    1    3    3  502    0 -0.28177666098E+03 -0.41159337804E+03 -0.80174174539E+02  0.50522983263E+03  0.46999998093E+01 0.  1.
       -5    1    3    3    0  502  0.28177666098E+03  0.41159337804E+03 -0.15988079169E+03  0.52382358964E+03  0.46999998093E+01 0. -1.
</event>
<event>
 5   0  0.9741826E-04  0.1000477E+04  0.7818609E-02  0.9308022E-01
       -2   -1    0    0    0  501  0.00000000000E+00  0.00000000000E+00  0.49854369041E+03  0.49854369042E+03  0.25500000920E-02 0. -1.
        2   -1    0    0  501    0  0.00000000000E+00  0.00000000000E+00 -0.50193899028E+03  0.50193899029E+03  0.25500000920E-02 0.  1.
    10030    2    1    2    0    0  0.00000000000E+00  0.00000000000E+00 -0.33952998645E+01  0.10004826807E+04  0.10004769194E+04 0.  0.
        3    1    3    3  502    0 -0.20717164793E+03  0.31135446965E+03 -0.33392961727E+03  0.50136882329E+03  0.10100000352E+00 0.  1.
       -3    1    3    3    0  502  0.20717164793E+03 -0.31135446965E+03  0.33053431741E+03  0.49911385741E+03  0.10100000352E+00 0. -1.
</event>
<event>
 5   0  0.5888774E-04  0.9992193E+03  0.7818609E-02  0.9309402E-01
       -1   -1    0    0    0  501  0.00000000000E+00  0.00000000000E+00  0.26195584482E+03  0.26195584487E+03  0.50400001928E-02 0. -1.
        1   -1    0    0  501    0  0.00000000000E+00  0.00000000000E+00 -0.95286967616E+03  0.95286967617E+03  0.50400001928E-02 0.  1.
    10030    2    1    2    0    0  0.00000000000E+00  0.00000000000E+00 -0.69091383134E+03  0.12148255210E+04  0.99921925733E+03 0.  0.
        2    1    3    3  502    0 -0.17667515892E+03  0.24634373560E+03 -0.82827477257E+03  0.88200818972E+03  0.25500000920E-02 0.  1.
       -2    1    3    3    0  502  0.17667515892E+03 -0.24634373560E+03  0.13736094122E+03  0.33281733132E+03  0.25500000920E-02 0. -1.
</event>
<event>
 5   0  0.5768102E-04  0.1000188E+04  0.7818609E-02  0.9308339E-01
       -1   -1    0    0    0  501  0.00000000000E+00  0.00000000000E+00  0.56212133562E+03  0.56212133564E+03  0.50400001928E-02 0.  1.
        1   -1    0    0  501    0  0.00000000000E+00  0.00000000000E+00 -0.44491107669E+03  0.44491107672E+03  0.50400001928E-02 0. -1.
    10030    2    1    2    0    0  0.00000000000E+00  0.00000000000E+00  0.11721025893E+03  0.10070324124E+04  0.10001879997E+04 0.  0.
        4    1    3    3  502    0  0.53257533180E+01  0.33536980887E+03  0.43207624406E+03  0.54698516061E+03  0.12699999809E+01 0.  1.
       -4    1    3    3    0  502 -0.53257533180E+01 -0.33536980887E+03 -0.31486598514E+03  0.46004725175E+03  0.12699999809E+01 0. -1.
</event>
<event>
 5   0  0.9741826E-04  0.1001449E+04  0.7818609E-02  0.9306957E-01
        2   -1    0    0  501    0  0.00000000000E+00  0.00000000000E+00  0.92508789956E+03  0.92508789957E+03  0.25500000920E-02 0. -1.
       -2   -1    0    0    0  501  0.00000000000E+00  0.00000000000E+00 -0.27102838449E+03  0.27102838451E+03  0.25500000920E-02 0.  1.
    10030    2    1    2    0    0  0.00000000000E+00  0.00000000000E+00  0.65405951507E+03  0.11961162841E+04  0.10014491079E+04 0.  0.
        3    1    3    3  502    0  0.30464878021E+02  0.14962151315E+03 -0.24254357107E+03  0.28660443133E+03  0.10100000352E+00 0.  1.
       -3    1    3    3    0  502 -0.30464878021E+02 -0.14962151315E+03  0.89660308614E+03  0.90951185274E+03  0.10100000352E+00 0. -1.
</event>
<event>
 5   0  0.5758786E-04  0.1004309E+04  0.7818609E-02  0.9303831E-01
       -1   -1    0    0    0  501  0.00000000000E+00  0.00000000000E+00  0.15349390865E+03  0.15349390874E+03  0.50400001928E-02 0. -1.
        1   -1    0    0  501    0  0.00000000000E+00  0.00000000000E+00 -0.16427965132E+04  0.16427965132E+04  0.50400001928E-02 0.  1.
    10030    2    1    2    0    0  0.00000000000E+00  0.00000000000E+00 -0.14893026045E+04  0.17962904219E+04  0.10043092313E+04 0.  0.
        3    1    3    3  502    0 -0.48924316403E+03  0.72882200274E+02 -0.58987365826E+03  0.76981922006E+03  0.10100000352E+00 0. -1.
       -3    1    3    3    0  502  0.48924316403E+03 -0.72882200274E+02 -0.89942894626E+03  0.10264712019E+04  0.10100000352E+00 0.  1.
</event>
<event>
 5   0  0.5826939E-04  0.9948338E+03  0.7818609E-02  0.9314229E-01
        1   -1    0    0  501    0  0.00000000000E+00  0.00000000000E+00  0.75466695919E+03  0.75466695921E+03  0.50400001928E-02 0. -1.
       -1   -1    0    0    0  501  0.00000000000E+00  0.00000000000E+00 -0.32785794150E+03  0.32785794154E+03  0.50400001928E-02 0.  1.
    10030    2    1    2    0    0  0.00000000000E+00  0.00000000000E+00  0.42680901769E+03  0.10825249008E+04  0.99483376660E+03 0.  0.
        1    1    3    3  502    0  0.26794322315E+03  0.25074567272E+03 -0.15198691432E+03  0.39719892418E+03  0.50400001928E-02 0.  1.
       -1    1    3    3    0  502 -0.26794322315E+03 -0.25074567272E+03  0.57879593201E+03  0.68532597657E+03  0.50400001928E-02 0. -1.
</event>
<event>
 5   0  0.5768102E-04  0.1000298E+04  0.7818609E-02  0.9308218E-01
       -1   -1    0    0    0  501  0.00000000000E+00  0.00000000000E+00  0.24425811040E+03  0.24425811046E+03  0.50400001928E-02 0.  1.
        1   -1    0    0  501    0  0.00000000000E+00  0.00000000000E+00 -0.10241179877E+04  0.10241179877E+04  0.50400001928E-02 0. -1.
    10030    2    1    2    0    0  0.00000000000E+00  0.00000000000E+00 -0.77985987732E+03  0.12683760982E+04  0.10002982046E+04 0.  0.
        4    1    3    3  502    0 -0.40074305705E+01  0.25236288831E+03  0.15758158037E+03  0.29755109522E+03  0.12699999809E+01 0.  1.
       -4    1    3    3    0  502  0.40074305705E+01 -0.25236288831E+03 -0.93744145769E+03  0.97082500297E+03  0.12699999809E+01 0. -1.
</event>
<event>
 5   0  0.1006006E-03  0.9990989E+03  0.7818609E-02  0.9309534E-01
       -2   -1    0    0    0  501  0.00000000000E+00  0.00000000000E+00  0.24274873534E+03  0.24274873535E+03  0.25500000920E-02 0. -1.
        2   -1    0    0  501    0  0.00000000000E+00  0.00000000000E+00 -0.10280163067E+04  0.10280163067E+04  0.25500000920E-02 0.  1.
    10030    2    1    2    0    0  0.00000000000E+00  0.00000000000E+00 -0.78526757132E+03  0.12707650420E+04  0.99909891073E+03 0.  0.
        2    1    3    3  502    0 -0.48292336481E+03  0.10176410025E+03 -0.29428659255E+03  0.57460900353E+03  0.25500000920E-02 0.  1.
       -2    1    3    3    0  502  0.48292336481E+03 -0.10176410025E+03 -0.49098097877E+03  0.69615603848E+03  0.25500000920E-02 0. -1.
</event>
<event>
 5   0  0.1006006E-03  0.9996469E+03  0.7818609E-02  0.9308932E-01
        2   -1    0    0  501    0  0.00000000000E+00  0.00000000000E+00  0.10861970482E+04  0.10861970482E+04  0.25500000920E-02 0.  1.
       -2   -1    0    0    0  501  0.00000000000E+00  0.00000000000E+00 -0.22999829425E+03  0.22999829426E+03  0.25500000920E-02 0. -1.
    10030    2    1    2    0    0  0.00000000000E+00  0.00000000000E+00  0.85619875397E+03  0.13161953425E+04  0.99964687429E+03 0.  0.
        2    1    3    3  502    0 -0.36178143233E+03 -0.19705312415E+03  0.80075780653E+03  0.90051585397E+03  0.25500000920E-02 0.  1.
       -2    1    3    3    0  502  0.36178143233E+03  0.19705312415E+03  0.55440947436E+02  0.41567948852E+03  0.25500000920E-02 0. -1.
</event>
<event>
 5   0  0.1006006E-03  0.9993887E+03  0.7818609E-02  0.9309215E-01
        2   -1    0    0  501    0  0.00000000000E+00  0.00000000000E+00  0.42326777160E+03  0.42326777160E+03  0.25500000920E-02 0. -1.
       -2   -1    0    0    0  501  0.00000000000E+00  0.00000000000E+00 -0.58992077870E+03  0.58992077870E+03  0.25500000920E-02 0.  1.
    10030    2    1    2    0    0  0.00000000000E+00  0.00000000000E+00 -0.16665300710E+03  0.10131885503E+04  0.99938872002E+03 0.  0.
        2    1    3    3  502    0  0.29661942222E+03  0.32884877909E+03  0.15132106287E+03  0.46799857395E+03  0.25500000920E-02 0. -1.
       -2    1    3    3    0  502 -0.29661942222E+03 -0.32884877909E+03 -0.31797406997E+03  0.54518997636E+03  0.25500000920E-02 0.  1.
</event>
<event>
 5   0  0.5888774E-04  0.1000449E+04  0.7818609E-02  0.9308053E-01
        1   -1    0    0  501    0  0.00000000000E+00  0.00000000000E+00  0.55982718265E+03  0.55982718267E+03  0.50400001928E-02 0. -1.
       -1   -1    0    0    0  501  0.00000000000E+00  0.00000000000E+00 -0.44696740979E+03  0.44696740982E+03  0.50400001928E-02 0.  1.
    10030    2    1    2    0    0  0.00000000000E+00  0.00000000000E+00  0.11285977286E+03  0.10067945925E+04  0.10004489108E+04 0.  0.
        2    1    3    3  502    0 -0.47386413132E+03  0.15803292612E+03  0.29749745320E+02  0.50040650280E+03  0.25500000920E-02 0.  1.
       -2    1    3    3    0  502  0.47386413132E+03 -0.15803292612E+03  0.83110027542E+02  0.50638808969E+03  0.25500000920E-02 0. -1.
</event>
<event>
 5   0  0.5768102E-04  0.9988328E+03  0.7818609E-02  0.9309826E-01
       -1   -1    0    0    0  501  0.00000000000E+00  0.00000000000E+00  0.11133395017E+04  0.11133395017E+04  0.50400001928E-02 0.  1.
        1   -1    0    0  501    0  0.00000000000E+00  0.00000000000E+00 -0.22402577687E+03  0.22402577693E+03  0.50400001928E-02 0. -1.
    10030    2    1    2    0    0  0.00000000000E+00  0.00000000000E+00  0.88931372480E+03  0.13373652786E+04  0.99883281250E+03 0.  0.
        4    1    3    3  502    0 -0.41440476692E+02 -0.24238721962E+03  0.10266614244E+04  0.10557007959E+04  0.12699999809E+01 0.  1.
       -4    1    3    3    0  502  0.41440476692E+02  0.24238721962E+03 -0.13734769955E+03  0.28166448270E+03  0.12699999809E+01 0. -1.
</event>
<event>
 5   0  0.5758786E-04  0.1000418E+04  0.7818609E-02  0.9308086E-01
        1   -1    0    0  501    0  0.00000000000E+00  0.00000000000E+00  0.39152697639E+03  0.39152697642E+03  0.50400001928E-02 0. -1.
       -1   -1    0    0    0  501  0.00000000000E+00  0.00000000000E+00 -0.63906002483E+03  0.63906002485E+03  0.50400001928E-02 0.  1.
    10030    2    1    2    0    0  0.00000000000E+00  0.00000000000E+00 -0.24753304844E+03  0.10305870013E+04  0.10004183910E+04 0.  0.
        3    1    3    3  502    0  0.48341979451E+03 -0.10422286490E+03 -0.46318756822E+02  0.49669159518E+03  0.10100000352E+00 0. -1.
       -3    1    3    3    0  502 -0.48341979451E+03  0.10422286490E+03 -0.20121429162E+03  0.53389540609E+03  0.10100000352E+00 0.  1.
</event>
<event>
 5   0  0.1020150E-03  0.9988438E+03  0.7818609E-02  0.9309814E-01
        2   -1    0    0  501    0  0.00000000000E+00  0.00000000000E+00  0.36439623929E+03  0.36439623930E+03  0.25500000920E-02 0. -1.
       -2   -1    0    0    0  501  0.00000000000E+00  0.00000000000E+00 -0.68448078247E+03  0.68448078248E+03  0.25500000920E-02 0.  1.
    10030    2    1    2    0    0  0.00000000000E+00  0.00000000000E+00 -0.32008454319E+03  0.10488770218E+04  0.99884377758E+03 0.  0.
        5    1    3    3  502    0  0.44521366413E+02  0.48263834804E+03 -0.28639492825E+03  0.56299739963E+03  0.46999998093E+01 0.  1.
       -5    1    3    3    0  502 -0.44521366413E+02 -0.48263834804E+03 -0.33689614942E+02  0.48587962215E+03  0.46999998093E+01 0. -1.
</event>
<event>
 5   0  0.5768102E-04  0.9998223E+03  0.7818609E-02  0.9308740E-01
        1   -1    0    0  501    0  0.00000000000E+00  0.00000000000E+00  0.10574820401E+04  0.10574820401E+04  0.50400001928E-02 0.  1.
       -1   -1    0    0    0  501  0.00000000000E+00  0.00000000000E+00 -0.23632662041E+03  0.23632662047E+03  0.50400001928E-02 0. -1.
    10030    2    1    2    0    0  0.00000000000E+00  0.00000000000E+00  0.82115541966E+03  0.12938086606E+04  0.99982229766E+03 0.  0.
        4    1    3    3  502    0  0.38388927176E+03  0.10565303395E+03  0.80174571438E+03  0.89517112330E+03  0.12699999809E+01 0.  1.
       -4    1    3    3    0  502 -0.38388927176E+03 -0.10565303395E+03  0.19409705280E+02  0.39863753726E+03  0.12699999809E+01 0. -1.
</event>
<event>
 5   0  0.1020150E-03  0.1001534E+04  0.7818609E-02  0.9306864E-01
        2   -1    0    0  501    0  0.00000000000E+00  0.00000000000E+00  0.42784823414E+03  0.42784823415E+03  0.25500000920E-02 0. -1.
       -2   -1    0    0    0  501  0.00000000000E+00  0.00000000000E+00 -0.58611359382E+03  0.58611359382E+03  0.25500000920E-02 0.  1.
    10030    2    1    2    0    0  0.00000000000E+00  0.00000000000E+00 -0.15826535967E+03  0.10139618280E+04  0.10015341554E+04 0.  0.
        5    1    3    3  502    0  0.25527491810E+03  0.18582930410E+03 -0.47260391493E+03  0.56839630934E+03  0.46999998093E+01 0.  1.
       -5    1    3    3    0  502 -0.25527491810E+03 -0.18582930410E+03  0.31433855525E+03  0.44556551863E+03  0.46999998093E+01 0. -1.
</event>
<event>
 5   0  0.5768102E-04  0.1003257E+04  0.7818609E-02  0.9304979E-01
       -1   -1    0    0    0  501  0.00000000000E+00  0.00000000000E+00  0.21018430501E+03  0.21018430507E+03  0.50400001928E-02 0.  1.
        1   -1    0    0  501    0  0.00000000000E+00  0.00000000000E+00 -0.11971940636E+04  0.11971940636E+04  0.50400001928E-02 0. -1.
    10030    2    1    2    0    0  0.00000000000E+00  0.00000000000E+00 -0.98700975862E+03  0.14073783687E+04  0.10032574989E+04 0.  0.
        4    1    3    3  502    0 -0.50150855097E+03 -0.31974877938E+01 -0.47887668827E+03  0.69343027486E+03  0.12699999809E+01 0. -1.
       -4    1    3    3    0  502  0.50150855097E+03  0.31974877938E+01 -0.50813307034E+03  0.71394809384E+03  0.12699999809E+01 0.  1.
</event>
<event>
 5   0  0.5960102E-04  0.1001788E+04  0.7818609E-02  0.9306585E-01
        1   -1    0    0  501    0  0.00000000000E+00  0.00000000000E+00  0.49261673054E+03  0.49261673057E+03  0.50400001928E-02 0.  1.
       -1   -1    0    0    0  501  0.00000000000E+00  0.00000000000E+00 -0.50931078873E+03  0.50931078875E+03  0.50400001928E-02 0. -1.
    10030    2    1    2    0    0  0.00000000000E+00  0.00000000000E+00 -0.16694058185E+02  0.10019275193E+04  0.10017884320E+04 0.  0.
        5    1    3    3  502    0  0.12567797774E+03  0.48451607190E+03  0.96039329994E+01  0.50066466177E+03  0.46999998093E+01 0.  1.
       -5    1    3    3    0  502 -0.12567797774E+03 -0.48451607190E+03 -0.26297991184E+02  0.50126285755E+03  0.46999998093E+01 0. -1.
</event>
<event>
 5   0  0.5758786E-04  0.1002737E+04  0.7818609E-02  0.9305548E-01
       -1   -1    0    0    0  501  0.00000000000E+00  0.00000000000E+00  0.48562024954E+03  0.48562024957E+03  0.50400001928E-02 0. -1.
        1   -1    0    0  501    0  0.00000000000E+00  0.00000000000E+00 -0.51762719084E+03  0.51762719087E+03  0.50400001928E-02 0.  1.
    10030    2    1    2    0    0  0.00000000000E+00  0.00000000000E+00 -0.32006941299E+02  0.10032474404E+04  0.10027367463E+04 0.  0.
        3    1    3    3  502    0  0.33595974507E+03 -0.98177802262E+02  0.34315345465E+03  0.49016541575E+03  0.10100000352E+00 0. -1.
       -3    1    3    3    0  502 -0.33595974507E+03  0.98177802262E+02 -0.37516039595E+03  0.51308202468E+03  0.10100000352E+00 0.  1.
</event>
<event>
 5   0  0.5826939E-04  0.9992807E+03  0.7818609E-02  0.9309334E-01
       -1   -1    0    0    0  501  0.00000000000E+00  0.00000000000E+00  0.14196805344E+03  0.14196805353E+03  0.50400001928E-02 0. -1.
        1   -1    0    0  501    0  0.00000000000E+00  0.00000000000E+00 -0.17584270741E+04  0.17584270741E+04  0.50400001928E-02 0.  1.
    10030    2    1    2    0    0  0.00000000000E+00  0.00000000000E+00 -0.16164590207E+04  0.19003951276E+04  0.99928067914E+03 0.  0.
        1    1    3    3  502    0 -0.49395469222E+03  0.68548442182E+02 -0.86685633611E+03  0.10000650151E+04  0.50400001928E-02 0. -1.
       -1    1    3    3    0  502  0.49395469222E+03 -0.68548442182E+02 -0.74960268455E+03  0.90033011257E+03  0.50400001928E-02 0.  1.
</event>
<event>
 5   0  0.9674819E-04  0.9958629E+03  0.7818609E-02  0.9313094E-01
        2   -1    0    0  501    0  0.00000000000E+00  0.00000000000E+00  0.13078501052E+04  0.13078501052E+04  0.25500000920E-02 0. -1.
       -2   -1    0    0    0  501  0.00000000000E+00  0.00000000000E+00 -0.18957504274E+03  0.18957504275E+03  0.25500000920E-02 0.  1.
    10030    2    1    2    0    0  0.00000000000E+00  0.00000000000E+00  0.11182750624E+04  0.14974251479E+04  0.99586292147E+03 0.  0.
        4    1    3    3  502    0  0.28718845607E+03  0.40325300329E+03  0.63932476262E+03  0.80859628924E+03  0.12699999809E+01 0. -1.
       -4    1    3    3    0  502 -0.28718845607E+03 -0.40325300329E+03  0.47895029980E+03  0.68882885868E+03  0.12699999809E+01 0.  1.
</event>
<event>
 5   0  0.1006006E-03  0.1003517E+04  0.7818609E-02  0.9304696E-01
       -2   -1    0    0    0  501  0.00000000000E+00  0.00000000000E+00  0.13430346744E+03  0.13430346747E+03  0.25500000920E-02 0. -1.
        2   -1    0    0  501    0  0.00000000000E+00  0.00000000000E+00 -0.18745709851E+04  0.18745709851E+04  0.25500000920E-02 0.  1.
    10030    2    1    2    0    0  0.00000000000E+00  0.00000000000E+00 -0.17402675177E+04  0.20088744526E+04  0.10035165834E+04 0.  0.
        2    1    3    3  502    0 -0.15711205399E+03  0.46600440850E+03 -0.10694855240E+04  0.11771336340E+04  0.25500000920E-02 0. -1.
       -2    1    3    3    0  502  0.15711205399E+03 -0.46600440850E+03 -0.67078199362E+03  0.83174081853E+03  0.25500000920E-02 0.  1.
</event>
<event>
 5   0  0.5758786E-04  0.9998230E+03  0.7818609E-02  0.9308739E-01
        1   -1    0    0  501    0  0.00000000000E+00  0.00000000000E+00  0.11163626964E+04  0.11163626964E+04  0.50400001928E-02 0. -1.
       -1   -1    0    0    0  501  0.00000000000E+00  0.00000000000E+00 -0.22386227404E+03  0.22386227410E+03  0.50400001928E-02 0.  1.
    10030    2    1    2    0    0  0.00000000000E+00  0.00000000000E+00  0.89250042235E+03  0.13402249705E+04  0.99982296816E+03 0.  0.
        3    1    3    3  502    0  0.68037447062E+02 -0.17665694388E+03 -0.17395766896E+03  0.25709541189E+03  0.10100000352E+00 0.  1.
       -3    1    3    3    0  502 -0.68037447062E+02  0.17665694388E+03  0.10664580913E+04  0.10831295586E+04  0.10100000352E+00 0. -1.
</event>
<event>
 5   0  0.9741826E-04  0.9966608E+03  0.7818609E-02  0.9312215E-01
       -2   -1    0    0    0  501  0.00000000000E+00  0.00000000000E+00  0.12780470395E+04  0.12780470395E+04  0.25500000920E-02 0.  1.
        2   -1    0    0  501    0  0.00000000000E+00  0.00000000000E+00 -0.19430677217E+03  0.19430677218E+03  0.25500000920E-02 0. -1.
    10030    2    1    2    0    0  0.00000000000E+00  0.00000000000E+00  0.10837402674E+04  0.14723538117E+04  0.99666081481E+03 0.  0.
        3    1    3    3  502    0 -0.28925339392E+03  0.33397859568E+03  0.88236456020E+03  0.98680112260E+03  0.10100000352E+00 0.  1.
       -3    1    3    3    0  502  0.28925339392E+03 -0.33397859568E+03  0.20137570718E+03  0.48555268912E+03  0.10100000352E+00 0. -1.
</event>
<event>
 5   0  0.5826939E-04  0.9955016E+03  0.7818609E-02  0.9313492E-01
       -1   -1    0    0    0  501  0.00000000000E+00  0.00000000000E+00  0.35030307572E+03  0.35030307576E+03  0.50400001928E-02 0.  1.
        1   -1    0    0  501    0  0.00000000000E+00  0.00000000000E+00 -0.70726137617E+03  0.70726137618E+03  0.50400001928E-02 0. -1.
    10030    2    1    2    0    0  0.00000000000E+00  0.00000000000E+00 -0.35695830044E+03  0.10575644519E+04  0.99550155286E+03 0.  0.
        1    1    3    3  502    0 -0.35177756901E+03  0.25555100299E+03  0.78910797574E+02  0.44190574469E+03  0.50400001928E-02 0.  1.
       -1    1    3    3    0  502  0.35177756901E+03 -0.25555100299E+03 -0.43586909802E+03  0.61565870726E+03  0.50400001928E-02 0. -1.
</event>
<event>
 5   0  0.5768102E-04  0.9977836E+03  0.7818609E-02  0.9310979E-01
        1   -1    0    0  501    0  0.00000000000E+00  0.00000000000E+00  0.44497837251E+03  0.44497837254E+03  0.50400001928E-02 0.  1.
       -1   -1    0    0    0  501  0.00000000000E+00  0.00000000000E+00 -0.55933736602E+03  0.55933736604E+03  0.50400001928E-02 0. -1.
    10030    2    1    2    0    0  0.00000000000E+00  0.00000000000E+00 -0.11435899350E+03  0.10043157386E+04  0.99778360548E+03 0.  0.
        4    1    3    3  502    0 -0.41470352885E+02  0.27357613189E+02 -0.55683962065E+03  0.55905295384E+03  0.12699999809E+01 0. -1.
       -4    1    3    3    0  502  0.41470352885E+02 -0.27357613189E+02  0.44248062715E+03  0.44526278474E+03  0.12699999809E+01 0.  1.
</event>
<event>
 5   0  0.5960102E-04  0.1001792E+04  0.7818609E-02  0.9306582E-01
       -1   -1    0    0    0  501  0.00000000000E+00  0.00000000000E+00  0.15280637121E+03  0.15280637129E+03  0.50400001928E-02 0. -1.
        1   -1    0    0  501    0  0.00000000000E+00  0.00000000000E+00 -0.16419250673E+04  0.16419250673E+04  0.50400001928E-02 0.  1.
    10030    2    1    2    0    0  0.00000000000E+00  0.00000000000E+00 -0.14891186961E+04  0.17947314386E+04  0.10017916179E+04 0.  0.
        5    1    3    3  502    0 -0.24982030450E+03 -0.99407402133E+02  0.12520231975E+02  0.26920412766E+03  0.46999998093E+01 0. -1.
       -5    1    3    3    0  502  0.24982030450E+03  0.99407402133E+02 -0.15016389281E+04  0.15255273109E+04  0.46999998093E+01 0.  1.
</event>
<event>
 5   0  0.9741826E-04  0.1000004E+04  0.7818609E-02  0.9308541E-01
        2   -1    0    0  501    0  0.00000000000E+00  0.00000000000E+00  0.18043413646E+04  0.18043413646E+04  0.25500000920E-02 0.  1.
       -2   -1    0    0    0  501  0.00000000000E+00  0.00000000000E+00 -0.13855570364E+03  0.13855570366E+03  0.25500000920E-02 0. -1.
    10030    2    1    2    0    0  0.00000000000E+00  0.00000000000E+00  0.16657856610E+04  0.19428970683E+04  0.10000035748E+04 0.  0.
        3    1    3    3  502    0  0.24097880620E+03 -0.12679983189E+03  0.18145628135E+02  0.27290704723E+03  0.10100000352E+00 0. -1.
       -3    1    3    3    0  502 -0.24097880620E+03  0.12679983189E+03  0.16476400328E+04  0.16699900210E+04  0.10100000352E+00 0.  1.
</event>
<event>
 5   0  0.5826939E-04  0.9991327E+03  0.7818609E-02  0.9309497E-01
       -1   -1    0    0    0  501  0.00000000000E+00  0.00000000000E+00  0.18726261663E+03  0.18726261670E+03  0.50400001928E-02 0.  1.
        1   -1    0    0  501    0  0.00000000000E+00  0.00000000000E+00 -0.13327087857E+04  0.13327087857E+04  0.50400001928E-02 0. -1.
    10030    2    1    2    0    0  0.00000000000E+00  0.00000000000E+00 -0.11454461691E+04  0.15199714024E+04  0.99913269285E+03 0.  0.
        1    1    3    3  502    0 -0.23946430670E+03 -0.34519945172E+02  0.92190228168E+02  0.25890890095E+03  0.50400001928E-02 0.  1.
       -1    1    3    3    0  502  0.23946430670E+03  0.34519945172E+02 -0.12376363973E+04  0.12610625015E+04  0.50400001928E-02 0. -1.
</event>
<event>
 5   0  0.1006749E-03  0.1005702E+04  0.7818609E-02  0.9302312E-01
        2   -1    0    0  501    0  0.00000000000E+00  0.00000000000E+00  0.12846306035E+04  0.12846306035E+04  0.25500000920E-02 0.  1.
       -2   -1    0    0    0  501  0.00000000000E+00  0.00000000000E+00 -0.19683429866E+03  0.19683429868E+03  0.25500000920E-02 0. -1.
    10030    2    1    2    0    0  0.00000000000E+00  0.00000000000E+00  0.10877963049E+04  0.14814649022E+04  0.10057024687E+04 0.  0.
        1    1    3    3  502    0  0.20234332211E+03  0.46013208671E+03  0.52332757116E+03  0.72562807552E+03  0.50400001928E-02 0. -1.
       -1    1    3    3    0  502 -0.20234332211E+03 -0.46013208671E+03  0.56446873372E+03  0.75583682670E+03  0.50400001928E-02 0.  1.
</event>
<event>
 5   0  0.5768102E-04  0.1000505E+04  0.7818609E-02  0.9307991E-01
        1   -1    0    0  501    0  0.00000000000E+00  0.00000000000E+00  0.12863996068E+04  0.12863996068E+04  0.50400001928E-02 0. -1.
       -1   -1    0    0    0  501  0.00000000000E+00  0.00000000000E+00 -0.19453707721E+03  0.19453707728E+03  0.50400001928E-02 0.  1.
    10030    2    1    2    0    0  0.00000000000E+00  0.00000000000E+00  0.10918625296E+04  0.14809366841E+04  0.10005047120E+04 0.  0.
        4    1    3    3  502    0 -0.49505182187E+03 -0.71538845657E+02  0.55707641580E+03  0.74868542039E+03  0.12699999809E+01 0. -1.
       -4    1    3    3    0  502  0.49505182187E+03  0.71538845657E+02  0.53478611378E+03  0.73225126368E+03  0.12699999809E+01 0.  1.
</event>
<event>
 5   0  0.5960102E-04  0.9994214E+03  0.7818609E-02  0.9309180E-01
        1   -1    0    0  501    0  0.00000000000E+00  0.00000000000E+00  0.78533893916E+03  0.78533893918E+03  0.50400001928E-02 0. -1.
       -1   -1    0    0    0  501  0.00000000000E+00  0.00000000000E+00 -0.31796561380E+03  0.31796561384E+03  0.50400001928E-02 0.  1.
    10030    2    1    2    0    0  0.00000000000E+00  0.00000000000E+00  0.46737332536E+03  0.11033045530E+04  0.99942138833E+03 0.  0.
        5    1    3    3  502    0  0.15107934182E+03 -0.26904377599E+03  0.66757875017E+03  0.73545428043E+03  0.46999998093E+01 0. -1.
       -5    1    3    3    0  502 -0.15107934182E+03  0.26904377599E+03 -0.20020542481E+03  0.36785027259E+03  0.46999998093E+01 0.  1.
</event>
<event>
 5   0  0.5888774E-04  0.9992435E+03  0.7818609E-02  0.9309375E-01
        1   -1    0    0  501    0  0.00000000000E+00  0.00000000000E+00  0.17559758597E+03  0.17559758604E+03  0.50400001928E-02 0. -1.
       -1   -1    0    0    0  501  0.00000000000E+00  0.00000000000E+00 -0.14215564644E+04  0.14215564644E+04  0.50400001928E-02 0.  1.
    10030    2    1    2    0    0  0.00000000000E+00  0.00000000000E+00 -0.12459588784E+04  0.15971540504E+04  0.99924348088E+03 0.  0.
        2    1    3    3  502    0 -0.76333428174E+02  0.16335856440E+03  0.12177734467E+03  0.21758339665E+03  0.25500000920E-02 0. -1.
       -2    1    3    3    0  502  0.76333428174E+02 -0.16335856440E+03 -0.13677362231E+04  0.13795706537E+04  0.25500000920E-02 0.  1.
</event>
<event>
 5   0  0.5888774E-04  0.1001189E+04  0.7818609E-02  0.9307242E-01
        1   -1    0    0  501    0  0.00000000000E+00  0.00000000000E+00  0.38898489502E+03  0.38898489505E+03  0.50400001928E-02 0. -1.
       -1   -1    0    0    0  501  0.00000000000E+00  0.00000000000E+00 -0.64422785792E+03  0.64422785794E+03  0.50400001928E-02 0.  1.
    10030    2    1    2    0    0  0.00000000000E+00  0.00000000000E+00 -0.25524296290E+03  0.10332127530E+04  0.10011891044E+04 0.  0.
        2    1    3    3  502    0 -0.33086485777E+03 -0.37364863666E+03 -0.87519206825E+02  0.50669958492E+03  0.25500000920E-02 0. -1.
       -2    1    3    3    0  502  0.33086485777E+03  0.37364863666E+03 -0.16772375607E+03  0.52651316807E+03  0.25500000920E-02 0.  1.
</event>
<event>
 5   0  0.5960102E-04  0.1006904E+04  0.7818609E-02  0.9301004E-01
       -1   -1    0    0    0  501  0.00000000000E+00  0.00000000000E+00  0.37195469822E+03  0.37195469826E+03  0.50400001928E-02 0. -1.
        1   -1    0    0  501    0  0.00000000000E+00  0.00000000000E+00 -0.68143811551E+03  0.68143811553E+03  0.50400001928E-02 0.  1.
    10030    2    1    2    0    0  0.00000000000E+00  0.00000000000E+00 -0.30948341729E+03  0.10533928138E+04  0.10069043820E+04 0.  0.
        5    1    3    3  502    0  0.22917321846E+03  0.23028885436E+03  0.24757643000E+03  0.40849663302E+03  0.46999998093E+01 0. -1.
       -5    1    3    3    0  502 -0.22917321846E+03 -0.23028885436E+03 -0.55705984729E+03  0.64489618077E+03  0.46999998093E+01 0.  1.
</event>
<event>
 5   0  0.1006006E-03  0.1000163E+04  0.7818609E-02  0.9308366E-01
       -2   -1    0    0    0  501  0.00000000000E+00  0.00000000000E+00  0.37653928684E+03  0.37653928685E+03  0.25500000920E-02 0.  1.
        2   -1    0    0  501    0  0.00000000000E+00  0.00000000000E+00 -0.66415793679E+03  0.66415793679E+03  0.25500000920E-02 0. -1.
    10030    2    1    2    0    0  0.00000000000E+00  0.00000000000E+00 -0.28761864995E+03  0.10406972236E+04  0.10001630984E+04 0.  0.
        2    1    3    3  502    0 -0.11542184817E+03  0.35391423757E+03 -0.49126460817E+03  0.61637521514E+03  0.25500000920E-02 0. -1.
       -2    1    3    3    0  502  0.11542184817E+03 -0.35391423757E+03  0.20364595822E+03  0.42432200850E+03  0.25500000920E-02 0.  1.
</event>
<event>
 5   0  0.5768102E-04  0.1000148E+04  0.7818609E-02  0.9308383E-01
        1   -1    0    0  501    0  0.00000000000E+00  0.00000000000E+00  0.10857829389E+04  0.10857829389E+04  0.50400001928E-02 0.  1.
       -1   -1    0    0    0  501  0.00000000000E+00  0.00000000000E+00 -0.23031656428E+03  0.23031656434E+03  0.50400001928E-02 0. -1.
    10030    2    1    2    0    0  0.00000000000E+00  0.00000000000E+00  0.85546637457E+03  0.13160995032E+04  0.10001475813E+04 0.  0.
        4    1    3    3  502    0  0.35710700093E+02 -0.12556562011E+03 -0.20749643777E+03  0.24514967600E+03  0.12699999809E+01 0. -1.
       -4    1    3    3    0  502 -0.35710700093E+02  0.12556562011E+03  0.10629628123E+04  0.10709498272E+04  0.12699999809E+01 0.  1.
</event>
<event>
 5   0  0.5826939E-04  0.9996685E+03  0.7818609E-02  0.9308908E-01
       -1   -1    0    0    0  501  0.00000000000E+00  0.00000000000E+00  0.98822878323E+03  0.98822878325E+03  0.50400001928E-02 0. -1.
        1   -1    0    0  501    0  0.00000000000E+00  0.00000000000E+00 -0.25281018189E+03  0.25281018194E+03  0.50400001928E-02 0.  1.
    10030    2    1    2    0    0  0.00000000000E+00  0.00000000000E+00  0.73541860134E+03  0.12410389652E+04  0.99966854203E+03 0.  0.
        1    1    3    3  502    0 -0.26228284445E+03 -0.14179794608E+03  0.86573885610E+03  0.91564333394E+03  0.50400001928E-02 0. -1.
       -1    1    3    3    0  502  0.26228284445E+03  0.14179794608E+03 -0.13032025476E+03  0.32539563124E+03  0.50400001928E-02 0.  1.
</event>
<event>
 5   0  0.5826939E-04  0.1000927E+04  0.7818609E-02  0.9307529E-01
        1   -1    0    0  501    0  0.00000000000E+00  0.00000000000E+00  0.68500876562E+03  0.68500876563E+03  0.50400001928E-02 0. -1.
       -1   -1    0    0    0  501  0.00000000000E+00  0.00000000000E+00 -0.36563585523E+03  0.36563585526E+03  0.50400001928E-02 0.  1.
    10030    2    1    2    0    0  0.00000000000E+00  0.00000000000E+00  0.31937291039E+03  0.10506446209E+04  0.10009271020E+04 0.  0.
        1    1    3    3  502    0  0.31002115660E+03 -0.34823073321E+03  0.35061706365E+03  0.58336102582E+03  0.50400001928E-02 0. -1.
       -1    1    3    3    0  502 -0.31002115660E+03  0.34823073321E+03 -0.31244153265E+02  0.46728359508E+03  0.50400001928E-02 0.  1.
</event>
<event>
 5   0  0.3854625E-04  0.9987384E+03  0.7818609E-02  0.9309930E-01
       -3   -1    0    0    0  501  0.00000000000E+00  0.00000000000E+00  0.64705501788E+03  0.64705502576E+03  0.10100000352E+00 0.  1.
        3   -1    0    0  501    0  0.00000000000E+00  0.00000000000E+00 -0.38539163865E+03  0.38539165188E+03  0.10100000352E+00 0. -1.
    10030    2    1    2    0    0  0.00000000000E+00  0.00000000000E+00  0.26166337923E+03  0.10324466776E+04  0.99873841327E+03 0.  0.
        3    1    3    3  502    0 -0.47508831277E+03 -0.12610580731E+03  0.39779335649E+02  0.49314702201E+03  0.10100000352E+00 0. -1.
       -3    1    3    3    0  502  0.47508831277E+03  0.12610580731E+03  0.22188404358E+03  0.53929965563E+03  0.10100000352E+00 0.  1.
</event>
<event>
 5   0  0.9674819E-04  0.9987486E+03  0.7818609E-02  0.9309918E-01
        2   -1    0    0  501    0  0.00000000000E+00  0.00000000000E+00  0.46476860650E+03  0.46476860650E+03  0.25500000920E-02 0. -1.
       -2   -1    0    0    0  501  0.00000000000E+00  0.00000000000E+00 -0.53655661099E+03  0.53655661100E+03  0.25500000920E-02 0.  1.
    10030    2    1    2    0    0  0.00000000000E+00  0.00000000000E+00 -0.71788004498E+02  0.10013252175E+04  0.99874855375E+03 0.  0.
        4    1    3    3  502    0  0.38404569398E+03 -0.12696541561E+03  0.25771258254E+03  0.47961307314E+03  0.12699999809E+01 0. -1.
       -4    1    3    3    0  502 -0.38404569398E+03  0.12696541561E+03 -0.32950058704E+03  0.52171214437E+03  0.12699999809E+01 0.  1.
</event>
<event>
 5   0  0.5758786E-04  0.9994597E+03  0.7818609E-02  0.9309138E-01
       -1   -1    0    0    0  501  0.00000000000E+00  0.00000000000E+00  0.24367471467E+03  0.24367471472E+03  0.50400001928E-02 0.  1.
        1   -1    0    0  501    0  0.00000000000E+00  0.00000000000E+00 -0.10248495000E+04  0.10248495000E+04  0.50400001928E-02 0. -1.
    10030    2    1    2    0    0  0.00000000000E+00  0.00000000000E+00 -0.78117478533E+03  0.12685242147E+04  0.99945967309E+03 0.  0.
        3    1    3    3  502    0 -0.19109867287E+03  0.33586496843E+02  0.19391536232E+03  0.27431721326E+03  0.10100000352E+00 0.  1.
       -3    1    3    3    0  502  0.19109867287E+03 -0.33586496843E+02 -0.97509014765E+03  0.99420700148E+03  0.10100000352E+00 0. -1.
</event>
<event>
 5   0  0.9674819E-04  0.9997552E+03  0.7818609E-02  0.9308813E-01
       -2   -1    0    0    0  501  0.00000000000E+00  0.00000000000E+00  0.27357781388E+03  0.27357781389E+03  0.25500000920E-02 0. -1.
        2   -1    0    0  501    0  0.00000000000E+00  0.00000000000E+00 -0.91336951717E+03  0.91336951717E+03  0.25500000920E-02 0.  1.
    10030    2    1    2    0    0  0.00000000000E+00  0.00000000000E+00 -0.63979170329E+03  0.11869473311E+04  0.99975524160E+03 0.  0.
        4    1    3    3  502    0 -0.25438956808E+03 -0.41153277668E+03 -0.17064940011E+03  0.51302642163E+03  0.12699999809E+01 0.  1.
       -4    1    3    3    0  502  0.25438956808E+03  0.41153277668E+03 -0.46914230317E+03  0.67392090943E+03  0.12699999809E+01 0. -1.
</event>
<event>
 5   0  0.9741826E-04  0.9981463E+03  0.7818609E-02  0.9310580E-01
       -2   -1    0    0    0  501  0.00000000000E+00  0.00000000000E+00  0.30211890528E+03  0.30211890529E+03  0.25500000920E-02 0.  1.
        2   -1    0    0  501    0  0.00000000000E+00  0.00000000000E+00 -0.82442383807E+03  0.82442383808E+03  0.25500000920E-02 0. -1.
    10030    2    1    2    0    0  0.00000000000E+00  0.00000000000E+00 -0.52230493280E+03  0.11265427434E+04  0.99814633687E+03 0.  0.
        3    1    3    3  502    0  0.12809863003E+03  0.40604418268E+03 -0.55501586637E+03  0.69951680425E+03  0.10100000352E+00 0. -1.
       -3    1    3    3    0  502 -0.12809863003E+03 -0.40604418268E+03  0.32710933570E+02  0.42702593912E+03  0.10100000352E+00 0.  1.
</event>
<event>
 5   0  0.1006749E-03  0.1002947E+04  0.7818609E-02  0.9305318E-01
       -2   -1    0    0    0  501  0.00000000000E+00  0.00000000000E+00  0.21184229981E+03  0.21184229983E+03  0.25500000920E-02 0.  1.
        2   -1    0    0  501    0  0.00000000000E+00  0.00000000000E+00 -0.11870891993E+04  0.11870891993E+04  0.25500000920E-02 0. -1.
    10030    2    1    2    0    0  0.00000000000E+00  0.00000000000E+00 -0.97524689950E+03  0.13989314991E+04  0.10029470695E+04 0.  0.
        1    1    3    3  502    0 -0.52584682552E+02  0.16128484876E+02  0.20762224945E+03  0.21478425305E+03  0.50400001928E-02 0.  1.
       -1    1    3    3    0  502  0.52584682552E+02 -0.16128484876E+02 -0.11828691489E+04  0.11841472461E+04  0.50400001928E-02 0. -1.
</event>
<event>
 5   0  0.9674819E-04  0.9989226E+03  0.7818609E-02  0.9309727E-01
        2   -1    0    0  501    0  0.00000000000E+00  0.00000000000E+00  0.33581705640E+03  0.33581705641E+03  0.25500000920E-02 0.  1.
       -2   -1    0    0    0  501  0.00000000000E+00  0.00000000000E+00 -0.74284961530E+03  0.74284961531E+03  0.25500000920E-02 0. -1.
    10030    2    1    2    0    0  0.00000000000E+00  0.00000000000E+00 -0.40703255891E+03  0.10786666717E+04  0.99892256189E+03 0.  0.
        4    1    3    3  502    0 -0.21329916624E+03 -0.29144827956E+03 -0.57605191906E+03  0.67990886178E+03  0.12699999809E+01 0. -1.
       -4    1    3    3    0  502  0.21329916624E+03  0.29144827956E+03  0.16901936015E+03  0.39875780993E+03  0.12699999809E+01 0.  1.
</event>
<event>
 5   0  0.5758786E-04  0.1004569E+04  0.7818609E-02  0.9303547E-01
        1   -1    0    0  501    0  0.00000000000E+00  0.00000000000E+00  0.47125981689E+03  0.47125981692E+03  0.50400001928E-02 0.  1.
       -1   -1    0    0    0  501  0.00000000000E+00  0.00000000000E+00 -0.53535199849E+03  0.53535199851E+03  0.50400001928E-02 0. -1.
    10030    2    1    2    0    0  0.00000000000E+00  0.00000000000E+00 -0.64092181600E+02  0.10066118154E+04  0.10045693302E+04 0.  0.
        3    1    3    3  502    0  0.18366873378E+03  0.45802556370E+02  0.43415010528E+03  0.47362263676E+03  0.10100000352E+00 0.  1.
       -3    1    3    3    0  502 -0.18366873378E+03 -0.45802556370E+02 -0.49824228688E+03  0.53298917867E+03  0.10100000352E+00 0. -1.
</event>
<event>
 5   0  0.9741826E-04  0.9980122E+03  0.7818609E-02  0.9310728E-01
       -2   -1    0    0    0  501  0.00000000000E+00  0.00000000000E+00  0.43457030424E+03  0.43457030424E+03  0.25500000920E-02 0. -1.
        2   -1    0    0  501    0  0.00000000000E+00  0.00000000000E+00 -0.57299613173E+03  0.57299613173E+03  0.25500000920E-02 0.  1.
    10030    2    1    2    0    0  0.00000000000E+00  0.00000000000E+00 -0.13842582749E+03  0.10075664360E+04  0.99801223098E+03 0.  0.
        3    1    3    3  502    0  0.25993588473E+03 -0.42595039183E+03 -0.66601137184E+02  0.50342439566E+03  0.10100000352E+00 0. -1.
       -3    1    3    3    0  502 -0.25993588473E+03  0.42595039183E+03 -0.71824690308E+02  0.50414204031E+03  0.10100000352E+00 0.  1.
</event>
<event>
 5   0  0.5826939E-04  0.9995018E+03  0.7818609E-02  0.9309091E-01
        1   -1    0    0  501    0  0.00000000000E+00  0.00000000000E+00  0.25542811761E+03  0.25542811766E+03  0.50400001928E-02 0. -1.
       -1   -1    0    0    0  501  0.00000000000E+00  0.00000000000E+00 -0.97777405516E+03  0.97777405517E+03  0.50400001928E-02 0.  1.
    10030    2    1    2    0    0  0.00000000000E+00  0.00000000000E+00 -0.72234593755E+03  0.12332021728E+04  0.99950184872E+03 0.  0.
        1    1    3    3  502    0 -0.20871941225E+03  0.24681352777E+03 -0.83143407387E+03  0.89205567637E+03  0.50400001928E-02 0.  1.
       -1    1    3    3    0  502  0.20871941225E+03 -0.24681352777E+03  0.10908813632E+03  0.34114649646E+03  0.50400001928E-02 0. -1.
</event>
<event>
 5   0  0.9674819E-04  0.9999706E+03  0.7818609E-02  0.9308577E-01
       -2   -1    0    0    0  501  0.00000000000E+00  0.00000000000E+00  0.30183643189E+03  0.30183643190E+03  0.25500000920E-02 0. -1.
        2   -1    0    0  501    0  0.00000000000E+00  0.00000000000E+00 -0.82821449281E+03  0.82821449281E+03  0.25500000920E-02 0.  1.
    10030    2    1    2    0    0  0.00000000000E+00  0.00000000000E+00 -0.52637806092E+03  0.11300509247E+04  0.99997061428E+03 0.  0.
        4    1    3    3  502    0  0.37013985825E+03 -0.25619752681E+03 -0.50907780179E+03  0.67956052606E+03  0.12699999809E+01 0.  1.
       -4    1    3    3    0  502 -0.37013985825E+03  0.25619752681E+03 -0.17300259135E+02  0.45049039865E+03  0.12699999809E+01 0. -1.
</event>
<event>
 5   0  0.1006006E-03  0.9999067E+03  0.7818609E-02  0.9308647E-01
       -2   -1    0    0    0  501  0.00000000000E+00  0.00000000000E+00  0.29494508968E+03  0.29494508969E+03  0.25500000920E-02 0. -1.
        2   -1    0    0  501    0  0.00000000000E+00  0.00000000000E+00 -0.84745728287E+03  0.84745728287E+03  0.25500000920E-02 0.  1.
    10030    2    1    2    0    0  0.00000000000E+00  0.00000000000E+00 -0.55251219319E+03  0.11424023726E+04  0.99990672426E+03 0.  0.
        2    1    3    3  502    0 -0.75081478485E+02 -0.91810378333E+02  0.27863991344E+03  0.30283093526E+03  0.25500000920E-02 0. -1.
       -2    1    3    3    0  502  0.75081478485E+02  0.91810378333E+02 -0.83115210663E+03  0.83957143730E+03  0.25500000920E-02 0.  1.
</event>
<event>
 5   0  0.1006749E-03  0.1000020E+04  0.7818609E-02  0.9308522E-01
        2   -1    0    0  501    0  0.00000000000E+00  0.00000000000E+00  0.15644410182E+04  0.15644410182E+04  0.25500000920E-02 0.  1.
       -2   -1    0    0    0  501  0.00000000000E+00  0.00000000000E+00 -0.15980800139E+03  0.15980800141E+03  0.25500000920E-02 0. -1.
    10030    2    1    2    0    0  0.00000000000E+00  0.00000000000E+00  0.14046330168E+04  0.17242490196E+04  0.10000203846E+04 0.  0.
        1    1    3    3  502    0 -0.25069469784E+02 -0.17547654492E+03 -0.10381515202E+03  0.20542171731E+03  0.50400001928E-02 0. -1.
       -1    1    3    3    0  502  0.25069469784E+02  0.17547654492E+03  0.15084481688E+04  0.15188273023E+04  0.50400001928E-02 0.  1.
</event>
<event>
 5   0  0.9741826E-04  0.1000083E+04  0.7818609E-02  0.9308454E-01
       -2   -1    0    0    0  501  0.00000000000E+00  0.00000000000E+00  0.55311135908E+03  0.55311135908E+03  0.25500000920E-02 0.  1.
        2   -1    0    0  501    0  0.00000000000E+00  0.00000000000E+00 -0.45206322179E+03  0.45206322179E+03  0.25500000920E-02 0. -1.
    10030    2    1    2    0    0  0.00000000000E+00  0.00000000000E+00  0.10104813729E+03  0.10051745809E+04  0.10000826026E+04 0.  0.
        3    1    3    3  502    0 -0.16484732681E+03  0.10194781390E+03 -0.41277113219E+03  0.45601317491E+03  0.10100000352E+00 0. -1.
       -3    1    3    3    0  502  0.16484732681E+03 -0.10194781390E+03  0.51381926948E+03  0.54916140597E+03  0.10100000352E+00 0.  1.
</event>
<event>
 5   0  0.3854625E-04  0.9998715E+03  0.7818609E-02  0.9308686E-01
        3   -1    0    0  501    0  0.00000000000E+00  0.00000000000E+00  0.60593479944E+03  0.60593480786E+03  0.10100000352E+00 0.  1.
       -3   -1    0    0    0  501  0.00000000000E+00  0.00000000000E+00 -0.41247957792E+03  0.41247959028E+03  0.10100000352E+00 0. -1.
    10030    2    1    2    0    0  0.00000000000E+00  0.00000000000E+00  0.19345522153E+03  0.10184143981E+04  0.99987147355E+03 0.  0.
        3    1    3    3  502    0  0.29417779077E+03  0.15286159208E+03 -0.28441592471E+03  0.43680621258E+03  0.10100000352E+00 0. -1.
       -3    1    3    3    0  502 -0.29417779077E+03 -0.15286159208E+03  0.47787114624E+03  0.58160818557E+03  0.10100000352E+00 0.  1.
</event>
<event>
 5   0  0.1006006E-03  0.1000850E+04  0.7818609E-02  0.9307613E-01
       -2   -1    0    0    0  501  0.00000000000E+00  0.00000000000E+00  0.12928154100E+03  0.12928154103E+03  0.25500000920E-02 0.  1.
        2   -1    0    0  501    0  0.00000000000E+00  0.00000000000E+00 -0.19370544075E+04  0.19370544075E+04  0.25500000920E-02 0. -1.
    10030    2    1    2    0    0  0.00000000000E+00  0.00000000000E+00 -0.18077728665E+04  0.20663359486E+04  0.10008503961E+04 0.  0.
        2    1    3    3  502    0 -0.17199605520E+03  0.17644354293E+03 -0.18031300206E+04  0.18198881389E+04  0.25500000920E-02 0. -1.
       -2    1    3    3    0  502  0.17199605520E+03 -0.17644354293E+03 -0.46428458825E+01  0.24644780963E+03  0.25500000920E-02 0.  1.
</event>
<event>
 5   0  0.5888774E-04  0.1000076E+04  0.7818609E-02  0.9308461E-01
        1   -1    0    0  501    0  0.00000000000E+00  0.00000000000E+00  0.15558055775E+04  0.15558055776E+04  0.50400001928E-02 0. -1.
       -1   -1    0    0    0  501  0.00000000000E+00  0.00000000000E+00 -0.16071295781E+03  0.16071295789E+03  0.50400001928E-02 0.  1.
    10030    2    1    2    0    0  0.00000000000E+00  0.00000000000E+00  0.13950926197E+04  0.17165185354E+04  0.10000762295E+04 0.  0.
        2    1    3    3  502    0 -0.33529305264E+03 -0.71424851641E+01  0.60940751239E+02  0.34086100013E+03  0.25500000920E-02 0.  1.
       -2    1    3    3    0  502  0.33529305264E+03  0.71424851641E+01  0.13341518685E+04  0.13756575353E+04  0.25500000920E-02 0. -1.
</event>
<event>
 5   0  0.5888774E-04  0.1004003E+04  0.7818609E-02  0.9304165E-01
       -1   -1    0    0    0  501  0.00000000000E+00  0.00000000000E+00  0.26420124623E+03  0.26420124628E+03  0.50400001928E-02 0.  1.
        1   -1    0    0  501    0  0.00000000000E+00  0.00000000000E+00 -0.95383957791E+03  0.95383957793E+03  0.50400001928E-02 0. -1.
    10030    2    1    2    0    0  0.00000000000E+00  0.00000000000E+00 -0.68963833168E+03  0.12180408242E+04  0.10040031977E+04 0.  0.
        2    1    3    3  502    0 -0.28041945647E+03  0.20304038689E+03 -0.78583312673E+03  0.85871658500E+03  0.25500000920E-02 0. -1.
       -2    1    3    3    0  502  0.28041945647E+03 -0.20304038689E+03  0.96194795052E+02  0.35932423920E+03  0.25500000920E-02 0.  1.
</event>
<event>
 5   0  0.5768102E-04  0.9995423E+03  0.7818609E-02  0.9309047E-01
       -1   -1    0    0    0  501  0.00000000000E+00  0.00000000000E+00  0.10835192259E+03  0.10835192271E+03  0.50400001928E-02 0.  1.
        1   -1    0    0  501    0  0.00000000000E+00  0.00000000000E+00 -0.23051848817E+04  0.23051848817E+04  0.50400001928E-02 0. -1.
    10030    2    1    2    0    0  0.00000000000E+00  0.00000000000E+00 -0.21968329591E+04  0.24135368044E+04  0.99954232329E+03 0.  0.
        4    1    3    3  502    0  0.28378057730E+03  0.34851393223E+03 -0.57062952749E+03  0.72636977329E+03  0.12699999809E+01 0.  1.
       -4    1    3    3    0  502 -0.28378057730E+03 -0.34851393223E+03 -0.16262034316E+04  0.16871670311E+04  0.12699999809E+01 0. -1.
</event>
<event>
 5   0  0.5960102E-04  0.1002107E+04  0.7818609E-02  0.9306237E-01
       -1   -1    0    0    0  501  0.00000000000E+00  0.00000000000E+00  0.21295705496E+03  0.21295705502E+03  0.50400001928E-02 0.  1.
        1   -1    0    0  501    0  0.00000000000E+00  0.00000000000E+00 -0.11788972248E+04  0.11788972248E+04  0.50400001928E-02 0. -1.
    10030    2    1    2    0    0  0.00000000000E+00  0.00000000000E+00 -0.96594016985E+03  0.13918542798E+04  0.10021067431E+04 0.  0.
        5    1    3    3  502    0  0.98491029511E+02  0.49063157977E+03 -0.44859414971E+03  0.67207040637E+03  0.46999998093E+01 0. -1.
       -5    1    3    3    0  502 -0.98491029511E+02 -0.49063157977E+03 -0.51734602014E+03  0.71978387347E+03  0.46999998093E+01 0.  1.
</event>
<event>
 5   0  0.5960102E-04  0.1000639E+04  0.7818609E-02  0.9307844E-01
       -1   -1    0    0    0  501  0.00000000000E+00  0.00000000000E+00  0.17914330457E+03  0.17914330464E+03  0.50400001928E-02 0. -1.
        1   -1    0    0  501    0  0.00000000000E+00  0.00000000000E+00 -0.13973156861E+04  0.13973156861E+04  0.50400001928E-02 0.  1.
    10030    2    1    2    0    0  0.00000000000E+00  0.00000000000E+00 -0.12181723815E+04  0.15764589907E+04  0.10006392948E+04 0.  0.
        5    1    3    3  502    0  0.46933197761E+03 -0.71315072905E+02 -0.36028790573E+03  0.59597635007E+03  0.46999998093E+01 0.  1.
       -5    1    3    3    0  502 -0.46933197761E+03  0.71315072905E+02 -0.85788447576E+03  0.98048264063E+03  0.46999998093E+01 0. -1.
</event>
<event>
 5   0  0.9741826E-04  0.1001322E+04  0.7818609E-02  0.9307096E-01
       -2   -1    0    0    0  501  0.00000000000E+00  0.00000000000E+00  0.20291912719E+03  0.20291912721E+03  0.25500000920E-02 0.  1.
        2   -1    0    0  501    0  0.00000000000E+00  0.00000000000E+00 -0.12352781691E+04  0.12352781691E+04  0.25500000920E-02 0. -1.
    10030    2    1    2    0    0  0.00000000000E+00  0.00000000000E+00 -0.10323590419E+04  0.14381972963E+04  0.10013222617E+04 0.  0.
        3    1    3    3  502    0 -0.42799054061E+03 -0.25564495710E+03 -0.44987120675E+03  0.67150157097E+03  0.10100000352E+00 0. -1.
       -3    1    3    3    0  502  0.42799054061E+03  0.25564495710E+03 -0.58248783514E+03  0.76669572532E+03  0.10100000352E+00 0.  1.
</event>
<event>
 5   0  0.9741826E-04  0.1002241E+04  0.7818609E-02  0.9306091E-01
        2   -1    0    0  501    0  0.00000000000E+00  0.00000000000E+00  0.12770897172E+04  0.12770897172E+04  0.25500000920E-02 0.  1.
       -2   -1    0    0    0  501  0.00000000000E+00  0.00000000000E+00 -0.19663581708E+03  0.19663581710E+03  0.25500000920E-02 0. -1.
    10030    2    1    2    0    0  0.00000000000E+00  0.00000000000E+00  0.10804539002E+04  0.14737255343E+04  0.10022406498E+04 0.  0.
        3    1    3    3  502    0 -0.29270873445E+03  0.13334993062E+03 -0.24810772396E+02  0.32260841875E+03  0.10100000352E+00 0. -1.
       -3    1    3    3    0  502  0.29270873445E+03 -0.13334993062E+03  0.11052646726E+04  0.11511171156E+04  0.10100000352E+00 0.  1.
</event>
<event>
 5   0  0.5960102E-04  0.1000459E+04  0.7818609E-02  0.9308042E-01
        1   -1    0    0  501    0  0.00000000000E+00  0.00000000000E+00  0.93006236605E+03  0.93006236606E+03  0.50400001928E-02 0.  1.
       -1   -1    0    0    0  501  0.00000000000E+00  0.00000000000E+00 -0.26904588316E+03  0.26904588321E+03  0.50400001928E-02 0. -1.
    10030    2    1    2    0    0  0.00000000000E+00  0.00000000000E+00  0.66101648289E+03  0.11991082493E+04  0.10004587962E+04 0.  0.
        5    1    3    3  502    0 -0.37421677990E+03  0.21505340607E+03  0.27481032232E+02  0.43250833859E+03  0.46999998093E+01 0. -1.
       -5    1    3    3    0  502  0.37421677990E+03 -0.21505340607E+03  0.63353545066E+03  0.76659991068E+03  0.46999998093E+01 0.  1.
</event>
<event>
 5   0  0.1006749E-03  0.1001852E+04  0.7818609E-02  0.9306516E-01
       -2   -1    0    0    0  501  0.00000000000E+00  0.00000000000E+00  0.26987681581E+03  0.26987681583E+03  0.25500000920E-02 0.  1.
        2   -1    0    0  501    0  0.00000000000E+00  0.00000000000E+00 -0.92978302084E+03  0.92978302084E+03  0.25500000920E-02 0. -1.
    10030    2    1    2    0    0  0.00000000000E+00  0.00000000000E+00 -0.65990620502E+03  0.11996598367E+04  0.10018520471E+04 0.  0.
        1    1    3    3  502    0  0.17611191967E+03 -0.48791751276E+02 -0.88844251664E+03  0.90704252858E+03  0.50400001928E-02 0. -1.
       -1    1    3    3    0  502 -0.17611191967E+03  0.48791751276E+02  0.22853631162E+03  0.29261730809E+03  0.50400001928E-02 0.  1.
</event>
<event>
 5   0  0.5888774E-04  0.9971739E+03  0.7818609E-02  0.9311650E-01
        1   -1    0    0  501    0  0.00000000000E+00  0.00000000000E+00  0.66454186531E+03  0.66454186533E+03  0.50400001928E-02 0. -1.
       -1   -1    0    0    0  501  0.00000000000E+00  0.00000000000E+00 -0.37407566228E+03  0.37407566231E+03  0.50400001928E-02 0.  1.
    10030    2    1    2    0    0  0.00000000000E+00  0.00000000000E+00  0.29046620303E+03  0.10386175276E+04  0.99717388335E+03 0.  0.
        2    1    3    3  502    0  0.18781738679E+03  0.19579107795E+03 -0.29045754850E+03  0.39746082131E+03  0.25500000920E-02 0.  1.
       -2    1    3    3    0  502 -0.18781738679E+03 -0.19579107795E+03  0.58092375153E+03  0.64115670634E+03  0.25500000920E-02 0. -1.
</event>
<event>
 5   0  0.9741826E-04  0.1002654E+04  0.7818609E-02  0.9305639E-01
        2   -1    0    0  501    0  0.00000000000E+00  0.00000000000E+00  0.12053378440E+04  0.12053378440E+04  0.25500000920E-02 0.  1.
       -2   -1    0    0    0  501  0.00000000000E+00  0.00000000000E+00 -0.20851315602E+03  0.20851315604E+03  0.25500000920E-02 0. -1.
    10030    2    1    2    0    0  0.00000000000E+00  0.00000000000E+00  0.99682468796E+03  0.14138510000E+04  0.10026540738E+04 0.  0.
        3    1    3    3  502    0 -0.35128972937E+03  0.26779980440E+03  0.16410188898E+03  0.47122250516E+03  0.10100000352E+00 0. -1.
       -3    1    3    3    0  502  0.35128972937E+03 -0.26779980440E+03  0.83272279898E+03  0.94262849487E+03  0.10100000352E+00 0.  1.
</event>
<event>
 5   0  0.9674819E-04  0.1002420E+04  0.7818609E-02  0.9305895E-01
        2   -1    0    0  501    0  0.00000000000E+00  0.00000000000E+00  0.78917840738E+03  0.78917840739E+03  0.25500000920E-02 0. -1.
       -2   -1    0    0    0  501  0.00000000000E+00  0.00000000000E+00 -0.31832027702E+03  0.31832027703E+03  0.25500000920E-02 0.  1.
    10030    2    1    2    0    0  0.00000000000E+00  0.00000000000E+00  0.47085813036E+03  0.11074986844E+04  0.10024200502E+04 0.  0.
        4    1    3    3  502    0 -0.13479710045E+03  0.76572801054E+01 -0.29784898938E+03  0.32702373859E+03  0.12699999809E+01 0.  1.
       -4    1    3    3    0  502  0.13479710045E+03 -0.76572801054E+01  0.76870711974E+03  0.78047494583E+03  0.12699999809E+01 0. -1.
</event>
<event>
 5   0  0.1020150E-03  0.1000512E+04  0.7818609E-02  0.9307984E-01
       -2   -1    0    0    0  501  0.00000000000E+00  0.00000000000E+00  0.44719728747E+03  0.44719728747E+03  0.25500000920E-02 0.  1.
        2   -1    0    0  501    0  0.00000000000E+00  0.00000000000E+00 -0.55960956646E+03  0.55960956646E+03  0.25500000920E-02 0. -1.
    10030    2    1    2    0    0  0.00000000000E+00  0.00000000000E+00 -0.11241227899E+03  0.10068068539E+04  0.10005116295E+04 0.  0.
        5    1    3    3  502    0 -0.27676061997E+03 -0.31924535611E+03 -0.32569660958E+03  0.53349265192E+03  0.46999998093E+01 0. -1.
       -5    1    3    3    0  502  0.27676061997E+03  0.31924535611E+03  0.21328433058E+03  0.47331420202E+03  0.46999998093E+01 0.  1.
</event>
<event>
 5   0  0.5826939E-04  0.1000658E+04  0.7818609E-02  0.9307824E-01
        1   -1    0    0  501    0  0.00000000000E+00  0.00000000000E+00  0.13699066202E+04  0.13699066203E+04  0.50400001928E-02 0. -1.
       -1   -1    0    0    0  501  0.00000000000E+00  0.00000000000E+00 -0.18273437019E+03  0.18273437026E+03  0.50400001928E-02 0.  1.
    10030    2    1    2    0    0  0.00000000000E+00  0.00000000000E+00  0.11871722501E+04  0.15526409905E+04  0.10006578307E+04 0.  0.
        1    1    3    3  502    0 -0.23109841676E+03 -0.25368877735E+03  0.28650256641E+02  0.34436218029E+03  0.50400001928E-02 0.  1.
       -1    1    3    3    0  502  0.23109841676E+03  0.25368877735E+03  0.11585219934E+04  0.12082788102E+04  0.50400001928E-02 0. -1.
</event>
<event>
 5   0  0.5758786E-04  0.1004027E+04  0.7818609E-02  0.9304139E-01
       -1   -1    0    0    0  501  0.00000000000E+00  0.00000000000E+00  0.63110921064E+03  0.63110921066E+03  0.50400001928E-02 0. -1.
        1   -1    0    0  501    0  0.00000000000E+00  0.00000000000E+00 -0.39932465715E+03  0.39932465718E+03  0.50400001928E-02 0.  1.
    10030    2    1    2    0    0  0.00000000000E+00  0.00000000000E+00  0.23178455349E+03  0.10304338678E+04  0.10040268307E+04 0.  0.
        3    1    3    3  502    0  0.24250042964E+03  0.40790746354E+03  0.28397553081E+03  0.55302537870E+03  0.10100000352E+00 0.  1.
       -3    1    3    3    0  502 -0.24250042964E+03 -0.40790746354E+03 -0.52190977324E+02  0.47740848914E+03  0.10100000352E+00 0. -1.
</event>
<event>
 5   0  0.5768102E-04  0.9971963E+03  0.7818609E-02  0.9311625E-01
        1   -1    0    0  501    0  0.00000000000E+00  0.00000000000E+00  0.67389029845E+03  0.67389029847E+03  0.50400001928E-02 0.  1.
       -1   -1    0    0    0  501  0.00000000000E+00  0.00000000000E+00 -0.36890293183E+03  0.36890293186E+03  0.50400001928E-02 0. -1.
    10030    2    1    2    0    0  0.00000000000E+00  0.00000000000E+00  0.30498736663E+03  0.10427932303E+04  0.99719628330E+03 0.  0.
        4    1    3    3  502    0 -0.28388905127E+01 -0.17881527041E+03 -0.33420744216E+03  0.37905037598E+03  0.12699999809E+01 0. -1.
       -4    1    3    3    0  502  0.28388905127E+01  0.17881527041E+03  0.63919480879E+03  0.66374285436E+03  0.12699999809E+01 0.  1.
</event>
<event>
 5   0  0.5960102E-04  0.1000768E+04  0.7818609E-02  0.9307702E-01
        1   -1    0    0  501    0  0.00000000000E+00  0.00000000000E+00  0.62000668042E+03  0.62000668044E+03  0.50400001928E-02 0. -1.
       -1   -1    0    0    0  501  0.00000000000E+00  0.00000000000E+00 -0.40384139552E+03  0.40384139555E+03  0.50400001928E-02 0.  1.
    10030    2    1    2    0    0  0.00000000000E+00  0.00000000000E+00  0.21616528490E+03  0.10238480760E+04  0.10007684309E+04 0.  0.
        5    1    3    3  502    0  0.14920633117E+03 -0.11737713677E+03 -0.36554348733E+03  0.41192724191E+03  0.46999998093E+01 0.  1.
       -5    1    3    3    0  502 -0.14920633117E+03  0.11737713677E+03  0.58170877223E+03  0.61192083408E+03  0.46999998093E+01 0. -1.
</event>
<event>
 5   0  0.9741826E-04  0.9995328E+03  0.7818609E-02  0.9309057E-01
       -2   -1    0    0    0  501  0.00000000000E+00  0.00000000000E+00  0.15086194233E+03  0.15086194235E+03  0.25500000920E-02 0.  1.
        2   -1    0    0  501    0  0.00000000000E+00  0.00000000000E+00 -0.16555961295E+04  0.16555961295E+04  0.25500000920E-02 0. -1.
    10030    2    1    2    0    0  0.00000000000E+00  0.00000000000E+00 -0.15047341872E+04  0.18064580719E+04  0.99953278652E+03 0.  0.
        3    1    3    3  502    0  0.76979953057E+02  0.46140650724E+03 -0.10702908596E+04  0.11680515453E+04  0.10100000352E+00 0. -1.
       -3    1    3    3    0  502 -0.76979953057E+02 -0.46140650724E+03 -0.43444332758E+03  0.63840652658E+03  0.10100000352E+00 0.  1.
</event>
<event>
 5   0  0.5888774E-04  0.9972893E+03  0.7818609E-02  0.9311523E-01
        1   -1    0    0  501    0  0.00000000000E+00  0.00000000000E+00  0.92358479831E+03  0.92358479832E+03  0.50400001928E-02 0. -1.
       -1   -1    0    0    0  501  0.00000000000E+00  0.00000000000E+00 -0.26921890819E+03  0.26921890823E+03  0.50400001928E-02 0.  1.
    10030    2    1    2    0    0  0.00000000000E+00  0.00000000000E+00  0.65436589013E+03  0.11928037066E+04  0.99728930818E+03 0.  0.
        2    1    3    3  502    0 -0.45156909965E+03  0.37565257411E+02  0.78242476155E+02  0.45983441085E+03  0.25500000920E-02 0.  1.
       -2    1    3    3    0  502  0.45156909965E+03 -0.37565257411E+02  0.57612341397E+03  0.73296929571E+03  0.25500000920E-02 0. -1.
</event>
<event>
 5   0  0.5768102E-04  0.9846914E+03  0.7818609E-02  0.9325496E-01
        1   -1    0    0  501    0  0.00000000000E+00  0.00000000000E+00  0.69817591191E+03  0.69817591193E+03  0.50400001928E-02 0.  1.
       -1   -1    0    0    0  501  0.00000000000E+00  0.00000000000E+00 -0.34719659590E+03  0.34719659594E+03  0.50400001928E-02 0. -1.
    10030    2    1    2    0    0  0.00000000000E+00  0.00000000000E+00  0.35097931601E+03  0.10453725079E+04  0.98469142371E+03 0.  0.
        4    1    3    3  502    0 -0.23781005200E+03 -0.15841336746E+03  0.60113920895E+03  0.66559625695E+03  0.12699999809E+01 0.  1.
       -4    1    3    3    0  502  0.23781005200E+03  0.15841336746E+03 -0.25015989294E+03  0.37977625092E+03  0.12699999809E+01 0. -1.
</event>
<event>
 5   0  0.5758786E-04  0.9979114E+03  0.7818609E-02  0.9310838E-01
        1   -1    0    0  501    0  0.00000000000E+00  0.00000000000E+00  0.12752931309E+04  0.12752931309E+04  0.50400001928E-02 0.  1.
       -1   -1    0    0    0  501  0.00000000000E+00  0.00000000000E+00 -0.19521535885E+03  0.19521535891E+03  0.50400001928E-02 0. -1.
    10030    2    1    2    0    0  0.00000000000E+00  0.00000000000E+00  0.10800777720E+04  0.14705084898E+04  0.99791143141E+03 0.  0.
        3    1    3    3  502    0  0.17643698286E+03 -0.46276303914E+03  0.62939650920E+03  0.80088676809E+03  0.10100000352E+00 0.  1.
       -3    1    3    3    0  502 -0.17643698286E+03  0.46276303914E+03  0.45068126283E+03  0.66962172171E+03  0.10100000352E+00 0. -1.
</event>
<event>
 5   0  0.5768102E-04  0.1001866E+04  0.7818609E-02  0.9306501E-01
        1   -1    0    0  501    0  0.00000000000E+00  0.00000000000E+00  0.34921030432E+03  0.34921030435E+03  0.50400001928E-02 0. -1.
       -1   -1    0    0    0  501  0.00000000000E+00  0.00000000000E+00 -0.71857496858E+03  0.71857496860E+03  0.50400001928E-02 0.  1.
    10030    2    1    2    0    0  0.00000000000E+00  0.00000000000E+00 -0.36936466426E+03  0.10677852730E+04  0.10018658263E+04 0.  0.
        4    1    3    3  502    0  0.12499455415E+02  0.57667091451E+02  0.34549173332E+03  0.35049661984E+03  0.12699999809E+01 0. -1.
       -4    1    3    3    0  502 -0.12499455415E+02 -0.57667091451E+02 -0.71485639759E+03  0.71728865312E+03  0.12699999809E+01 0.  1.
</event>
<event>
 5   0  0.1006006E-03  0.1000164E+04  0.7818609E-02  0.9308365E-01
        2   -1    0    0  501    0  0.00000000000E+00  0.00000000000E+00  0.14290486440E+04  0.14290486441E+04  0.25500000920E-02 0. -1.
       -2   -1    0    0    0  501  0.00000000000E+00  0.00000000000E+00 -0.17499898333E+03  0.17499898335E+03  0.25500000920E-02 0.  1.
    10030    2    1    2    0    0  0.00000000000E+00  0.00000000000E+00  0.12540496607E+04  0.16040476274E+04  0.10001641062E+04 0.  0.
        2    1    3    3  502    0  0.24728972573E+03 -0.21876756630E+03  0.12293961093E+04  0.12729596419E+04  0.25500000920E-02 0. -1.
       -2    1    3    3    0  502 -0.24728972573E+03  0.21876756630E+03  0.24653551466E+02  0.33108798548E+03  0.25500000920E-02 0.  1.
</event>
<event>
 5   0  0.1020150E-03  0.1001468E+04  0.7818609E-02  0.9306936E-01
       -2   -1    0    0    0  501  0.00000000000E+00  0.00000000000E+00  0.81683112376E+03  0.81683112377E+03  0.25500000920E-02 0.  1.
        2   -1    0    0  501    0  0.00000000000E+00  0.00000000000E+00 -0.30696001153E+03  0.30696001154E+03  0.25500000920E-02 0. -1.
    10030    2    1    2    0    0  0.00000000000E+00  0.00000000000E+00  0.50987111223E+03  0.11237911353E+04  0.10014679050E+04 0.  0.
        5    1    3    3  502    0 -0.74597038689E+02 -0.43465225928E+03  0.52101643791E+03  0.68261813868E+03  0.46999998093E+01 0. -1.
       -5    1    3    3    0  502  0.74597038689E+02  0.43465225928E+03 -0.11145325681E+02  0.44117299663E+03  0.46999998093E+01 0.  1.
</event>
<event>
 5   0  0.9741826E-04  0.9993711E+03  0.7818609E-02  0.9309235E-01
        2   -1    0    0  501    0  0.00000000000E+00  0.00000000000E+00  0.15168054236E+04  0.15168054236E+04  0.25500000920E-02 0.  1.
       -2   -1    0    0    0  501  0.00000000000E+00  0.00000000000E+00 -0.16461284370E+03  0.16461284372E+03  0.25500000920E-02 0. -1.
    10030    2    1    2    0    0  0.00000000000E+00  0.00000000000E+00  0.13521925799E+04  0.16814182673E+04  0.99937111054E+03 0.  0.
        3    1    3    3  502    0  0.14499522448E+03 -0.43516023272E+03  0.10096240511E+04  0.11089313676E+04  0.10100000352E+00 0.  1.
       -3    1    3    3    0  502 -0.14499522448E+03  0.43516023272E+03  0.34256852882E+03  0.57248689976E+03  0.10100000352E+00 0. -1.
</event>
<event>
 5   0  0.1020150E-03  0.9963849E+03  0.7818609E-02  0.9312519E-01
       -2   -1    0    0    0  501  0.00000000000E+00  0.00000000000E+00  0.21202413010E+03  0.21202413012E+03  0.25500000920E-02 0. -1.
        2   -1    0    0  501    0  0.00000000000E+00  0.00000000000E+00 -0.11706013209E+04  0.11706013209E+04  0.25500000920E-02 0.  1.
    10030    2    1    2    0    0  0.00000000000E+00  0.00000000000E+00 -0.95857719082E+03  0.13826254510E+04  0.99638491915E+03 0.  0.
        5    1    3    3  502    0  0.36116842508E+03  0.34267259433E+03 -0.45499500815E+03  0.67446992936E+03  0.46999998093E+01 0. -1.
       -5    1    3    3    0  502 -0.36116842508E+03 -0.34267259433E+03 -0.50358218267E+03  0.70815552168E+03  0.46999998093E+01 0.  1.
</event>
<event>
 5   0  0.5768102E-04  0.9974342E+03  0.7818609E-02  0.9311363E-01
       -1   -1    0    0    0  501  0.00000000000E+00  0.00000000000E+00  0.55271384991E+03  0.55271384993E+03  0.50400001928E-02 0.  1.
        1   -1    0    0  501    0  0.00000000000E+00  0.00000000000E+00 -0.44999545856E+03  0.44999545859E+03  0.50400001928E-02 0. -1.
    10030    2    1    2    0    0  0.00000000000E+00  0.00000000000E+00  0.10271839135E+03  0.10027093085E+04  0.99743415295E+03 0.  0.
        4    1    3    3  502    0 -0.27172983796E+03 -0.97928298023E+02  0.46006816771E+03  0.54322314773E+03  0.12699999809E+01 0.  1.
       -4    1    3    3    0  502  0.27172983796E+03  0.97928298023E+02 -0.35734977637E+03  0.45948616079E+03  0.12699999809E+01 0. -1.
</event>
<event>
 5   0  0.5758786E-04  0.1000159E+04  0.7818609E-02  0.9308370E-01
       -1   -1    0    0    0  501  0.00000000000E+00  0.00000000000E+00  0.17606794051E+03  0.17606794058E+03  0.50400001928E-02 0. -1.
        1   -1    0    0  501    0  0.00000000000E+00  0.00000000000E+00 -0.14203584408E+04  0.14203584408E+04  0.50400001928E-02 0.  1.
    10030    2    1    2    0    0  0.00000000000E+00  0.00000000000E+00 -0.12442905003E+04  0.15964263814E+04  0.10001591584E+04 0.  0.
        3    1    3    3  502    0  0.23983033762E+03 -0.40677409737E+03 -0.88488810509E+03  0.10030008604E+04  0.10100000352E+00 0.  1.
       -3    1    3    3    0  502 -0.23983033762E+03  0.40677409737E+03 -0.35940239519E+03  0.59342552103E+03  0.10100000352E+00 0. -1.
</event>
<event>
 5   0  0.5758786E-04  0.9997837E+03  0.7818609E-02  0.9308782E-01
       -1   -1    0    0    0  501  0.00000000000E+00  0.00000000000E+00  0.34010702784E+03  0.34010702788E+03  0.50400001928E-02 0. -1.
        1   -1    0    0  501    0  0.00000000000E+00  0.00000000000E+00 -0.73474483420E+03  0.73474483422E+03  0.50400001928E-02 0.  1.
    10030    2    1    2    0    0  0.00000000000E+00  0.00000000000E+00 -0.39463780636E+03  0.10748518621E+04  0.99978374024E+03 0.  0.
        3    1    3    3  502    0 -0.16368710833E+03  0.25637700583E+03  0.22916481705E+03  0.38084007421E+03  0.10100000352E+00 0. -1.
       -3    1    3    3    0  502  0.16368710833E+03 -0.25637700583E+03 -0.62380262341E+03  0.69401178789E+03  0.10100000352E+00 0.  1.
</event>
<event>
 5   0  0.5960102E-04  0.9928484E+03  0.7818609E-02  0.9316424E-01
        1   -1    0    0  501    0  0.00000000000E+00  0.00000000000E+00  0.10632852544E+04  0.10632852545E+04  0.50400001928E-02 0.  1.
       -1   -1    0    0    0  501  0.00000000000E+00  0.00000000000E+00 -0.23176938666E+03  0.23176938672E+03  0.50400001928E-02 0. -1.
    10030    2    1    2    0    0  0.00000000000E+00  0.00000000000E+00  0.83151586779E+03  0.12950546412E+04  0.99284836972E+03 0.  0.
        5    1    3    3  502    0 -0.48539567630E+03 -0.18165237488E+02  0.28225164410E+03  0.56180692325E+03  0.46999998093E+01 0. -1.
       -5    1    3    3    0  502  0.48539567630E+03  0.18165237488E+02  0.54926422369E+03  0.73324771793E+03  0.46999998093E+01 0.  1.
</event>
<event>
 5   0  0.1006006E-03  0.9993203E+03  0.7818609E-02  0.9309291E-01
        2   -1    0    0  501    0  0.00000000000E+00  0.00000000000E+00  0.40612110483E+03  0.40612110484E+03  0.25500000920E-02 0.  1.
       -2   -1    0    0    0  501  0.00000000000E+00  0.00000000000E+00 -0.61474336507E+03  0.61474336508E+03  0.25500000920E-02 0. -1.
    10030    2    1    2    0    0  0.00000000000E+00  0.00000000000E+00 -0.20862226024E+03  0.10208644699E+04  0.99932027823E+03 0.  0.
        2    1    3    3  502    0  0.10334026662E+03 -0.15893479526E+03  0.36795495498E+03  0.41392067930E+03  0.25500000920E-02 0.  1.
       -2    1    3    3    0  502 -0.10334026662E+03  0.15893479526E+03 -0.57657721522E+03  0.60694379062E+03  0.25500000920E-02 0. -1.
</event>
<event>
 5   0  0.9741826E-04  0.9983448E+03  0.7818609E-02  0.9310362E-01
       -2   -1    0    0    0  501  0.00000000000E+00  0.00000000000E+00  0.30553638417E+03  0.30553638418E+03  0.25500000920E-02 0. -1.
        2   -1    0    0  501    0  0.00000000000E+00  0.00000000000E+00 -0.81552666673E+03  0.81552666673E+03  0.25500000920E-02 0.  1.
    10030    2    1    2    0    0  0.00000000000E+00  0.00000000000E+00 -0.50999028256E+03  0.11210630509E+04  0.99834476800E+03 0.  0.
        3    1    3    3  502    0 -0.35002190669E+03  0.34467106413E+03 -0.35454695883E+03  0.60581930790E+03  0.10100000352E+00 0. -1.
       -3    1    3    3    0  502  0.35002190669E+03 -0.34467106413E+03 -0.15544332373E+03  0.51524374300E+03  0.10100000352E+00 0.  1.
</event>
<event>
 5   0  0.9741826E-04  0.1002145E+04  0.7818609E-02  0.9306196E-01
       -2   -1    0    0    0  501  0.00000000000E+00  0.00000000000E+00  0.42256014049E+03  0.42256014050E+03  0.25500000920E-02 0. -1.
        2   -1    0    0  501    0  0.00000000000E+00  0.00000000000E+00 -0.59417236469E+03  0.59417236470E+03  0.25500000920E-02 0.  1.
    10030    2    1    2    0    0  0.00000000000E+00  0.00000000000E+00 -0.17161222420E+03  0.10167325052E+04  0.10021448157E+04 0.  0.
        3    1    3    3  502    0 -0.25875623705E+03  0.35860768043E+03  0.15324907531E+03  0.46801661077E+03  0.10100000352E+00 0. -1.
       -3    1    3    3    0  502  0.25875623705E+03 -0.35860768043E+03 -0.32486129951E+03  0.54871589443E+03  0.10100000352E+00 0.  1.
</event>
<event>
 5   0  0.5888774E-04  0.1000008E+04  0.7818609E-02  0.9308536E-01
       -1   -1    0    0    0  501  0.00000000000E+00  0.00000000000E+00  0.30059503837E+03  0.30059503841E+03  0.50400001928E-02 0. -1.
        1   -1    0    0  501    0  0.00000000000E+00  0.00000000000E+00 -0.83169755250E+03  0.83169755252E+03  0.50400001928E-02 0.  1.
    10030    2    1    2    0    0  0.00000000000E+00  0.00000000000E+00 -0.53110251414E+03  0.11322925909E+04  0.10000083154E+04 0.  0.
        2    1    3    3  502    0  0.12690936124E+03 -0.34882724123E+03 -0.64485383038E+03  0.74405839338E+03  0.25500000920E-02 0.  1.
       -2    1    3    3    0  502 -0.12690936124E+03  0.34882724123E+03  0.11375131625E+03  0.38823419755E+03  0.25500000920E-02 0. -1.
</event>
<event>
 5   0  0.9674819E-04  0.9960195E+03  0.7818609E-02  0.9312921E-01
       -2   -1    0    0    0  501  0.00000000000E+00  0.00000000000E+00  0.12142746693E+03  0.12142746695E+03  0.25500000920E-02 0. -1.
        2   -1    0    0  501    0  0.00000000000E+00  0.00000000000E+00 -0.20424845365E+04  0.20424845365E+04  0.25500000920E-02 0.  1.
    10030    2    1    2    0    0  0.00000000000E+00  0.00000000000E+00 -0.19210570695E+04  0.21639120034E+04  0.99601952498E+03 0.  0.
        4    1    3    3  502    0 -0.77628793614E+02  0.31301836894E+02  0.10603256524E+03  0.13509460530E+03  0.12699999809E+01 0. -1.
       -4    1    3    3    0  502  0.77628793614E+02 -0.31301836894E+02 -0.20270896348E+04  0.20288173981E+04  0.12699999809E+01 0.  1.
</event>
<event>
 5   0  0.9741826E-04  0.1000238E+04  0.7818609E-02  0.9308283E-01
       -2   -1    0    0    0  501  0.00000000000E+00  0.00000000000E+00  0.30269092720E+03  0.30269092721E+03  0.25500000920E-02 0. -1.
        2   -1    0    0  501    0  0.00000000000E+00  0.00000000000E+00 -0.82631880113E+03  0.82631880114E+03  0.25500000920E-02 0.  1.
    10030    2    1    2    0    0  0.00000000000E+00  0.00000000000E+00 -0.52362787394E+03  0.11290097283E+04  0.10002383798E+04 0.  0.
        3    1    3    3  502    0  0.11006065793E+03 -0.39402017726E+03 -0.58651859860E+03  0.71510091960E+03  0.10100000352E+00 0.  1.
       -3    1    3    3    0  502 -0.11006065793E+03  0.39402017726E+03  0.62890724664E+02  0.41390880875E+03  0.10100000352E+00 0. -1.
</event>
<event>
 5   0  0.9741826E-04  0.9985089E+03  0.7818609E-02  0.9310182E-01
        2   -1    0    0  501    0  0.00000000000E+00  0.00000000000E+00  0.36258374388E+03  0.36258374389E+03  0.25500000920E-02 0.  1.
       -2   -1    0    0    0  501  0.00000000000E+00  0.00000000000E+00 -0.68744120125E+03  0.68744120125E+03  0.25500000920E-02 0. -1.
    10030    2    1    2    0    0  0.00000000000E+00  0.00000000000E+00 -0.32485745737E+03  0.10500249451E+04  0.99850889721E+03 0.  0.
        3    1    3    3  502    0  0.11967965955E+03 -0.20161119601E+03 -0.62594712683E+03  0.66841612118E+03  0.10100000352E+00 0. -1.
       -3    1    3    3    0  502 -0.11967965955E+03  0.20161119601E+03  0.30108966946E+03  0.38160882396E+03  0.10100000352E+00 0.  1.
</event>
<event>
 5   0  0.3854625E-04  0.9996109E+03  0.7818609E-02  0.9308972E-01
        3   -1    0    0  501    0  0.00000000000E+00  0.00000000000E+00  0.11363594438E+04  0.11363594483E+04  0.10100000352E+00 0.  1.
       -3   -1    0    0    0  501  0.00000000000E+00  0.00000000000E+00 -0.21982963244E+03  0.21982965564E+03  0.10100000352E+00 0. -1.
    10030    2    1    2    0    0  0.00000000000E+00  0.00000000000E+00  0.91652981138E+03  0.13561891039E+04  0.99961091956E+03 0.  0.
        5    1    3    3  502    0  0.49580411376E+03 -0.29627839758E+01  0.54356465210E+03  0.73574120336E+03  0.46999998093E+01 0.  1.
       -5    1    3    3    0  502 -0.49580411376E+03  0.29627839758E+01  0.37296515928E+03  0.62044790059E+03  0.46999998093E+01 0. -1.
</event>
<event>
 5   0  0.9741826E-04  0.1001241E+04  0.7818609E-02  0.9307184E-01
       -2   -1    0    0    0  501  0.00000000000E+00  0.00000000000E+00  0.18100371946E+03  0.18100371947E+03  0.25500000920E-02 0.  1.
        2   -1    0    0  501    0  0.00000000000E+00  0.00000000000E+00 -0.13846180133E+04  0.13846180133E+04  0.25500000920E-02 0. -1.
    10030    2    1    2    0    0  0.00000000000E+00  0.00000000000E+00 -0.12036142938E+04  0.15656217328E+04  0.10012412505E+04 0.  0.
        3    1    3    3  502    0 -0.18098562304E+03 -0.13818690723E+03  0.95337778991E+02  0.24686174142E+03  0.10100000352E+00 0.  1.
       -3    1    3    3    0  502  0.18098562304E+03  0.13818690723E+03 -0.12989520728E+04  0.13187599914E+04  0.10100000352E+00 0. -1.
</event>
<event>
 5   0  0.1020150E-03  0.9999507E+03  0.7818609E-02  0.9308599E-01
       -2   -1    0    0    0  501  0.00000000000E+00  0.00000000000E+00  0.28129905254E+03  0.28129905255E+03  0.25500000920E-02 0.  1.
        2   -1    0    0  501    0  0.00000000000E+00  0.00000000000E+00 -0.88864633510E+03  0.88864633510E+03  0.25500000920E-02 0. -1.
    10030    2    1    2    0    0  0.00000000000E+00  0.00000000000E+00 -0.60734728256E+03  0.11699453877E+04  0.99995074301E+03 0.  0.
        5    1    3    3  502    0 -0.12538912182E+03  0.14499243191E+03  0.23656889559E+03  0.30451957169E+03  0.46999998093E+01 0.  1.
       -5    1    3    3    0  502  0.12538912182E+03 -0.14499243191E+03 -0.84391617816E+03  0.86542581596E+03  0.46999998093E+01 0. -1.
</event>
<event>
 5   0  0.5758786E-04  0.9995904E+03  0.7818609E-02  0.9308994E-01
       -1   -1    0    0    0  501  0.00000000000E+00  0.00000000000E+00  0.68658177560E+03  0.68658177562E+03  0.50400001928E-02 0.  1.
        1   -1    0    0  501    0  0.00000000000E+00  0.00000000000E+00 -0.36382444817E+03  0.36382444821E+03  0.50400001928E-02 0. -1.
    10030    2    1    2    0    0  0.00000000000E+00  0.00000000000E+00  0.32275732743E+03  0.10504062238E+04  0.99959038743E+03 0.  0.
        3    1    3    3  502    0 -0.26722884466E+03  0.22613432576E+03 -0.21347295911E+03  0.41002280812E+03  0.10100000352E+00 0. -1.
       -3    1    3    3    0  502  0.26722884466E+03 -0.22613432576E+03  0.53623028654E+03  0.64038341571E+03  0.10100000352E+00 0.  1.
</event>
<event>
 5   0  0.3854625E-04  0.1001375E+04  0.7818609E-02  0.9307038E-01
        3   -1    0    0  501    0  0.00000000000E+00  0.00000000000E+00  0.72475065528E+03  0.72475066232E+03  0.10100000352E+00 0. -1.
       -3   -1    0    0    0  501  0.00000000000E+00  0.00000000000E+00 -0.34589570613E+03  0.34589572087E+03  0.10100000352E+00 0.  1.
    10030    2    1    2    0    0  0.00000000000E+00  0.00000000000E+00  0.37885494916E+03  0.10706463832E+04  0.10013753569E+04 0.  0.
        3    1    3    3  502    0 -0.36069864075E+02  0.39078743454E+03 -0.14300248078E+03  0.41769076336E+03  0.10100000352E+00 0.  1.
       -3    1    3    3    0  502  0.36069864075E+02 -0.39078743454E+03  0.52185742993E+03  0.65295561983E+03  0.10100000352E+00 0. -1.
</event>
<event>
 5   0  0.5888774E-04  0.1001634E+04  0.7818609E-02  0.9306754E-01
        1   -1    0    0  501    0  0.00000000000E+00  0.00000000000E+00  0.88552859873E+03  0.88552859875E+03  0.50400001928E-02 0. -1.
       -1   -1    0    0    0  501  0.00000000000E+00  0.00000000000E+00 -0.28324064636E+03  0.28324064641E+03  0.50400001928E-02 0.  1.
    10030    2    1    2    0    0  0.00000000000E+00  0.00000000000E+00  0.60228795237E+03  0.11687692452E+04  0.10016340504E+04 0.  0.
        2    1    3    3  502    0 -0.60923734396E+02 -0.22195235479E+03 -0.21787136754E+03  0.31692661929E+03  0.25500000920E-02 0.  1.
       -2    1    3    3    0  502  0.60923734396E+02  0.22195235479E+03  0.82015931991E+03  0.85184262587E+03  0.25500000920E-02 0. -1.
</event>
<event>
 5   0  0.5768102E-04  0.9992800E+03  0.7818609E-02  0.9309335E-01
       -1   -1    0    0    0  501  0.00000000000E+00  0.00000000000E+00  0.34126301316E+03  0.34126301320E+03  0.50400001928E-02 0. -1.
        1   -1    0    0  501    0  0.00000000000E+00  0.00000000000E+00 -0.73151831786E+03  0.73151831788E+03  0.50400001928E-02 0.  1.
    10030    2    1    2    0    0  0.00000000000E+00  0.00000000000E+00 -0.39025530470E+03  0.10727813311E+04  0.99928003155E+03 0.  0.
        4    1    3    3  502    0  0.10290033775E+03  0.30255874766E+03 -0.60744552834E+03  0.68638324433E+03  0.12699999809E+01 0.  1.
       -4    1    3    3    0  502 -0.10290033775E+03 -0.30255874766E+03  0.21719022364E+03  0.38639808675E+03  0.12699999809E+01 0. -1.
</event>
<event>
 5   0  0.9741826E-04  0.1000340E+04  0.7818609E-02  0.9308171E-01
       -2   -1    0    0    0  501  0.00000000000E+00  0.00000000000E+00  0.24557413708E+03  0.24557413709E+03  0.25500000920E-02 0. -1.
        2   -1    0    0  501    0  0.00000000000E+00  0.00000000000E+00 -0.10187158088E+04  0.10187158088E+04  0.25500000920E-02 0.  1.
    10030    2    1    2    0    0  0.00000000000E+00  0.00000000000E+00 -0.77314167174E+03  0.12642899459E+04  0.10003404534E+04 0.  0.
        3    1    3    3  502    0  0.33118044046E+03  0.87412563056E+02  0.74086168184E+02  0.35044287814E+03  0.10100000352E+00 0. -1.
       -3    1    3    3    0  502 -0.33118044046E+03 -0.87412563056E+02 -0.84722783992E+03  0.91384706777E+03  0.10100000352E+00 0.  1.
</event>
<event>
 5   0  0.9741826E-04  0.9984144E+03  0.7818609E-02  0.9310286E-01
       -2   -1    0    0    0  501  0.00000000000E+00  0.00000000000E+00  0.15960946677E+03  0.15960946679E+03  0.25500000920E-02 0. -1.
        2   -1    0    0  501    0  0.00000000000E+00  0.00000000000E+00 -0.15613598337E+04  0.15613598337E+04  0.25500000920E-02 0.  1.
    10030    2    1    2    0    0  0.00000000000E+00  0.00000000000E+00 -0.14017503670E+04  0.17209693005E+04  0.99841436391E+03 0.  0.
        3    1    3    3  502    0 -0.13780353994E+03 -0.19283938215E+03 -0.14581888342E+04  0.14773258034E+04  0.10100000352E+00 0.  1.
       -3    1    3    3    0  502  0.13780353994E+03  0.19283938215E+03  0.56438467220E+02  0.24364349717E+03  0.10100000352E+00 0. -1.
</event>
<event>
 5   0  0.1006749E-03  0.9986841E+03  0.7818609E-02  0.9309989E-01
       -2   -1    0    0    0  501  0.00000000000E+00  0.00000000000E+00  0.42475930436E+03  0.42475930437E+03  0.25500000920E-02 0.  1.
        2   -1    0    0  501    0  0.00000000000E+00  0.00000000000E+00 -0.58702062382E+03  0.58702062383E+03  0.25500000920E-02 0. -1.
    10030    2    1    2    0    0  0.00000000000E+00  0.00000000000E+00 -0.16226131947E+03  0.10117799282E+04  0.99868407783E+03 0.  0.
        1    1    3    3  502    0  0.96806558697E+02 -0.45820770778E+03  0.94394390509E+02  0.47774063492E+03  0.50400001928E-02 0. -1.
       -1    1    3    3    0  502 -0.96806558697E+02  0.45820770778E+03 -0.25665570998E+03  0.53403929327E+03  0.50400001928E-02 0.  1.
</event>
<event>
 5   0  0.5826939E-04  0.1000909E+04  0.7818609E-02  0.9307548E-01
       -1   -1    0    0    0  501  0.00000000000E+00  0.00000000000E+00  0.17171248649E+03  0.17171248657E+03  0.50400001928E-02 0.  1.
        1   -1    0    0  501    0  0.00000000000E+00  0.00000000000E+00 -0.14585702594E+04  0.14585702594E+04  0.50400001928E-02 0. -1.
    10030    2    1    2    0    0  0.00000000000E+00  0.00000000000E+00 -0.12868577729E+04  0.16302827460E+04  0.10009090389E+04 0.  0.
        1    1    3    3  502    0  0.15079581734E+02 -0.49803241360E+03 -0.71967087061E+03  0.87532270667E+03  0.50400001928E-02 0. -1.
       -1    1    3    3    0  502 -0.15079581734E+02  0.49803241360E+03 -0.56718690229E+03  0.75496003930E+03  0.50400001928E-02 0.  1.
</event>
<event>
 5   0  0.1006006E-03  0.9979891E+03  0.7818609E-02  0.9310753E-01
       -2   -1    0    0    0  501  0.00000000000E+00  0.00000000000E+00  0.13790183531E+03  0.13790183533E+03  0.25500000920E-02 0. -1.
        2   -1    0    0  501    0  0.00000000000E+00  0.00000000000E+00 -0.18056000073E+04  0.18056000073E+04  0.25500000920E-02 0.  1.
    10030    2    1    2    0    0  0.00000000000E+00  0.00000000000E+00 -0.16676981720E+04  0.19435018427E+04  0.99798908786E+03 0.  0.
        2    1    3    3  502    0  0.13898720338E+03 -0.38896167427E+03 -0.13790806463E+04  0.14396082995E+04  0.25500000920E-02 0.  1.
       -2    1    3    3    0  502 -0.13898720338E+03  0.38896167427E+03 -0.28861752570E+03  0.50389354322E+03  0.25500000920E-02 0. -1.
</event>
<event>
 5   0  0.9741826E-04  0.9999252E+03  0.7818609E-02  0.9308627E-01
        2   -1    0    0  501    0  0.00000000000E+00  0.00000000000E+00  0.38421346809E+03  0.38421346809E+03  0.25500000920E-02 0.  1.
       -2   -1    0    0    0  501  0.00000000000E+00  0.00000000000E+00 -0.65058260457E+03  0.65058260458E+03  0.25500000920E-02 0. -1.
    10030    2    1    2    0    0  0.00000000000E+00  0.00000000000E+00 -0.26636913648E+03  0.10347960727E+04  0.99992519477E+03 0.  0.
        3    1    3    3  502    0 -0.24759483179E+03  0.24794684722E+03 -0.50224684510E+03  0.61239916998E+03  0.10100000352E+00 0. -1.
       -3    1    3    3    0  502  0.24759483179E+03 -0.24794684722E+03  0.23587770862E+03  0.42239690269E+03  0.10100000352E+00 0.  1.
</event>
<event>
 5   0  0.5826939E-04  0.9987006E+03  0.7818609E-02  0.9309971E-01
       -1   -1    0    0    0  501  0.00000000000E+00  0.00000000000E+00  0.22098826160E+03  0.22098826166E+03  0.50400001928E-02 0. -1.
        1   -1    0    0  501    0  0.00000000000E+00  0.00000000000E+00 -0.11283437284E+04  0.11283437284E+04  0.50400001928E-02 0.  1.
    10030    2    1    2    0    0  0.00000000000E+00  0.00000000000E+00 -0.90735546678E+03  0.13493319901E+04  0.99870059391E+03 0.  0.
        1    1    3    3  502    0  0.45098487813E+03 -0.16923772006E+03 -0.63149827747E+03  0.79424104695E+03  0.50400001928E-02 0.  1.
       -1    1    3    3    0  502 -0.45098487813E+03  0.16923772006E+03 -0.27585718931E+03  0.55509094310E+03  0.50400001928E-02 0. -1.
</event>
<event>
 5   0  0.9674819E-04  0.9940458E+03  0.7818609E-02  0.9315099E-01
        2   -1    0    0  501    0  0.00000000000E+00  0.00000000000E+00  0.25797587526E+03  0.25797587527E+03  0.25500000920E-02 0. -1.
       -2   -1    0    0    0  501  0.00000000000E+00  0.00000000000E+00 -0.95757697550E+03  0.95757697551E+03  0.25500000920E-02 0.  1.
    10030    2    1    2    0    0  0.00000000000E+00  0.00000000000E+00 -0.69960110024E+03  0.12155528508E+04  0.99404579048E+03 0.  0.
        4    1    3    3  502    0  0.26398705733E+03  0.15215382880E+03  0.13037034181E+03  0.33141815427E+03  0.12699999809E+01 0. -1.
       -4    1    3    3    0  502 -0.26398705733E+03 -0.15215382880E+03 -0.82997144206E+03  0.88413469651E+03  0.12699999809E+01 0.  1.
</event>
<event>
 5   0  0.5960102E-04  0.9721585E+03  0.7818609E-02  0.9339619E-01
        1   -1    0    0  501    0  0.00000000000E+00  0.00000000000E+00  0.65253277274E+03  0.65253277276E+03  0.50400001928E-02 0. -1.
       -1   -1    0    0    0  501  0.00000000000E+00  0.00000000000E+00 -0.36208607693E+03  0.36208607696E+03  0.50400001928E-02 0.  1.
    10030    2    1    2    0    0  0.00000000000E+00  0.00000000000E+00  0.29044669582E+03  0.10146188497E+04  0.97215848868E+03 0.  0.
        5    1    3    3  502    0 -0.27118808611E+03 -0.33047285664E+03 -0.96169894054E+02  0.43820774245E+03  0.46999998093E+01 0.  1.
       -5    1    3    3    0  502  0.27118808611E+03  0.33047285664E+03  0.38661658987E+03  0.57641110727E+03  0.46999998093E+01 0. -1.
</event>
<event>
 5   0  0.1020150E-03  0.9932733E+03  0.7818609E-02  0.9315953E-01
       -2   -1    0    0    0  501  0.00000000000E+00  0.00000000000E+00  0.44534179575E+03  0.44534179576E+03  0.25500000920E-02 0.  1.
        2   -1    0    0  501    0  0.00000000000E+00  0.00000000000E+00 -0.55383971121E+03  0.55383971122E+03  0.25500000920E-02 0. -1.
    10030    2    1    2    0    0  0.00000000000E+00  0.00000000000E+00 -0.10849791546E+03  0.99918150698E+03  0.99327331900E+03 0.  0.
        5    1    3    3  502    0 -0.13804284736E+03 -0.41184040566E+03 -0.29642465983E+03  0.52588783632E+03  0.46999998093E+01 0. -1.
       -5    1    3    3    0  502  0.13804284736E+03  0.41184040566E+03  0.18792674437E+03  0.47329367066E+03  0.46999998093E+01 0.  1.
</event>
<event>
 5   0  0.9674819E-04  0.9999855E+03  0.7818609E-02  0.9308561E-01
       -2   -1    0    0    0  501  0.00000000000E+00  0.00000000000E+00  0.13956547747E+03  0.13956547749E+03  0.25500000920E-02 0. -1.
        2   -1    0    0  501    0  0.00000000000E+00  0.00000000000E+00 -0.17912219157E+04  0.17912219157E+04  0.25500000920E-02 0.  1.
    10030    2    1    2    0    0  0.00000000000E+00  0.00000000000E+00 -0.16516564382E+04  0.19307873932E+04  0.99998548378E+03 0.  0.
        4    1    3    3  502    0 -0.10597857696E+03 -0.39748971300E+03 -0.13745386441E+04  0.14347779019E+04  0.12699999809E+01 0. -1.
       -4    1    3    3    0  502  0.10597857696E+03  0.39748971300E+03 -0.27711779404E+03  0.49600949123E+03  0.12699999809E+01 0.  1.
</event>
<event>
 5   0  0.9741826E-04  0.9986903E+03  0.7818609E-02  0.9309982E-01
       -2   -1    0    0    0  501  0.00000000000E+00  0.00000000000E+00  0.26701405251E+03  0.26701405252E+03  0.25500000920E-02 0. -1.
        2   -1    0    0  501    0  0.00000000000E+00  0.00000000000E+00 -0.93382944004E+03  0.93382944005E+03  0.25500000920E-02 0.  1.
    10030    2    1    2    0    0  0.00000000000E+00  0.00000000000E+00 -0.66681538753E+03  0.12008434926E+04  0.99869030865E+03 0.  0.
        3    1    3    3  502    0 -0.18427864439E+03 -0.34187391289E+03  0.43985383634E+02  0.39085945718E+03  0.10100000352E+00 0. -1.
       -3    1    3    3    0  502  0.18427864439E+03  0.34187391289E+03 -0.71080077117E+03  0.80998403539E+03  0.10100000352E+00 0.  1.
</event>
<event>
 5   0  0.9741826E-04  0.9982884E+03  0.7818609E-02  0.9310424E-01
       -2   -1    0    0    0  501  0.00000000000E+00  0.00000000000E+00  0.13337299768E+03  0.13337299771E+03  0.25500000920E-02 0.  1.
        2   -1    0    0  501    0  0.00000000000E+00  0.00000000000E+00 -0.18680312363E+04  0.18680312363E+04  0.25500000920E-02 0. -1.
    10030    2    1    2    0    0  0.00000000000E+00  0.00000000000E+00 -0.17346582387E+04  0.20014042340E+04  0.99828838675E+03 0.  0.
        3    1    3    3  502    0  0.81231597279E+02 -0.30039304215E+03 -0.16497555676E+04  0.16788472222E+04  0.10100000352E+00 0. -1.
       -3    1    3    3    0  502 -0.81231597279E+02  0.30039304215E+03 -0.84902671008E+02  0.32255701188E+03  0.10100000352E+00 0.  1.
</event>
<event>
 5   0  0.9674819E-04  0.9995124E+03  0.7818609E-02  0.9309080E-01
        2   -1    0    0  501    0  0.00000000000E+00  0.00000000000E+00  0.22695815752E+04  0.22695815752E+04  0.25500000920E-02 0. -1.
       -2   -1    0    0    0  501  0.00000000000E+00  0.00000000000E+00 -0.11004505796E+03  0.11004505799E+03  0.25500000920E-02 0.  1.
    10030    2    1    2    0    0  0.00000000000E+00  0.00000000000E+00  0.21595365172E+04  0.23796266332E+04  0.99951235313E+03 0.  0.
        4    1    3    3  502    0 -0.28969803606E+03  0.12232493637E+03  0.15503442577E+03  0.35060751308E+03  0.12699999809E+01 0.  1.
       -4    1    3    3    0  502  0.28969803606E+03 -0.12232493637E+03  0.20045020914E+04  0.20290191201E+04  0.12699999809E+01 0. -1.
</event>
<event>
 5   0  0.9741826E-04  0.1009408E+04  0.7818609E-02  0.9298286E-01
        2   -1    0    0  501    0  0.00000000000E+00  0.00000000000E+00  0.13188149165E+04  0.13188149165E+04  0.25500000920E-02 0.  1.
       -2   -1    0    0    0  501  0.00000000000E+00  0.00000000000E+00 -0.19314788249E+03  0.19314788251E+03  0.25500000920E-02 0. -1.
    10030    2    1    2    0    0  0.00000000000E+00  0.00000000000E+00  0.11256670340E+04  0.15119627990E+04  0.10094083585E+04 0.  0.
        3    1    3    3  502    0  0.10801605924E+03 -0.31576419756E+03 -0.42875567614E+01  0.33375573532E+03  0.10100000352E+00 0. -1.
       -3    1    3    3    0  502 -0.10801605924E+03  0.31576419756E+03  0.11299545908E+04  0.11782070637E+04  0.10100000352E+00 0.  1.
</event>
<event>
 5   0  0.3854625E-04  0.9998394E+03  0.7818609E-02  0.9308721E-01
       -3   -1    0    0    0  501  0.00000000000E+00  0.00000000000E+00  0.40815749542E+03  0.40815750792E+03  0.10100000352E+00 0.  1.
        3   -1    0    0  501    0  0.00000000000E+00  0.00000000000E+00 -0.61231190952E+03  0.61231191785E+03  0.10100000352E+00 0. -1.
    10030    2    1    2    0    0  0.00000000000E+00  0.00000000000E+00 -0.20415441410E+03  0.10204694258E+04  0.99983939916E+03 0.  0.
        3    1    3    3  502    0 -0.32518065804E+03  0.16266051534E+03  0.24810385041E+03  0.44017773047E+03  0.10100000352E+00 0.  1.
       -3    1    3    3    0  502  0.32518065804E+03 -0.16266051534E+03 -0.45225826450E+03  0.58029169529E+03  0.10100000352E+00 0. -1.
</event>
<event>
 5   0  0.5960102E-04  0.1003991E+04  0.7818609E-02  0.9304178E-01
        1   -1    0    0  501    0  0.00000000000E+00  0.00000000000E+00  0.67263425803E+03  0.67263425805E+03  0.50400001928E-02 0.  1.
       -1   -1    0    0    0  501  0.00000000000E+00  0.00000000000E+00 -0.37464579426E+03  0.37464579429E+03  0.50400001928E-02 0. -1.
    10030    2    1    2    0    0  0.00000000000E+00  0.00000000000E+00  0.29798846378E+03  0.10472800523E+04  0.10039912268E+04 0.  0.
        5    1    3    3  502    0 -0.65928615223E+02 -0.43822023511E+03  0.39494414663E+03  0.59362153407E+03  0.46999998093E+01 0.  1.
       -5    1    3    3    0  502  0.65928615223E+02  0.43822023511E+03 -0.96955682850E+02  0.45365851827E+03  0.46999998093E+01 0. -1.
</event>
<event>
 5   0  0.1006749E-03  0.1000014E+04  0.7818609E-02  0.9308530E-01
        2   -1    0    0  501    0  0.00000000000E+00  0.00000000000E+00  0.41365581032E+03  0.41365581033E+03  0.25500000920E-02 0. -1.
       -2   -1    0    0    0  501  0.00000000000E+00  0.00000000000E+00 -0.60438381210E+03  0.60438381211E+03  0.25500000920E-02 0.  1.
    10030    2    1    2    0    0  0.00000000000E+00  0.00000000000E+00 -0.19072800178E+03  0.10180396224E+04  0.10000137510E+04 0.  0.
        1    1    3    3  502    0 -0.25741725307E+02 -0.12418862402E+03  0.39700840932E+03  0.41677467276E+03  0.50400001928E-02 0. -1.
       -1    1    3    3    0  502  0.25741725307E+02  0.12418862402E+03 -0.58773641110E+03  0.60126494968E+03  0.50400001928E-02 0.  1.
</event>
<event>
 5   0  0.5826939E-04  0.9993712E+03  0.7818609E-02  0.9309235E-01
       -1   -1    0    0    0  501  0.00000000000E+00  0.00000000000E+00  0.47841305977E+03  0.47841305979E+03  0.50400001928E-02 0. -1.
        1   -1    0    0  501    0  0.00000000000E+00  0.00000000000E+00 -0.52190399830E+03  0.52190399832E+03  0.50400001928E-02 0.  1.
    10030    2    1    2    0    0  0.00000000000E+00  0.00000000000E+00 -0.43490938528E+02  0.10003170581E+04  0.99937117980E+03 0.  0.
        1    1    3    3  502    0  0.31044661397E+03 -0.62868900292E+01 -0.41361194030E+03  0.51719576787E+03  0.50400001928E-02 0.  1.
       -1    1    3    3    0  502 -0.31044661397E+03  0.62868900292E+01  0.37012100177E+03  0.48312129025E+03  0.50400001928E-02 0. -1.
</event>
<event>
 5   0  0.9674819E-04  0.9996759E+03  0.7818609E-02  0.9308900E-01
       -2   -1    0    0    0  501  0.00000000000E+00  0.00000000000E+00  0.56706134530E+03  0.56706134531E+03  0.25500000920E-02 0. -1.
        2   -1    0    0  501    0  0.00000000000E+00  0.00000000000E+00 -0.44058364234E+03  0.44058364235E+03  0.25500000920E-02 0.  1.
    10030    2    1    2    0    0  0.00000000000E+00  0.00000000000E+00  0.12647770296E+03  0.10076449877E+04  0.99967585337E+03 0.  0.
        4    1    3    3  502    0 -0.17982306061E+03  0.46626778460E+03  0.73030193824E+02  0.50505148470E+03  0.12699999809E+01 0.  1.
       -4    1    3    3    0  502  0.17982306061E+03 -0.46626778460E+03  0.53447509139E+02  0.50259350296E+03  0.12699999809E+01 0. -1.
</event>
<event>
 5   0  0.9674819E-04  0.9987871E+03  0.7818609E-02  0.9309876E-01
       -2   -1    0    0    0  501  0.00000000000E+00  0.00000000000E+00  0.35447878640E+03  0.35447878640E+03  0.25500000920E-02 0.  1.
        2   -1    0    0  501    0  0.00000000000E+00  0.00000000000E+00 -0.70355110569E+03  0.70355110569E+03  0.25500000920E-02 0. -1.
    10030    2    1    2    0    0  0.00000000000E+00  0.00000000000E+00 -0.34907231929E+03  0.10580298921E+04  0.99878714873E+03 0.  0.
        4    1    3    3  502    0  0.27125471678E+03 -0.41016924913E+03 -0.82342943747E+02  0.49859794182E+03  0.12699999809E+01 0.  1.
       -4    1    3    3    0  502 -0.27125471678E+03  0.41016924913E+03 -0.26672937554E+03  0.55943195027E+03  0.12699999809E+01 0. -1.
</event>
<event>
 5   0  0.3854625E-04  0.1000120E+04  0.7818609E-02  0.9308413E-01
        3   -1    0    0  501    0  0.00000000000E+00  0.00000000000E+00  0.63014561634E+03  0.63014562444E+03  0.10100000352E+00 0.  1.
       -3   -1    0    0    0  501  0.00000000000E+00  0.00000000000E+00 -0.39682873333E+03  0.39682874618E+03  0.10100000352E+00 0. -1.
    10030    2    1    2    0    0  0.00000000000E+00  0.00000000000E+00  0.23331688301E+03  0.10269743706E+04  0.10001197878E+04 0.  0.
        4    1    3    3  502    0 -0.14203137642E+03  0.47284158630E+03  0.19820238227E+03  0.53201304012E+03  0.12699999809E+01 0. -1.
       -4    1    3    3    0  502  0.14203137642E+03 -0.47284158630E+03  0.35114500744E+02  0.49496133050E+03  0.12699999809E+01 0.  1.
</event>
<event>
 5   0  0.9674819E-04  0.1001740E+04  0.7818609E-02  0.9306639E-01
        2   -1    0    0  501    0  0.00000000000E+00  0.00000000000E+00  0.11245358577E+04  0.11245358577E+04  0.25500000920E-02 0. -1.
       -2   -1    0    0    0  501  0.00000000000E+00  0.00000000000E+00 -0.22308823801E+03  0.22308823803E+03  0.25500000920E-02 0.  1.
    10030    2    1    2    0    0  0.00000000000E+00  0.00000000000E+00  0.90144761973E+03  0.13476240958E+04  0.10017399325E+04 0.  0.
        4    1    3    3  502    0 -0.30786372757E+03  0.36900852678E+03  0.64060303183E+03  0.80082533981E+03  0.12699999809E+01 0. -1.
       -4    1    3    3    0  502  0.30786372757E+03 -0.36900852678E+03  0.26084458789E+03  0.54679875596E+03  0.12699999809E+01 0.  1.
</event>
<event>
 5   0  0.1006749E-03  0.9997172E+03  0.7818609E-02  0.9308855E-01
       -2   -1    0    0    0  501  0.00000000000E+00  0.00000000000E+00  0.20801550887E+03  0.20801550889E+03  0.25500000920E-02 0. -1.
        2   -1    0    0  501    0  0.00000000000E+00  0.00000000000E+00 -0.12011539097E+04  0.12011539097E+04  0.25500000920E-02 0.  1.
    10030    2    1    2    0    0  0.00000000000E+00  0.00000000000E+00 -0.99313840079E+03  0.14091694186E+04  0.99971724356E+03 0.  0.
        1    1    3    3  502    0  0.29260234361E+03 -0.27132897571E+03 -0.92090090016E+03  0.10036403801E+04  0.50400001928E-02 0.  1.
       -1    1    3    3    0  502 -0.29260234361E+03  0.27132897571E+03 -0.72237500628E+02  0.40552903850E+03  0.50400001928E-02 0. -1.
</event>
<event>
 5   0  0.5768102E-04  0.9995965E+03  0.7818609E-02  0.9308987E-01
       -1   -1    0    0    0  501  0.00000000000E+00  0.00000000000E+00  0.25336106551E+03  0.25336106556E+03  0.50400001928E-02 0. -1.
        1   -1    0    0  501    0  0.00000000000E+00  0.00000000000E+00 -0.98593793686E+03  0.98593793687E+03  0.50400001928E-02 0.  1.
    10030    2    1    2    0    0  0.00000000000E+00  0.00000000000E+00 -0.73257687135E+03  0.12392990024E+04  0.99959649109E+03 0.  0.
        4    1    3    3  502    0 -0.34774344830E+03  0.35617976038E+03 -0.42183290719E+03  0.65248305880E+03  0.12699999809E+01 0. -1.
       -4    1    3    3    0  502  0.34774344830E+03 -0.35617976038E+03 -0.31074396416E+03  0.58681594363E+03  0.12699999809E+01 0.  1.
</event>
<event>
 5   0  0.3854625E-04  0.1000034E+04  0.7818609E-02  0.9308508E-01
       -3   -1    0    0    0  501  0.00000000000E+00  0.00000000000E+00  0.13962092446E+03  0.13962096099E+03  0.10100000352E+00 0. -1.
        3   -1    0    0  501    0  0.00000000000E+00  0.00000000000E+00 -0.17906823455E+04  0.17906823483E+04  0.10100000352E+00 0.  1.
    10030    2    1    2    0    0  0.00000000000E+00  0.00000000000E+00 -0.16510614210E+04  0.19303033093E+04  0.10000335244E+04 0.  0.
        1    1    3    3  502    0 -0.37014901541E+03  0.19677027834E+03 -0.13516329059E+04  0.14151467586E+04  0.50400001928E-02 0.  1.
       -1    1    3    3    0  502  0.37014901541E+03 -0.19677027834E+03 -0.29942851512E+03  0.51515655071E+03  0.50400001928E-02 0. -1.
</event>
<event>
 5   0  0.5960102E-04  0.1002774E+04  0.7818609E-02  0.9305507E-01
        1   -1    0    0  501    0  0.00000000000E+00  0.00000000000E+00  0.69302045999E+03  0.69302046001E+03  0.50400001928E-02 0. -1.
       -1   -1    0    0    0  501  0.00000000000E+00  0.00000000000E+00 -0.36274399270E+03  0.36274399274E+03  0.50400001928E-02 0.  1.
    10030    2    1    2    0    0  0.00000000000E+00  0.00000000000E+00  0.33027646729E+03  0.10557644528E+04  0.10027741694E+04 0.  0.
        5    1    3    3  502    0 -0.25738282796E+03 -0.41659783722E+03  0.51903729770E+02  0.49245889704E+03  0.46999998093E+01 0.  1.
       -5    1    3    3    0  502  0.25738282796E+03  0.41659783722E+03  0.27837273752E+03  0.56330555572E+03  0.46999998093E+01 0. -1.
</event>
<event>
 5   0  0.9674819E-04  0.9988658E+03  0.7818609E-02  0.9309790E-01
       -2   -1    0    0    0  501  0.00000000000E+00  0.00000000000E+00  0.23351952486E+03  0.23351952488E+03  0.25500000920E-02 0. -1.
        2   -1    0    0  501    0  0.00000000000E+00  0.00000000000E+00 -0.10681471626E+04  0.10681471626E+04  0.25500000920E-02 0.  1.
    10030    2    1    2    0    0  0.00000000000E+00  0.00000000000E+00 -0.83462763769E+03  0.13016666874E+04  0.99886579258E+03 0.  0.
        4    1    3    3  502    0  0.56570685694E+02 -0.37909972619E+03 -0.83455373542E+03  0.91836724412E+03  0.12699999809E+01 0.  1.
       -4    1    3    3    0  502 -0.56570685694E+02  0.37909972619E+03 -0.73902270107E-01  0.38329944331E+03  0.12699999809E+01 0. -1.
</event>
<event>
 5   0  0.1006749E-03  0.1006413E+04  0.7818609E-02  0.9301539E-01
        2   -1    0    0  501    0  0.00000000000E+00  0.00000000000E+00  0.11353464370E+04  0.11353464370E+04  0.25500000920E-02 0. -1.
       -2   -1    0    0    0  501  0.00000000000E+00  0.00000000000E+00 -0.22303021210E+03  0.22303021212E+03  0.25500000920E-02 0.  1.
    10030    2    1    2    0    0  0.00000000000E+00  0.00000000000E+00  0.91231622488E+03  0.13583766491E+04  0.10064125529E+04 0.  0.
        1    1    3    3  502    0 -0.26073950707E+03  0.14621363318E+03  0.10025086986E+04  0.10461296324E+04  0.50400001928E-02 0.  1.
       -1    1    3    3    0  502  0.26073950707E+03 -0.14621363318E+03 -0.90192473711E+02  0.31224701667E+03  0.50400001928E-02 0. -1.
</event>
<event>
 5   0  0.1006006E-03  0.9996051E+03  0.7818609E-02  0.9308978E-01
        2   -1    0    0  501    0  0.00000000000E+00  0.00000000000E+00  0.15240174295E+04  0.15240174295E+04  0.25500000920E-02 0. -1.
       -2   -1    0    0    0  501  0.00000000000E+00  0.00000000000E+00 -0.16391058556E+03  0.16391058558E+03  0.25500000920E-02 0.  1.
    10030    2    1    2    0    0  0.00000000000E+00  0.00000000000E+00  0.13601068439E+04  0.16879280151E+04  0.99960510062E+03 0.  0.
        2    1    3    3  502    0 -0.11092728920E+03 -0.47837525256E+03  0.52296106045E+03  0.71738136058E+03  0.25500000920E-02 0.  1.
       -2    1    3    3    0  502  0.11092728920E+03  0.47837525256E+03  0.83714578350E+03  0.97054665452E+03  0.25500000920E-02 0. -1.
</event>
<event>
 5   0  0.1020150E-03  0.1001280E+04  0.7818609E-02  0.9307142E-01
        2   -1    0    0  501    0  0.00000000000E+00  0.00000000000E+00  0.21037574979E+04  0.21037574980E+04  0.25500000920E-02 0.  1.
       -2   -1    0    0    0  501  0.00000000000E+00  0.00000000000E+00 -0.11913947292E+03  0.11913947295E+03  0.25500000920E-02 0. -1.
    10030    2    1    2    0    0  0.00000000000E+00  0.00000000000E+00  0.19846180250E+04  0.22228969709E+04  0.10012802994E+04 0.  0.
        5    1    3    3  502    0 -0.26988983848E+03 -0.25321821345E+03  0.17407621037E+04  0.17796726610E+04  0.46999998093E+01 0.  1.
       -5    1    3    3    0  502  0.26988983848E+03  0.25321821345E+03  0.24385592132E+03  0.44322430992E+03  0.46999998093E+01 0. -1.
</event>
<event>
 5   0  0.1006006E-03  0.1000015E+04  0.7818609E-02  0.9308528E-01
        2   -1    0    0  501    0  0.00000000000E+00  0.00000000000E+00  0.33309955550E+03  0.33309955551E+03  0.25500000920E-02 0.  1.
       -2   -1    0    0    0  501  0.00000000000E+00  0.00000000000E+00 -0.75054911471E+03  0.75054911472E+03  0.25500000920E-02 0. -1.
    10030    2    1    2    0    0  0.00000000000E+00  0.00000000000E+00 -0.41744955922E+03  0.10836486702E+04  0.10000151529E+04 0.  0.
        2    1    3    3  502    0  0.14972223656E+03 -0.39994982967E+03 -0.49053367944E+03  0.65038442867E+03  0.25500000920E-02 0. -1.
       -2    1    3    3    0  502 -0.14972223656E+03  0.39994982967E+03  0.73084120229E+02  0.43326424156E+03  0.25500000920E-02 0.  1.
</event>
<event>
 5   0  0.5758786E-04  0.1001641E+04  0.7818609E-02  0.9306747E-01
        1   -1    0    0  501    0  0.00000000000E+00  0.00000000000E+00  0.53473711109E+03  0.53473711111E+03  0.50400001928E-02 0.  1.
       -1   -1    0    0    0  501  0.00000000000E+00  0.00000000000E+00 -0.46905500575E+03  0.46905500578E+03  0.50400001928E-02 0. -1.
    10030    2    1    2    0    0  0.00000000000E+00  0.00000000000E+00  0.65682105333E+02  0.10037921169E+04  0.10016408912E+04 0.  0.
        3    1    3    3  502    0 -0.36080880699E+03  0.29412693582E+03 -0.15229189301E+03  0.48978207445E+03  0.10100000352E+00 0.  1.
       -3    1    3    3    0  502  0.36080880699E+03 -0.29412693582E+03  0.21797399835E+03  0.51401004244E+03  0.10100000352E+00 0. -1.
</event>
<event>
 5   0  0.1006749E-03  0.9979009E+03  0.7818609E-02  0.9310850E-01
       -2   -1    0    0    0  501  0.00000000000E+00  0.00000000000E+00  0.83687418407E+03  0.83687418407E+03  0.25500000920E-02 0. -1.
        2   -1    0    0  501    0  0.00000000000E+00  0.00000000000E+00 -0.29747784458E+03  0.29747784459E+03  0.25500000920E-02 0.  1.
    10030    2    1    2    0    0  0.00000000000E+00  0.00000000000E+00  0.53939633949E+03  0.11343520287E+04  0.99790085373E+03 0.  0.
        1    1    3    3  502    0 -0.35251207203E+03  0.10782572696E+03 -0.11252382840E+03  0.38542542768E+03  0.50400001928E-02 0.  1.
       -1    1    3    3    0  502  0.35251207203E+03 -0.10782572696E+03  0.65192016790E+03  0.74892660098E+03  0.50400001928E-02 0. -1.
</event>
<event>
 5   0  0.5888774E-04  0.9983591E+03  0.7818609E-02  0.9310346E-01
       -1   -1    0    0    0  501  0.00000000000E+00  0.00000000000E+00  0.12909022956E+03  0.12909022966E+03  0.50400001928E-02 0.  1.
        1   -1    0    0  501    0  0.00000000000E+00  0.00000000000E+00 -0.19302794741E+04  0.19302794741E+04  0.50400001928E-02 0. -1.
    10030    2    1    2    0    0  0.00000000000E+00  0.00000000000E+00 -0.18011892445E+04  0.20593697037E+04  0.99835909478E+03 0.  0.
        2    1    3    3  502    0  0.47076642604E+02 -0.25040751014E+03 -0.15146381911E+02  0.25524408770E+03  0.25500000920E-02 0.  1.
       -2    1    3    3    0  502 -0.47076642604E+02  0.25040751014E+03 -0.17860428626E+04  0.18041256160E+04  0.25500000920E-02 0. -1.
</event>
<event>
 5   0  0.5768102E-04  0.9990034E+03  0.7818609E-02  0.9309639E-01
        1   -1    0    0  501    0  0.00000000000E+00  0.00000000000E+00  0.73289642799E+03  0.73289642800E+03  0.50400001928E-02 0.  1.
       -1   -1    0    0    0  501  0.00000000000E+00  0.00000000000E+00 -0.34043276224E+03  0.34043276227E+03  0.50400001928E-02 0. -1.
    10030    2    1    2    0    0  0.00000000000E+00  0.00000000000E+00  0.39246366575E+03  0.10733291903E+04  0.99900341429E+03 0.  0.
        4    1    3    3  502    0 -0.25415243176E+02  0.23964873340E+03  0.66630223338E+03  0.70854620817E+03  0.12699999809E+01 0.  1.
       -4    1    3    3    0  502  0.25415243176E+02 -0.23964873340E+03 -0.27383856763E+03  0.36478298210E+03  0.12699999809E+01 0. -1.
</event>
<event>
 5   0  0.9741826E-04  0.9972561E+03  0.7818609E-02  0.9311559E-01
       -2   -1    0    0    0  501  0.00000000000E+00  0.00000000000E+00  0.44344200168E+03  0.44344200168E+03  0.25500000920E-02 0.  1.
        2   -1    0    0  501    0  0.00000000000E+00  0.00000000000E+00 -0.56068191315E+03  0.56068191316E+03  0.25500000920E-02 0. -1.
    10030    2    1    2    0    0  0.00000000000E+00  0.00000000000E+00 -0.11723991147E+03  0.10041239148E+04  0.99725605514E+03 0.  0.
        3    1    3    3  502    0  0.49694395591E+03 -0.39590558183E+02 -0.69141419357E+02  0.50329042678E+03  0.10100000352E+00 0.  1.
       -3    1    3    3    0  502 -0.49694395591E+03  0.39590558183E+02 -0.48098492117E+02  0.50083348806E+03  0.10100000352E+00 0. -1.
</event>
<event>
 5   0  0.1020150E-03  0.9998914E+03  0.7818609E-02  0.9308664E-01
       -2   -1    0    0    0  501  0.00000000000E+00  0.00000000000E+00  0.49134811659E+03  0.49134811660E+03  0.25500000920E-02 0. -1.
        2   -1    0    0  501    0  0.00000000000E+00  0.00000000000E+00 -0.50869369470E+03  0.50869369471E+03  0.25500000920E-02 0.  1.
    10030    2    1    2    0    0  0.00000000000E+00  0.00000000000E+00 -0.17345578112E+02  0.10000418113E+04  0.99989137174E+03 0.  0.
        5    1    3    3  502    0 -0.41839446739E+03 -0.33821014295E+02  0.26289303005E+03  0.49531063647E+03  0.46999998093E+01 0. -1.
       -5    1    3    3    0  502  0.41839446739E+03  0.33821014295E+02 -0.28023860816E+03  0.50473117484E+03  0.46999998093E+01 0.  1.
</event>
<event>
 5   0  0.3854625E-04  0.9999584E+03  0.7818609E-02  0.9308590E-01
       -3   -1    0    0    0  501  0.00000000000E+00  0.00000000000E+00  0.18716025135E+03  0.18716027860E+03  0.10100000352E+00 0. -1.
        3   -1    0    0  501    0  0.00000000000E+00  0.00000000000E+00 -0.13356423326E+04  0.13356423364E+04  0.10100000352E+00 0.  1.
    10030    2    1    2    0    0  0.00000000000E+00  0.00000000000E+00 -0.11484820813E+04  0.15228026150E+04  0.99995835581E+03 0.  0.
        5    1    3    3  502    0  0.22421553156E+03  0.59401205196E+02  0.10022871051E+03  0.25272315323E+03  0.46999998093E+01 0. -1.
       -5    1    3    3    0  502 -0.22421553156E+03 -0.59401205196E+02 -0.12487107918E+04  0.12700794618E+04  0.46999998093E+01 0.  1.
</event>
<event>
 5   0  0.3854625E-04  0.9975010E+03  0.7818609E-02  0.9311290E-01
        3   -1    0    0  501    0  0.00000000000E+00  0.00000000000E+00  0.35299557610E+03  0.35299559055E+03  0.10100000352E+00 0.  1.
       -3   -1    0    0    0  501  0.00000000000E+00  0.00000000000E+00 -0.70468881399E+03  0.70468882123E+03  0.10100000352E+00 0. -1.
    10030    2    1    2    0    0  0.00000000000E+00  0.00000000000E+00 -0.35169323789E+03  0.10576844118E+04  0.99750096809E+03 0.  0.
        4    1    3    3  502    0 -0.43990448643E+03 -0.25851837871E+02 -0.42353433296E+03  0.61120145517E+03  0.12699999809E+01 0. -1.
       -4    1    3    3    0  502  0.43990448643E+03  0.25851837871E+02  0.71841095071E+02  0.44648295661E+03  0.12699999809E+01 0.  1.
</event>
<event>
 5   0  0.1020150E-03  0.1000162E+04  0.7818609E-02  0.9308368E-01
        2   -1    0    0  501    0  0.00000000000E+00  0.00000000000E+00  0.33389530993E+03  0.33389530994E+03  0.25500000920E-02 0. -1.
       -2   -1    0    0    0  501  0.00000000000E+00  0.00000000000E+00 -0.74897967046E+03  0.74897967047E+03  0.25500000920E-02 0.  1.
    10030    2    1    2    0    0  0.00000000000E+00  0.00000000000E+00 -0.41508436053E+03  0.10828749804E+04  0.10001615854E+04 0.  0.
        5    1    3    3  502    0 -0.44046583533E+03  0.22029552885E+03 -0.11366242809E+03  0.50545178770E+03  0.46999998093E+01 0. -1.
       -5    1    3    3    0  502  0.44046583533E+03 -0.22029552885E+03 -0.30142193244E+03  0.57742319271E+03  0.46999998093E+01 0.  1.
</event>
<event>
 5   0  0.1006749E-03  0.1000069E+04  0.7818609E-02  0.9308470E-01
        2   -1    0    0  501    0  0.00000000000E+00  0.00000000000E+00  0.25153263462E+03  0.25153263463E+03  0.25500000920E-02 0.  1.
       -2   -1    0    0    0  501  0.00000000000E+00  0.00000000000E+00 -0.99404308870E+03  0.99404308871E+03  0.25500000920E-02 0. -1.
    10030    2    1    2    0    0  0.00000000000E+00  0.00000000000E+00 -0.74251045408E+03  0.12455757233E+04  0.10000685517E+04 0.  0.
        1    1    3    3  502    0  0.34231998219E+03  0.34954006089E+03 -0.49992741628E+03  0.69949170542E+03  0.50400001928E-02 0.  1.
       -1    1    3    3    0  502 -0.34231998219E+03 -0.34954006089E+03 -0.24258303780E+03  0.54608401792E+03  0.50400001928E-02 0. -1.
</event>
<event>
 5   0  0.5768102E-04  0.1001309E+04  0.7818609E-02  0.9307110E-01
       -1   -1    0    0    0  501  0.00000000000E+00  0.00000000000E+00  0.98775143214E+02  0.98775143343E+02  0.50400001928E-02 0. -1.
        1   -1    0    0  501    0  0.00000000000E+00  0.00000000000E+00 -0.25376341247E+04  0.25376341247E+04  0.50400001928E-02 0.  1.
    10030    2    1    2    0    0  0.00000000000E+00  0.00000000000E+00 -0.24388589815E+04  0.26364092681E+04  0.10013094912E+04 0.  0.
        4    1    3    3  502    0 -0.46113088750E+03 -0.18065798327E+03 -0.10264034441E+04  0.11396423322E+04  0.12699999809E+01 0.  1.
       -4    1    3    3    0  502  0.46113088750E+03  0.18065798327E+03 -0.14124555374E+04  0.14967669359E+04  0.12699999809E+01 0. -1.
</event>
<event>
 5   0  0.5960102E-04  0.9996427E+03  0.7818609E-02  0.9308937E-01
       -1   -1    0    0    0  501  0.00000000000E+00  0.00000000000E+00  0.12178685064E+04  0.12178685064E+04  0.50400001928E-02 0.  1.
        1   -1    0    0  501    0  0.00000000000E+00  0.00000000000E+00 -0.20513000046E+03  0.20513000052E+03  0.50400001928E-02 0. -1.
    10030    2    1    2    0    0  0.00000000000E+00  0.00000000000E+00  0.10127385059E+04  0.14229985069E+04  0.99964267080E+03 0.  0.
        5    1    3    3  502    0 -0.65644144175E+02  0.42331748139E+03  0.13985434906E+03  0.45065305132E+03  0.46999998093E+01 0. -1.
       -5    1    3    3    0  502  0.65644144175E+02 -0.42331748139E+03  0.87288415685E+03  0.97234545558E+03  0.46999998093E+01 0.  1.
</event>
<event>
 5   0  0.1020150E-03  0.1000097E+04  0.7818609E-02  0.9308438E-01
       -2   -1    0    0    0  501  0.00000000000E+00  0.00000000000E+00  0.52921533139E+03  0.52921533140E+03  0.25500000920E-02 0. -1.
        2   -1    0    0  501    0  0.00000000000E+00  0.00000000000E+00 -0.47248923521E+03  0.47248923522E+03  0.25500000920E-02 0.  1.
    10030    2    1    2    0    0  0.00000000000E+00  0.00000000000E+00  0.56726096176E+02  0.10017045666E+04  0.10000970897E+04 0.  0.
        5    1    3    3  502    0 -0.17408419576E+03 -0.14167619407E+03  0.47590223279E+03  0.52619623369E+03  0.46999998093E+01 0. -1.
       -5    1    3    3    0  502  0.17408419576E+03  0.14167619407E+03 -0.41917613661E+03  0.47550833293E+03  0.46999998093E+01 0.  1.
</event>
<event>
 5   0  0.1006006E-03  0.9997521E+03  0.7818609E-02  0.9308817E-01
        2   -1    0    0  501    0  0.00000000000E+00  0.00000000000E+00  0.13825085355E+04  0.13825085356E+04  0.25500000920E-02 0. -1.
       -2   -1    0    0    0  501  0.00000000000E+00  0.00000000000E+00 -0.18074107007E+03  0.18074107008E+03  0.25500000920E-02 0.  1.
    10030    2    1    2    0    0  0.00000000000E+00  0.00000000000E+00  0.12017674655E+04  0.15632496056E+04  0.99975211349E+03 0.  0.
        2    1    3    3  502    0  0.19159522349E+01  0.49117068132E+03  0.45567778554E+03  0.66999593529E+03  0.25500000920E-02 0.  1.
       -2    1    3    3    0  502 -0.19159522349E+01 -0.49117068132E+03  0.74608967994E+03  0.89325367035E+03  0.25500000920E-02 0. -1.
</event>
<event>
 5   0  0.9741826E-04  0.1002084E+04  0.7818609E-02  0.9306262E-01
        2   -1    0    0  501    0  0.00000000000E+00  0.00000000000E+00  0.20599744911E+04  0.20599744911E+04  0.25500000920E-02 0. -1.
       -2   -1    0    0    0  501  0.00000000000E+00  0.00000000000E+00 -0.12186705136E+03  0.12186705139E+03  0.25500000920E-02 0.  1.
    10030    2    1    2    0    0  0.00000000000E+00  0.00000000000E+00  0.19381074397E+04  0.21818415425E+04  0.10020838630E+04 0.  0.
        3    1    3    3  502    0  0.38826662904E+03 -0.31506172009E+03  0.89923913430E+03  0.10289051917E+04  0.10100000352E+00 0.  1.
       -3    1    3    3    0  502 -0.38826662904E+03  0.31506172009E+03  0.10388683054E+04  0.11529363508E+04  0.10100000352E+00 0. -1.
</event>
<event>
 5   0  0.5826939E-04  0.1001554E+04  0.7818609E-02  0.9306842E-01
       -1   -1    0    0    0  501  0.00000000000E+00  0.00000000000E+00  0.21860976583E+03  0.21860976589E+03  0.50400001928E-02 0.  1.
        1   -1    0    0  501    0  0.00000000000E+00  0.00000000000E+00 -0.11471481820E+04  0.11471481820E+04  0.50400001928E-02 0. -1.
    10030    2    1    2    0    0  0.00000000000E+00  0.00000000000E+00 -0.92853841617E+03  0.13657579479E+04  0.10015543829E+04 0.  0.
        1    1    3    3  502    0 -0.20240416419E+03 -0.26548646419E+03  0.44730216257E+02  0.33682532657E+03  0.50400001928E-02 0.  1.
       -1    1    3    3    0  502  0.20240416419E+03  0.26548646419E+03 -0.97326863243E+03  0.10289326213E+04  0.50400001928E-02 0. -1.
</event>
<event>
 5   0  0.9741826E-04  0.9998134E+03  0.7818609E-02  0.9308749E-01
        2   -1    0    0  501    0  0.00000000000E+00  0.00000000000E+00  0.10015136111E+04  0.10015136111E+04  0.25500000920E-02 0.  1.
       -2   -1    0    0    0  501  0.00000000000E+00  0.00000000000E+00 -0.24952901565E+03  0.24952901567E+03  0.25500000920E-02 0. -1.
    10030    2    1    2    0    0  0.00000000000E+00  0.00000000000E+00  0.75198459541E+03  0.12510426267E+04  0.99981339368E+03 0.  0.
        3    1    3    3  502    0  0.45495180812E+03 -0.10733715794E+03  0.59773410999E+03  0.75880728095E+03  0.10100000352E+00 0.  1.
       -3    1    3    3    0  502 -0.45495180812E+03  0.10733715794E+03  0.15425048542E+03  0.49223534578E+03  0.10100000352E+00 0. -1.
</event>
<event>
 5   0  0.1020150E-03  0.1001887E+04  0.7818609E-02  0.9306477E-01
        2   -1    0    0  501    0  0.00000000000E+00  0.00000000000E+00  0.12263615811E+04  0.12263615811E+04  0.25500000920E-02 0. -1.
       -2   -1    0    0    0  501  0.00000000000E+00  0.00000000000E+00 -0.20462530312E+03  0.20462530314E+03  0.25500000920E-02 0.  1.
    10030    2    1    2    0    0  0.00000000000E+00  0.00000000000E+00  0.10217362779E+04  0.14309868842E+04  0.10018874393E+04 0.  0.
        5    1    3    3  502    0  0.70185114472E+02  0.68171935536E+02  0.12125489737E+04  0.12164992670E+04  0.46999998093E+01 0. -1.
       -5    1    3    3    0  502 -0.70185114472E+02 -0.68171935536E+02 -0.19081269572E+03  0.21448761720E+03  0.46999998093E+01 0.  1.
</event>
<event>
 5   0  0.5826939E-04  0.1003619E+04  0.7818609E-02  0.9304584E-01
        1   -1    0    0  501    0  0.00000000000E+00  0.00000000000E+00  0.96127767033E+03  0.96127767034E+03  0.50400001928E-02 0. -1.
       -1   -1    0    0    0  501  0.00000000000E+00  0.00000000000E+00 -0.26195630329E+03  0.26195630334E+03  0.50400001928E-02 0.  1.
    10030    2    1    2    0    0  0.00000000000E+00  0.00000000000E+00  0.69932136704E+03  0.12232339737E+04  0.10036189416E+04 0.  0.
        1    1    3    3  502    0 -0.38255843485E+03 -0.51930389707E+01  0.74542143158E+03  0.83787292259E+03  0.50400001928E-02 0. -1.
       -1    1    3    3    0  502  0.38255843485E+03  0.51930389707E+01 -0.46100064541E+02  0.38536105110E+03  0.50400001928E-02 0.  1.
</event>
<event>
 5   0  0.5888774E-04  0.9996547E+03  0.7818609E-02  0.9308924E-01
        1   -1    0    0  501    0  0.00000000000E+00  0.00000000000E+00  0.63353404439E+03  0.63353404441E+03  0.50400001928E-02 0. -1.
       -1   -1    0    0    0  501  0.00000000000E+00  0.00000000000E+00 -0.39433931506E+03  0.39433931510E+03  0.50400001928E-02 0.  1.
    10030    2    1    2    0    0  0.00000000000E+00  0.00000000000E+00  0.23919472933E+03  0.10278733595E+04  0.99965470271E+03 0.  0.
        2    1    3    3  502    0  0.61918910376E+02 -0.44237105003E+03  0.35020789331E+03  0.56760167892E+03  0.25500000920E-02 0. -1.
       -2    1    3    3    0  502 -0.61918910376E+02  0.44237105003E+03 -0.11101316398E+03  0.46027168059E+03  0.25500000920E-02 0.  1.
</event>
<event>
 5   0  0.9674819E-04  0.9986657E+03  0.7818609E-02  0.9310009E-01
        2   -1    0    0  501    0  0.00000000000E+00  0.00000000000E+00  0.17697048590E+03  0.17697048592E+03  0.25500000920E-02 0.  1.
       -2   -1    0    0    0  501  0.00000000000E+00  0.00000000000E+00 -0.14088976312E+04  0.14088976312E+04  0.25500000920E-02 0. -1.
    10030    2    1    2    0    0  0.00000000000E+00  0.00000000000E+00 -0.12319271453E+04  0.15858681171E+04  0.99866570662E+03 0.  0.
        4    1    3    3  502    0 -0.29595615547E+03  0.75711228087E+02  0.11260016556E+02  0.30569696906E+03  0.12699999809E+01 0.  1.
       -4    1    3    3    0  502  0.29595615547E+03 -0.75711228087E+02 -0.12431871619E+04  0.12801711481E+04  0.12699999809E+01 0. -1.
</event>
<event>
 5   0  0.9674819E-04  0.9995326E+03  0.7818609E-02  0.9309058E-01
        2   -1    0    0  501    0  0.00000000000E+00  0.00000000000E+00  0.19023255699E+04  0.19023255699E+04  0.25500000920E-02 0. -1.
       -2   -1    0    0    0  501  0.00000000000E+00  0.00000000000E+00 -0.13129526928E+03  0.13129526930E+03  0.25500000920E-02 0.  1.
    10030    2    1    2    0    0  0.00000000000E+00  0.00000000000E+00  0.17710303006E+04  0.20336208392E+04  0.99953258671E+03 0.  0.
        4    1    3    3  502    0  0.24476424348E+01  0.32042470113E+03  0.16658119208E+04  0.16963516583E+04  0.12699999809E+01 0. -1.
       -4    1    3    3    0  502 -0.24476424348E+01 -0.32042470113E+03  0.10521837977E+03  0.33726918090E+03  0.12699999809E+01 0.  1.
</event>
<event>
 5   0  0.1006006E-03  0.9996046E+03  0.7818609E-02  0.9308979E-01
        2   -1    0    0  501    0  0.00000000000E+00  0.00000000000E+00  0.29025153928E+04  0.29025153928E+04  0.25500000920E-02 0.  1.
       -2   -1    0    0    0  501  0.00000000000E+00  0.00000000000E+00 -0.86064092477E+02  0.86064092515E+02  0.25500000920E-02 0. -1.
    10030    2    1    2    0    0  0.00000000000E+00  0.00000000000E+00  0.28164513003E+04  0.29885794853E+04  0.99960462832E+03 0.  0.
        2    1    3    3  502    0 -0.42882666082E+03 -0.25258879668E+03  0.15455253184E+04  0.16236815929E+04  0.25500000920E-02 0. -1.
       -2    1    3    3    0  502  0.42882666082E+03  0.25258879668E+03  0.12709259819E+04  0.13648978924E+04  0.25500000920E-02 0.  1.
</event>
<event>
 5   0  0.1006749E-03  0.1001129E+04  0.7818609E-02  0.9307308E-01
       -2   -1    0    0    0  501  0.00000000000E+00  0.00000000000E+00  0.46671056937E+03  0.46671056938E+03  0.25500000920E-02 0.  1.
        2   -1    0    0  501    0  0.00000000000E+00  0.00000000000E+00 -0.53687389005E+03  0.53687389006E+03  0.25500000920E-02 0. -1.
    10030    2    1    2    0    0  0.00000000000E+00  0.00000000000E+00 -0.70163320683E+02  0.10035844594E+04  0.10011288007E+04 0.  0.
        1    1    3    3  502    0  0.20553850812E+03  0.45196745430E+03  0.28667256665E+02  0.49733536945E+03  0.50400001928E-02 0.  1.
       -1    1    3    3    0  502 -0.20553850812E+03 -0.45196745430E+03 -0.98830577348E+02  0.50624908999E+03  0.50400001928E-02 0. -1.
</event>
<event>
 5   0  0.9674819E-04  0.9993069E+03  0.7818609E-02  0.9309305E-01
        2   -1    0    0  501    0  0.00000000000E+00  0.00000000000E+00  0.85162237684E+03  0.85162237685E+03  0.25500000920E-02 0. -1.
       -2   -1    0    0    0  501  0.00000000000E+00  0.00000000000E+00 -0.29315054186E+03  0.29315054187E+03  0.25500000920E-02 0.  1.
    10030    2    1    2    0    0  0.00000000000E+00  0.00000000000E+00  0.55847183499E+03  0.11447729187E+04  0.99930688227E+03 0.  0.
        4    1    3    3  502    0  0.31694230685E+03  0.18959431466E+03 -0.10628355574E+03  0.38431268148E+03  0.12699999809E+01 0. -1.
       -4    1    3    3    0  502 -0.31694230685E+03 -0.18959431466E+03  0.66475539072E+03  0.76046023724E+03  0.12699999809E+01 0.  1.
</event>
<event>
 5   0  0.9741826E-04  0.1001211E+04  0.7818609E-02  0.9307218E-01
        2   -1    0    0  501    0  0.00000000000E+00  0.00000000000E+00  0.71196908179E+03  0.71196908179E+03  0.25500000920E-02 0. -1.
       -2   -1    0    0    0  501  0.00000000000E+00  0.00000000000E+00 -0.35198962651E+03  0.35198962652E+03  0.25500000920E-02 0.  1.
    10030    2    1    2    0    0  0.00000000000E+00  0.00000000000E+00  0.35997945528E+03  0.10639587083E+04  0.10012107295E+04 0.  0.
        3    1    3    3  502    0 -0.30694030679E+03 -0.16418132829E+00  0.60024039207E+03  0.67416683200E+03  0.10100000352E+00 0.  1.
       -3    1    3    3    0  502  0.30694030679E+03  0.16418132829E+00 -0.24026093679E+03  0.38979187631E+03  0.10100000352E+00 0. -1.
</event>
<event>
 5   0  0.5826939E-04  0.1000742E+04  0.7818609E-02  0.9307732E-01
       -1   -1    0    0    0  501  0.00000000000E+00  0.00000000000E+00  0.50446320536E+03  0.50446320538E+03  0.50400001928E-02 0. -1.
        1   -1    0    0  501    0  0.00000000000E+00  0.00000000000E+00 -0.49631150549E+03  0.49631150551E+03  0.50400001928E-02 0.  1.
    10030    2    1    2    0    0  0.00000000000E+00  0.00000000000E+00  0.81516998726E+01  0.10007747109E+04  0.10007415110E+04 0.  0.
        1    1    3    3  502    0  0.35843473196E+03 -0.34086923524E+03  0.79600539619E+02  0.50100253347E+03  0.50400001928E-02 0. -1.
       -1    1    3    3    0  502 -0.35843473196E+03  0.34086923524E+03 -0.71448839747E+02  0.49977217743E+03  0.50400001928E-02 0.  1.
</event>
<event>
 5   0  0.5758786E-04  0.1001091E+04  0.7818609E-02  0.9307350E-01
        1   -1    0    0  501    0  0.00000000000E+00  0.00000000000E+00  0.94385639785E+03  0.94385639787E+03  0.50400001928E-02 0.  1.
       -1   -1    0    0    0  501  0.00000000000E+00  0.00000000000E+00 -0.26544881784E+03  0.26544881788E+03  0.50400001928E-02 0. -1.
    10030    2    1    2    0    0  0.00000000000E+00  0.00000000000E+00  0.67840758002E+03  0.12093052158E+04  0.10010905355E+04 0.  0.
        3    1    3    3  502    0 -0.39066079899E+03  0.13021039201E+03  0.68294999450E+03  0.79749063395E+03  0.10100000352E+00 0.  1.
       -3    1    3    3    0  502  0.39066079899E+03 -0.13021039201E+03 -0.45424144847E+01  0.41181458180E+03  0.10100000352E+00 0. -1.
</event>
<event>
 5   0  0.5768102E-04  0.1013148E+04  0.7818609E-02  0.9294241E-01
       -1   -1    0    0    0  501  0.00000000000E+00  0.00000000000E+00  0.28968024816E+03  0.28968024821E+03  0.50400001928E-02 0.  1.
        1   -1    0    0  501    0  0.00000000000E+00  0.00000000000E+00 -0.88586383402E+03  0.88586383403E+03  0.50400001928E-02 0. -1.
    10030    2    1    2    0    0  0.00000000000E+00  0.00000000000E+00 -0.59618358585E+03  0.11755440822E+04  0.10131480747E+04 0.  0.
        4    1    3    3  502    0 -0.35697736520E+03  0.19382075095E+03 -0.64929010254E+03  0.76588417722E+03  0.12699999809E+01 0. -1.
       -4    1    3    3    0  502  0.35697736520E+03 -0.19382075095E+03  0.53106516686E+02  0.40965990502E+03  0.12699999809E+01 0.  1.
</event>
<event>
 5   0  0.5826939E-04  0.9979038E+03  0.7818609E-02  0.9310847E-01
        1   -1    0    0  501    0  0.00000000000E+00  0.00000000000E+00  0.25695296664E+03  0.25695296669E+03  0.50400001928E-02 0.  1.
       -1   -1    0    0    0  501  0.00000000000E+00  0.00000000000E+00 -0.96886597767E+03  0.96886597769E+03  0.50400001928E-02 0. -1.
    10030    2    1    2    0    0  0.00000000000E+00  0.00000000000E+00 -0.71191301104E+03  0.12258189444E+04  0.99790377748E+03 0.  0.
        1    1    3    3  502    0 -0.32031688502E+03 -0.15631365315E+03  0.72955529677E+02  0.36381227896E+03  0.50400001928E-02 0.  1.
       -1    1    3    3    0  502  0.32031688502E+03  0.15631365315E+03 -0.78486854071E+03  0.86200666541E+03  0.50400001928E-02 0. -1.
</event>
<event>
 5   0  0.1006749E-03  0.9928905E+03  0.7818609E-02  0.9316377E-01
        2   -1    0    0  501    0  0.00000000000E+00  0.00000000000E+00  0.69169526017E+03  0.69169526018E+03  0.25500000920E-02 0. -1.
       -2   -1    0    0    0  501  0.00000000000E+00  0.00000000000E+00 -0.35630994909E+03  0.35630994910E+03  0.25500000920E-02 0.  1.
    10030    2    1    2    0    0  0.00000000000E+00  0.00000000000E+00  0.33538531108E+03  0.10480052093E+04  0.99289053363E+03 0.  0.
        1    1    3    3  502    0 -0.17012940417E+03  0.36620455158E+03  0.47252863493E+03  0.62155699547E+03  0.50400001928E-02 0. -1.
       -1    1    3    3    0  502  0.17012940417E+03 -0.36620455158E+03 -0.13714332384E+03  0.42644821381E+03  0.50400001928E-02 0.  1.
</event>
<event>
 5   0  0.9674819E-04  0.9989076E+03  0.7818609E-02  0.9309744E-01
        2   -1    0    0  501    0  0.00000000000E+00  0.00000000000E+00  0.14489360445E+04  0.14489360445E+04  0.25500000920E-02 0. -1.
       -2   -1    0    0    0  501  0.00000000000E+00  0.00000000000E+00 -0.17216363348E+03  0.17216363350E+03  0.25500000920E-02 0.  1.
    10030    2    1    2    0    0  0.00000000000E+00  0.00000000000E+00  0.12767724110E+04  0.16210996780E+04  0.99890759155E+03 0.  0.
        4    1    3    3  502    0  0.94043109135E+02  0.34531500246E+03  0.12037562432E+04  0.12558332944E+04  0.12699999809E+01 0. -1.
       -4    1    3    3    0  502 -0.94043109135E+02 -0.34531500246E+03  0.73016167729E+02  0.36526638355E+03  0.12699999809E+01 0.  1.
</event>
<event>
 5   0  0.1006006E-03  0.1004066E+04  0.7818609E-02  0.9304097E-01
       -2   -1    0    0    0  501  0.00000000000E+00  0.00000000000E+00  0.54607215028E+03  0.54607215029E+03  0.25500000920E-02 0. -1.
        2   -1    0    0  501    0  0.00000000000E+00  0.00000000000E+00 -0.46154537360E+03  0.46154537360E+03  0.25500000920E-02 0.  1.
    10030    2    1    2    0    0  0.00000000000E+00  0.00000000000E+00  0.84526776685E+02  0.10076175239E+04  0.10040658835E+04 0.  0.
        2    1    3    3  502    0  0.60563360022E+02 -0.43384970198E+03 -0.20384599685E+03  0.48316319699E+03  0.25500000920E-02 0.  1.
       -2    1    3    3    0  502 -0.60563360022E+02  0.43384970198E+03  0.28837277354E+03  0.52445432690E+03  0.25500000920E-02 0. -1.
</event>
<event>
 5   0  0.5960102E-04  0.1002030E+04  0.7818609E-02  0.9306321E-01
        1   -1    0    0  501    0  0.00000000000E+00  0.00000000000E+00  0.11947741066E+04  0.11947741066E+04  0.50400001928E-02 0. -1.
       -1   -1    0    0    0  501  0.00000000000E+00  0.00000000000E+00 -0.21009514481E+03  0.21009514487E+03  0.50400001928E-02 0.  1.
    10030    2    1    2    0    0  0.00000000000E+00  0.00000000000E+00  0.98467896183E+03  0.14048692515E+04  0.10020304167E+04 0.  0.
        5    1    3    3  502    0 -0.46446439523E+03 -0.16504005504E+03  0.36671360595E+03  0.61438290421E+03  0.46999998093E+01 0. -1.
       -5    1    3    3    0  502  0.46446439523E+03  0.16504005504E+03  0.61796535588E+03  0.79048634730E+03  0.46999998093E+01 0.  1.
</event>
<event>
 5   0  0.5758786E-04  0.9993592E+03  0.7818609E-02  0.9309248E-01
        1   -1    0    0  501    0  0.00000000000E+00  0.00000000000E+00  0.10467390427E+04  0.10467390427E+04  0.50400001928E-02 0. -1.
       -1   -1    0    0    0  501  0.00000000000E+00  0.00000000000E+00 -0.23853096877E+03  0.23853096882E+03  0.50400001928E-02 0.  1.
    10030    2    1    2    0    0  0.00000000000E+00  0.00000000000E+00  0.80820807393E+03  0.12852700115E+04  0.99935915055E+03 0.  0.
        3    1    3    3  502    0  0.29087035144E+03  0.65525713237E+02  0.91979491750E+03  0.96691358502E+03  0.10100000352E+00 0. -1.
       -3    1    3    3    0  502 -0.29087035144E+03 -0.65525713237E+02 -0.11158684357E+03  0.31835642651E+03  0.10100000352E+00 0.  1.
</event>
<event>
 5   0  0.1006749E-03  0.9957469E+03  0.7818609E-02  0.9313222E-01
        2   -1    0    0  501    0  0.00000000000E+00  0.00000000000E+00  0.45340090931E+03  0.45340090932E+03  0.25500000920E-02 0. -1.
       -2   -1    0    0    0  501  0.00000000000E+00  0.00000000000E+00 -0.54670818892E+03  0.54670818893E+03  0.25500000920E-02 0.  1.
    10030    2    1    2    0    0  0.00000000000E+00  0.00000000000E+00 -0.93307279609E+02  0.10001090983E+04  0.99574693571E+03 0.  0.
        1    1    3    3  502    0  0.10549333925E+03 -0.47924348606E+03 -0.13113410442E+03  0.50793633157E+03  0.50400001928E-02 0. -1.
       -1    1    3    3    0  502 -0.10549333925E+03  0.47924348606E+03  0.37826824812E+02  0.49217276668E+03  0.50400001928E-02 0.  1.
</event>
<event>
 5   0  0.5768102E-04  0.1001176E+04  0.7818609E-02  0.9307256E-01
        1   -1    0    0  501    0  0.00000000000E+00  0.00000000000E+00  0.18753290095E+04  0.18753290095E+04  0.50400001928E-02 0.  1.
       -1   -1    0    0    0  501  0.00000000000E+00  0.00000000000E+00 -0.13362362203E+03  0.13362362213E+03  0.50400001928E-02 0. -1.
    10030    2    1    2    0    0  0.00000000000E+00  0.00000000000E+00  0.17417053875E+04  0.20089526317E+04  0.10011758184E+04 0.  0.
        4    1    3    3  502    0 -0.83763497327E+02 -0.18722665937E+03  0.17871355374E+04  0.17988677515E+04  0.12699999809E+01 0.  1.
       -4    1    3    3    0  502  0.83763497327E+02  0.18722665937E+03 -0.45430149882E+02  0.21008488018E+03  0.12699999809E+01 0. -1.
</event>
<event>
 5   0  0.5758786E-04  0.9998319E+03  0.7818609E-02  0.9308729E-01
        1   -1    0    0  501    0  0.00000000000E+00  0.00000000000E+00  0.12597320554E+04  0.12597320554E+04  0.50400001928E-02 0.  1.
       -1   -1    0    0    0  501  0.00000000000E+00  0.00000000000E+00 -0.19838820318E+03  0.19838820324E+03  0.50400001928E-02 0. -1.
    10030    2    1    2    0    0  0.00000000000E+00  0.00000000000E+00  0.10613438522E+04  0.14581202586E+04  0.99983194389E+03 0.  0.
        3    1    3    3  502    0  0.19695225631E+03  0.32039541715E+03  0.10109870583E+04  0.10786743053E+04  0.10100000352E+00 0.  1.
       -3    1    3    3    0  502 -0.19695225631E+03 -0.32039541715E+03  0.50356793842E+02  0.37944595331E+03  0.10100000352E+00 0. -1.
</event>
<event>
 5   0  0.5826939E-04  0.9995828E+03  0.7818609E-02  0.9309002E-01
       -1   -1    0    0    0  501  0.00000000000E+00  0.00000000000E+00  0.45861432853E+03  0.45861432856E+03  0.50400001928E-02 0. -1.
        1   -1    0    0  501    0  0.00000000000E+00  0.00000000000E+00 -0.54466559954E+03  0.54466559956E+03  0.50400001928E-02 0.  1.
    10030    2    1    2    0    0  0.00000000000E+00  0.00000000000E+00 -0.86051271006E+02  0.10032799281E+04  0.99958280944E+03 0.  0.
        1    1    3    3  502    0  0.54639323198E+02  0.11195383691E+03  0.44278144971E+03  0.45997231381E+03  0.50400001928E-02 0. -1.
       -1    1    3    3    0  502 -0.54639323198E+02 -0.11195383691E+03 -0.52883272072E+03  0.54330761431E+03  0.50400001928E-02 0.  1.
</event>
<event>
 5   0  0.3854625E-04  0.9998385E+03  0.7818609E-02  0.9308722E-01
        3   -1    0    0  501    0  0.00000000000E+00  0.00000000000E+00  0.15139983324E+03  0.15139986693E+03  0.10100000352E+00 0. -1.
       -3   -1    0    0    0  501  0.00000000000E+00  0.00000000000E+00 -0.16507232857E+04  0.16507232888E+04  0.10100000352E+00 0.  1.
    10030    2    1    2    0    0  0.00000000000E+00  0.00000000000E+00 -0.14993234525E+04  0.18021231557E+04  0.99983851360E+03 0.  0.
        5    1    3    3  502    0 -0.86473354387E+02  0.30808714256E+03 -0.57427080617E+02  0.32513887497E+03  0.46999998093E+01 0. -1.
       -5    1    3    3    0  502  0.86473354387E+02 -0.30808714256E+03 -0.14418963719E+04  0.14769842808E+04  0.46999998093E+01 0.  1.
</event>
<event>
 5   0  0.5960102E-04  0.9993757E+03  0.7818609E-02  0.9309230E-01
       -1   -1    0    0    0  501  0.00000000000E+00  0.00000000000E+00  0.37047230338E+03  0.37047230342E+03  0.50400001928E-02 0.  1.
        1   -1    0    0  501    0  0.00000000000E+00  0.00000000000E+00 -0.67397193081E+03  0.67397193083E+03  0.50400001928E-02 0. -1.
    10030    2    1    2    0    0  0.00000000000E+00  0.00000000000E+00 -0.30349962743E+03  0.10444442342E+04  0.99937567241E+03 0.  0.
        5    1    3    3  502    0  0.16599217644E+03  0.38874715577E+03  0.12670147278E+03  0.44130840346E+03  0.46999998093E+01 0.  1.
       -5    1    3    3    0  502 -0.16599217644E+03 -0.38874715577E+03 -0.43020110021E+03  0.60313583079E+03  0.46999998093E+01 0. -1.
</event>
<event>
 5   0  0.5758786E-04  0.9995155E+03  0.7818609E-02  0.9309076E-01
        1   -1    0    0  501    0  0.00000000000E+00  0.00000000000E+00  0.52393892092E+03  0.52393892095E+03  0.50400001928E-02 0.  1.
       -1   -1    0    0    0  501  0.00000000000E+00  0.00000000000E+00 -0.47669259413E+03  0.47669259415E+03  0.50400001928E-02 0. -1.
    10030    2    1    2    0    0  0.00000000000E+00  0.00000000000E+00  0.47246326795E+02  0.10006315151E+04  0.99951548943E+03 0.  0.
        3    1    3    3  502    0 -0.12920881700E+03  0.53455709893E+02 -0.45670977130E+03  0.47763611329E+03  0.10100000352E+00 0. -1.
       -3    1    3    3    0  502  0.12920881700E+03 -0.53455709893E+02  0.50395609810E+03  0.52299540182E+03  0.10100000352E+00 0.  1.
</event>
<event>
 5   0  0.9674819E-04  0.1001985E+04  0.7818609E-02  0.9306371E-01
       -2   -1    0    0    0  501  0.00000000000E+00  0.00000000000E+00  0.39499047704E+03  0.39499047705E+03  0.25500000920E-02 0.  1.
        2   -1    0    0  501    0  0.00000000000E+00  0.00000000000E+00 -0.63544135420E+03  0.63544135420E+03  0.25500000920E-02 0. -1.
    10030    2    1    2    0    0  0.00000000000E+00  0.00000000000E+00 -0.24045087715E+03  0.10304318312E+04  0.10019845979E+04 0.  0.
        4    1    3    3  502    0  0.27093085621E+03  0.22455844627E+03  0.24649599262E+03  0.42964160869E+03  0.12699999809E+01 0.  1.
       -4    1    3    3    0  502 -0.27093085621E+03 -0.22455844627E+03 -0.48694686978E+03  0.60079022256E+03  0.12699999809E+01 0. -1.
</event>
<event>
 5   0  0.1006749E-03  0.9996206E+03  0.7818609E-02  0.9308961E-01
        2   -1    0    0  501    0  0.00000000000E+00  0.00000000000E+00  0.25097775613E+03  0.25097775614E+03  0.25500000920E-02 0. -1.
       -2   -1    0    0    0  501  0.00000000000E+00  0.00000000000E+00 -0.99534845943E+03  0.99534845944E+03  0.25500000920E-02 0.  1.
    10030    2    1    2    0    0  0.00000000000E+00  0.00000000000E+00 -0.74437070330E+03  0.12463262156E+04  0.99962057387E+03 0.  0.
        1    1    3    3  502    0  0.76728722170E+02 -0.39958945078E+02  0.24157217024E+03  0.25659526020E+03  0.50400001928E-02 0. -1.
       -1    1    3    3    0  502 -0.76728722170E+02  0.39958945078E+02 -0.98594287355E+03  0.98973095537E+03  0.50400001928E-02 0.  1.
</event>
<event>
 5   0  0.5768102E-04  0.9991604E+03  0.7818609E-02  0.9309466E-01
        1   -1    0    0  501    0  0.00000000000E+00  0.00000000000E+00  0.17976558935E+04  0.17976558935E+04  0.50400001928E-02 0.  1.
       -1   -1    0    0    0  501  0.00000000000E+00  0.00000000000E+00 -0.13883655574E+03  0.13883655583E+03  0.50400001928E-02 0. -1.
    10030    2    1    2    0    0  0.00000000000E+00  0.00000000000E+00  0.16588193378E+04  0.19364924494E+04  0.99916035301E+03 0.  0.
        4    1    3    3  502    0 -0.48804216506E+03 -0.27277978061E+02  0.62940268497E+03  0.79691818634E+03  0.12699999809E+01 0. -1.
       -4    1    3    3    0  502  0.48804216506E+03  0.27277978061E+02  0.10294166528E+04  0.11395742630E+04  0.12699999809E+01 0.  1.
</event>
<event>
 5   0  0.1020150E-03  0.1003548E+04  0.7818609E-02  0.9304662E-01
        2   -1    0    0  501    0  0.00000000000E+00  0.00000000000E+00  0.57337937670E+03  0.57337937671E+03  0.25500000920E-02 0. -1.
       -2   -1    0    0    0  501  0.00000000000E+00  0.00000000000E+00 -0.43911096625E+03  0.43911096626E+03  0.25500000920E-02 0.  1.
    10030    2    1    2    0    0  0.00000000000E+00  0.00000000000E+00  0.13426841046E+03  0.10124903430E+04  0.10035480499E+04 0.  0.
        5    1    3    3  502    0  0.49967794196E+03  0.43310839074E+02  0.52823040235E+02  0.50434733869E+03  0.46999998093E+01 0. -1.
       -5    1    3    3    0  502 -0.49967794196E+03 -0.43310839074E+02  0.81445370220E+02  0.50814300428E+03  0.46999998093E+01 0.  1.
</event>
<event>
 5   0  0.5768102E-04  0.9999678E+03  0.7818609E-02  0.9308580E-01
        1   -1    0    0  501    0  0.00000000000E+00  0.00000000000E+00  0.28623421047E+03  0.28623421052E+03  0.50400001928E-02 0. -1.
       -1   -1    0    0    0  501  0.00000000000E+00  0.00000000000E+00 -0.87335440833E+03  0.87335440835E+03  0.50400001928E-02 0.  1.
    10030    2    1    2    0    0  0.00000000000E+00  0.00000000000E+00 -0.58712019786E+03  0.11595886189E+04  0.99996781862E+03 0.  0.
        4    1    3    3  502    0  0.15252901729E+03 -0.42802615736E+03 -0.51670900373E+02  0.45732153607E+03  0.12699999809E+01 0. -1.
       -4    1    3    3    0  502 -0.15252901729E+03  0.42802615736E+03 -0.53544929749E+03  0.70226708280E+03  0.12699999809E+01 0.  1.
</event>
<event>
 5   0  0.5826939E-04  0.9935897E+03  0.7818609E-02  0.9315604E-01
       -1   -1    0    0    0  501  0.00000000000E+00  0.00000000000E+00  0.25354337237E+03  0.25354337242E+03  0.50400001928E-02 0. -1.
        1   -1    0    0  501    0  0.00000000000E+00  0.00000000000E+00 -0.97342363149E+03  0.97342363150E+03  0.50400001928E-02 0.  1.
    10030    2    1    2    0    0  0.00000000000E+00  0.00000000000E+00 -0.71988025912E+03  0.12269670039E+04  0.99358967449E+03 0.  0.
        1    1    3    3  502    0  0.14934495220E+03 -0.10841454332E+03  0.20964419510E+03  0.27929968943E+03  0.50400001928E-02 0. -1.
       -1    1    3    3    0  502 -0.14934495220E+03  0.10841454332E+03 -0.92952445422E+03  0.94766731450E+03  0.50400001928E-02 0.  1.
</event>
<event>
 5   0  0.5826939E-04  0.9956499E+03  0.7818609E-02  0.9313329E-01
       -1   -1    0    0    0  501  0.00000000000E+00  0.00000000000E+00  0.37213863178E+03  0.37213863181E+03  0.50400001928E-02 0. -1.
        1   -1    0    0  501    0  0.00000000000E+00  0.00000000000E+00 -0.66596059886E+03  0.66596059888E+03  0.50400001928E-02 0.  1.
    10030    2    1    2    0    0  0.00000000000E+00  0.00000000000E+00 -0.29382196709E+03  0.10380992307E+04  0.99564987039E+03 0.  0.
        1    1    3    3  502    0 -0.42863580937E+03  0.15485118069E+03 -0.35575602504E+03  0.57816078612E+03  0.50400001928E-02 0.  1.
       -1    1    3    3    0  502  0.42863580937E+03 -0.15485118069E+03  0.61934057955E+02  0.45993844457E+03  0.50400001928E-02 0. -1.
</event>
<event>
 5   0  0.5758786E-04  0.9989427E+03  0.7818609E-02  0.9309705E-01
        1   -1    0    0  501    0  0.00000000000E+00  0.00000000000E+00  0.62429174248E+03  0.62429174250E+03  0.50400001928E-02 0.  1.
       -1   -1    0    0    0  501  0.00000000000E+00  0.00000000000E+00 -0.39960746375E+03  0.39960746378E+03  0.50400001928E-02 0. -1.
    10030    2    1    2    0    0  0.00000000000E+00  0.00000000000E+00  0.22468427873E+03  0.10238992063E+04  0.99894272084E+03 0.  0.
        3    1    3    3  502    0  0.33252739850E+03 -0.22887404051E+03 -0.18913847766E+03  0.44579274456E+03  0.10100000352E+00 0. -1.
       -3    1    3    3    0  502 -0.33252739850E+03  0.22887404051E+03  0.41382275639E+03  0.57810646172E+03  0.10100000352E+00 0.  1.
</event>
<event>
 5   0  0.1020150E-03  0.9928803E+03  0.7818609E-02  0.9316388E-01
        2   -1    0    0  501    0  0.00000000000E+00  0.00000000000E+00  0.53850169723E+03  0.53850169724E+03  0.25500000920E-02 0.  1.
       -2   -1    0    0    0  501  0.00000000000E+00  0.00000000000E+00 -0.45766400930E+03  0.45766400931E+03  0.25500000920E-02 0. -1.
    10030    2    1    2    0    0  0.00000000000E+00  0.00000000000E+00  0.80837687929E+02  0.99616570655E+03  0.99288034683E+03 0.  0.
        5    1    3    3  502    0 -0.13523385706E+03 -0.18244644960E+03 -0.40246659301E+03  0.46214321541E+03  0.46999998093E+01 0. -1.
       -5    1    3    3    0  502  0.13523385706E+03  0.18244644960E+03  0.48330428094E+03  0.53402249114E+03  0.46999998093E+01 0.  1.
</event>
<event>
 5   0  0.1006749E-03  0.9972840E+03  0.7818609E-02  0.9311529E-01
       -2   -1    0    0    0  501  0.00000000000E+00  0.00000000000E+00  0.43286589835E+03  0.43286589836E+03  0.25500000920E-02 0. -1.
        2   -1    0    0  501    0  0.00000000000E+00  0.00000000000E+00 -0.57441308990E+03  0.57441308990E+03  0.25500000920E-02 0.  1.
    10030    2    1    2    0    0  0.00000000000E+00  0.00000000000E+00 -0.14154719155E+03  0.10072789883E+04  0.99728398802E+03 0.  0.
        1    1    3    3  502    0  0.25119442138E+03  0.12125031374E+03  0.34670117759E+03  0.44497413687E+03  0.50400001928E-02 0. -1.
       -1    1    3    3    0  502 -0.25119442138E+03 -0.12125031374E+03 -0.48824836913E+03  0.56230485140E+03  0.50400001928E-02 0.  1.
</event>
<event>
 5   0  0.5768102E-04  0.9974126E+03  0.7818609E-02  0.9311387E-01
       -1   -1    0    0    0  501  0.00000000000E+00  0.00000000000E+00  0.25798757506E+03  0.25798757511E+03  0.50400001928E-02 0. -1.
        1   -1    0    0  501    0  0.00000000000E+00  0.00000000000E+00 -0.96403085046E+03  0.96403085047E+03  0.50400001928E-02 0.  1.
    10030    2    1    2    0    0  0.00000000000E+00  0.00000000000E+00 -0.70604327540E+03  0.12220184256E+04  0.99741261558E+03 0.  0.
        4    1    3    3  502    0  0.38403358908E+01  0.48143222194E+03 -0.19367818413E+03  0.51894564688E+03  0.12699999809E+01 0.  1.
       -4    1    3    3    0  502 -0.38403358908E+01 -0.48143222194E+03 -0.51236509127E+03  0.70307277870E+03  0.12699999809E+01 0. -1.
</event>
<event>
 5   0  0.5758786E-04  0.1001278E+04  0.7818609E-02  0.9307145E-01
       -1   -1    0    0    0  501  0.00000000000E+00  0.00000000000E+00  0.22318453918E+03  0.22318453924E+03  0.50400001928E-02 0. -1.
        1   -1    0    0  501    0  0.00000000000E+00  0.00000000000E+00 -0.11230135136E+04  0.11230135136E+04  0.50400001928E-02 0.  1.
    10030    2    1    2    0    0  0.00000000000E+00  0.00000000000E+00 -0.89982897438E+03  0.13461980528E+04  0.10012776909E+04 0.  0.
        3    1    3    3  502    0 -0.54616517773E+02  0.24563788858E+03 -0.10318093595E+04  0.10620506112E+04  0.10100000352E+00 0.  1.
       -3    1    3    3    0  502  0.54616517773E+02 -0.24563788858E+03  0.13198038508E+03  0.28414744160E+03  0.10100000352E+00 0. -1.
</event>
<event>
 5   0  0.1020150E-03  0.1000200E+04  0.7818609E-02  0.9308325E-01
        2   -1    0    0  501    0  0.00000000000E+00  0.00000000000E+00  0.32054974603E+03  0.32054974604E+03  0.25500000920E-02 0. -1.
       -2   -1    0    0    0  501  0.00000000000E+00  0.00000000000E+00 -0.78022263538E+03  0.78022263539E+03  0.25500000920E-02 0.  1.
    10030    2    1    2    0    0  0.00000000000E+00  0.00000000000E+00 -0.45967288935E+03  0.11007723814E+04  0.10002003152E+04 0.  0.
        5    1    3    3  502    0 -0.59429735119E+02  0.13109933354E+03 -0.75690677735E+03  0.77048613762E+03  0.46999998093E+01 0.  1.
       -5    1    3    3    0  502  0.59429735119E+02 -0.13109933354E+03  0.29723388800E+03  0.33028624380E+03  0.46999998093E+01 0. -1.
</event>
<event>
 5   0  0.5758786E-04  0.9974673E+03  0.7818609E-02  0.9311327E-01
       -1   -1    0    0    0  501  0.00000000000E+00  0.00000000000E+00  0.45469159570E+03  0.45469159573E+03  0.50400001928E-02 0.  1.
        1   -1    0    0  501    0  0.00000000000E+00  0.00000000000E+00 -0.54704165024E+03  0.54704165026E+03  0.50400001928E-02 0. -1.
    10030    2    1    2    0    0  0.00000000000E+00  0.00000000000E+00 -0.92350054536E+02  0.10017332460E+04  0.99746727442E+03 0.  0.
        3    1    3    3  502    0 -0.12267331704E+03  0.17995578444E+03 -0.49676125355E+03  0.54240628711E+03  0.10100000352E+00 0. -1.
       -3    1    3    3    0  502  0.12267331704E+03 -0.17995578444E+03  0.40441119901E+03  0.45932695888E+03  0.10100000352E+00 0.  1.
</event>
<event>
 5   0  0.5826939E-04  0.1000477E+04  0.7818609E-02  0.9308021E-01
        1   -1    0    0  501    0  0.00000000000E+00  0.00000000000E+00  0.14360229855E+04  0.14360229855E+04  0.50400001928E-02 0. -1.
       -1   -1    0    0    0  501  0.00000000000E+00  0.00000000000E+00 -0.17425816223E+03  0.17425816230E+03  0.50400001928E-02 0.  1.
    10030    2    1    2    0    0  0.00000000000E+00  0.00000000000E+00  0.12617648232E+04  0.16102811478E+04  0.10004773389E+04 0.  0.
        1    1    3    3  502    0 -0.88269851107E+02 -0.40863099432E+03  0.18872643533E+03  0.45868128755E+03  0.50400001928E-02 0.  1.
       -1    1    3    3    0  502  0.88269851107E+02  0.40863099432E+03  0.10730383879E+04  0.11515998602E+04  0.50400001928E-02 0. -1.
</event>
<event>
 5   0  0.9674819E-04  0.1002467E+04  0.7818609E-02  0.9305844E-01
       -2   -1    0    0    0  501  0.00000000000E+00  0.00000000000E+00  0.43704670946E+03  0.43704670946E+03  0.25500000920E-02 0. -1.
        2   -1    0    0  501    0  0.00000000000E+00  0.00000000000E+00 -0.57484651946E+03  0.57484651946E+03  0.25500000920E-02 0.  1.
    10030    2    1    2    0    0  0.00000000000E+00  0.00000000000E+00 -0.13779981000E+03  0.10118932289E+04  0.10024665177E+04 0.  0.
        4    1    3    3  502    0  0.14709727180E+03  0.12960873405E+03 -0.53453714092E+03  0.56935718072E+03  0.12699999809E+01 0.  1.
       -4    1    3    3    0  502 -0.14709727180E+03 -0.12960873405E+03  0.39673733092E+03  0.44253604821E+03  0.12699999809E+01 0. -1.
</event>
<event>
 5   0  0.1006006E-03  0.1000913E+04  0.7818609E-02  0.9307544E-01
        2   -1    0    0  501    0  0.00000000000E+00  0.00000000000E+00  0.27738229754E+03  0.27738229755E+03  0.25500000920E-02 0.  1.
       -2   -1    0    0    0  501  0.00000000000E+00  0.00000000000E+00 -0.90293046740E+03  0.90293046741E+03  0.25500000920E-02 0. -1.
    10030    2    1    2    0    0  0.00000000000E+00  0.00000000000E+00 -0.62554816986E+03  0.11803127650E+04  0.10009134380E+04 0.  0.
        2    1    3    3  502    0  0.44809109815E+03  0.14730215901E+03 -0.11554408560E+03  0.48562742305E+03  0.25500000920E-02 0.  1.
       -2    1    3    3    0  502 -0.44809109815E+03 -0.14730215901E+03 -0.51000408426E+03  0.69468534191E+03  0.25500000920E-02 0. -1.
</event>
<event>
 5   0  0.5888774E-04  0.9969475E+03  0.7818609E-02  0.9311899E-01
        1   -1    0    0  501    0  0.00000000000E+00  0.00000000000E+00  0.95835732426E+03  0.95835732428E+03  0.50400001928E-02 0.  1.
       -1   -1    0    0    0  501  0.00000000000E+00  0.00000000000E+00 -0.25927290838E+03  0.25927290843E+03  0.50400001928E-02 0. -1.
    10030    2    1    2    0    0  0.00000000000E+00  0.00000000000E+00  0.69908441588E+03  0.12176302327E+04  0.99694752273E+03 0.  0.
        2    1    3    3  502    0 -0.28424330247E+03 -0.36757956220E+03  0.56995290910E+03  0.73536066535E+03  0.25500000920E-02 0.  1.
       -2    1    3    3    0  502  0.28424330247E+03  0.36757956220E+03  0.12913150679E+03  0.48226956736E+03  0.25500000920E-02 0. -1.
</event>
<event>
 5   0  0.1006006E-03  0.9934794E+03  0.7818609E-02  0.9315726E-01
       -2   -1    0    0    0  501  0.00000000000E+00  0.00000000000E+00  0.11592794131E+03  0.11592794134E+03  0.25500000920E-02 0. -1.
        2   -1    0    0  501    0  0.00000000000E+00  0.00000000000E+00 -0.21284800828E+04  0.21284800828E+04  0.25500000920E-02 0.  1.
    10030    2    1    2    0    0  0.00000000000E+00  0.00000000000E+00 -0.20125521415E+04  0.22444080242E+04  0.99347936900E+03 0.  0.
        2    1    3    3  502    0 -0.21184665901E+02  0.27117737573E+03 -0.19452856689E+04  0.19642103484E+04  0.25500000920E-02 0.  1.
       -2    1    3    3    0  502  0.21184665901E+02 -0.27117737573E+03 -0.67266472668E+02  0.28019767581E+03  0.25500000920E-02 0. -1.
</event>
<event>
 5   0  0.5888774E-04  0.1000689E+04  0.7818609E-02  0.9307790E-01
        1   -1    0    0  501    0  0.00000000000E+00  0.00000000000E+00  0.37752465203E+03  0.37752465206E+03  0.50400001928E-02 0. -1.
       -1   -1    0    0    0  501  0.00000000000E+00  0.00000000000E+00 -0.66312112721E+03  0.66312112723E+03  0.50400001928E-02 0.  1.
    10030    2    1    2    0    0  0.00000000000E+00  0.00000000000E+00 -0.28559647518E+03  0.10406457793E+04  0.10006889084E+04 0.  0.
        2    1    3    3  502    0  0.41383894377E+03  0.13646245965E+03 -0.39850225309E+03  0.59049870448E+03  0.25500000920E-02 0.  1.
       -2    1    3    3    0  502 -0.41383894377E+03 -0.13646245965E+03  0.11290577790E+03  0.45014707481E+03  0.25500000920E-02 0. -1.
</event>
<event>
 5   0  0.3854625E-04  0.9994283E+03  0.7818609E-02  0.9309172E-01
       -3   -1    0    0    0  501  0.00000000000E+00  0.00000000000E+00  0.55661807452E+03  0.55661808368E+03  0.10100000352E+00 0. -1.
        3   -1    0    0  501    0  0.00000000000E+00  0.00000000000E+00 -0.44862755476E+03  0.44862756613E+03  0.10100000352E+00 0.  1.
    10030    2    1    2    0    0  0.00000000000E+00  0.00000000000E+00  0.10799051976E+03  0.10052456498E+04  0.99942826861E+03 0.  0.
        4    1    3    3  502    0 -0.12072583559E+03  0.45154978953E+03  0.23177435708E+03  0.52172109916E+03  0.12699999809E+01 0. -1.
       -4    1    3    3    0  502  0.12072583559E+03 -0.45154978953E+03 -0.12378383733E+03  0.48352455065E+03  0.12699999809E+01 0.  1.
</event>
<event>
 5   0  0.5826939E-04  0.9998101E+03  0.7818609E-02  0.9308753E-01
        1   -1    0    0  501    0  0.00000000000E+00  0.00000000000E+00  0.36960005254E+03  0.36960005257E+03  0.50400001928E-02 0.  1.
       -1   -1    0    0    0  501  0.00000000000E+00  0.00000000000E+00 -0.67614995656E+03  0.67614995658E+03  0.50400001928E-02 0. -1.
    10030    2    1    2    0    0  0.00000000000E+00  0.00000000000E+00 -0.30654990403E+03  0.10457500092E+04  0.99981010096E+03 0.  0.
        1    1    3    3  502    0  0.14432018524E+03 -0.37306904064E+03  0.16032869702E+03  0.43094560685E+03  0.50400001928E-02 0.  1.
       -1    1    3    3    0  502 -0.14432018524E+03  0.37306904064E+03 -0.46687860105E+03  0.61480440230E+03  0.50400001928E-02 0. -1.
</event>
<event>
 5   0  0.1006006E-03  0.1000491E+04  0.7818609E-02  0.9308006E-01
        2   -1    0    0  501    0  0.00000000000E+00  0.00000000000E+00  0.68264982112E+03  0.68264982113E+03  0.25500000920E-02 0. -1.
       -2   -1    0    0    0  501  0.00000000000E+00  0.00000000000E+00 -0.36657986599E+03  0.36657986599E+03  0.25500000920E-02 0.  1.
    10030    2    1    2    0    0  0.00000000000E+00  0.00000000000E+00  0.31606995514E+03  0.10492296871E+04  0.10004912392E+04 0.  0.
        2    1    3    3  502    0  0.28685682735E+03 -0.38543368727E+03  0.30410292799E+03  0.56861635353E+03  0.25500000920E-02 0.  1.
       -2    1    3    3    0  502 -0.28685682735E+03  0.38543368727E+03  0.11967027145E+02  0.48061333359E+03  0.25500000920E-02 0. -1.
</event>
<event>
 5   0  0.9674819E-04  0.1002181E+04  0.7818609E-02  0.9306156E-01
        2   -1    0    0  501    0  0.00000000000E+00  0.00000000000E+00  0.11138781434E+04  0.11138781434E+04  0.25500000920E-02 0.  1.
       -2   -1    0    0    0  501  0.00000000000E+00  0.00000000000E+00 -0.22542094738E+03  0.22542094739E+03  0.25500000920E-02 0. -1.
    10030    2    1    2    0    0  0.00000000000E+00  0.00000000000E+00  0.88845719598E+03  0.13392990907E+04  0.10021805553E+04 0.  0.
        4    1    3    3  502    0 -0.44410927859E+03 -0.23203918806E+03  0.43911924940E+03  0.66626013254E+03  0.12699999809E+01 0.  1.
       -4    1    3    3    0  502  0.44410927859E+03  0.23203918806E+03  0.44933794658E+03  0.67303895821E+03  0.12699999809E+01 0. -1.
</event>
<event>
 5   0  0.1006749E-03  0.9998679E+03  0.7818609E-02  0.9308690E-01
        2   -1    0    0  501    0  0.00000000000E+00  0.00000000000E+00  0.55862186903E+03  0.55862186904E+03  0.25500000920E-02 0.  1.
       -2   -1    0    0    0  501  0.00000000000E+00  0.00000000000E+00 -0.44741167029E+03  0.44741167030E+03  0.25500000920E-02 0. -1.
    10030    2    1    2    0    0  0.00000000000E+00  0.00000000000E+00  0.11121019874E+03  0.10060335393E+04  0.99986787826E+03 0.  0.
        1    1    3    3  502    0 -0.49620927138E+03  0.35923060696E+02  0.10510026996E+03  0.50848812578E+03  0.50400001928E-02 0. -1.
       -1    1    3    3    0  502  0.49620927138E+03 -0.35923060696E+02  0.61099287840E+01  0.49754541355E+03  0.50400001928E-02 0.  1.
</event>
<event>
 5   0  0.1006749E-03  0.1001660E+04  0.7818609E-02  0.9306726E-01
        2   -1    0    0  501    0  0.00000000000E+00  0.00000000000E+00  0.89924066196E+03  0.89924066197E+03  0.25500000920E-02 0. -1.
       -2   -1    0    0    0  501  0.00000000000E+00  0.00000000000E+00 -0.27893634644E+03  0.27893634645E+03  0.25500000920E-02 0.  1.
    10030    2    1    2    0    0  0.00000000000E+00  0.00000000000E+00  0.62030431553E+03  0.11781770084E+04  0.10016604311E+04 0.  0.
        1    1    3    3  502    0 -0.60486487074E+02 -0.44386608733E+03  0.46732640880E+02  0.45039944310E+03  0.50400001928E-02 0.  1.
       -1    1    3    3    0  502  0.60486487074E+02  0.44386608733E+03  0.57357167465E+03  0.72777756532E+03  0.50400001928E-02 0. -1.
</event>
<event>
 5   0  0.5888774E-04  0.9998563E+03  0.7818609E-02  0.9308702E-01
       -1   -1    0    0    0  501  0.00000000000E+00  0.00000000000E+00  0.24611277880E+03  0.24611277885E+03  0.50400001928E-02 0.  1.
        1   -1    0    0  501    0  0.00000000000E+00  0.00000000000E+00 -0.10155026422E+04  0.10155026422E+04  0.50400001928E-02 0. -1.
    10030    2    1    2    0    0  0.00000000000E+00  0.00000000000E+00 -0.76938986343E+03  0.12616154211E+04  0.99985634408E+03 0.  0.
        2    1    3    3  502    0  0.35749867698E+03 -0.23222646130E+03 -0.71419965866E+03  0.83175452257E+03  0.25500000920E-02 0. -1.
       -2    1    3    3    0  502 -0.35749867698E+03  0.23222646130E+03 -0.55190204766E+02  0.42986089852E+03  0.25500000920E-02 0.  1.
</event>
<event>
 5   0  0.3854625E-04  0.9994327E+03  0.7818609E-02  0.9309167E-01
       -4   -1    0    0    0  501  0.00000000000E+00  0.00000000000E+00  0.19391311732E+03  0.19391727609E+03  0.12699999809E+01 0.  1.
        4   -1    0    0  501    0  0.00000000000E+00  0.00000000000E+00 -0.12877565499E+04  0.12877571762E+04  0.12699999809E+01 0. -1.
    10030    2    1    2    0    0  0.00000000000E+00  0.00000000000E+00 -0.10938434326E+04  0.14816744523E+04  0.99943270280E+03 0.  0.
        4    1    3    3  502    0 -0.49196697205E+03 -0.10965457264E+02 -0.67585008039E+03  0.83601835321E+03  0.12699999809E+01 0. -1.
       -4    1    3    3    0  502  0.49196697205E+03  0.10965457264E+02 -0.41799335220E+03  0.64565609904E+03  0.12699999809E+01 0.  1.
</event>
<event>
 5   0  0.1006749E-03  0.9965174E+03  0.7818609E-02  0.9312373E-01
        2   -1    0    0  501    0  0.00000000000E+00  0.00000000000E+00  0.10600284849E+04  0.10600284849E+04  0.25500000920E-02 0.  1.
       -2   -1    0    0    0  501  0.00000000000E+00  0.00000000000E+00 -0.23420287636E+03  0.23420287637E+03  0.25500000920E-02 0. -1.
    10030    2    1    2    0    0  0.00000000000E+00  0.00000000000E+00  0.82582560857E+03  0.12942313613E+04  0.99651737608E+03 0.  0.
        1    1    3    3  502    0  0.30236022048E+03 -0.13986195062E+03 -0.68290439763E+02  0.34006859947E+03  0.50400001928E-02 0. -1.
       -1    1    3    3    0  502 -0.30236022048E+03  0.13986195062E+03  0.89411604833E+03  0.95416276183E+03  0.50400001928E-02 0.  1.
</event>
<event>
 5   0  0.1020150E-03  0.1000443E+04  0.7818609E-02  0.9308059E-01
       -2   -1    0    0    0  501  0.00000000000E+00  0.00000000000E+00  0.15625499950E+03  0.15625499952E+03  0.25500000920E-02 0.  1.
        2   -1    0    0  501    0  0.00000000000E+00  0.00000000000E+00 -0.16013668136E+04  0.16013668136E+04  0.25500000920E-02 0. -1.
    10030    2    1    2    0    0  0.00000000000E+00  0.00000000000E+00 -0.14451118141E+04  0.17576218131E+04  0.10004430432E+04 0.  0.
        5    1    3    3  502    0  0.15123061225E+03  0.45015239697E+03 -0.44649322689E+03  0.65183293123E+03  0.46999998093E+01 0.  1.
       -5    1    3    3    0  502 -0.15123061225E+03 -0.45015239697E+03 -0.99861858721E+03  0.11057888819E+04  0.46999998093E+01 0. -1.
</event>
<event>
 5   0  0.9674819E-04  0.1026485E+04  0.7818609E-02  0.9279964E-01
        2   -1    0    0  501    0  0.00000000000E+00  0.00000000000E+00  0.69583068050E+03  0.69583068051E+03  0.25500000920E-02 0.  1.
       -2   -1    0    0    0  501  0.00000000000E+00  0.00000000000E+00 -0.37856600725E+03  0.37856600726E+03  0.25500000920E-02 0. -1.
    10030    2    1    2    0    0  0.00000000000E+00  0.00000000000E+00  0.31726467325E+03  0.10743966878E+04  0.10264849584E+04 0.  0.
        4    1    3    3  502    0  0.25194049611E+03  0.13907120497E+02 -0.30916114843E+03  0.39906096048E+03  0.12699999809E+01 0. -1.
       -4    1    3    3    0  502 -0.25194049611E+03 -0.13907120497E+02  0.62642582168E+03  0.67533572728E+03  0.12699999809E+01 0.  1.
</event>
<event>
 5   0  0.5826939E-04  0.1000828E+04  0.7818609E-02  0.9307637E-01
        1   -1    0    0  501    0  0.00000000000E+00  0.00000000000E+00  0.71294343235E+03  0.71294343237E+03  0.50400001928E-02 0.  1.
       -1   -1    0    0    0  501  0.00000000000E+00  0.00000000000E+00 -0.35124021408E+03  0.35124021412E+03  0.50400001928E-02 0. -1.
    10030    2    1    2    0    0  0.00000000000E+00  0.00000000000E+00  0.36170321827E+03  0.10641836465E+04  0.10008284645E+04 0.  0.
        1    1    3    3  502    0  0.19243644961E+03  0.13602369410E+03 -0.28854587605E+03  0.37254926534E+03  0.50400001928E-02 0. -1.
       -1    1    3    3    0  502 -0.19243644961E+03 -0.13602369410E+03  0.65024909432E+03  0.69163438114E+03  0.50400001928E-02 0.  1.
</event>
<event>
 5   0  0.9741826E-04  0.1000106E+04  0.7818609E-02  0.9308429E-01
       -2   -1    0    0    0  501  0.00000000000E+00  0.00000000000E+00  0.51250366032E+03  0.51250366033E+03  0.25500000920E-02 0. -1.
        2   -1    0    0  501    0  0.00000000000E+00  0.00000000000E+00 -0.48790436512E+03  0.48790436513E+03  0.25500000920E-02 0.  1.
    10030    2    1    2    0    0  0.00000000000E+00  0.00000000000E+00  0.24599295203E+02  0.10004080255E+04  0.10001055405E+04 0.  0.
        3    1    3    3  502    0 -0.11969340246E+03 -0.97514607807E+02 -0.46346711703E+03  0.48850525903E+03  0.10100000352E+00 0.  1.
       -3    1    3    3    0  502  0.11969340246E+03  0.97514607807E+02  0.48806641223E+03  0.51190276643E+03  0.10100000352E+00 0. -1.
</event>
<event>
 5   0  0.1006749E-03  0.1001721E+04  0.7818609E-02  0.9306659E-01
       -2   -1    0    0    0  501  0.00000000000E+00  0.00000000000E+00  0.34007464559E+03  0.34007464560E+03  0.25500000920E-02 0. -1.
        2   -1    0    0  501    0  0.00000000000E+00  0.00000000000E+00 -0.73766512764E+03  0.73766512765E+03  0.25500000920E-02 0.  1.
    10030    2    1    2    0    0  0.00000000000E+00  0.00000000000E+00 -0.39759048206E+03  0.10777397732E+04  0.10017209329E+04 0.  0.
        1    1    3    3  502    0  0.48639262243E+02 -0.46401873082E+03 -0.39477839594E+03  0.61117030549E+03  0.50400001928E-02 0.  1.
       -1    1    3    3    0  502 -0.48639262243E+02  0.46401873082E+03 -0.28120861207E+01  0.46656946775E+03  0.50400001928E-02 0. -1.
</event>
<event>
 5   0  0.5768102E-04  0.1000174E+04  0.7818609E-02  0.9308354E-01
       -1   -1    0    0    0  501  0.00000000000E+00  0.00000000000E+00  0.19307270346E+04  0.19307270346E+04  0.50400001928E-02 0. -1.
        1   -1    0    0  501    0  0.00000000000E+00  0.00000000000E+00 -0.12953001328E+03  0.12953001338E+03  0.50400001928E-02 0.  1.
    10030    2    1    2    0    0  0.00000000000E+00  0.00000000000E+00  0.18011970213E+04  0.20602570480E+04  0.10001741819E+04 0.  0.
        4    1    3    3  502    0  0.24245849073E+03  0.65448051565E+02  0.97885672335E+01  0.25133045205E+03  0.12699999809E+01 0.  1.
       -4    1    3    3    0  502 -0.24245849073E+03 -0.65448051565E+02  0.17914084541E+04  0.18089265959E+04  0.12699999809E+01 0. -1.
</event>
<event>
 5   0  0.9741826E-04  0.1000684E+04  0.7818609E-02  0.9307794E-01
       -2   -1    0    0    0  501  0.00000000000E+00  0.00000000000E+00  0.28164432312E+03  0.28164432313E+03  0.25500000920E-02 0.  1.
        2   -1    0    0  501    0  0.00000000000E+00  0.00000000000E+00 -0.88885991582E+03  0.88885991582E+03  0.25500000920E-02 0. -1.
    10030    2    1    2    0    0  0.00000000000E+00  0.00000000000E+00 -0.60721559269E+03  0.11705042390E+04  0.10006844644E+04 0.  0.
        3    1    3    3  502    0 -0.23867446197E+03  0.35217559851E+02 -0.81632848646E+03  0.85123321324E+03  0.10100000352E+00 0. -1.
       -3    1    3    3    0  502  0.23867446197E+03 -0.35217559851E+02  0.20911289376E+03  0.31927102571E+03  0.10100000352E+00 0.  1.
</event>
<event>
 5   0  0.1006749E-03  0.9994440E+03  0.7818609E-02  0.9309155E-01
        2   -1    0    0  501    0  0.00000000000E+00  0.00000000000E+00  0.17921951419E+04  0.17921951420E+04  0.25500000920E-02 0.  1.
       -2   -1    0    0    0  501  0.00000000000E+00  0.00000000000E+00 -0.13933865908E+03  0.13933865910E+03  0.25500000920E-02 0. -1.
    10030    2    1    2    0    0  0.00000000000E+00  0.00000000000E+00  0.16528564829E+04  0.19315338011E+04  0.99944398124E+03 0.  0.
        1    1    3    3  502    0 -0.16850322603E+03  0.24658831664E+03  0.16007338383E+04  0.16283574412E+04  0.50400001928E-02 0.  1.
       -1    1    3    3    0  502  0.16850322603E+03 -0.24658831664E+03  0.52122644556E+02  0.30317635987E+03  0.50400001928E-02 0. -1.
</event>
<event>
 5   0  0.5888774E-04  0.9986575E+03  0.7818609E-02  0.9310018E-01
       -1   -1    0    0    0  501  0.00000000000E+00  0.00000000000E+00  0.11632280575E+03  0.11632280586E+03  0.50400001928E-02 0. -1.
        1   -1    0    0  501    0  0.00000000000E+00  0.00000000000E+00 -0.21434249389E+04  0.21434249389E+04  0.50400001928E-02 0.  1.
    10030    2    1    2    0    0  0.00000000000E+00  0.00000000000E+00 -0.20271021331E+04  0.22597477447E+04  0.99865750473E+03 0.  0.
        2    1    3    3  502    0  0.27672850156E+03  0.27911780820E+02 -0.75186509344E+02  0.28811584871E+03  0.25500000920E-02 0. -1.
       -2    1    3    3    0  502 -0.27672850156E+03 -0.27911780820E+02 -0.19519156238E+04  0.19716318960E+04  0.25500000920E-02 0.  1.
</event>
<event>
 5   0  0.1020150E-03  0.9981707E+03  0.7818609E-02  0.9310553E-01
        2   -1    0    0  501    0  0.00000000000E+00  0.00000000000E+00  0.49396354419E+03  0.49396354420E+03  0.25500000920E-02 0.  1.
       -2   -1    0    0    0  501  0.00000000000E+00  0.00000000000E+00 -0.50426025347E+03  0.50426025347E+03  0.25500000920E-02 0. -1.
    10030    2    1    2    0    0  0.00000000000E+00  0.00000000000E+00 -0.10296709278E+02  0.99822379767E+03  0.99817069082E+03 0.  0.
        5    1    3    3  502    0 -0.32833727821E+03 -0.80606957838E+01 -0.38092591320E+03  0.50298805595E+03  0.46999998093E+01 0. -1.
       -5    1    3    3    0  502  0.32833727821E+03  0.80606957838E+01  0.37062920392E+03  0.49523574172E+03  0.46999998093E+01 0.  1.
</event>
<event>
 5   0  0.5826939E-04  0.1000769E+04  0.7818609E-02  0.9307702E-01
       -1   -1    0    0    0  501  0.00000000000E+00  0.00000000000E+00  0.53604953222E+03  0.53604953224E+03  0.50400001928E-02 0.  1.
        1   -1    0    0  501    0  0.00000000000E+00  0.00000000000E+00 -0.46709200030E+03  0.46709200033E+03  0.50400001928E-02 0. -1.
    10030    2    1    2    0    0  0.00000000000E+00  0.00000000000E+00  0.68957531912E+02  0.10031415326E+04  0.10007686012E+04 0.  0.
        1    1    3    3  502    0  0.43348679415E+03 -0.30344149474E+02 -0.21420803180E+03  0.48447564338E+03  0.50400001928E-02 0.  1.
       -1    1    3    3    0  502 -0.43348679415E+03  0.30344149474E+02  0.28316556372E+03  0.51866588919E+03  0.50400001928E-02 0. -1.
</event>
<event>
 5   0  0.1006749E-03  0.1005297E+04  0.7818609E-02  0.9302754E-01
       -2   -1    0    0    0  501  0.00000000000E+00  0.00000000000E+00  0.16790028648E+03  0.16790028649E+03  0.25500000920E-02 0. -1.
        2   -1    0    0  501    0  0.00000000000E+00  0.00000000000E+00 -0.15047945075E+04  0.15047945075E+04  0.25500000920E-02 0.  1.
    10030    2    1    2    0    0  0.00000000000E+00  0.00000000000E+00 -0.13368942210E+04  0.16726947940E+04  0.10052968296E+04 0.  0.
        1    1    3    3  502    0  0.34318033064E+03  0.18432535165E+03 -0.13990118890E+03  0.41390931045E+03  0.50400001928E-02 0. -1.
       -1    1    3    3    0  502 -0.34318033064E+03 -0.18432535165E+03 -0.11969930321E+04  0.12587854836E+04  0.50400001928E-02 0.  1.
</event>
<event>
 5   0  0.1006006E-03  0.1001670E+04  0.7818609E-02  0.9306715E-01
       -2   -1    0    0    0  501  0.00000000000E+00  0.00000000000E+00  0.21612466948E+03  0.21612466950E+03  0.25500000920E-02 0. -1.
        2   -1    0    0  501    0  0.00000000000E+00  0.00000000000E+00 -0.11606074828E+04  0.11606074828E+04  0.25500000920E-02 0.  1.
    10030    2    1    2    0    0  0.00000000000E+00  0.00000000000E+00 -0.94448281335E+03  0.13767321523E+04  0.10016704221E+04 0.  0.
        2    1    3    3  502    0  0.38775976366E+03 -0.19911517267E+03 -0.13325007680E+03  0.45580705269E+03  0.25500000920E-02 0. -1.
       -2    1    3    3    0  502 -0.38775976366E+03  0.19911517267E+03 -0.81123273655E+03  0.92092509965E+03  0.25500000920E-02 0.  1.
</event>
<event>
 5   0  0.5960102E-04  0.1000010E+04  0.7818609E-02  0.9308534E-01
        1   -1    0    0  501    0  0.00000000000E+00  0.00000000000E+00  0.49241819783E+03  0.49241819786E+03  0.50400001928E-02 0. -1.
       -1   -1    0    0    0  501  0.00000000000E+00  0.00000000000E+00 -0.50770822813E+03  0.50770822816E+03  0.50400001928E-02 0.  1.
    10030    2    1    2    0    0  0.00000000000E+00  0.00000000000E+00 -0.15290030301E+02  0.10001264260E+04  0.10000095415E+04 0.  0.
        5    1    3    3  502    0  0.99019029213E+01 -0.85797507755E+01 -0.50751442000E+03  0.50770526520E+03  0.46999998093E+01 0.  1.
       -5    1    3    3    0  502 -0.99019029213E+01  0.85797507755E+01  0.49222438970E+03  0.49242116082E+03  0.46999998093E+01 0. -1.
</event>
<event>
 5   0  0.5758786E-04  0.1000647E+04  0.7818609E-02  0.9307836E-01
       -1   -1    0    0    0  501  0.00000000000E+00  0.00000000000E+00  0.58750282288E+03  0.58750282291E+03  0.50400001928E-02 0. -1.
        1   -1    0    0  501    0  0.00000000000E+00  0.00000000000E+00 -0.42608062323E+03  0.42608062326E+03  0.50400001928E-02 0.  1.
    10030    2    1    2    0    0  0.00000000000E+00  0.00000000000E+00  0.16142219966E+03  0.10135834462E+04  0.10006469286E+04 0.  0.
        3    1    3    3  502    0  0.22699344300E+02 -0.43858432704E+03  0.32350151935E+03  0.54545826181E+03  0.10100000352E+00 0. -1.
       -3    1    3    3    0  502 -0.22699344300E+02  0.43858432704E+03 -0.16207931969E+03  0.46812518436E+03  0.10100000352E+00 0.  1.
</event>
<event>
 5   0  0.9741826E-04  0.9985050E+03  0.7818609E-02  0.9310186E-01
       -2   -1    0    0    0  501  0.00000000000E+00  0.00000000000E+00  0.43945861641E+03  0.43945861642E+03  0.25500000920E-02 0. -1.
        2   -1    0    0  501    0  0.00000000000E+00  0.00000000000E+00 -0.56718204678E+03  0.56718204679E+03  0.25500000920E-02 0.  1.
    10030    2    1    2    0    0  0.00000000000E+00  0.00000000000E+00 -0.12772343037E+03  0.10066406632E+04  0.99850495750E+03 0.  0.
        3    1    3    3  502    0 -0.37045658183E+03 -0.14527635260E+03  0.24010737773E+03  0.46475247249E+03  0.10100000352E+00 0. -1.
       -3    1    3    3    0  502  0.37045658183E+03  0.14527635260E+03 -0.36783080810E+03  0.54188819072E+03  0.10100000352E+00 0.  1.
</event>
<event>
 5   0  0.1020150E-03  0.1000118E+04  0.7818609E-02  0.9308416E-01
        2   -1    0    0  501    0  0.00000000000E+00  0.00000000000E+00  0.30514349117E+03  0.30514349118E+03  0.25500000920E-02 0.  1.
       -2   -1    0    0    0  501  0.00000000000E+00  0.00000000000E+00 -0.81947930000E+03  0.81947930000E+03  0.25500000920E-02 0. -1.
    10030    2    1    2    0    0  0.00000000000E+00  0.00000000000E+00 -0.51433580883E+03  0.11246227912E+04  0.10001175422E+04 0.  0.
        5    1    3    3  502    0 -0.68920044140E+02 -0.32408200503E+03 -0.67830062380E+03  0.75491254110E+03  0.46999998093E+01 0. -1.
       -5    1    3    3    0  502  0.68920044140E+02  0.32408200503E+03  0.16396481497E+03  0.36971025008E+03  0.46999998093E+01 0.  1.
</event>
<event>
 5   0  0.5960102E-04  0.1000186E+04  0.7818609E-02  0.9308340E-01
       -1   -1    0    0    0  501  0.00000000000E+00  0.00000000000E+00  0.53834016164E+03  0.53834016166E+03  0.50400001928E-02 0.  1.
        1   -1    0    0  501    0  0.00000000000E+00  0.00000000000E+00 -0.46456349562E+03  0.46456349564E+03  0.50400001928E-02 0. -1.
    10030    2    1    2    0    0  0.00000000000E+00  0.00000000000E+00  0.73776666024E+02  0.10029036573E+04  0.10001863573E+04 0.  0.
        5    1    3    3  502    0 -0.16715593493E+03  0.59648999302E+02  0.50567531119E+03  0.53593723518E+03  0.46999998093E+01 0.  1.
       -5    1    3    3    0  502  0.16715593493E+03 -0.59648999302E+02 -0.43189864517E+03  0.46696642213E+03  0.46999998093E+01 0. -1.
</event>
<event>
 5   0  0.1006749E-03  0.9995462E+03  0.7818609E-02  0.9309043E-01
       -2   -1    0    0    0  501  0.00000000000E+00  0.00000000000E+00  0.24738466641E+03  0.24738466642E+03  0.25500000920E-02 0.  1.
        2   -1    0    0  501    0  0.00000000000E+00  0.00000000000E+00 -0.10096550181E+04  0.10096550181E+04  0.25500000920E-02 0. -1.
    10030    2    1    2    0    0  0.00000000000E+00  0.00000000000E+00 -0.76227035173E+03  0.12570396846E+04  0.99954623676E+03 0.  0.
        1    1    3    3  502    0  0.10965734817E+03  0.13862124207E+03 -0.96903618231E+03  0.98502370804E+03  0.50400001928E-02 0. -1.
       -1    1    3    3    0  502 -0.10965734817E+03 -0.13862124207E+03  0.20676583058E+03  0.27201597652E+03  0.50400001928E-02 0.  1.
</event>
<event>
 5   0  0.5826939E-04  0.1000082E+04  0.7818609E-02  0.9308455E-01
       -1   -1    0    0    0  501  0.00000000000E+00  0.00000000000E+00  0.20217333026E+03  0.20217333033E+03  0.50400001928E-02 0. -1.
        1   -1    0    0  501    0  0.00000000000E+00  0.00000000000E+00 -0.12367659501E+04  0.12367659501E+04  0.50400001928E-02 0.  1.
    10030    2    1    2    0    0  0.00000000000E+00  0.00000000000E+00 -0.10345926198E+04  0.14389392804E+04  0.10000821785E+04 0.  0.
        1    1    3    3  502    0 -0.24949113192E+03  0.16218504638E+03  0.60907985964E+02  0.30374264923E+03  0.50400001928E-02 0. -1.
       -1    1    3    3    0  502  0.24949113192E+03 -0.16218504638E+03 -0.10955006058E+04  0.11351966312E+04  0.50400001928E-02 0.  1.
</event>
<event>
 5   0  0.9741826E-04  0.9996900E+03  0.7818609E-02  0.9308885E-01
       -2   -1    0    0    0  501  0.00000000000E+00  0.00000000000E+00  0.68760439923E+03  0.68760439923E+03  0.25500000920E-02 0.  1.
        2   -1    0    0  501    0  0.00000000000E+00  0.00000000000E+00 -0.36335577494E+03  0.36335577495E+03  0.25500000920E-02 0. -1.
    10030    2    1    2    0    0  0.00000000000E+00  0.00000000000E+00  0.32424862429E+03  0.10509601742E+04  0.99969001063E+03 0.  0.
        3    1    3    3  502    0  0.31620757523E+03 -0.18459439861E+03 -0.19559528774E+03  0.41511426068E+03  0.10100000352E+00 0. -1.
       -3    1    3    3    0  502 -0.31620757523E+03  0.18459439861E+03  0.51984391203E+03  0.63584591350E+03  0.10100000352E+00 0.  1.
</event>
<event>
 5   0  0.9674819E-04  0.1002118E+04  0.7818609E-02  0.9306225E-01
       -2   -1    0    0    0  501  0.00000000000E+00  0.00000000000E+00  0.47040035373E+03  0.47040035373E+03  0.25500000920E-02 0. -1.
        2   -1    0    0  501    0  0.00000000000E+00  0.00000000000E+00 -0.53371559724E+03  0.53371559725E+03  0.25500000920E-02 0.  1.
    10030    2    1    2    0    0  0.00000000000E+00  0.00000000000E+00 -0.63315243519E+02  0.10041159510E+04  0.10021177690E+04 0.  0.
        4    1    3    3  502    0  0.23343407794E+03 -0.25590526201E+03  0.33111320972E+03  0.47918320340E+03  0.12699999809E+01 0. -1.
       -4    1    3    3    0  502 -0.23343407794E+03  0.25590526201E+03 -0.39442845324E+03  0.52493274759E+03  0.12699999809E+01 0.  1.
</event>
<event>
 5   0  0.1006006E-03  0.1001291E+04  0.7818609E-02  0.9307130E-01
       -2   -1    0    0    0  501  0.00000000000E+00  0.00000000000E+00  0.46508524472E+03  0.46508524473E+03  0.25500000920E-02 0. -1.
        2   -1    0    0  501    0  0.00000000000E+00  0.00000000000E+00 -0.53892473211E+03  0.53892473212E+03  0.25500000920E-02 0.  1.
    10030    2    1    2    0    0  0.00000000000E+00  0.00000000000E+00 -0.73839487391E+02  0.10040099768E+04  0.10012910484E+04 0.  0.
        2    1    3    3  502    0  0.11764823807E+03  0.42954467877E+02  0.44912295937E+03  0.46625918422E+03  0.25500000920E-02 0. -1.
       -2    1    3    3    0  502 -0.11764823807E+03 -0.42954467877E+02 -0.52296244676E+03  0.53775079262E+03  0.25500000920E-02 0.  1.
</event>
<event>
 5   0  0.1006006E-03  0.9937321E+03  0.7818609E-02  0.9315446E-01
       -2   -1    0    0    0  501  0.00000000000E+00  0.00000000000E+00  0.22269278429E+03  0.22269278431E+03  0.25500000920E-02 0. -1.
        2   -1    0    0  501    0  0.00000000000E+00  0.00000000000E+00 -0.11085938712E+04  0.11085938712E+04  0.25500000920E-02 0.  1.
    10030    2    1    2    0    0  0.00000000000E+00  0.00000000000E+00 -0.88590108694E+03  0.13312866555E+04  0.99373206821E+03 0.  0.
        2    1    3    3  502    0  0.28409718876E+02  0.15811915633E+03 -0.10728399543E+04  0.10848015244E+04  0.25500000920E-02 0.  1.
       -2    1    3    3    0  502 -0.28409718876E+02 -0.15811915633E+03  0.18693886740E+03  0.24648513114E+03  0.25500000920E-02 0. -1.
</event>
<event>
 5   0  0.1006749E-03  0.1005428E+04  0.7818609E-02  0.9302612E-01
       -2   -1    0    0    0  501  0.00000000000E+00  0.00000000000E+00  0.45447200942E+03  0.45447200943E+03  0.25500000920E-02 0. -1.
        2   -1    0    0  501    0  0.00000000000E+00  0.00000000000E+00 -0.55607673256E+03  0.55607673257E+03  0.25500000920E-02 0.  1.
    10030    2    1    2    0    0  0.00000000000E+00  0.00000000000E+00 -0.10160472314E+03  0.10105487420E+04  0.10054278891E+04 0.  0.
        1    1    3    3  502    0  0.30910254337E+03 -0.37449471095E+03  0.79978144963E+02  0.49212516146E+03  0.50400001928E-02 0. -1.
       -1    1    3    3    0  502 -0.30910254337E+03  0.37449471095E+03 -0.18158286810E+03  0.51842358054E+03  0.50400001928E-02 0.  1.
</event>
<event>
 5   0  0.5960102E-04  0.1000535E+04  0.7818609E-02  0.9307958E-01
        1   -1    0    0  501    0  0.00000000000E+00  0.00000000000E+00  0.12979929784E+04  0.12979929784E+04  0.50400001928E-02 0. -1.
       -1   -1    0    0    0  501  0.00000000000E+00  0.00000000000E+00 -0.19281127872E+03  0.19281127879E+03  0.50400001928E-02 0.  1.
    10030    2    1    2    0    0  0.00000000000E+00  0.00000000000E+00  0.11051816997E+04  0.14908042572E+04  0.10005352288E+04 0.  0.
        5    1    3    3  502    0  0.42245443268E+01 -0.16159215948E+03 -0.15279119821E+03  0.22247946653E+03  0.46999998093E+01 0.  1.
       -5    1    3    3    0  502 -0.42245443268E+01  0.16159215948E+03  0.12579728979E+04  0.12683247907E+04  0.46999998093E+01 0. -1.
</event>
<event>
 5   0  0.5826939E-04  0.9998590E+03  0.7818609E-02  0.9308699E-01
       -1   -1    0    0    0  501  0.00000000000E+00  0.00000000000E+00  0.28866713737E+03  0.28866713742E+03  0.50400001928E-02 0.  1.
        1   -1    0    0  501    0  0.00000000000E+00  0.00000000000E+00 -0.86580518119E+03  0.86580518120E+03  0.50400001928E-02 0. -1.
    10030    2    1    2    0    0  0.00000000000E+00  0.00000000000E+00 -0.57713804381E+03  0.11544723186E+04  0.99985899648E+03 0.  0.
        1    1    3    3  502    0 -0.68484005688E+02 -0.30884875525E+03 -0.73553645281E+03  0.80068188820E+03  0.50400001928E-02 0. -1.
       -1    1    3    3    0  502  0.68484005688E+02  0.30884875525E+03  0.15839840900E+03  0.35379043042E+03  0.50400001928E-02 0.  1.
</event>
<event>
 5   0  0.1006749E-03  0.9994520E+03  0.7818609E-02  0.9309146E-01
        2   -1    0    0  501    0  0.00000000000E+00  0.00000000000E+00  0.82627110158E+03  0.82627110158E+03  0.25500000920E-02 0.  1.
       -2   -1    0    0    0  501  0.00000000000E+00  0.00000000000E+00 -0.30223259159E+03  0.30223259160E+03  0.25500000920E-02 0. -1.
    10030    2    1    2    0    0  0.00000000000E+00  0.00000000000E+00  0.52403850999E+03  0.11285036932E+04  0.99945196261E+03 0.  0.
        1    1    3    3  502    0 -0.46455566619E+03  0.60581191321E+02  0.65655767739E+02  0.47306736053E+03  0.50400001928E-02 0. -1.
       -1    1    3    3    0  502  0.46455566619E+03 -0.60581191321E+02  0.45838274225E+03  0.65543633265E+03  0.50400001928E-02 0.  1.
</event>
<event>
 5   0  0.5888774E-04  0.9966554E+03  0.7818609E-02  0.9312221E-01
       -1   -1    0    0    0  501  0.00000000000E+00  0.00000000000E+00  0.69811961230E+03  0.69811961232E+03  0.50400001928E-02 0. -1.
        1   -1    0    0  501    0  0.00000000000E+00  0.00000000000E+00 -0.35571337333E+03  0.35571337337E+03  0.50400001928E-02 0.  1.
    10030    2    1    2    0    0  0.00000000000E+00  0.00000000000E+00  0.34240623897E+03  0.10538329857E+04  0.99665537135E+03 0.  0.
        2    1    3    3  502    0  0.10610133862E+03 -0.29800060576E+03 -0.23594404049E+03  0.39462823688E+03  0.25500000920E-02 0.  1.
       -2    1    3    3    0  502 -0.10610133862E+03  0.29800060576E+03  0.57835027946E+03  0.65920474881E+03  0.25500000920E-02 0. -1.
</event>
<event>
 5   0  0.5758786E-04  0.1021979E+04  0.7818609E-02  0.9284762E-01
       -1   -1    0    0    0  501  0.00000000000E+00  0.00000000000E+00  0.68612000690E+03  0.68612000692E+03  0.50400001928E-02 0.  1.
        1   -1    0    0  501    0  0.00000000000E+00  0.00000000000E+00 -0.38056043367E+03  0.38056043371E+03  0.50400001928E-02 0. -1.
    10030    2    1    2    0    0  0.00000000000E+00  0.00000000000E+00  0.30555957323E+03  0.10666804406E+04  0.10219787227E+04 0.  0.
        3    1    3    3  502    0 -0.34660380765E+03  0.21524068797E+02 -0.23846644029E+03  0.42126445182E+03  0.10100000352E+00 0. -1.
       -3    1    3    3    0  502  0.34660380765E+03 -0.21524068797E+02  0.54402601352E+03  0.64541598881E+03  0.10100000352E+00 0.  1.
</event>
<event>
 5   0  0.5768102E-04  0.9985907E+03  0.7818609E-02  0.9310092E-01
       -1   -1    0    0    0  501  0.00000000000E+00  0.00000000000E+00  0.51438613159E+03  0.51438613161E+03  0.50400001928E-02 0.  1.
        1   -1    0    0  501    0  0.00000000000E+00  0.00000000000E+00 -0.48464732192E+03  0.48464732195E+03  0.50400001928E-02 0. -1.
    10030    2    1    2    0    0  0.00000000000E+00  0.00000000000E+00  0.29738809665E+02  0.99903345356E+03  0.99859072925E+03 0.  0.
        4    1    3    3  502    0 -0.69253666444E+02 -0.47946703609E+03 -0.10605410960E+03  0.49591712622E+03  0.12699999809E+01 0. -1.
       -4    1    3    3    0  502  0.69253666444E+02  0.47946703609E+03  0.13579291927E+03  0.50311632734E+03  0.12699999809E+01 0.  1.
</event>
<event>
 5   0  0.1006749E-03  0.1001314E+04  0.7818609E-02  0.9307105E-01
       -2   -1    0    0    0  501  0.00000000000E+00  0.00000000000E+00  0.39026964029E+03  0.39026964030E+03  0.25500000920E-02 0. -1.
        2   -1    0    0  501    0  0.00000000000E+00  0.00000000000E+00 -0.64226689693E+03  0.64226689693E+03  0.25500000920E-02 0.  1.
    10030    2    1    2    0    0  0.00000000000E+00  0.00000000000E+00 -0.25199725664E+03  0.10325365372E+04  0.10013136788E+04 0.  0.
        1    1    3    3  502    0  0.29514396027E+03  0.40344642944E+03 -0.97230832236E+02  0.50924730090E+03  0.50400001928E-02 0.  1.
       -1    1    3    3    0  502 -0.29514396027E+03 -0.40344642944E+03 -0.15476642440E+03  0.52328923633E+03  0.50400001928E-02 0. -1.
</event>
<event>
 5   0  0.5888774E-04  0.1009222E+04  0.7818609E-02  0.9298488E-01
       -1   -1    0    0    0  501  0.00000000000E+00  0.00000000000E+00  0.51085562907E+03  0.51085562909E+03  0.50400001928E-02 0.  1.
        1   -1    0    0  501    0  0.00000000000E+00  0.00000000000E+00 -0.49844283483E+03  0.49844283485E+03  0.50400001928E-02 0. -1.
    10030    2    1    2    0    0  0.00000000000E+00  0.00000000000E+00  0.12412794238E+02  0.10092984639E+04  0.10092221321E+04 0.  0.
        2    1    3    3  502    0  0.31175716526E+03  0.36320963814E+03 -0.15355097184E+03  0.50268446593E+03  0.25500000920E-02 0.  1.
       -2    1    3    3    0  502 -0.31175716526E+03 -0.36320963814E+03  0.16596376608E+03  0.50661399801E+03  0.25500000920E-02 0. -1.
</event>
<event>
 5   0  0.5758786E-04  0.9989614E+03  0.7818609E-02  0.9309685E-01
       -1   -1    0    0    0  501  0.00000000000E+00  0.00000000000E+00  0.23753612686E+03  0.23753612691E+03  0.50400001928E-02 0.  1.
        1   -1    0    0  501    0  0.00000000000E+00  0.00000000000E+00 -0.10502864848E+04  0.10502864848E+04  0.50400001928E-02 0. -1.
    10030    2    1    2    0    0  0.00000000000E+00  0.00000000000E+00 -0.81275035797E+03  0.12878226117E+04  0.99896142816E+03 0.  0.
        3    1    3    3  502    0  0.48755625445E+03 -0.25133189448E+02 -0.54243025096E+03  0.72977624367E+03  0.10100000352E+00 0. -1.
       -3    1    3    3    0  502 -0.48755625445E+03  0.25133189448E+02 -0.27032010701E+03  0.55804636808E+03  0.10100000352E+00 0.  1.
</event>
<event>
 5   0  0.5960102E-04  0.9985918E+03  0.7818609E-02  0.9310091E-01
        1   -1    0    0  501    0  0.00000000000E+00  0.00000000000E+00  0.56036442942E+03  0.56036442945E+03  0.50400001928E-02 0. -1.
       -1   -1    0    0    0  501  0.00000000000E+00  0.00000000000E+00 -0.44488259778E+03  0.44488259781E+03  0.50400001928E-02 0.  1.
    10030    2    1    2    0    0  0.00000000000E+00  0.00000000000E+00  0.11548183164E+03  0.10052470273E+04  0.99859177464E+03 0.  0.
        5    1    3    3  502    0 -0.19696513858E+02 -0.48035547671E+03  0.19334188008E+03  0.51820122468E+03  0.46999998093E+01 0. -1.
       -5    1    3    3    0  502  0.19696513858E+02  0.48035547671E+03 -0.77860048442E+02  0.48704580258E+03  0.46999998093E+01 0.  1.
</event>
<event>
 5   0  0.1006749E-03  0.1001056E+04  0.7818609E-02  0.9307388E-01
       -2   -1    0    0    0  501  0.00000000000E+00  0.00000000000E+00  0.17987782339E+03  0.17987782341E+03  0.25500000920E-02 0. -1.
        2   -1    0    0  501    0  0.00000000000E+00  0.00000000000E+00 -0.13927683100E+04  0.13927683100E+04  0.25500000920E-02 0.  1.
    10030    2    1    2    0    0  0.00000000000E+00  0.00000000000E+00 -0.12128904866E+04  0.15726461334E+04  0.10010557070E+04 0.  0.
        1    1    3    3  502    0 -0.36501954399E+03 -0.26630877356E+03 -0.94473145538E+03  0.10472235450E+04  0.50400001928E-02 0.  1.
       -1    1    3    3    0  502  0.36501954399E+03  0.26630877356E+03 -0.26815903123E+03  0.52542258842E+03  0.50400001928E-02 0. -1.
</event>
<event>
 5   0  0.3854625E-04  0.9975693E+03  0.7818609E-02  0.9311215E-01
       -3   -1    0    0    0  501  0.00000000000E+00  0.00000000000E+00  0.99676173083E+03  0.99676173595E+03  0.10100000352E+00 0.  1.
        3   -1    0    0  501    0  0.00000000000E+00  0.00000000000E+00 -0.24959436261E+03  0.24959438304E+03  0.10100000352E+00 0. -1.
    10030    2    1    2    0    0  0.00000000000E+00  0.00000000000E+00  0.74716736823E+03  0.12463561190E+04  0.99756929544E+03 0.  0.
        1    1    3    3  502    0 -0.37953333522E+03 -0.80785892758E+02 -0.17965428980E+02  0.38845163107E+03  0.50400001928E-02 0. -1.
       -1    1    3    3    0  502  0.37953333522E+03  0.80785892758E+02  0.76513279721E+03  0.85790448793E+03  0.50400001928E-02 0.  1.
</event>
<event>
 5   0  0.5960102E-04  0.9980162E+03  0.7818609E-02  0.9310723E-01
       -1   -1    0    0    0  501  0.00000000000E+00  0.00000000000E+00  0.50572661592E+03  0.50572661595E+03  0.50400001928E-02 0.  1.
        1   -1    0    0  501    0  0.00000000000E+00  0.00000000000E+00 -0.49237879357E+03  0.49237879359E+03  0.50400001928E-02 0. -1.
    10030    2    1    2    0    0  0.00000000000E+00  0.00000000000E+00  0.13347822354E+02  0.99810540954E+03  0.99801615428E+03 0.  0.
        5    1    3    3  502    0  0.10747691314E+03  0.44716776109E+03  0.20028016420E+03  0.50164183198E+03  0.46999998093E+01 0.  1.
       -5    1    3    3    0  502 -0.10747691314E+03 -0.44716776109E+03 -0.18693234185E+03  0.49646357756E+03  0.46999998093E+01 0. -1.
</event>
<event>
 5   0  0.1006006E-03  0.9971287E+03  0.7818609E-02  0.9311700E-01
        2   -1    0    0  501    0  0.00000000000E+00  0.00000000000E+00  0.24397925005E+03  0.24397925006E+03  0.25500000920E-02 0.  1.
       -2   -1    0    0    0  501  0.00000000000E+00  0.00000000000E+00 -0.10188014107E+04  0.10188014107E+04  0.25500000920E-02 0. -1.
    10030    2    1    2    0    0  0.00000000000E+00  0.00000000000E+00 -0.77482216062E+03  0.12627806607E+04  0.99712868604E+03 0.  0.
        2    1    3    3  502    0  0.23390006767E+03 -0.98725056335E+02  0.15598439854E+03  0.29797149360E+03  0.25500000920E-02 0.  1.
       -2    1    3    3    0  502 -0.23390006767E+03  0.98725056335E+02 -0.93080655916E+03  0.96480916713E+03  0.25500000920E-02 0. -1.
</event>
<event>
 5   0  0.5888774E-04  0.1001092E+04  0.7818609E-02  0.9307348E-01
       -1   -1    0    0    0  501  0.00000000000E+00  0.00000000000E+00  0.58340285945E+03  0.58340285947E+03  0.50400001928E-02 0. -1.
        1   -1    0    0  501    0  0.00000000000E+00  0.00000000000E+00 -0.42945674020E+03  0.42945674023E+03  0.50400001928E-02 0.  1.
    10030    2    1    2    0    0  0.00000000000E+00  0.00000000000E+00  0.15394611925E+03  0.10128595997E+04  0.10010919843E+04 0.  0.
        2    1    3    3  502    0  0.48917292640E+03 -0.77228349916E+02  0.15057375409E+03  0.51761648484E+03  0.25500000920E-02 0.  1.
       -2    1    3    3    0  502 -0.48917292640E+03  0.77228349916E+02  0.33723651667E+01  0.49524311485E+03  0.25500000920E-02 0. -1.
</event>
<event>
 5   0  0.1020150E-03  0.1001154E+04  0.7818609E-02  0.9307280E-01
        2   -1    0    0  501    0  0.00000000000E+00  0.00000000000E+00  0.16000760722E+04  0.16000760722E+04  0.25500000920E-02 0. -1.
       -2   -1    0    0    0  501  0.00000000000E+00  0.00000000000E+00 -0.15660339764E+03  0.15660339766E+03  0.25500000920E-02 0.  1.
    10030    2    1    2    0    0  0.00000000000E+00  0.00000000000E+00  0.14434726745E+04  0.17566794698E+04  0.10011540329E+04 0.  0.
        5    1    3    3  502    0  0.28032737243E+03 -0.24573264476E+03  0.13559953356E+03  0.39670806891E+03  0.46999998093E+01 0.  1.
       -5    1    3    3    0  502 -0.28032737243E+03  0.24573264476E+03  0.13078731410E+04  0.13599714009E+04  0.46999998093E+01 0. -1.
</event>
<event>
 5   0  0.9674819E-04  0.1000442E+04  0.7818609E-02  0.9308060E-01
        2   -1    0    0  501    0  0.00000000000E+00  0.00000000000E+00  0.79526894018E+03  0.79526894018E+03  0.25500000920E-02 0. -1.
       -2   -1    0    0    0  501  0.00000000000E+00  0.00000000000E+00 -0.31463721175E+03  0.31463721176E+03  0.25500000920E-02 0.  1.
    10030    2    1    2    0    0  0.00000000000E+00  0.00000000000E+00  0.48063172843E+03  0.11099061519E+04  0.10004423061E+04 0.  0.
        4    1    3    3  502    0 -0.38290605645E+03 -0.16293291365E+03 -0.67645169160E+02  0.42159419378E+03  0.12699999809E+01 0.  1.
       -4    1    3    3    0  502  0.38290605645E+03  0.16293291365E+03  0.54827689759E+03  0.68831195816E+03  0.12699999809E+01 0. -1.
</event>
<event>
 5   0  0.9674819E-04  0.9983343E+03  0.7818609E-02  0.9310374E-01
       -2   -1    0    0    0  501  0.00000000000E+00  0.00000000000E+00  0.65137523589E+03  0.65137523589E+03  0.25500000920E-02 0.  1.
        2   -1    0    0  501    0  0.00000000000E+00  0.00000000000E+00 -0.38252578120E+03  0.38252578121E+03  0.25500000920E-02 0. -1.
    10030    2    1    2    0    0  0.00000000000E+00  0.00000000000E+00  0.26884945469E+03  0.10339010171E+04  0.99833425458E+03 0.  0.
        4    1    3    3  502    0 -0.13675112879E+03 -0.45140846190E+03  0.30363391882E+03  0.56095065760E+03  0.12699999809E+01 0.  1.
       -4    1    3    3    0  502  0.13675112879E+03  0.45140846190E+03 -0.34784464131E+02  0.47295035950E+03  0.12699999809E+01 0. -1.
</event>
<event>
 5   0  0.5960102E-04  0.1000281E+04  0.7818609E-02  0.9308236E-01
        1   -1    0    0  501    0  0.00000000000E+00  0.00000000000E+00  0.44887275866E+03  0.44887275869E+03  0.50400001928E-02 0. -1.
       -1   -1    0    0    0  501  0.00000000000E+00  0.00000000000E+00 -0.55726414737E+03  0.55726414739E+03  0.50400001928E-02 0.  1.
    10030    2    1    2    0    0  0.00000000000E+00  0.00000000000E+00 -0.10839138870E+03  0.10061369061E+04  0.10002813507E+04 0.  0.
        5    1    3    3  502    0  0.23728694488E+03 -0.10568071002E+03 -0.48406745748E+03  0.54937864909E+03  0.46999998093E+01 0.  1.
       -5    1    3    3    0  502 -0.23728694488E+03  0.10568071002E+03  0.37567606878E+03  0.45675825699E+03  0.46999998093E+01 0. -1.
</event>
<event>
 5   0  0.5960102E-04  0.9984746E+03  0.7818609E-02  0.9310219E-01
        1   -1    0    0  501    0  0.00000000000E+00  0.00000000000E+00  0.43042671551E+03  0.43042671554E+03  0.50400001928E-02 0. -1.
       -1   -1    0    0    0  501  0.00000000000E+00  0.00000000000E+00 -0.57904830537E+03  0.57904830540E+03  0.50400001928E-02 0.  1.
    10030    2    1    2    0    0  0.00000000000E+00  0.00000000000E+00 -0.14862158986E+03  0.10094750209E+04  0.99847455697E+03 0.  0.
        5    1    3    3  502    0 -0.86164466197E+02 -0.14972995895E+03 -0.54784304488E+03  0.57445406054E+03  0.46999998093E+01 0.  1.
       -5    1    3    3    0  502  0.86164466197E+02  0.14972995895E+03  0.39922145502E+03  0.43502096040E+03  0.46999998093E+01 0. -1.
</event>
<event>
 5   0  0.5960102E-04  0.9982428E+03  0.7818609E-02  0.9310474E-01
       -1   -1    0    0    0  501  0.00000000000E+00  0.00000000000E+00  0.85523724459E+03  0.85523724460E+03  0.50400001928E-02 0. -1.
        1   -1    0    0  501    0  0.00000000000E+00  0.00000000000E+00 -0.29129013267E+03  0.29129013271E+03  0.50400001928E-02 0.  1.
    10030    2    1    2    0    0  0.00000000000E+00  0.00000000000E+00  0.56394711192E+03  0.11465273773E+04  0.99824279706E+03 0.  0.
        5    1    3    3  502    0  0.31127096485E+03  0.24230035205E+03 -0.69227963991E+02  0.40051676015E+03  0.46999998093E+01 0.  1.
       -5    1    3    3    0  502 -0.31127096485E+03 -0.24230035205E+03  0.63317507591E+03  0.74601061716E+03  0.46999998093E+01 0. -1.
</event>
<event>
 5   0  0.9674819E-04  0.9951333E+03  0.7818609E-02  0.9313899E-01
       -2   -1    0    0    0  501  0.00000000000E+00  0.00000000000E+00  0.10826607102E+03  0.10826607105E+03  0.25500000920E-02 0. -1.
        2   -1    0    0  501    0  0.00000000000E+00  0.00000000000E+00 -0.22867048822E+04  0.22867048822E+04  0.25500000920E-02 0.  1.
    10030    2    1    2    0    0  0.00000000000E+00  0.00000000000E+00 -0.21784388112E+04  0.23949709533E+04  0.99513326390E+03 0.  0.
        4    1    3    3  502    0  0.32491896563E+03 -0.36066611643E+03 -0.13519622363E+04  0.14364734188E+04  0.12699999809E+01 0.  1.
       -4    1    3    3    0  502 -0.32491896563E+03  0.36066611643E+03 -0.82647657494E+03  0.95849753447E+03  0.12699999809E+01 0. -1.
</event>
<event>
 5   0  0.1020150E-03  0.9988977E+03  0.7818609E-02  0.9309755E-01
       -2   -1    0    0    0  501  0.00000000000E+00  0.00000000000E+00  0.30326380637E+03  0.30326380638E+03  0.25500000920E-02 0.  1.
        2   -1    0    0  501    0  0.00000000000E+00  0.00000000000E+00 -0.82254842907E+03  0.82254842908E+03  0.25500000920E-02 0. -1.
    10030    2    1    2    0    0  0.00000000000E+00  0.00000000000E+00 -0.51928462270E+03  0.11258122355E+04  0.99889772756E+03 0.  0.
        5    1    3    3  502    0  0.27166819330E+03 -0.41834179046E+03 -0.28756090269E+03  0.57578366046E+03  0.46999998093E+01 0. -1.
       -5    1    3    3    0  502 -0.27166819330E+03  0.41834179046E+03 -0.23172372002E+03  0.55002857500E+03  0.46999998093E+01 0.  1.
</event>
<event>
 5   0  0.5758786E-04  0.9989672E+03  0.7818609E-02  0.9309678E-01
        1   -1    0    0  501    0  0.00000000000E+00  0.00000000000E+00  0.88183380028E+03  0.88183380029E+03  0.50400001928E-02 0. -1.
       -1   -1    0    0    0  501  0.00000000000E+00  0.00000000000E+00 -0.28291483407E+03  0.28291483412E+03  0.50400001928E-02 0.  1.
    10030    2    1    2    0    0  0.00000000000E+00  0.00000000000E+00  0.59891896620E+03  0.11647486344E+04  0.99896719329E+03 0.  0.
        3    1    3    3  502    0  0.32205235949E+02  0.61230816685E+02  0.87622025885E+03  0.87894729214E+03  0.10100000352E+00 0. -1.
       -3    1    3    3    0  502 -0.32205235949E+02 -0.61230816685E+02 -0.27730129265E+03  0.28580134227E+03  0.10100000352E+00 0.  1.
</event>
<event>
 5   0  0.9674819E-04  0.9970186E+03  0.7818609E-02  0.9311821E-01
        2   -1    0    0  501    0  0.00000000000E+00  0.00000000000E+00  0.65732070012E+03  0.65732070013E+03  0.25500000920E-02 0.  1.
       -2   -1    0    0    0  501  0.00000000000E+00  0.00000000000E+00 -0.37806741517E+03  0.37806741518E+03  0.25500000920E-02 0. -1.
    10030    2    1    2    0    0  0.00000000000E+00  0.00000000000E+00  0.27925328495E+03  0.10353881153E+04  0.99701863180E+03 0.  0.
        4    1    3    3  502    0 -0.47579652584E+03 -0.13414407140E+03  0.72864469589E+02  0.49968771219E+03  0.12699999809E+01 0. -1.
       -4    1    3    3    0  502  0.47579652584E+03  0.13414407140E+03  0.20638881536E+03  0.53570040311E+03  0.12699999809E+01 0.  1.
</event>
<event>
 5   0  0.1006749E-03  0.9993901E+03  0.7818609E-02  0.9309214E-01
       -2   -1    0    0    0  501  0.00000000000E+00  0.00000000000E+00  0.34933136473E+03  0.34933136474E+03  0.25500000920E-02 0.  1.
        2   -1    0    0  501    0  0.00000000000E+00  0.00000000000E+00 -0.71478022433E+03  0.71478022434E+03  0.25500000920E-02 0. -1.
    10030    2    1    2    0    0  0.00000000000E+00  0.00000000000E+00 -0.36544885960E+03  0.10641115891E+04  0.99939011653E+03 0.  0.
        1    1    3    3  502    0  0.13653248288E+03 -0.23295612087E+03 -0.63041239168E+03  0.68580569897E+03  0.50400001928E-02 0. -1.
       -1    1    3    3    0  502 -0.13653248288E+03  0.23295612087E+03  0.26496353208E+03  0.37830589011E+03  0.50400001928E-02 0.  1.
</event>
<event>
 5   0  0.5826939E-04  0.9998967E+03  0.7818609E-02  0.9308658E-01
        1   -1    0    0  501    0  0.00000000000E+00  0.00000000000E+00  0.44987290808E+03  0.44987290811E+03  0.50400001928E-02 0. -1.
       -1   -1    0    0    0  501  0.00000000000E+00  0.00000000000E+00 -0.55559771579E+03  0.55559771581E+03  0.50400001928E-02 0.  1.
    10030    2    1    2    0    0  0.00000000000E+00  0.00000000000E+00 -0.10572480771E+03  0.10054706239E+04  0.99989671497E+03 0.  0.
        1    1    3    3  502    0  0.17829759991E+03  0.97943845430E+02  0.40637293750E+03  0.45444691148E+03  0.50400001928E-02 0. -1.
       -1    1    3    3    0  502 -0.17829759991E+03 -0.97943845430E+02 -0.51209774522E+03  0.55102371244E+03  0.50400001928E-02 0.  1.
</event>
<event>
 5   0  0.9741826E-04  0.9982263E+03  0.7818609E-02  0.9310492E-01
        2   -1    0    0  501    0  0.00000000000E+00  0.00000000000E+00  0.66892719753E+03  0.66892719753E+03  0.25500000920E-02 0.  1.
       -2   -1    0    0    0  501  0.00000000000E+00  0.00000000000E+00 -0.37240818030E+03  0.37240818031E+03  0.25500000920E-02 0. -1.
    10030    2    1    2    0    0  0.00000000000E+00  0.00000000000E+00  0.29651901723E+03  0.10413353778E+04  0.99822634787E+03 0.  0.
        3    1    3    3  502    0  0.17822722278E+03  0.25859020895E+03  0.55292963590E+03  0.63589702905E+03  0.10100000352E+00 0.  1.
       -3    1    3    3    0  502 -0.17822722278E+03 -0.25859020895E+03 -0.25641061867E+03  0.40543834879E+03  0.10100000352E+00 0. -1.
</event>
<event>
 5   0  0.5758786E-04  0.9853407E+03  0.7818609E-02  0.9324771E-01
        1   -1    0    0  501    0  0.00000000000E+00  0.00000000000E+00  0.11140606434E+04  0.11140606434E+04  0.50400001928E-02 0.  1.
       -1   -1    0    0    0  501  0.00000000000E+00  0.00000000000E+00 -0.21787332638E+03  0.21787332643E+03  0.50400001928E-02 0. -1.
    10030    2    1    2    0    0  0.00000000000E+00  0.00000000000E+00  0.89618731704E+03  0.13319339699E+04  0.98534074961E+03 0.  0.
        3    1    3    3  502    0  0.39932956566E+03 -0.16222631230E+03  0.12553037244E+03  0.44893135668E+03  0.10100000352E+00 0. -1.
       -3    1    3    3    0  502 -0.39932956566E+03  0.16222631230E+03  0.77065694460E+03  0.88300261318E+03  0.10100000352E+00 0.  1.
</event>
<event>
 5   0  0.5960102E-04  0.1000508E+04  0.7818609E-02  0.9307987E-01
        1   -1    0    0  501    0  0.00000000000E+00  0.00000000000E+00  0.39489773057E+03  0.39489773061E+03  0.50400001928E-02 0.  1.
       -1   -1    0    0    0  501  0.00000000000E+00  0.00000000000E+00 -0.63371911293E+03  0.63371911295E+03  0.50400001928E-02 0. -1.
    10030    2    1    2    0    0  0.00000000000E+00  0.00000000000E+00 -0.23882138236E+03  0.10286168436E+04  0.10005083499E+04 0.  0.
        5    1    3    3  502    0 -0.49004056319E+03 -0.24479486299E+01 -0.22266331189E+03  0.53828132653E+03  0.46999998093E+01 0. -1.
       -5    1    3    3    0  502  0.49004056319E+03  0.24479486299E+01 -0.16158070465E+02  0.49033551703E+03  0.46999998093E+01 0.  1.
</event>
<event>
 5   0  0.5826939E-04  0.1000224E+04  0.7818609E-02  0.9308299E-01
       -1   -1    0    0    0  501  0.00000000000E+00  0.00000000000E+00  0.46532840342E+03  0.46532840344E+03  0.50400001928E-02 0.  1.
        1   -1    0    0  501    0  0.00000000000E+00  0.00000000000E+00 -0.53749597008E+03  0.53749597011E+03  0.50400001928E-02 0. -1.
    10030    2    1    2    0    0  0.00000000000E+00  0.00000000000E+00 -0.72167566667E+02  0.10028243735E+04  0.10002242581E+04 0.  0.
        1    1    3    3  502    0  0.33142474738E+03 -0.32064925707E+03  0.15794923028E+03  0.48744873433E+03  0.50400001928E-02 0. -1.
       -1    1    3    3    0  502 -0.33142474738E+03  0.32064925707E+03 -0.23011679695E+03  0.51537563922E+03  0.50400001928E-02 0.  1.
</event>
<event>
 5   0  0.5826939E-04  0.9998862E+03  0.7818609E-02  0.9308670E-01
       -1   -1    0    0    0  501  0.00000000000E+00  0.00000000000E+00  0.68844000087E+03  0.68844000089E+03  0.50400001928E-02 0. -1.
        1   -1    0    0  501    0  0.00000000000E+00  0.00000000000E+00 -0.36305718858E+03  0.36305718862E+03  0.50400001928E-02 0.  1.
    10030    2    1    2    0    0  0.00000000000E+00  0.00000000000E+00  0.32538281229E+03  0.10514971895E+04  0.99988617602E+03 0.  0.
        1    1    3    3  502    0 -0.13149287256E+03 -0.48036293432E+03  0.20858056229E+03  0.53994886350E+03  0.50400001928E-02 0.  1.
       -1    1    3    3    0  502  0.13149287256E+03  0.48036293432E+03  0.11680225000E+03  0.51154832600E+03  0.50400001928E-02 0. -1.
</event>
<event>
 5   0  0.9741826E-04  0.9994509E+03  0.7818609E-02  0.9309147E-01
       -2   -1    0    0    0  501  0.00000000000E+00  0.00000000000E+00  0.32630730958E+03  0.32630730959E+03  0.25500000920E-02 0.  1.
        2   -1    0    0  501    0  0.00000000000E+00  0.00000000000E+00 -0.76530775187E+03  0.76530775187E+03  0.25500000920E-02 0. -1.
    10030    2    1    2    0    0  0.00000000000E+00  0.00000000000E+00 -0.43900044229E+03  0.10916150615E+04  0.99945087627E+03 0.  0.
        3    1    3    3  502    0 -0.49524553236E+03 -0.64887479052E+02 -0.20233537613E+03  0.53890457124E+03  0.10100000352E+00 0. -1.
       -3    1    3    3    0  502  0.49524553236E+03  0.64887479052E+02 -0.23666506615E+03  0.55271049022E+03  0.10100000352E+00 0.  1.
</event>
<event>
 5   0  0.5826939E-04  0.1000219E+04  0.7818609E-02  0.9308305E-01
       -1   -1    0    0    0  501  0.00000000000E+00  0.00000000000E+00  0.11727671770E+04  0.11727671770E+04  0.50400001928E-02 0.  1.
        1   -1    0    0  501    0  0.00000000000E+00  0.00000000000E+00 -0.21326445126E+03  0.21326445132E+03  0.50400001928E-02 0. -1.
    10030    2    1    2    0    0  0.00000000000E+00  0.00000000000E+00  0.95950272571E+03  0.13860316283E+04  0.10002190730E+04 0.  0.
        1    1    3    3  502    0  0.26020150566E+03  0.41996565973E+03  0.37211347384E+03  0.61850175128E+03  0.50400001928E-02 0.  1.
       -1    1    3    3    0  502 -0.26020150566E+03 -0.41996565973E+03  0.58738925186E+03  0.76752987702E+03  0.50400001928E-02 0. -1.
</event>
<event>
 5   0  0.5888774E-04  0.1003567E+04  0.7818609E-02  0.9304641E-01
        1   -1    0    0  501    0  0.00000000000E+00  0.00000000000E+00  0.78625260038E+03  0.78625260040E+03  0.50400001928E-02 0.  1.
       -1   -1    0    0    0  501  0.00000000000E+00  0.00000000000E+00 -0.32023622837E+03  0.32023622841E+03  0.50400001928E-02 0. -1.
    10030    2    1    2    0    0  0.00000000000E+00  0.00000000000E+00  0.46601637201E+03  0.11064888288E+04  0.10035667737E+04 0.  0.
        2    1    3    3  502    0  0.32418467119E+03 -0.97936556067E+02 -0.17523446340E+03  0.38130615943E+03  0.25500000920E-02 0. -1.
       -2    1    3    3    0  502 -0.32418467119E+03  0.97936556067E+02  0.64125083541E+03  0.72518266938E+03  0.25500000920E-02 0.  1.
</event>
<event>
 5   0  0.5960102E-04  0.9992683E+03  0.7818609E-02  0.9309348E-01
       -1   -1    0    0    0  501  0.00000000000E+00  0.00000000000E+00  0.27287626418E+03  0.27287626423E+03  0.50400001928E-02 0.  1.
        1   -1    0    0  501    0  0.00000000000E+00  0.00000000000E+00 -0.91482596146E+03  0.91482596147E+03  0.50400001928E-02 0. -1.
    10030    2    1    2    0    0  0.00000000000E+00  0.00000000000E+00 -0.64194969728E+03  0.11877022257E+04  0.99926831387E+03 0.  0.
        5    1    3    3  502    0 -0.16333170165E+02  0.29430257792E+03 -0.80044454313E+03  0.85300312804E+03  0.46999998093E+01 0. -1.
       -5    1    3    3    0  502  0.16333170165E+02 -0.29430257792E+03  0.15849484585E+03  0.33469909766E+03  0.46999998093E+01 0.  1.
</event>
<event>
 5   0  0.9674819E-04  0.9969872E+03  0.7818609E-02  0.9311855E-01
        2   -1    0    0  501    0  0.00000000000E+00  0.00000000000E+00  0.10620728959E+04  0.10620728959E+04  0.25500000920E-02 0.  1.
       -2   -1    0    0    0  501  0.00000000000E+00  0.00000000000E+00 -0.23397252151E+03  0.23397252152E+03  0.25500000920E-02 0. -1.
    10030    2    1    2    0    0  0.00000000000E+00  0.00000000000E+00  0.82810037438E+03  0.12960454174E+04  0.99698720852E+03 0.  0.
        4    1    3    3  502    0  0.47469077965E+03 -0.14669924665E+03  0.36136955535E+03  0.61436273788E+03  0.12699999809E+01 0. -1.
       -4    1    3    3    0  502 -0.47469077965E+03  0.14669924665E+03  0.46673081903E+03  0.68168267954E+03  0.12699999809E+01 0.  1.
</event>
<event>
 5   0  0.9741826E-04  0.9978844E+03  0.7818609E-02  0.9310868E-01
       -2   -1    0    0    0  501  0.00000000000E+00  0.00000000000E+00  0.25002416188E+03  0.25002416190E+03  0.25500000920E-02 0. -1.
        2   -1    0    0  501    0  0.00000000000E+00  0.00000000000E+00 -0.99567696795E+03  0.99567696795E+03  0.25500000920E-02 0.  1.
    10030    2    1    2    0    0  0.00000000000E+00  0.00000000000E+00 -0.74565280606E+03  0.12457011298E+04  0.99788436089E+03 0.  0.
        3    1    3    3  502    0 -0.14521180110E+01 -0.17171545002E+03  0.21197225464E+03  0.27280130381E+03  0.10100000352E+00 0. -1.
       -3    1    3    3    0  502  0.14521180110E+01  0.17171545002E+03 -0.95762506070E+03  0.97289982604E+03  0.10100000352E+00 0.  1.
</event>
<event>
 5   0  0.5768102E-04  0.9996485E+03  0.7818609E-02  0.9308930E-01
       -1   -1    0    0    0  501  0.00000000000E+00  0.00000000000E+00  0.45417998536E+03  0.45417998539E+03  0.50400001928E-02 0. -1.
        1   -1    0    0  501    0  0.00000000000E+00  0.00000000000E+00 -0.55005563559E+03  0.55005563561E+03  0.50400001928E-02 0.  1.
    10030    2    1    2    0    0  0.00000000000E+00  0.00000000000E+00 -0.95875650228E+02  0.10042356210E+04  0.99964845930E+03 0.  0.
        4    1    3    3  502    0  0.30231946509E+03 -0.39582901385E+03 -0.59731751269E+01  0.49811139206E+03  0.12699999809E+01 0. -1.
       -4    1    3    3    0  502 -0.30231946509E+03  0.39582901385E+03 -0.89902475101E+02  0.50612422893E+03  0.12699999809E+01 0.  1.
</event>
<event>
 5   0  0.5888774E-04  0.9998028E+03  0.7818609E-02  0.9308761E-01
        1   -1    0    0  501    0  0.00000000000E+00  0.00000000000E+00  0.62020423112E+03  0.62020423114E+03  0.50400001928E-02 0.  1.
       -1   -1    0    0    0  501  0.00000000000E+00  0.00000000000E+00 -0.40293409002E+03  0.40293409005E+03  0.50400001928E-02 0. -1.
    10030    2    1    2    0    0  0.00000000000E+00  0.00000000000E+00  0.21727014110E+03  0.10231383212E+04  0.99980283559E+03 0.  0.
        2    1    3    3  502    0 -0.30681162504E+03 -0.33094575423E+03  0.32869593227E+03  0.55830052964E+03  0.25500000920E-02 0.  1.
       -2    1    3    3    0  502  0.30681162504E+03  0.33094575423E+03 -0.11142579117E+03  0.46483779154E+03  0.25500000920E-02 0. -1.
</event>
<event>
 5   0  0.5768102E-04  0.1000390E+04  0.7818609E-02  0.9308118E-01
       -1   -1    0    0    0  501  0.00000000000E+00  0.00000000000E+00  0.69608993059E+03  0.69608993061E+03  0.50400001928E-02 0. -1.
        1   -1    0    0  501    0  0.00000000000E+00  0.00000000000E+00 -0.35942894220E+03  0.35942894223E+03  0.50400001928E-02 0.  1.
    10030    2    1    2    0    0  0.00000000000E+00  0.00000000000E+00  0.33666098839E+03  0.10555188728E+04  0.10003896590E+04 0.  0.
        4    1    3    3  502    0 -0.29045607831E+02 -0.86610104045E+02  0.68721216058E+03  0.69325833858E+03  0.12699999809E+01 0. -1.
       -4    1    3    3    0  502  0.29045607831E+02  0.86610104045E+02 -0.35055117219E+03  0.36226053426E+03  0.12699999809E+01 0.  1.
</event>
<event>
 5   0  0.5826939E-04  0.9998250E+03  0.7818609E-02  0.9308737E-01
       -1   -1    0    0    0  501  0.00000000000E+00  0.00000000000E+00  0.42657814333E+03  0.42657814336E+03  0.50400001928E-02 0. -1.
        1   -1    0    0  501    0  0.00000000000E+00  0.00000000000E+00 -0.58585404510E+03  0.58585404512E+03  0.50400001928E-02 0.  1.
    10030    2    1    2    0    0  0.00000000000E+00  0.00000000000E+00 -0.15927590177E+03  0.10124321885E+04  0.99982504639E+03 0.  0.
        1    1    3    3  502    0 -0.98819187792E+02  0.48691929504E+03 -0.13562434300E+03  0.51502387731E+03  0.50400001928E-02 0. -1.
       -1    1    3    3    0  502  0.98819187792E+02 -0.48691929504E+03 -0.23651558767E+02  0.49740831117E+03  0.50400001928E-02 0.  1.
</event>
<event>
 5   0  0.3854625E-04  0.1007526E+04  0.7818609E-02  0.9300328E-01
       -3   -1    0    0    0  501  0.00000000000E+00  0.00000000000E+00  0.42664307986E+03  0.42664309181E+03  0.10100000352E+00 0.  1.
        3   -1    0    0  501    0  0.00000000000E+00  0.00000000000E+00 -0.59482361456E+03  0.59482362314E+03  0.10100000352E+00 0. -1.
    10030    2    1    2    0    0  0.00000000000E+00  0.00000000000E+00 -0.16818053470E+03  0.10214667150E+04  0.10075264550E+04 0.  0.
        4    1    3    3  502    0  0.48397855827E+03 -0.10798987064E+03  0.59000076973E+01  0.49591680755E+03  0.12699999809E+01 0. -1.
       -4    1    3    3    0  502 -0.48397855827E+03  0.10798987064E+03 -0.17408054240E+03  0.52554990740E+03  0.12699999809E+01 0.  1.
</event>
<event>
 5   0  0.5768102E-04  0.9987719E+03  0.7818609E-02  0.9309893E-01
        1   -1    0    0  501    0  0.00000000000E+00  0.00000000000E+00  0.11954029763E+04  0.11954029763E+04  0.50400001928E-02 0.  1.
       -1   -1    0    0    0  501  0.00000000000E+00  0.00000000000E+00 -0.20862113648E+03  0.20862113655E+03  0.50400001928E-02 0. -1.
    10030    2    1    2    0    0  0.00000000000E+00  0.00000000000E+00  0.98678183984E+03  0.14040241129E+04  0.99877190094E+03 0.  0.
        4    1    3    3  502    0  0.20751094847E+03 -0.23208325462E+03 -0.55502515939E+02  0.31623657755E+03  0.12699999809E+01 0. -1.
       -4    1    3    3    0  502 -0.20751094847E+03  0.23208325462E+03  0.10422843558E+04  0.10877875353E+04  0.12699999809E+01 0.  1.
</event>
<event>
 5   0  0.9674819E-04  0.9987090E+03  0.7818609E-02  0.9309962E-01
        2   -1    0    0  501    0  0.00000000000E+00  0.00000000000E+00  0.12393993483E+04  0.12393993483E+04  0.25500000920E-02 0. -1.
       -2   -1    0    0    0  501  0.00000000000E+00  0.00000000000E+00 -0.20119014562E+03  0.20119014564E+03  0.25500000920E-02 0.  1.
    10030    2    1    2    0    0  0.00000000000E+00  0.00000000000E+00  0.10382092027E+04  0.14405894939E+04  0.99870903746E+03 0.  0.
        4    1    3    3  502    0  0.12625061906E+03  0.23478355004E+03  0.11281725078E+04  0.11592399900E+04  0.12699999809E+01 0. -1.
       -4    1    3    3    0  502 -0.12625061906E+03 -0.23478355004E+03 -0.89963305134E+02  0.28134950392E+03  0.12699999809E+01 0.  1.
</event>
<event>
 5   0  0.3854625E-04  0.9984310E+03  0.7818609E-02  0.9310267E-01
        3   -1    0    0  501    0  0.00000000000E+00  0.00000000000E+00  0.21192686431E+03  0.21192688838E+03  0.10100000352E+00 0. -1.
       -3   -1    0    0    0  501  0.00000000000E+00  0.00000000000E+00 -0.11759533231E+04  0.11759533275E+04  0.10100000352E+00 0.  1.
    10030    2    1    2    0    0  0.00000000000E+00  0.00000000000E+00 -0.96402645881E+03  0.13878802158E+04  0.99843100924E+03 0.  0.
        3    1    3    3  502    0 -0.47976769354E+03  0.12612837705E+03 -0.55979088183E+03  0.74796473770E+03  0.10100000352E+00 0.  1.
       -3    1    3    3    0  502  0.47976769354E+03 -0.12612837705E+03 -0.40423557698E+03  0.63991547813E+03  0.10100000352E+00 0. -1.
</event>
<event>
 5   0  0.9674819E-04  0.9965391E+03  0.7818609E-02  0.9312349E-01
        2   -1    0    0  501    0  0.00000000000E+00  0.00000000000E+00  0.24516024393E+04  0.24516024393E+04  0.25500000920E-02 0.  1.
       -2   -1    0    0    0  501  0.00000000000E+00  0.00000000000E+00 -0.10126950406E+03  0.10126950409E+03  0.25500000920E-02 0. -1.
    10030    2    1    2    0    0  0.00000000000E+00  0.00000000000E+00  0.23503329352E+04  0.25528719434E+04  0.99653913763E+03 0.  0.
        4    1    3    3  502    0 -0.13281170085E+03  0.18158773735E+03  0.36250308450E+02  0.22787880990E+03  0.12699999809E+01 0. -1.
       -4    1    3    3    0  502  0.13281170085E+03 -0.18158773735E+03  0.23140826268E+04  0.23249931335E+04  0.12699999809E+01 0.  1.
</event>
<event>
 5   0  0.5826939E-04  0.9972350E+03  0.7818609E-02  0.9311583E-01
        1   -1    0    0  501    0  0.00000000000E+00  0.00000000000E+00  0.93980609544E+03  0.93980609545E+03  0.50400001928E-02 0.  1.
       -1   -1    0    0    0  501  0.00000000000E+00  0.00000000000E+00 -0.26454330677E+03  0.26454330682E+03  0.50400001928E-02 0. -1.
    10030    2    1    2    0    0  0.00000000000E+00  0.00000000000E+00  0.67526278867E+03  0.12043494023E+04  0.99723500189E+03 0.  0.
        1    1    3    3  502    0 -0.24067668940E+03 -0.30034947369E+03  0.72045981687E+03  0.81682153676E+03  0.50400001928E-02 0.  1.
       -1    1    3    3    0  502  0.24067668940E+03  0.30034947369E+03 -0.45197028198E+02  0.38752786551E+03  0.50400001928E-02 0. -1.
</event>
<event>
 5   0  0.5768102E-04  0.1000406E+04  0.7818609E-02  0.9308099E-01
        1   -1    0    0  501    0  0.00000000000E+00  0.00000000000E+00  0.17640354908E+04  0.17640354908E+04  0.50400001928E-02 0. -1.
       -1   -1    0    0    0  501  0.00000000000E+00  0.00000000000E+00 -0.14183572965E+03  0.14183572974E+03  0.50400001928E-02 0.  1.
    10030    2    1    2    0    0  0.00000000000E+00  0.00000000000E+00  0.16221997612E+04  0.19058712206E+04  0.10004064395E+04 0.  0.
        4    1    3    3  502    0 -0.49986420909E+03  0.12092904822E+02  0.83744140524E+03  0.97535644048E+03  0.12699999809E+01 0. -1.
       -4    1    3    3    0  502  0.49986420909E+03 -0.12092904822E+02  0.78475835592E+03  0.93051478008E+03  0.12699999809E+01 0.  1.
</event>
<event>
 5   0  0.9674819E-04  0.9995906E+03  0.7818609E-02  0.9308994E-01
        2   -1    0    0  501    0  0.00000000000E+00  0.00000000000E+00  0.38491109155E+03  0.38491109155E+03  0.25500000920E-02 0.  1.
       -2   -1    0    0    0  501  0.00000000000E+00  0.00000000000E+00 -0.64896899025E+03  0.64896899025E+03  0.25500000920E-02 0. -1.
    10030    2    1    2    0    0  0.00000000000E+00  0.00000000000E+00 -0.26405789870E+03  0.10338800818E+04  0.99959064106E+03 0.  0.
        4    1    3    3  502    0 -0.27243569187E+02 -0.29778628615E+03  0.28217681591E+03  0.41114991502E+03  0.12699999809E+01 0.  1.
       -4    1    3    3    0  502  0.27243569187E+02  0.29778628615E+03 -0.54623471462E+03  0.62273016679E+03  0.12699999809E+01 0. -1.
</event>
<event>
 5   0  0.9674819E-04  0.9997504E+03  0.7818609E-02  0.9308819E-01
       -2   -1    0    0    0  501  0.00000000000E+00  0.00000000000E+00  0.56055774167E+03  0.56055774167E+03  0.25500000920E-02 0.  1.
        2   -1    0    0  501    0  0.00000000000E+00  0.00000000000E+00 -0.44576174427E+03  0.44576174427E+03  0.25500000920E-02 0. -1.
    10030    2    1    2    0    0  0.00000000000E+00  0.00000000000E+00  0.11479599740E+03  0.10063194859E+04  0.99975036223E+03 0.  0.
        4    1    3    3  502    0  0.27222216785E+03 -0.46239276875E+02  0.47682602870E+03  0.55100603803E+03  0.12699999809E+01 0.  1.
       -4    1    3    3    0  502 -0.27222216785E+03  0.46239276875E+02 -0.36203003130E+03  0.45531344792E+03  0.12699999809E+01 0. -1.
</event>
<event>
 5   0  0.1020150E-03  0.9985731E+03  0.7818609E-02  0.9310111E-01
        2   -1    0    0  501    0  0.00000000000E+00  0.00000000000E+00  0.14994022646E+04  0.14994022646E+04  0.25500000920E-02 0.  1.
       -2   -1    0    0    0  501  0.00000000000E+00  0.00000000000E+00 -0.16625763299E+03  0.16625763301E+03  0.25500000920E-02 0. -1.
    10030    2    1    2    0    0  0.00000000000E+00  0.00000000000E+00  0.13331446317E+04  0.16656598977E+04  0.99857312488E+03 0.  0.
        5    1    3    3  502    0 -0.53688985691E+02  0.15085672974E+02  0.14941536679E+04  0.14952014439E+04  0.46999998093E+01 0.  1.
       -5    1    3    3    0  502  0.53688985691E+02 -0.15085672974E+02 -0.16100903620E+03  0.17045845374E+03  0.46999998093E+01 0. -1.
</event>
<event>
 5   0  0.1006749E-03  0.9994723E+03  0.7818609E-02  0.9309124E-01
        2   -1    0    0  501    0  0.00000000000E+00  0.00000000000E+00  0.14358838663E+04  0.14358838663E+04  0.25500000920E-02 0. -1.
       -2   -1    0    0    0  501  0.00000000000E+00  0.00000000000E+00 -0.17392507803E+03  0.17392507805E+03  0.25500000920E-02 0.  1.
    10030    2    1    2    0    0  0.00000000000E+00  0.00000000000E+00  0.12619587883E+04  0.16098089443E+04  0.99947228777E+03 0.  0.
        1    1    3    3  502    0  0.30919607201E+03  0.35862362313E+02  0.12606788354E+04  0.12985374258E+04  0.50400001928E-02 0. -1.
       -1    1    3    3    0  502 -0.30919607201E+03 -0.35862362313E+02  0.12799528320E+01  0.31127151858E+03  0.50400001928E-02 0.  1.
</event>
<event>
 5   0  0.5960102E-04  0.9994057E+03  0.7818609E-02  0.9309197E-01
       -1   -1    0    0    0  501  0.00000000000E+00  0.00000000000E+00  0.99892145163E+03  0.99892145165E+03  0.50400001928E-02 0.  1.
        1   -1    0    0  501    0  0.00000000000E+00  0.00000000000E+00 -0.24997255780E+03  0.24997255785E+03  0.50400001928E-02 0. -1.
    10030    2    1    2    0    0  0.00000000000E+00  0.00000000000E+00  0.74894889383E+03  0.12488940095E+04  0.99940572411E+03 0.  0.
        5    1    3    3  502    0 -0.77540623011E+02  0.29897017240E+03  0.86532107378E+03  0.91880267900E+03  0.46999998093E+01 0.  1.
       -5    1    3    3    0  502  0.77540623011E+02 -0.29897017240E+03 -0.11637217995E+03  0.33009133050E+03  0.46999998093E+01 0. -1.
</event>
<event>
 5   0  0.1020150E-03  0.9991409E+03  0.7818609E-02  0.9309488E-01
        2   -1    0    0  501    0  0.00000000000E+00  0.00000000000E+00  0.60802621471E+03  0.60802621472E+03  0.25500000920E-02 0. -1.
       -2   -1    0    0    0  501  0.00000000000E+00  0.00000000000E+00 -0.41046028850E+03  0.41046028851E+03  0.25500000920E-02 0.  1.
    10030    2    1    2    0    0  0.00000000000E+00  0.00000000000E+00  0.19756592621E+03  0.10184865032E+04  0.99914086196E+03 0.  0.
        5    1    3    3  502    0 -0.97756107864E+02  0.33158168009E+03  0.46638407824E+03  0.58055048500E+03  0.46999998093E+01 0. -1.
       -5    1    3    3    0  502  0.97756107864E+02 -0.33158168009E+03 -0.26881815203E+03  0.43793601822E+03  0.46999998093E+01 0.  1.
</event>
<event>
 5   0  0.3854625E-04  0.9993651E+03  0.7818609E-02  0.9309241E-01
       -4   -1    0    0    0  501  0.00000000000E+00  0.00000000000E+00  0.52325571844E+03  0.52325725966E+03  0.12699999809E+01 0.  1.
        4   -1    0    0  501    0  0.00000000000E+00  0.00000000000E+00 -0.47716826722E+03  0.47716995729E+03  0.12699999809E+01 0. -1.
    10030    2    1    2    0    0  0.00000000000E+00  0.00000000000E+00  0.46087451226E+02  0.10004272169E+04  0.99936508006E+03 0.  0.
        5    1    3    3  502    0 -0.13837519814E+02 -0.17034130418E+03 -0.44697942577E+03  0.47856068990E+03  0.46999998093E+01 0. -1.
       -5    1    3    3    0  502  0.13837519814E+02  0.17034130418E+03  0.49306687699E+03  0.52186652704E+03  0.46999998093E+01 0.  1.
</event>
<event>
 5   0  0.1020150E-03  0.9997911E+03  0.7818609E-02  0.9308774E-01
        2   -1    0    0  501    0  0.00000000000E+00  0.00000000000E+00  0.24925083354E+04  0.24925083354E+04  0.25500000920E-02 0. -1.
       -2   -1    0    0    0  501  0.00000000000E+00  0.00000000000E+00 -0.10025866913E+03  0.10025866917E+03  0.25500000920E-02 0.  1.
    10030    2    1    2    0    0  0.00000000000E+00  0.00000000000E+00  0.23922496663E+04  0.25927670046E+04  0.99979111530E+03 0.  0.
        5    1    3    3  502    0  0.63945506302E+02  0.49333220181E+03  0.13233764976E+04  0.14137938794E+04  0.46999998093E+01 0. -1.
       -5    1    3    3    0  502 -0.63945506302E+02 -0.49333220181E+03  0.10688731687E+04  0.11789731252E+04  0.46999998093E+01 0.  1.
</event>
<event>
 5   0  0.5758786E-04  0.9929503E+03  0.7818609E-02  0.9316311E-01
        1   -1    0    0  501    0  0.00000000000E+00  0.00000000000E+00  0.93175196374E+03  0.93175196375E+03  0.50400001928E-02 0.  1.
       -1   -1    0    0    0  501  0.00000000000E+00  0.00000000000E+00 -0.26454205022E+03  0.26454205027E+03  0.50400001928E-02 0. -1.
    10030    2    1    2    0    0  0.00000000000E+00  0.00000000000E+00  0.66720991352E+03  0.11962940140E+04  0.99295030052E+03 0.  0.
        3    1    3    3  502    0 -0.17465501860E+03  0.39222502068E+02 -0.22431020276E+03  0.28698058724E+03  0.10100000352E+00 0. -1.
       -3    1    3    3    0  502  0.17465501860E+03 -0.39222502068E+02  0.89152011628E+03  0.90931342678E+03  0.10100000352E+00 0.  1.
</event>
<event>
 5   0  0.5768102E-04  0.1000243E+04  0.7818609E-02  0.9308278E-01
        1   -1    0    0  501    0  0.00000000000E+00  0.00000000000E+00  0.81951075224E+03  0.81951075225E+03  0.50400001928E-02 0.  1.
       -1   -1    0    0    0  501  0.00000000000E+00  0.00000000000E+00 -0.30520858485E+03  0.30520858490E+03  0.50400001928E-02 0. -1.
    10030    2    1    2    0    0  0.00000000000E+00  0.00000000000E+00  0.51430216738E+03  0.11247193371E+04  0.10002434044E+04 0.  0.
        4    1    3    3  502    0  0.16093541945E+03 -0.12924443580E+03  0.76937991493E+03  0.79658734601E+03  0.12699999809E+01 0.  1.
       -4    1    3    3    0  502 -0.16093541945E+03  0.12924443580E+03 -0.25507774754E+03  0.32813199114E+03  0.12699999809E+01 0. -1.
</event>
<event>
 5   0  0.5758786E-04  0.9991217E+03  0.7818609E-02  0.9309509E-01
       -1   -1    0    0    0  501  0.00000000000E+00  0.00000000000E+00  0.40645526368E+03  0.40645526371E+03  0.50400001928E-02 0.  1.
        1   -1    0    0  501    0  0.00000000000E+00  0.00000000000E+00 -0.61399387799E+03  0.61399387801E+03  0.50400001928E-02 0. -1.
    10030    2    1    2    0    0  0.00000000000E+00  0.00000000000E+00 -0.20753861431E+03  0.10204491417E+04  0.99912170150E+03 0.  0.
        3    1    3    3  502    0  0.24118889943E+03  0.42205040337E+03 -0.22139010445E+03  0.53414625033E+03  0.10100000352E+00 0. -1.
       -3    1    3    3    0  502 -0.24118889943E+03 -0.42205040337E+03  0.13851490138E+02  0.48630289139E+03  0.10100000352E+00 0.  1.
</event>
<event>
 5   0  0.5758786E-04  0.1003047E+04  0.7818609E-02  0.9305209E-01
       -1   -1    0    0    0  501  0.00000000000E+00  0.00000000000E+00  0.49247088813E+03  0.49247088815E+03  0.50400001928E-02 0. -1.
        1   -1    0    0  501    0  0.00000000000E+00  0.00000000000E+00 -0.51074242792E+03  0.51074242795E+03  0.50400001928E-02 0.  1.
    10030    2    1    2    0    0  0.00000000000E+00  0.00000000000E+00 -0.18271539796E+02  0.10032133161E+04  0.10030469124E+04 0.  0.
        3    1    3    3  502    0  0.11877187368E+02 -0.18057582036E+03  0.45867794080E+03  0.49308635963E+03  0.10100000352E+00 0. -1.
       -3    1    3    3    0  502 -0.11877187368E+02  0.18057582036E+03 -0.47694948059E+03  0.51012695647E+03  0.10100000352E+00 0.  1.
</event>
<event>
 5   0  0.1006006E-03  0.1010509E+04  0.7818609E-02  0.9297093E-01
       -2   -1    0    0    0  501  0.00000000000E+00  0.00000000000E+00  0.49298168399E+03  0.49298168400E+03  0.25500000920E-02 0. -1.
        2   -1    0    0  501    0  0.00000000000E+00  0.00000000000E+00 -0.51783316467E+03  0.51783316468E+03  0.25500000920E-02 0.  1.
    10030    2    1    2    0    0  0.00000000000E+00  0.00000000000E+00 -0.24851480681E+02  0.10108148487E+04  0.10105093083E+04 0.  0.
        2    1    3    3  502    0  0.28804770766E+03  0.21535812012E+03  0.34255007483E+03  0.49668013405E+03  0.25500000920E-02 0. -1.
       -2    1    3    3    0  502 -0.28804770766E+03 -0.21535812012E+03 -0.36740155551E+03  0.51413471463E+03  0.25500000920E-02 0.  1.
</event>
<event>
 5   0  0.5960102E-04  0.1000380E+04  0.7818609E-02  0.9308128E-01
        1   -1    0    0  501    0  0.00000000000E+00  0.00000000000E+00  0.11398111275E+04  0.11398111276E+04  0.50400001928E-02 0.  1.
       -1   -1    0    0    0  501  0.00000000000E+00  0.00000000000E+00 -0.21950121715E+03  0.21950121720E+03  0.50400001928E-02 0. -1.
    10030    2    1    2    0    0  0.00000000000E+00  0.00000000000E+00  0.92030991040E+03  0.13593123448E+04  0.10003797876E+04 0.  0.
        5    1    3    3  502    0  0.71411852753E+02  0.14694263351E+03 -0.18219225983E+03  0.24476090332E+03  0.46999998093E+01 0. -1.
       -5    1    3    3    0  502 -0.71411852753E+02 -0.14694263351E+03  0.11025021702E+04  0.11145514414E+04  0.46999998093E+01 0.  1.
</event>
<event>
 5   0  0.5888774E-04  0.1001347E+04  0.7818609E-02  0.9307069E-01
       -1   -1    0    0    0  501  0.00000000000E+00  0.00000000000E+00  0.30398619264E+03  0.30398619268E+03  0.50400001928E-02 0. -1.
        1   -1    0    0  501    0  0.00000000000E+00  0.00000000000E+00 -0.82462247074E+03  0.82462247076E+03  0.50400001928E-02 0.  1.
    10030    2    1    2    0    0  0.00000000000E+00  0.00000000000E+00 -0.52063627811E+03  0.11286086634E+04  0.10013467836E+04 0.  0.
        2    1    3    3  502    0  0.19816216334E+03  0.20579617774E+03 -0.72373411469E+03  0.77808185850E+03  0.25500000920E-02 0.  1.
       -2    1    3    3    0  502 -0.19816216334E+03 -0.20579617774E+03  0.20309783658E+03  0.35052680494E+03  0.25500000920E-02 0. -1.
</event>
<event>
 5   0  0.5758786E-04  0.9921641E+03  0.7818609E-02  0.9317181E-01
       -1   -1    0    0    0  501  0.00000000000E+00  0.00000000000E+00  0.38771879563E+03  0.38771879566E+03  0.50400001928E-02 0. -1.
        1   -1    0    0  501    0  0.00000000000E+00  0.00000000000E+00 -0.63473168100E+03  0.63473168102E+03  0.50400001928E-02 0.  1.
    10030    2    1    2    0    0  0.00000000000E+00  0.00000000000E+00 -0.24701288537E+03  0.10224504767E+04  0.99216410524E+03 0.  0.
        3    1    3    3  502    0 -0.36749933609E+03  0.32776758305E+03 -0.61588729169E+02  0.49626659397E+03  0.10100000352E+00 0.  1.
       -3    1    3    3    0  502  0.36749933609E+03 -0.32776758305E+03 -0.18542415620E+03  0.52618388271E+03  0.10100000352E+00 0. -1.
</event>
<event>
 5   0  0.1006749E-03  0.1010859E+04  0.7818609E-02  0.9296715E-01
        2   -1    0    0  501    0  0.00000000000E+00  0.00000000000E+00  0.68138900926E+03  0.68138900926E+03  0.25500000920E-02 0. -1.
       -2   -1    0    0    0  501  0.00000000000E+00  0.00000000000E+00 -0.37490895168E+03  0.37490895169E+03  0.25500000920E-02 0.  1.
    10030    2    1    2    0    0  0.00000000000E+00  0.00000000000E+00  0.30648005758E+03  0.10562979609E+04  0.10108587224E+04 0.  0.
        1    1    3    3  502    0  0.34870917887E+03  0.26869176146E+03 -0.10624783722E+03  0.45285975428E+03  0.50400001928E-02 0.  1.
       -1    1    3    3    0  502 -0.34870917887E+03 -0.26869176146E+03  0.41272789480E+03  0.60343820667E+03  0.50400001928E-02 0. -1.
</event>
<event>
 5   0  0.1006006E-03  0.1000153E+04  0.7818609E-02  0.9308377E-01
        2   -1    0    0  501    0  0.00000000000E+00  0.00000000000E+00  0.21540122431E+04  0.21540122431E+04  0.25500000920E-02 0.  1.
       -2   -1    0    0    0  501  0.00000000000E+00  0.00000000000E+00 -0.11609800572E+03  0.11609800574E+03  0.25500000920E-02 0. -1.
    10030    2    1    2    0    0  0.00000000000E+00  0.00000000000E+00  0.20379142374E+04  0.22701102488E+04  0.10001530398E+04 0.  0.
        2    1    3    3  502    0 -0.11468794266E+03 -0.71784267289E+02  0.21116781632E+04  0.21160082632E+04  0.25500000920E-02 0.  1.
       -2    1    3    3    0  502  0.11468794266E+03  0.71784267289E+02 -0.73763925775E+02  0.15410198563E+03  0.25500000920E-02 0. -1.
</event>
<event>
 5   0  0.5758786E-04  0.1000897E+04  0.7818609E-02  0.9307562E-01
       -1   -1    0    0    0  501  0.00000000000E+00  0.00000000000E+00  0.13568250297E+03  0.13568250307E+03  0.50400001928E-02 0. -1.
        1   -1    0    0  501    0  0.00000000000E+00  0.00000000000E+00 -0.18458427213E+04  0.18458427213E+04  0.50400001928E-02 0.  1.
    10030    2    1    2    0    0  0.00000000000E+00  0.00000000000E+00 -0.17101602184E+04  0.19815252244E+04  0.10008967192E+04 0.  0.
        3    1    3    3  502    0  0.24842843657E+03  0.42757519243E+03 -0.70286685537E+03  0.85939458914E+03  0.10100000352E+00 0.  1.
       -3    1    3    3    0  502 -0.24842843657E+03 -0.42757519243E+03 -0.10072933630E+04  0.11221306353E+04  0.10100000352E+00 0. -1.
</event>
<event>
 5   0  0.1006749E-03  0.1004009E+04  0.7818609E-02  0.9304158E-01
       -2   -1    0    0    0  501  0.00000000000E+00  0.00000000000E+00  0.11786339140E+03  0.11786339143E+03  0.25500000920E-02 0.  1.
        2   -1    0    0  501    0  0.00000000000E+00  0.00000000000E+00 -0.21381425424E+04  0.21381425424E+04  0.25500000920E-02 0. -1.
    10030    2    1    2    0    0  0.00000000000E+00  0.00000000000E+00 -0.20202791510E+04  0.22560059339E+04  0.10040094250E+04 0.  0.
        1    1    3    3  502    0  0.23004471555E+03 -0.33285569922E+03 -0.34245537025E+03  0.53008411436E+03  0.50400001928E-02 0.  1.
       -1    1    3    3    0  502 -0.23004471555E+03  0.33285569922E+03 -0.16778237808E+04  0.17259218195E+04  0.50400001928E-02 0. -1.
</event>
<event>
 5   0  0.5826939E-04  0.1003374E+04  0.7818609E-02  0.9304852E-01
        1   -1    0    0  501    0  0.00000000000E+00  0.00000000000E+00  0.92912007196E+03  0.92912007197E+03  0.50400001928E-02 0. -1.
       -1   -1    0    0    0  501  0.00000000000E+00  0.00000000000E+00 -0.27089058516E+03  0.27089058521E+03  0.50400001928E-02 0.  1.
    10030    2    1    2    0    0  0.00000000000E+00  0.00000000000E+00  0.65822948680E+03  0.12000106572E+04  0.10033740679E+04 0.  0.
        1    1    3    3  502    0  0.70174734780E+01 -0.35514710849E+03  0.75281957193E+03  0.83241577442E+03  0.50400001928E-02 0. -1.
       -1    1    3    3    0  502 -0.70174734780E+01  0.35514710849E+03 -0.94590085131E+02  0.36759488276E+03  0.50400001928E-02 0.  1.
</event>
<event>
 5   0  0.5758786E-04  0.1000001E+04  0.7818609E-02  0.9308544E-01
        1   -1    0    0  501    0  0.00000000000E+00  0.00000000000E+00  0.72816181544E+03  0.72816181545E+03  0.50400001928E-02 0. -1.
       -1   -1    0    0    0  501  0.00000000000E+00  0.00000000000E+00 -0.34333071597E+03  0.34333071601E+03  0.50400001928E-02 0.  1.
    10030    2    1    2    0    0  0.00000000000E+00  0.00000000000E+00  0.38483109947E+03  0.10714925315E+04  0.10000006349E+04 0.  0.
        3    1    3    3  502    0 -0.41977673069E+03  0.20557916108E+03  0.38266197446E+03  0.60407407824E+03  0.10100000352E+00 0. -1.
       -3    1    3    3    0  502  0.41977673069E+03 -0.20557916108E+03  0.21691250023E+01  0.46741845322E+03  0.10100000352E+00 0.  1.
</event>
<event>
 5   0  0.9674819E-04  0.1010457E+04  0.7818609E-02  0.9297150E-01
        2   -1    0    0  501    0  0.00000000000E+00  0.00000000000E+00  0.37874671502E+03  0.37874671503E+03  0.25500000920E-02 0.  1.
       -2   -1    0    0    0  501  0.00000000000E+00  0.00000000000E+00 -0.67394852114E+03  0.67394852114E+03  0.25500000920E-02 0. -1.
    10030    2    1    2    0    0  0.00000000000E+00  0.00000000000E+00 -0.29520180612E+03  0.10526952362E+04  0.10104569035E+04 0.  0.
        4    1    3    3  502    0 -0.44047345421E+03  0.83110071191E+02 -0.39043229303E+03  0.59444355168E+03  0.12699999809E+01 0. -1.
       -4    1    3    3    0  502  0.44047345421E+03 -0.83110071191E+02  0.95230486907E+02  0.45825168449E+03  0.12699999809E+01 0.  1.
</event>
<event>
 5   0  0.3854625E-04  0.9925646E+03  0.7818609E-02  0.9316738E-01
       -4   -1    0    0    0  501  0.00000000000E+00  0.00000000000E+00  0.43020210521E+03  0.43020397979E+03  0.12699999809E+01 0. -1.
        4   -1    0    0  501    0  0.00000000000E+00  0.00000000000E+00 -0.57250871519E+03  0.57251012381E+03  0.12699999809E+01 0.  1.
    10030    2    1    2    0    0  0.00000000000E+00  0.00000000000E+00 -0.14230660998E+03  0.10027141036E+04  0.99256455826E+03 0.  0.
        2    1    3    3  502    0  0.26745011440E+03 -0.36558016907E+03 -0.27600173717E+03  0.53042943229E+03  0.25500000920E-02 0.  1.
       -2    1    3    3    0  502 -0.26745011440E+03  0.36558016907E+03  0.13369512719E+03  0.47228467131E+03  0.25500000920E-02 0. -1.
</event>
<event>
 5   0  0.3854625E-04  0.1001537E+04  0.7818609E-02  0.9306860E-01
       -3   -1    0    0    0  501  0.00000000000E+00  0.00000000000E+00  0.67820551787E+03  0.67820552539E+03  0.10100000352E+00 0.  1.
        3   -1    0    0  501    0  0.00000000000E+00  0.00000000000E+00 -0.36975402502E+03  0.36975403881E+03  0.10100000352E+00 0. -1.
    10030    2    1    2    0    0  0.00000000000E+00  0.00000000000E+00  0.30845149285E+03  0.10479595642E+04  0.10015372808E+04 0.  0.
        1    1    3    3  502    0 -0.37321627351E+03 -0.30650398242E+03  0.15671512013E+02  0.48319837993E+03  0.50400001928E-02 0. -1.
       -1    1    3    3    0  502  0.37321627351E+03  0.30650398242E+03  0.29277998084E+03  0.56476118427E+03  0.50400001928E-02 0.  1.
</event>
<event>
 5   0  0.1006749E-03  0.9957589E+03  0.7818609E-02  0.9313209E-01
       -2   -1    0    0    0  501  0.00000000000E+00  0.00000000000E+00  0.26852750375E+03  0.26852750376E+03  0.25500000920E-02 0.  1.
        2   -1    0    0  501    0  0.00000000000E+00  0.00000000000E+00 -0.92312304669E+03  0.92312304669E+03  0.25500000920E-02 0. -1.
    10030    2    1    2    0    0  0.00000000000E+00  0.00000000000E+00 -0.65459554294E+03  0.11916505505E+04  0.99575886116E+03 0.  0.
        1    1    3    3  502    0 -0.22142711786E+03  0.44490201314E+03 -0.36352038807E+03  0.61572302409E+03  0.50400001928E-02 0.  1.
       -1    1    3    3    0  502  0.22142711786E+03 -0.44490201314E+03 -0.29107515487E+03  0.57592752637E+03  0.50400001928E-02 0. -1.
</event>
<event>
 5   0  0.1020150E-03  0.1005608E+04  0.7818609E-02  0.9302416E-01
        2   -1    0    0  501    0  0.00000000000E+00  0.00000000000E+00  0.42160894610E+03  0.42160894611E+03  0.25500000920E-02 0.  1.
       -2   -1    0    0    0  501  0.00000000000E+00  0.00000000000E+00 -0.59963551987E+03  0.59963551987E+03  0.25500000920E-02 0. -1.
    10030    2    1    2    0    0  0.00000000000E+00  0.00000000000E+00 -0.17802657377E+03  0.10212444660E+04  0.10056076761E+04 0.  0.
        5    1    3    3  502    0  0.27105997565E+03 -0.66081108952E+02 -0.51378672135E+03  0.58467008508E+03  0.46999998093E+01 0. -1.
       -5    1    3    3    0  502 -0.27105997565E+03  0.66081108952E+02  0.33576014758E+03  0.43657438090E+03  0.46999998093E+01 0.  1.
</event>
<event>
 5   0  0.9674819E-04  0.1006287E+04  0.7818609E-02  0.9301676E-01
       -2   -1    0    0    0  501  0.00000000000E+00  0.00000000000E+00  0.26261741763E+03  0.26261741764E+03  0.25500000920E-02 0.  1.
        2   -1    0    0  501    0  0.00000000000E+00  0.00000000000E+00 -0.96396271900E+03  0.96396271900E+03  0.25500000920E-02 0. -1.
    10030    2    1    2    0    0  0.00000000000E+00  0.00000000000E+00 -0.70134530137E+03  0.12265801366E+04  0.10062870365E+04 0.  0.
        4    1    3    3  502    0  0.14652093385E+03  0.31473683926E+03  0.93227523368E+02  0.35947273340E+03  0.12699999809E+01 0.  1.
       -4    1    3    3    0  502 -0.14652093385E+03 -0.31473683926E+03 -0.79457282474E+03  0.86710740324E+03  0.12699999809E+01 0. -1.
</event>
<event>
 5   0  0.5758786E-04  0.1000202E+04  0.7818609E-02  0.9308323E-01
        1   -1    0    0  501    0  0.00000000000E+00  0.00000000000E+00  0.34750679185E+03  0.34750679189E+03  0.50400001928E-02 0. -1.
       -1   -1    0    0    0  501  0.00000000000E+00  0.00000000000E+00 -0.71970140150E+03  0.71970140151E+03  0.50400001928E-02 0.  1.
    10030    2    1    2    0    0  0.00000000000E+00  0.00000000000E+00 -0.37219460964E+03  0.10672081934E+04  0.10002022299E+04 0.  0.
        3    1    3    3  502    0 -0.41381897920E+02 -0.49460136433E+03 -0.25150788996E+03  0.55641639083E+03  0.10100000352E+00 0. -1.
       -3    1    3    3    0  502  0.41381897920E+02  0.49460136433E+03 -0.12068671968E+03  0.51079180258E+03  0.10100000352E+00 0.  1.
</event>
<event>
 5   0  0.5758786E-04  0.9982376E+03  0.7818609E-02  0.9310480E-01
        1   -1    0    0  501    0  0.00000000000E+00  0.00000000000E+00  0.15861623113E+04  0.15861623113E+04  0.50400001928E-02 0.  1.
       -1   -1    0    0    0  501  0.00000000000E+00  0.00000000000E+00 -0.15705804914E+03  0.15705804922E+03  0.50400001928E-02 0. -1.
    10030    2    1    2    0    0  0.00000000000E+00  0.00000000000E+00  0.14291042622E+04  0.17432203605E+04  0.99823756353E+03 0.  0.
        3    1    3    3  502    0 -0.16366855086E+03 -0.40694150304E+03  0.11304892774E+04  0.12125983663E+04  0.10100000352E+00 0.  1.
       -3    1    3    3    0  502  0.16366855086E+03  0.40694150304E+03  0.29861498476E+03  0.53062199423E+03  0.10100000352E+00 0. -1.
</event>
<event>
 5   0  0.9741826E-04  0.9994414E+03  0.7818609E-02  0.9309158E-01
       -2   -1    0    0    0  501  0.00000000000E+00  0.00000000000E+00  0.10700391846E+04  0.10700391846E+04  0.25500000920E-02 0. -1.
        2   -1    0    0  501    0  0.00000000000E+00  0.00000000000E+00 -0.23337534163E+03  0.23337534164E+03  0.25500000920E-02 0.  1.
    10030    2    1    2    0    0  0.00000000000E+00  0.00000000000E+00  0.83666384294E+03  0.13034145262E+04  0.99944136449E+03 0.  0.
        3    1    3    3  502    0  0.11738665001E+03 -0.25255921381E+03  0.95944124474E+03  0.99904619232E+03  0.10100000352E+00 0. -1.
       -3    1    3    3    0  502 -0.11738665001E+03  0.25255921381E+03 -0.12277740180E+03  0.30436833389E+03  0.10100000352E+00 0.  1.
</event>
<event>
 5   0  0.9674819E-04  0.1000500E+04  0.7818609E-02  0.9307997E-01
        2   -1    0    0  501    0  0.00000000000E+00  0.00000000000E+00  0.84001326147E+03  0.84001326148E+03  0.25500000920E-02 0. -1.
       -2   -1    0    0    0  501  0.00000000000E+00  0.00000000000E+00 -0.29791183878E+03  0.29791183879E+03  0.25500000920E-02 0.  1.
    10030    2    1    2    0    0  0.00000000000E+00  0.00000000000E+00  0.54210142269E+03  0.11379251003E+04  0.10004996658E+04 0.  0.
        4    1    3    3  502    0 -0.16306280907E+03  0.26782523176E+02 -0.26597142493E+03  0.31312808087E+03  0.12699999809E+01 0.  1.
       -4    1    3    3    0  502  0.16306280907E+03 -0.26782523176E+02  0.80807284762E+03  0.82479701940E+03  0.12699999809E+01 0. -1.
</event>
<event>
 5   0  0.5888774E-04  0.9966775E+03  0.7818609E-02  0.9312196E-01
       -1   -1    0    0    0  501  0.00000000000E+00  0.00000000000E+00  0.57656833263E+03  0.57656833265E+03  0.50400001928E-02 0.  1.
        1   -1    0    0  501    0  0.00000000000E+00  0.00000000000E+00 -0.43072348713E+03  0.43072348716E+03  0.50400001928E-02 0. -1.
    10030    2    1    2    0    0  0.00000000000E+00  0.00000000000E+00  0.14584484550E+03  0.10072918198E+04  0.99667752623E+03 0.  0.
        2    1    3    3  502    0  0.76069223977E+02  0.15899933654E+03  0.54401333694E+03  0.57185472511E+03  0.25500000920E-02 0.  1.
       -2    1    3    3    0  502 -0.76069223977E+02 -0.15899933654E+03 -0.39816849144E+03  0.43543709470E+03  0.25500000920E-02 0. -1.
</event>
<event>
 5   0  0.5826939E-04  0.1000066E+04  0.7818609E-02  0.9308473E-01
        1   -1    0    0  501    0  0.00000000000E+00  0.00000000000E+00  0.88412468538E+03  0.88412468539E+03  0.50400001928E-02 0.  1.
       -1   -1    0    0    0  501  0.00000000000E+00  0.00000000000E+00 -0.28280272437E+03  0.28280272441E+03  0.50400001928E-02 0. -1.
    10030    2    1    2    0    0  0.00000000000E+00  0.00000000000E+00  0.60132196101E+03  0.11669274098E+04  0.10000657373E+04 0.  0.
        1    1    3    3  502    0 -0.27061715981E+03 -0.29947503956E+03 -0.43735796928E+02  0.40599478625E+03  0.50400001928E-02 0. -1.
       -1    1    3    3    0  502  0.27061715981E+03  0.29947503956E+03  0.64505775794E+03  0.76093262356E+03  0.50400001928E-02 0.  1.
</event>
<event>
 5   0  0.5888774E-04  0.9998134E+03  0.7818609E-02  0.9308750E-01
        1   -1    0    0  501    0  0.00000000000E+00  0.00000000000E+00  0.77787198375E+03  0.77787198377E+03  0.50400001928E-02 0. -1.
       -1   -1    0    0    0  501  0.00000000000E+00  0.00000000000E+00 -0.32126969910E+03  0.32126969914E+03  0.50400001928E-02 0.  1.
    10030    2    1    2    0    0  0.00000000000E+00  0.00000000000E+00  0.45660228465E+03  0.10991416829E+04  0.99981337896E+03 0.  0.
        2    1    3    3  502    0 -0.90218127372E+02  0.83112429837E+02  0.76107020237E+03  0.77089223595E+03  0.25500000920E-02 0. -1.
       -2    1    3    3    0  502  0.90218127372E+02 -0.83112429837E+02 -0.30446791772E+03  0.32824944696E+03  0.25500000920E-02 0.  1.
</event>
<event>
 5   0  0.3854625E-04  0.1000800E+04  0.7818609E-02  0.9307668E-01
       -3   -1    0    0    0  501  0.00000000000E+00  0.00000000000E+00  0.12483053372E+04  0.12483053412E+04  0.10100000352E+00 0. -1.
        3   -1    0    0  501    0  0.00000000000E+00  0.00000000000E+00 -0.20059194221E+03  0.20059196764E+03  0.10100000352E+00 0.  1.
    10030    2    1    2    0    0  0.00000000000E+00  0.00000000000E+00  0.10477133949E+04  0.14488973089E+04  0.10007997071E+04 0.  0.
        3    1    3    3  502    0 -0.19089845099E+03 -0.57937288014E+02  0.11882430575E+04  0.12048736539E+04  0.10100000352E+00 0. -1.
       -3    1    3    3    0  502  0.19089845099E+03  0.57937288014E+02 -0.14052966256E+03  0.24402365499E+03  0.10100000352E+00 0.  1.
</event>
<event>
 5   0  0.9674819E-04  0.1001394E+04  0.7818609E-02  0.9307017E-01
       -2   -1    0    0    0  501  0.00000000000E+00  0.00000000000E+00  0.83590880886E+03  0.83590880886E+03  0.25500000920E-02 0.  1.
        2   -1    0    0  501    0  0.00000000000E+00  0.00000000000E+00 -0.29990999978E+03  0.29990999979E+03  0.25500000920E-02 0. -1.
    10030    2    1    2    0    0  0.00000000000E+00  0.00000000000E+00  0.53599880908E+03  0.11358188087E+04  0.10013938500E+04 0.  0.
        4    1    3    3  502    0 -0.34998486377E+03 -0.14040692047E+03  0.64159657090E+03  0.74421185214E+03  0.12699999809E+01 0.  1.
       -4    1    3    3    0  502  0.34998486377E+03  0.14040692047E+03 -0.10559776182E+03  0.39160695651E+03  0.12699999809E+01 0. -1.
</event>
<event>
 5   0  0.9674819E-04  0.9983963E+03  0.7818609E-02  0.9310305E-01
       -2   -1    0    0    0  501  0.00000000000E+00  0.00000000000E+00  0.49510532899E+03  0.49510532899E+03  0.25500000920E-02 0. -1.
        2   -1    0    0  501    0  0.00000000000E+00  0.00000000000E+00 -0.50332481013E+03  0.50332481013E+03  0.25500000920E-02 0.  1.
    10030    2    1    2    0    0  0.00000000000E+00  0.00000000000E+00 -0.82194811390E+01  0.99843013913E+03  0.99839630551E+03 0.  0.
        4    1    3    3  502    0 -0.45431470386E+02  0.49506555233E+03  0.41094260265E+02  0.49884293193E+03  0.12699999809E+01 0.  1.
       -4    1    3    3    0  502  0.45431470386E+02 -0.49506555233E+03 -0.49313741404E+02  0.49958720720E+03  0.12699999809E+01 0. -1.
</event>
<event>
 5   0  0.1020150E-03  0.1009098E+04  0.7818609E-02  0.9298623E-01
       -2   -1    0    0    0  501  0.00000000000E+00  0.00000000000E+00  0.78371612870E+03  0.78371612871E+03  0.25500000920E-02 0. -1.
        2   -1    0    0  501    0  0.00000000000E+00  0.00000000000E+00 -0.32482364153E+03  0.32482364154E+03  0.25500000920E-02 0.  1.
    10030    2    1    2    0    0  0.00000000000E+00  0.00000000000E+00  0.45889248717E+03  0.11085397703E+04  0.10090976699E+04 0.  0.
        5    1    3    3  502    0  0.38133217676E+03 -0.25060958852E+03 -0.70041536304E+01  0.45638858778E+03  0.46999998093E+01 0. -1.
       -5    1    3    3    0  502 -0.38133217676E+03  0.25060958852E+03  0.46589664080E+03  0.65215118247E+03  0.46999998093E+01 0.  1.
</event>
<event>
 5   0  0.5758786E-04  0.9997019E+03  0.7818609E-02  0.9308872E-01
        1   -1    0    0  501    0  0.00000000000E+00  0.00000000000E+00  0.12655106274E+04  0.12655106274E+04  0.50400001928E-02 0. -1.
       -1   -1    0    0    0  501  0.00000000000E+00  0.00000000000E+00 -0.19743094451E+03  0.19743094457E+03  0.50400001928E-02 0.  1.
    10030    2    1    2    0    0  0.00000000000E+00  0.00000000000E+00  0.10680796829E+04  0.14629415720E+04  0.99970187258E+03 0.  0.
        3    1    3    3  502    0 -0.28747002256E+03 -0.38624288935E+03  0.73052721397E+03  0.87492434187E+03  0.10100000352E+00 0. -1.
       -3    1    3    3    0  502  0.28747002256E+03  0.38624288935E+03  0.33755246891E+03  0.58801723011E+03  0.10100000352E+00 0.  1.
</event>
<event>
 5   0  0.5888774E-04  0.9977689E+03  0.7818609E-02  0.9310995E-01
       -1   -1    0    0    0  501  0.00000000000E+00  0.00000000000E+00  0.11289499277E+04  0.11289499277E+04  0.50400001928E-02 0. -1.
        1   -1    0    0  501    0  0.00000000000E+00  0.00000000000E+00 -0.22045766967E+03  0.22045766973E+03  0.50400001928E-02 0.  1.
    10030    2    1    2    0    0  0.00000000000E+00  0.00000000000E+00  0.90849225800E+03  0.13494075974E+04  0.99776885154E+03 0.  0.
        2    1    3    3  502    0 -0.23865525696E+03  0.13441161371E+03 -0.10967272448E+03  0.29504392906E+03  0.25500000920E-02 0.  1.
       -2    1    3    3    0  502  0.23865525696E+03 -0.13441161371E+03  0.10181649825E+04  0.10543636683E+04  0.25500000920E-02 0. -1.
</event>
<event>
 5   0  0.1006749E-03  0.1000469E+04  0.7818609E-02  0.9308031E-01
       -2   -1    0    0    0  501  0.00000000000E+00  0.00000000000E+00  0.17769008737E+03  0.17769008739E+03  0.25500000920E-02 0. -1.
        2   -1    0    0  501    0  0.00000000000E+00  0.00000000000E+00 -0.14082630767E+04  0.14082630767E+04  0.25500000920E-02 0.  1.
    10030    2    1    2    0    0  0.00000000000E+00  0.00000000000E+00 -0.12305729894E+04  0.15859531641E+04  0.10004686685E+04 0.  0.
        1    1    3    3  502    0  0.31648995589E+03 -0.37589938181E+03 -0.46684993066E+03  0.67780166362E+03  0.50400001928E-02 0. -1.
       -1    1    3    3    0  502 -0.31648995589E+03  0.37589938181E+03 -0.76372305869E+03  0.90815150048E+03  0.50400001928E-02 0.  1.
</event>
<event>
 5   0  0.5768102E-04  0.1000393E+04  0.7818609E-02  0.9308114E-01
        1   -1    0    0  501    0  0.00000000000E+00  0.00000000000E+00  0.67554451862E+03  0.67554451864E+03  0.50400001928E-02 0.  1.
       -1   -1    0    0    0  501  0.00000000000E+00  0.00000000000E+00 -0.37036240995E+03  0.37036240998E+03  0.50400001928E-02 0. -1.
    10030    2    1    2    0    0  0.00000000000E+00  0.00000000000E+00  0.30518210867E+03  0.10459069286E+04  0.10003925149E+04 0.  0.
        4    1    3    3  502    0 -0.28838643107E+03  0.40576696189E+03  0.10157422807E+03  0.50806741452E+03  0.12699999809E+01 0.  1.
       -4    1    3    3    0  502  0.28838643107E+03 -0.40576696189E+03  0.20360788060E+03  0.53783951410E+03  0.12699999809E+01 0. -1.
</event>
<event>
 5   0  0.9674819E-04  0.9993781E+03  0.7818609E-02  0.9309227E-01
        2   -1    0    0  501    0  0.00000000000E+00  0.00000000000E+00  0.55268093864E+03  0.55268093864E+03  0.25500000920E-02 0.  1.
       -2   -1    0    0    0  501  0.00000000000E+00  0.00000000000E+00 -0.45177808054E+03  0.45177808055E+03  0.25500000920E-02 0. -1.
    10030    2    1    2    0    0  0.00000000000E+00  0.00000000000E+00  0.10090285809E+03  0.10044590192E+04  0.99937807384E+03 0.  0.
        4    1    3    3  502    0 -0.19711431022E+03  0.38200640100E+03  0.30651044640E+03  0.52795189966E+03  0.12699999809E+01 0.  1.
       -4    1    3    3    0  502  0.19711431022E+03 -0.38200640100E+03 -0.20560758831E+03  0.47650711954E+03  0.12699999809E+01 0. -1.
</event>
<event>
 5   0  0.3854625E-04  0.1000132E+04  0.7818609E-02  0.9308400E-01
        3   -1    0    0  501    0  0.00000000000E+00  0.00000000000E+00  0.25372511299E+03  0.25372513309E+03  0.10100000352E+00 0. -1.
       -3   -1    0    0    0  501  0.00000000000E+00  0.00000000000E+00 -0.98557839458E+03  0.98557839976E+03  0.10100000352E+00 0.  1.
    10030    2    1    2    0    0  0.00000000000E+00  0.00000000000E+00 -0.73185328160E+03  0.12393035328E+04  0.10001320017E+04 0.  0.
        4    1    3    3  502    0  0.54140352857E+02 -0.28745566083E+03 -0.86850821127E+03  0.91644424855E+03  0.12699999809E+01 0.  1.
       -4    1    3    3    0  502 -0.54140352857E+02  0.28745566083E+03  0.13665492968E+03  0.32285928429E+03  0.12699999809E+01 0. -1.
</event>
<event>
 5   0  0.1006006E-03  0.9994729E+03  0.7818609E-02  0.9309123E-01
        2   -1    0    0  501    0  0.00000000000E+00  0.00000000000E+00  0.11491454549E+04  0.11491454549E+04  0.25500000920E-02 0.  1.
       -2   -1    0    0    0  501  0.00000000000E+00  0.00000000000E+00 -0.21732367732E+03  0.21732367734E+03  0.25500000920E-02 0. -1.
    10030    2    1    2    0    0  0.00000000000E+00  0.00000000000E+00  0.93182177755E+03  0.13664691322E+04  0.99947289317E+03 0.  0.
        2    1    3    3  502    0  0.48740224754E+03  0.52751323756E+02  0.33340725178E+03  0.59287776869E+03  0.25500000920E-02 0. -1.
       -2    1    3    3    0  502 -0.48740224754E+03 -0.52751323756E+02  0.59841452577E+03  0.77359136353E+03  0.25500000920E-02 0.  1.
</event>
<event>
 5   0  0.5768102E-04  0.1000438E+04  0.7818609E-02  0.9308064E-01
       -1   -1    0    0    0  501  0.00000000000E+00  0.00000000000E+00  0.19096698284E+03  0.19096698291E+03  0.50400001928E-02 0.  1.
        1   -1    0    0  501    0  0.00000000000E+00  0.00000000000E+00 -0.13102748584E+04  0.13102748584E+04  0.50400001928E-02 0. -1.
    10030    2    1    2    0    0  0.00000000000E+00  0.00000000000E+00 -0.11193078755E+04  0.15012418413E+04  0.10004383768E+04 0.  0.
        4    1    3    3  502    0  0.10372337653E+03 -0.28021660119E+03  0.42336049723E+02  0.30178442045E+03  0.12699999809E+01 0.  1.
       -4    1    3    3    0  502 -0.10372337653E+03  0.28021660119E+03 -0.11616439253E+04  0.11994574209E+04  0.12699999809E+01 0. -1.
</event>
<event>
 5   0  0.9674819E-04  0.9985433E+03  0.7818609E-02  0.9310144E-01
        2   -1    0    0  501    0  0.00000000000E+00  0.00000000000E+00  0.81540698148E+03  0.81540698148E+03  0.25500000920E-02 0. -1.
       -2   -1    0    0    0  501  0.00000000000E+00  0.00000000000E+00 -0.30570277092E+03  0.30570277093E+03  0.25500000920E-02 0.  1.
    10030    2    1    2    0    0  0.00000000000E+00  0.00000000000E+00  0.50970421056E+03  0.11211097524E+04  0.99854328634E+03 0.  0.
        4    1    3    3  502    0  0.31692909532E+03  0.38442562580E+03  0.29111951553E+03  0.57704358454E+03  0.12699999809E+01 0. -1.
       -4    1    3    3    0  502 -0.31692909532E+03 -0.38442562580E+03  0.21858469502E+03  0.54406616788E+03  0.12699999809E+01 0.  1.
</event>
<event>
 5   0  0.5758786E-04  0.9994174E+03  0.7818609E-02  0.9309184E-01
        1   -1    0    0  501    0  0.00000000000E+00  0.00000000000E+00  0.32032943693E+03  0.32032943697E+03  0.50400001928E-02 0. -1.
       -1   -1    0    0    0  501  0.00000000000E+00  0.00000000000E+00 -0.77953745833E+03  0.77953745835E+03  0.50400001928E-02 0.  1.
    10030    2    1    2    0    0  0.00000000000E+00  0.00000000000E+00 -0.45920802140E+03  0.10998668953E+04  0.99941742055E+03 0.  0.
        3    1    3    3  502    0 -0.16408039858E+03 -0.42877747409E+03 -0.44675933086E+03  0.64059847752E+03  0.10100000352E+00 0.  1.
       -3    1    3    3    0  502  0.16408039858E+03  0.42877747409E+03 -0.12448690545E+02  0.45926841780E+03  0.10100000352E+00 0. -1.
</event>
<event>
 5   0  0.1020150E-03  0.9991309E+03  0.7818609E-02  0.9309498E-01
        2   -1    0    0  501    0  0.00000000000E+00  0.00000000000E+00  0.69652604285E+03  0.69652604286E+03  0.25500000920E-02 0.  1.
       -2   -1    0    0    0  501  0.00000000000E+00  0.00000000000E+00 -0.35830054930E+03  0.35830054931E+03  0.25500000920E-02 0. -1.
    10030    2    1    2    0    0  0.00000000000E+00  0.00000000000E+00  0.33822549355E+03  0.10548265922E+04  0.99913094990E+03 0.  0.
        5    1    3    3  502    0 -0.45403927264E+03 -0.98993046398E+02  0.36261162845E+03  0.58945785890E+03  0.46999998093E+01 0.  1.
       -5    1    3    3    0  502  0.45403927264E+03  0.98993046398E+02 -0.24386134895E+02  0.46536873327E+03  0.46999998093E+01 0. -1.
</event>
<event>
 5   0  0.1020150E-03  0.1000323E+04  0.7818609E-02  0.9308191E-01
        2   -1    0    0  501    0  0.00000000000E+00  0.00000000000E+00  0.44309813369E+03  0.44309813370E+03  0.25500000920E-02 0. -1.
       -2   -1    0    0    0  501  0.00000000000E+00  0.00000000000E+00 -0.56457311760E+03  0.56457311761E+03  0.25500000920E-02 0.  1.
    10030    2    1    2    0    0  0.00000000000E+00  0.00000000000E+00 -0.12147498391E+03  0.10076712513E+04  0.10003225375E+04 0.  0.
        5    1    3    3  502    0  0.79223137349E+02 -0.16204011959E+03  0.40917192332E+03  0.44718794558E+03  0.46999998093E+01 0. -1.
       -5    1    3    3    0  502 -0.79223137349E+02  0.16204011959E+03 -0.53064690723E+03  0.56048330572E+03  0.46999998093E+01 0.  1.
</event>
<event>
 5   0  0.1006749E-03  0.9995426E+03  0.7818609E-02  0.9309047E-01
        2   -1    0    0  501    0  0.00000000000E+00  0.00000000000E+00  0.65635041027E+03  0.65635041027E+03  0.25500000920E-02 0.  1.
       -2   -1    0    0    0  501  0.00000000000E+00  0.00000000000E+00 -0.38054574699E+03  0.38054574700E+03  0.25500000920E-02 0. -1.
    10030    2    1    2    0    0  0.00000000000E+00  0.00000000000E+00  0.27580466327E+03  0.10368961573E+04  0.99954260974E+03 0.  0.
        1    1    3    3  502    0 -0.77148596938E+02 -0.23929782927E+03  0.58596479604E+03  0.63762849632E+03  0.50400001928E-02 0.  1.
       -1    1    3    3    0  502  0.77148596938E+02  0.23929782927E+03 -0.31016013276E+03  0.39926766095E+03  0.50400001928E-02 0. -1.
</event>
<event>
 5   0  0.5888774E-04  0.9979575E+03  0.7818609E-02  0.9310788E-01
        1   -1    0    0  501    0  0.00000000000E+00  0.00000000000E+00  0.77429627979E+03  0.77429627981E+03  0.50400001928E-02 0.  1.
       -1   -1    0    0    0  501  0.00000000000E+00  0.00000000000E+00 -0.32155622166E+03  0.32155622170E+03  0.50400001928E-02 0. -1.
    10030    2    1    2    0    0  0.00000000000E+00  0.00000000000E+00  0.45274005813E+03  0.10958525015E+04  0.99795748648E+03 0.  0.
        2    1    3    3  502    0  0.17380245152E+03 -0.43864111088E+02 -0.28497990905E+03  0.33666734466E+03  0.25500000920E-02 0. -1.
       -2    1    3    3    0  502 -0.17380245152E+03  0.43864111088E+02  0.73771996718E+03  0.75918515684E+03  0.25500000920E-02 0.  1.
</event>
<event>
 5   0  0.5758786E-04  0.9997365E+03  0.7818609E-02  0.9308834E-01
        1   -1    0    0  501    0  0.00000000000E+00  0.00000000000E+00  0.73307355996E+03  0.73307355998E+03  0.50400001928E-02 0.  1.
       -1   -1    0    0    0  501  0.00000000000E+00  0.00000000000E+00 -0.34085022302E+03  0.34085022306E+03  0.50400001928E-02 0. -1.
    10030    2    1    2    0    0  0.00000000000E+00  0.00000000000E+00  0.39222333694E+03  0.10739237830E+04  0.99973653817E+03 0.  0.
        3    1    3    3  502    0 -0.28464268292E+03  0.25905899733E+03  0.53874028673E+03  0.66209827653E+03  0.10100000352E+00 0.  1.
       -3    1    3    3    0  502  0.28464268292E+03 -0.25905899733E+03 -0.14651694979E+03  0.41182550651E+03  0.10100000352E+00 0. -1.
</event>
<event>
 5   0  0.5826939E-04  0.1005770E+04  0.7818609E-02  0.9302238E-01
        1   -1    0    0  501    0  0.00000000000E+00  0.00000000000E+00  0.24014063713E+03  0.24014063718E+03  0.50400001928E-02 0.  1.
       -1   -1    0    0    0  501  0.00000000000E+00  0.00000000000E+00 -0.10531060039E+04  0.10531060039E+04  0.50400001928E-02 0. -1.
    10030    2    1    2    0    0  0.00000000000E+00  0.00000000000E+00 -0.81296536679E+03  0.12932466411E+04  0.10057704446E+04 0.  0.
        1    1    3    3  502    0 -0.25226009564E+02 -0.36115072802E+03 -0.85528478602E+03  0.92875091663E+03  0.50400001928E-02 0. -1.
       -1    1    3    3    0  502  0.25226009564E+02  0.36115072802E+03  0.42319419230E+02  0.36449572449E+03  0.50400001928E-02 0.  1.
</event>
<event>
 5   0  0.9674819E-04  0.1000950E+04  0.7818609E-02  0.9307504E-01
       -2   -1    0    0    0  501  0.00000000000E+00  0.00000000000E+00  0.35676325470E+03  0.35676325471E+03  0.25500000920E-02 0. -1.
        2   -1    0    0  501    0  0.00000000000E+00  0.00000000000E+00 -0.70207677031E+03  0.70207677032E+03  0.25500000920E-02 0.  1.
    10030    2    1    2    0    0  0.00000000000E+00  0.00000000000E+00 -0.34531351561E+03  0.10588400250E+04  0.10009499361E+04 0.  0.
        4    1    3    3  502    0  0.24917299008E+03 -0.28354807987E+03 -0.52027575838E+03  0.64278703335E+03  0.12699999809E+01 0.  1.
       -4    1    3    3    0  502 -0.24917299008E+03  0.28354807987E+03  0.17496224277E+03  0.41605299167E+03  0.12699999809E+01 0. -1.
</event>
<event>
 5   0  0.5960102E-04  0.9993645E+03  0.7818609E-02  0.9309242E-01
       -1   -1    0    0    0  501  0.00000000000E+00  0.00000000000E+00  0.34325858330E+03  0.34325858333E+03  0.50400001928E-02 0. -1.
        1   -1    0    0  501    0  0.00000000000E+00  0.00000000000E+00 -0.72738847579E+03  0.72738847581E+03  0.50400001928E-02 0.  1.
    10030    2    1    2    0    0  0.00000000000E+00  0.00000000000E+00 -0.38412989250E+03  0.10706470591E+04  0.99936447352E+03 0.  0.
        5    1    3    3  502    0  0.45891335250E+02 -0.49735236132E+03 -0.17710996937E+03  0.52995793910E+03  0.46999998093E+01 0.  1.
       -5    1    3    3    0  502 -0.45891335250E+02  0.49735236132E+03 -0.20701992312E+03  0.54068912004E+03  0.46999998093E+01 0. -1.
</event>
<event>
 5   0  0.5768102E-04  0.1001894E+04  0.7818609E-02  0.9306470E-01
        1   -1    0    0  501    0  0.00000000000E+00  0.00000000000E+00  0.65009375356E+03  0.65009375358E+03  0.50400001928E-02 0. -1.
       -1   -1    0    0    0  501  0.00000000000E+00  0.00000000000E+00 -0.38601768088E+03  0.38601768091E+03  0.50400001928E-02 0.  1.
    10030    2    1    2    0    0  0.00000000000E+00  0.00000000000E+00  0.26407607268E+03  0.10361114345E+04  0.10018935735E+04 0.  0.
        4    1    3    3  502    0  0.12897615066E+03  0.88691001013E+02 -0.36007669690E+03  0.39262931837E+03  0.12699999809E+01 0.  1.
       -4    1    3    3    0  502 -0.12897615066E+03 -0.88691001013E+02  0.62415276957E+03  0.64348211612E+03  0.12699999809E+01 0. -1.
</event>
<event>
 5   0  0.5888774E-04  0.9986603E+03  0.7818609E-02  0.9310015E-01
       -1   -1    0    0    0  501  0.00000000000E+00  0.00000000000E+00  0.38688128701E+03  0.38688128705E+03  0.50400001928E-02 0. -1.
        1   -1    0    0  501    0  0.00000000000E+00  0.00000000000E+00 -0.64446278557E+03  0.64446278559E+03  0.50400001928E-02 0.  1.
    10030    2    1    2    0    0  0.00000000000E+00  0.00000000000E+00 -0.25758149856E+03  0.10313440726E+04  0.99866028647E+03 0.  0.
        2    1    3    3  502    0 -0.18952623596E+03 -0.94627790887E+01 -0.60577325825E+03  0.63479995173E+03  0.25500000920E-02 0.  1.
       -2    1    3    3    0  502  0.18952623596E+03  0.94627790887E+01  0.34819175969E+03  0.39654412091E+03  0.25500000920E-02 0. -1.
</event>
<event>
 5   0  0.9741826E-04  0.9997822E+03  0.7818609E-02  0.9308784E-01
       -2   -1    0    0    0  501  0.00000000000E+00  0.00000000000E+00  0.75451416911E+03  0.75451416912E+03  0.25500000920E-02 0. -1.
        2   -1    0    0  501    0  0.00000000000E+00  0.00000000000E+00 -0.33119469699E+03  0.33119469700E+03  0.25500000920E-02 0.  1.
    10030    2    1    2    0    0  0.00000000000E+00  0.00000000000E+00  0.42331947212E+03  0.10857088661E+04  0.99978215952E+03 0.  0.
        3    1    3    3  502    0 -0.35691021304E+03 -0.16457927390E+03  0.54710939323E+03  0.67364674417E+03  0.10100000352E+00 0. -1.
       -3    1    3    3    0  502  0.35691021304E+03  0.16457927390E+03 -0.12378992111E+03  0.41206212194E+03  0.10100000352E+00 0.  1.
</event>
<event>
 5   0  0.9674819E-04  0.1000173E+04  0.7818609E-02  0.9308355E-01
       -2   -1    0    0    0  501  0.00000000000E+00  0.00000000000E+00  0.40696893847E+03  0.40696893848E+03  0.25500000920E-02 0.  1.
        2   -1    0    0  501    0  0.00000000000E+00  0.00000000000E+00 -0.61451032503E+03  0.61451032504E+03  0.25500000920E-02 0. -1.
    10030    2    1    2    0    0  0.00000000000E+00  0.00000000000E+00 -0.20754138656E+03  0.10214792635E+04  0.10001732143E+04 0.  0.
        4    1    3    3  502    0  0.89921708960E+02  0.16252486418E+02  0.39836842194E+03  0.40871636810E+03  0.12699999809E+01 0.  1.
       -4    1    3    3    0  502 -0.89921708960E+02 -0.16252486418E+02 -0.60590980850E+03  0.61276289541E+03  0.12699999809E+01 0. -1.
</event>
<event>
 5   0  0.1006749E-03  0.9998766E+03  0.7818609E-02  0.9308680E-01
        2   -1    0    0  501    0  0.00000000000E+00  0.00000000000E+00  0.90476853259E+03  0.90476853259E+03  0.25500000920E-02 0. -1.
       -2   -1    0    0    0  501  0.00000000000E+00  0.00000000000E+00 -0.27624558326E+03  0.27624558328E+03  0.25500000920E-02 0.  1.
    10030    2    1    2    0    0  0.00000000000E+00  0.00000000000E+00  0.62852294932E+03  0.11810141159E+04  0.99987661441E+03 0.  0.
        1    1    3    3  502    0 -0.38763696414E+03 -0.29179905617E+03  0.17188782577E+03  0.51473734062E+03  0.50400001928E-02 0. -1.
       -1    1    3    3    0  502  0.38763696414E+03  0.29179905617E+03  0.45663512355E+03  0.66627677525E+03  0.50400001928E-02 0.  1.
</event>
<event>
 5   0  0.9741826E-04  0.1004096E+04  0.7818609E-02  0.9304063E-01
       -2   -1    0    0    0  501  0.00000000000E+00  0.00000000000E+00  0.23870805522E+03  0.23870805524E+03  0.25500000920E-02 0. -1.
        2   -1    0    0  501    0  0.00000000000E+00  0.00000000000E+00 -0.10559021561E+04  0.10559021561E+04  0.25500000920E-02 0.  1.
    10030    2    1    2    0    0  0.00000000000E+00  0.00000000000E+00 -0.81719410084E+03  0.12946102113E+04  0.10040963105E+04 0.  0.
        3    1    3    3  502    0 -0.26473799233E+03  0.24820473160E+03 -0.85590408961E+03  0.92965779413E+03  0.10100000352E+00 0.  1.
       -3    1    3    3    0  502  0.26473799233E+03 -0.24820473160E+03  0.38709988765E+02  0.36495241718E+03  0.10100000352E+00 0. -1.
</event>
<event>
 5   0  0.5960102E-04  0.1001079E+04  0.7818609E-02  0.9307363E-01
        1   -1    0    0  501    0  0.00000000000E+00  0.00000000000E+00  0.72143319030E+03  0.72143319031E+03  0.50400001928E-02 0.  1.
       -1   -1    0    0    0  501  0.00000000000E+00  0.00000000000E+00 -0.34728034582E+03  0.34728034586E+03  0.50400001928E-02 0. -1.
    10030    2    1    2    0    0  0.00000000000E+00  0.00000000000E+00  0.37415284447E+03  0.10687135362E+04  0.10010785540E+04 0.  0.
        5    1    3    3  502    0 -0.45509320949E+02 -0.21051371772E+03 -0.29525654533E+03  0.36549369516E+03  0.46999998093E+01 0. -1.
       -5    1    3    3    0  502  0.45509320949E+02  0.21051371772E+03  0.66940938980E+03  0.70321984102E+03  0.46999998093E+01 0.  1.
</event>
<event>
 5   0  0.5768102E-04  0.1001026E+04  0.7818609E-02  0.9307420E-01
       -1   -1    0    0    0  501  0.00000000000E+00  0.00000000000E+00  0.79738224089E+03  0.79738224090E+03  0.50400001928E-02 0. -1.
        1   -1    0    0  501    0  0.00000000000E+00  0.00000000000E+00 -0.31416970508E+03  0.31416970512E+03  0.50400001928E-02 0.  1.
    10030    2    1    2    0    0  0.00000000000E+00  0.00000000000E+00  0.48321253581E+03  0.11115519460E+04  0.10010261605E+04 0.  0.
        4    1    3    3  502    0  0.10734317810E+03  0.44837720990E+03  0.25297886418E+02  0.46174265149E+03  0.12699999809E+01 0.  1.
       -4    1    3    3    0  502 -0.10734317810E+03 -0.44837720990E+03  0.45791464939E+03  0.64980929454E+03  0.12699999809E+01 0. -1.
</event>
<event>
 5   0  0.5960102E-04  0.1004388E+04  0.7818609E-02  0.9303745E-01
        1   -1    0    0  501    0  0.00000000000E+00  0.00000000000E+00  0.12846165589E+04  0.12846165589E+04  0.50400001928E-02 0. -1.
       -1   -1    0    0    0  501  0.00000000000E+00  0.00000000000E+00 -0.19632229597E+03  0.19632229604E+03  0.50400001928E-02 0.  1.
    10030    2    1    2    0    0  0.00000000000E+00  0.00000000000E+00  0.10882942629E+04  0.14809388549E+04  0.10043881169E+04 0.  0.
        5    1    3    3  502    0  0.20432059842E+03 -0.45761778562E+03  0.59114170589E+03  0.77500422650E+03  0.46999998093E+01 0.  1.
       -5    1    3    3    0  502 -0.20432059842E+03  0.45761778562E+03  0.49715255699E+03  0.70593462840E+03  0.46999998093E+01 0. -1.
</event>
<event>
 5   0  0.5826939E-04  0.9998090E+03  0.7818609E-02  0.9308754E-01
        1   -1    0    0  501    0  0.00000000000E+00  0.00000000000E+00  0.13895908747E+04  0.13895908747E+04  0.50400001928E-02 0. -1.
       -1   -1    0    0    0  501  0.00000000000E+00  0.00000000000E+00 -0.17984033269E+03  0.17984033276E+03  0.50400001928E-02 0.  1.
    10030    2    1    2    0    0  0.00000000000E+00  0.00000000000E+00  0.12097505420E+04  0.15694312075E+04  0.99980895229E+03 0.  0.
        1    1    3    3  502    0 -0.15136265658E+03 -0.17525407658E+03 -0.90570244135E+02  0.24865159222E+03  0.50400001928E-02 0.  1.
       -1    1    3    3    0  502  0.15136265658E+03  0.17525407658E+03  0.13003207861E+04  0.13207796152E+04  0.50400001928E-02 0. -1.
</event>
<event>
 5   0  0.9674819E-04  0.1000128E+04  0.7818609E-02  0.9308404E-01
        2   -1    0    0  501    0  0.00000000000E+00  0.00000000000E+00  0.57473284834E+03  0.57473284834E+03  0.25500000920E-02 0.  1.
       -2   -1    0    0    0  501  0.00000000000E+00  0.00000000000E+00 -0.43509636776E+03  0.43509636777E+03  0.25500000920E-02 0. -1.
    10030    2    1    2    0    0  0.00000000000E+00  0.00000000000E+00  0.13963648058E+03  0.10098292161E+04  0.10001283413E+04 0.  0.
        4    1    3    3  502    0 -0.46093427160E+03  0.15674866595E+03 -0.45446899155E+02  0.48897605315E+03  0.12699999809E+01 0. -1.
       -4    1    3    3    0  502  0.46093427160E+03 -0.15674866595E+03  0.18508337974E+03  0.52085316296E+03  0.12699999809E+01 0.  1.
</event>
<event>
 5   0  0.1006749E-03  0.9989138E+03  0.7818609E-02  0.9309737E-01
       -2   -1    0    0    0  501  0.00000000000E+00  0.00000000000E+00  0.35122421493E+03  0.35122421494E+03  0.25500000920E-02 0.  1.
        2   -1    0    0  501    0  0.00000000000E+00  0.00000000000E+00 -0.71025051647E+03  0.71025051647E+03  0.25500000920E-02 0. -1.
    10030    2    1    2    0    0  0.00000000000E+00  0.00000000000E+00 -0.35902630154E+03  0.10614747314E+04  0.99891377017E+03 0.  0.
        1    1    3    3  502    0 -0.15190019668E+03 -0.15663284411E+02  0.32580930563E+03  0.35982038838E+03  0.50400001928E-02 0.  1.
       -1    1    3    3    0  502  0.15190019668E+03  0.15663284411E+02 -0.68483560717E+03  0.70165434304E+03  0.50400001928E-02 0. -1.
</event>
<event>
 5   0  0.1006006E-03  0.1001190E+04  0.7818609E-02  0.9307240E-01
       -2   -1    0    0    0  501  0.00000000000E+00  0.00000000000E+00  0.15325692495E+03  0.15325692497E+03  0.25500000920E-02 0.  1.
        2   -1    0    0  501    0  0.00000000000E+00  0.00000000000E+00 -0.16351332560E+04  0.16351332560E+04  0.25500000920E-02 0. -1.
    10030    2    1    2    0    0  0.00000000000E+00  0.00000000000E+00 -0.14818763311E+04  0.17883901810E+04  0.10011902811E+04 0.  0.
        2    1    3    3  502    0  0.17475422288E+03 -0.17176260868E+03 -0.15206870422E+04  0.15403020848E+04  0.25500000920E-02 0. -1.
       -2    1    3    3    0  502 -0.17475422288E+03  0.17176260868E+03  0.38810711140E+02  0.24808809617E+03  0.25500000920E-02 0.  1.
</event>
<event>
 5   0  0.5758786E-04  0.9972780E+03  0.7818609E-02  0.9311535E-01
       -1   -1    0    0    0  501  0.00000000000E+00  0.00000000000E+00  0.27834146230E+03  0.27834146235E+03  0.50400001928E-02 0. -1.
        1   -1    0    0  501    0  0.00000000000E+00  0.00000000000E+00 -0.89329436184E+03  0.89329436185E+03  0.50400001928E-02 0.  1.
    10030    2    1    2    0    0  0.00000000000E+00  0.00000000000E+00 -0.61495289953E+03  0.11716358242E+04  0.99727801335E+03 0.  0.
        3    1    3    3  502    0  0.27842782358E+03 -0.39866194761E+03 -0.17777860048E+03  0.51774379996E+03  0.10100000352E+00 0. -1.
       -3    1    3    3    0  502 -0.27842782358E+03  0.39866194761E+03 -0.43717429906E+03  0.65389202424E+03  0.10100000352E+00 0.  1.
</event>
<event>
 5   0  0.9741826E-04  0.1001548E+04  0.7818609E-02  0.9306849E-01
        2   -1    0    0  501    0  0.00000000000E+00  0.00000000000E+00  0.84328383522E+03  0.84328383523E+03  0.25500000920E-02 0. -1.
       -2   -1    0    0    0  501  0.00000000000E+00  0.00000000000E+00 -0.29737850814E+03  0.29737850815E+03  0.25500000920E-02 0.  1.
    10030    2    1    2    0    0  0.00000000000E+00  0.00000000000E+00  0.54590532708E+03  0.11406623434E+04  0.10015477799E+04 0.  0.
        3    1    3    3  502    0 -0.37972834675E+03 -0.12483189208E+03  0.61651141955E+03  0.73475367249E+03  0.10100000352E+00 0. -1.
       -3    1    3    3    0  502  0.37972834675E+03  0.12483189208E+03 -0.70606092471E+02  0.40590867089E+03  0.10100000352E+00 0.  1.
</event>
<event>
 5   0  0.1020150E-03  0.1000281E+04  0.7818609E-02  0.9308237E-01
        2   -1    0    0  501    0  0.00000000000E+00  0.00000000000E+00  0.12703251050E+04  0.12703251050E+04  0.25500000920E-02 0. -1.
       -2   -1    0    0    0  501  0.00000000000E+00  0.00000000000E+00 -0.19691055837E+03  0.19691055839E+03  0.25500000920E-02 0.  1.
    10030    2    1    2    0    0  0.00000000000E+00  0.00000000000E+00  0.10734145466E+04  0.14672356634E+04  0.10002808121E+04 0.  0.
        5    1    3    3  502    0  0.34861381241E+03 -0.17265232891E+03  0.75699898889E+02  0.39634956992E+03  0.46999998093E+01 0.  1.
       -5    1    3    3    0  502 -0.34861381241E+03  0.17265232891E+03  0.99771464771E+03  0.10708860934E+04  0.46999998093E+01 0. -1.
</event>
<event>
 5   0  0.1006749E-03  0.1001891E+04  0.7818609E-02  0.9306473E-01
        2   -1    0    0  501    0  0.00000000000E+00  0.00000000000E+00  0.44308568970E+03  0.44308568971E+03  0.25500000920E-02 0.  1.
       -2   -1    0    0    0  501  0.00000000000E+00  0.00000000000E+00 -0.56636122388E+03  0.56636122389E+03  0.25500000920E-02 0. -1.
    10030    2    1    2    0    0  0.00000000000E+00  0.00000000000E+00 -0.12327553418E+03  0.10094469136E+04  0.10018913185E+04 0.  0.
        1    1    3    3  502    0 -0.45225445647E+03 -0.10864071451E+03 -0.24907743565E+03  0.52761393767E+03  0.50400001928E-02 0. -1.
       -1    1    3    3    0  502  0.45225445647E+03  0.10864071451E+03  0.12580190147E+03  0.48183297592E+03  0.50400001928E-02 0.  1.
</event>
<event>
 5   0  0.5758786E-04  0.1000609E+04  0.7818609E-02  0.9307877E-01
       -1   -1    0    0    0  501  0.00000000000E+00  0.00000000000E+00  0.11293999629E+04  0.11293999629E+04  0.50400001928E-02 0. -1.
        1   -1    0    0  501    0  0.00000000000E+00  0.00000000000E+00 -0.22162610537E+03  0.22162610543E+03  0.50400001928E-02 0.  1.
    10030    2    1    2    0    0  0.00000000000E+00  0.00000000000E+00  0.90777385756E+03  0.13510260684E+04  0.10006088451E+04 0.  0.
        3    1    3    3  502    0  0.49859780175E+03 -0.41223958973E+02  0.45077198453E+03  0.67342005831E+03  0.10100000352E+00 0. -1.
       -3    1    3    3    0  502 -0.49859780175E+03  0.41223958973E+02  0.45700187304E+03  0.67760601006E+03  0.10100000352E+00 0.  1.
</event>
<event>
 5   0  0.5768102E-04  0.9966007E+03  0.7818609E-02  0.9312281E-01
       -1   -1    0    0    0  501  0.00000000000E+00  0.00000000000E+00  0.71559299178E+03  0.71559299179E+03  0.50400001928E-02 0. -1.
        1   -1    0    0  501    0  0.00000000000E+00  0.00000000000E+00 -0.34698944658E+03  0.34698944661E+03  0.50400001928E-02 0.  1.
    10030    2    1    2    0    0  0.00000000000E+00  0.00000000000E+00  0.36860354520E+03  0.10625824384E+04  0.99660065466E+03 0.  0.
        4    1    3    3  502    0 -0.26676452897E+03  0.27155137557E+03  0.52714677930E+03  0.65022211845E+03  0.12699999809E+01 0. -1.
       -4    1    3    3    0  502  0.26676452897E+03 -0.27155137557E+03 -0.15854323410E+03  0.41236031996E+03  0.12699999809E+01 0.  1.
</event>
<event>
 5   0  0.5758786E-04  0.1000652E+04  0.7818609E-02  0.9307830E-01
       -1   -1    0    0    0  501  0.00000000000E+00  0.00000000000E+00  0.26237615156E+03  0.26237615161E+03  0.50400001928E-02 0.  1.
        1   -1    0    0  501    0  0.00000000000E+00  0.00000000000E+00 -0.95407259109E+03  0.95407259110E+03  0.50400001928E-02 0. -1.
    10030    2    1    2    0    0  0.00000000000E+00  0.00000000000E+00 -0.69169643952E+03  0.12164487427E+04  0.10006515773E+04 0.  0.
        3    1    3    3  502    0  0.45562369314E+03 -0.20445031648E+03 -0.30871586970E+03  0.58711019414E+03  0.10100000352E+00 0.  1.
       -3    1    3    3    0  502 -0.45562369314E+03  0.20445031648E+03 -0.38298056982E+03  0.62933854857E+03  0.10100000352E+00 0. -1.
</event>
<event>
 5   0  0.9674819E-04  0.1001102E+04  0.7818609E-02  0.9307337E-01
       -2   -1    0    0    0  501  0.00000000000E+00  0.00000000000E+00  0.40773529816E+03  0.40773529817E+03  0.25500000920E-02 0.  1.
        2   -1    0    0  501    0  0.00000000000E+00  0.00000000000E+00 -0.61449543977E+03  0.61449543977E+03  0.25500000920E-02 0. -1.
    10030    2    1    2    0    0  0.00000000000E+00  0.00000000000E+00 -0.20676014161E+03  0.10222307379E+04  0.10011023551E+04 0.  0.
        4    1    3    3  502    0 -0.19040897958E+03  0.33583024588E+03 -0.42871437678E+03  0.57691867998E+03  0.12699999809E+01 0. -1.
       -4    1    3    3    0  502  0.19040897958E+03 -0.33583024588E+03  0.22195423517E+03  0.44531205796E+03  0.12699999809E+01 0.  1.
</event>
<event>
 5   0  0.1020150E-03  0.1000586E+04  0.7818609E-02  0.9307903E-01
       -2   -1    0    0    0  501  0.00000000000E+00  0.00000000000E+00  0.15201811766E+04  0.15201811766E+04  0.25500000920E-02 0.  1.
        2   -1    0    0  501    0  0.00000000000E+00  0.00000000000E+00 -0.16464680204E+03  0.16464680206E+03  0.25500000920E-02 0. -1.
    10030    2    1    2    0    0  0.00000000000E+00  0.00000000000E+00  0.13555343746E+04  0.16848279787E+04  0.10005857670E+04 0.  0.
        5    1    3    3  502    0  0.44993763305E+03 -0.17466149918E+03  0.89937230298E+03  0.10207071775E+04  0.46999998093E+01 0.  1.
       -5    1    3    3    0  502 -0.44993763305E+03  0.17466149918E+03  0.45616207159E+03  0.66412080112E+03  0.46999998093E+01 0. -1.
</event>
<event>
 5   0  0.1006006E-03  0.9994423E+03  0.7818609E-02  0.9309157E-01
        2   -1    0    0  501    0  0.00000000000E+00  0.00000000000E+00  0.25586689408E+03  0.25586689409E+03  0.25500000920E-02 0. -1.
       -2   -1    0    0    0  501  0.00000000000E+00  0.00000000000E+00 -0.97598093526E+03  0.97598093526E+03  0.25500000920E-02 0.  1.
    10030    2    1    2    0    0  0.00000000000E+00  0.00000000000E+00 -0.72011404118E+03  0.12318478294E+04  0.99944226566E+03 0.  0.
        2    1    3    3  502    0  0.15002040100E+03 -0.23865493172E+03  0.14851712697E+03  0.31862145904E+03  0.25500000920E-02 0. -1.
       -2    1    3    3    0  502 -0.15002040100E+03  0.23865493172E+03 -0.86863116815E+03  0.91322637031E+03  0.25500000920E-02 0.  1.
</event>
<event>
 5   0  0.9741826E-04  0.9995747E+03  0.7818609E-02  0.9309011E-01
        2   -1    0    0  501    0  0.00000000000E+00  0.00000000000E+00  0.85680888273E+03  0.85680888274E+03  0.25500000920E-02 0.  1.
       -2   -1    0    0    0  501  0.00000000000E+00  0.00000000000E+00 -0.29153219675E+03  0.29153219676E+03  0.25500000920E-02 0. -1.
    10030    2    1    2    0    0  0.00000000000E+00  0.00000000000E+00  0.56527668598E+03  0.11483410795E+04  0.99957466111E+03 0.  0.
        3    1    3    3  502    0  0.14941026890E+03  0.10726707556E+03 -0.25123719385E+03  0.31136761509E+03  0.10100000352E+00 0. -1.
       -3    1    3    3    0  502 -0.14941026890E+03 -0.10726707556E+03  0.81651387984E+03  0.83697346441E+03  0.10100000352E+00 0.  1.
</event>
<event>
 5   0  0.1006006E-03  0.1001180E+04  0.7818609E-02  0.9307252E-01
        2   -1    0    0  501    0  0.00000000000E+00  0.00000000000E+00  0.54930333944E+03  0.54930333945E+03  0.25500000920E-02 0.  1.
       -2   -1    0    0    0  501  0.00000000000E+00  0.00000000000E+00 -0.45619653985E+03  0.45619653986E+03  0.25500000920E-02 0. -1.
    10030    2    1    2    0    0  0.00000000000E+00  0.00000000000E+00  0.93106799593E+02  0.10054998793E+04  0.10011798695E+04 0.  0.
        2    1    3    3  502    0  0.33392783583E+03 -0.27070165398E+03 -0.21107461298E+03  0.47889422346E+03  0.25500000920E-02 0. -1.
       -2    1    3    3    0  502 -0.33392783583E+03  0.27070165398E+03  0.30418141257E+03  0.52660565585E+03  0.25500000920E-02 0.  1.
</event>
<event>
 5   0  0.9741826E-04  0.1001687E+04  0.7818609E-02  0.9306697E-01
       -2   -1    0    0    0  501  0.00000000000E+00  0.00000000000E+00  0.13443085573E+03  0.13443085576E+03  0.25500000920E-02 0.  1.
        2   -1    0    0  501    0  0.00000000000E+00  0.00000000000E+00 -0.18659717414E+04  0.18659717414E+04  0.25500000920E-02 0. -1.
    10030    2    1    2    0    0  0.00000000000E+00  0.00000000000E+00 -0.17315408857E+04  0.20004025972E+04  0.10016869331E+04 0.  0.
        3    1    3    3  502    0 -0.24577127045E+03  0.48417567504E+01 -0.17372124632E+04  0.17545181996E+04  0.10100000352E+00 0. -1.
       -3    1    3    3    0  502  0.24577127045E+03 -0.48417567504E+01  0.56715775729E+01  0.24588439759E+03  0.10100000352E+00 0.  1.
</event>
<event>
 5   0  0.9741826E-04  0.1000452E+04  0.7818609E-02  0.9308049E-01
       -2   -1    0    0    0  501  0.00000000000E+00  0.00000000000E+00  0.67576124869E+03  0.67576124869E+03  0.25500000920E-02 0. -1.
        2   -1    0    0  501    0  0.00000000000E+00  0.00000000000E+00 -0.37028785523E+03  0.37028785524E+03  0.25500000920E-02 0.  1.
    10030    2    1    2    0    0  0.00000000000E+00  0.00000000000E+00  0.30547339346E+03  0.10460491039E+04  0.10004522646E+04 0.  0.
        3    1    3    3  502    0 -0.17074659847E+03  0.15200678681E+03 -0.31247506376E+03  0.38717068562E+03  0.10100000352E+00 0.  1.
       -3    1    3    3    0  502  0.17074659847E+03 -0.15200678681E+03  0.61794845722E+03  0.65887841831E+03  0.10100000352E+00 0. -1.
</event>
<event>
 5   0  0.9674819E-04  0.9954252E+03  0.7818609E-02  0.9313577E-01
       -2   -1    0    0    0  501  0.00000000000E+00  0.00000000000E+00  0.22451791048E+03  0.22451791049E+03  0.25500000920E-02 0. -1.
        2   -1    0    0  501    0  0.00000000000E+00  0.00000000000E+00 -0.11033321156E+04  0.11033321156E+04  0.25500000920E-02 0.  1.
    10030    2    1    2    0    0  0.00000000000E+00  0.00000000000E+00 -0.87881420515E+03  0.13278500261E+04  0.99542517785E+03 0.  0.
        4    1    3    3  502    0 -0.36756586579E+03  0.23505948467E+03 -0.11993009688E+03  0.45248477109E+03  0.12699999809E+01 0. -1.
       -4    1    3    3    0  502  0.36756586579E+03 -0.23505948467E+03 -0.75888410827E+03  0.87536525503E+03  0.12699999809E+01 0.  1.
</event>
<event>
 5   0  0.5758786E-04  0.1000269E+04  0.7818609E-02  0.9308250E-01
       -1   -1    0    0    0  501  0.00000000000E+00  0.00000000000E+00  0.25881941920E+03  0.25881941925E+03  0.50400001928E-02 0.  1.
        1   -1    0    0  501    0  0.00000000000E+00  0.00000000000E+00 -0.96644367195E+03  0.96644367196E+03  0.50400001928E-02 0. -1.
    10030    2    1    2    0    0  0.00000000000E+00  0.00000000000E+00 -0.70762425275E+03  0.12252630912E+04  0.10002687437E+04 0.  0.
        3    1    3    3  502    0 -0.23662680313E+02 -0.20223394548E+03  0.20575061462E+03  0.28946816192E+03  0.10100000352E+00 0.  1.
       -3    1    3    3    0  502  0.23662680313E+02  0.20223394548E+03 -0.91337486737E+03  0.93579492929E+03  0.10100000352E+00 0. -1.
</event>
<event>
 5   0  0.5888774E-04  0.1001400E+04  0.7818609E-02  0.9307010E-01
       -1   -1    0    0    0  501  0.00000000000E+00  0.00000000000E+00  0.24340615903E+03  0.24340615908E+03  0.50400001928E-02 0.  1.
        1   -1    0    0  501    0  0.00000000000E+00  0.00000000000E+00 -0.10299687374E+04  0.10299687374E+04  0.50400001928E-02 0. -1.
    10030    2    1    2    0    0  0.00000000000E+00  0.00000000000E+00 -0.78656257835E+03  0.12733748965E+04  0.10014004880E+04 0.  0.
        2    1    3    3  502    0 -0.25545883844E+03 -0.33469240889E+03 -0.73783988721E+03  0.84952099789E+03  0.25500000920E-02 0. -1.
       -2    1    3    3    0  502  0.25545883844E+03  0.33469240889E+03 -0.48722691142E+02  0.42385389858E+03  0.25500000920E-02 0.  1.
</event>
<event>
 5   0  0.5888774E-04  0.9993513E+03  0.7818609E-02  0.9309257E-01
       -1   -1    0    0    0  501  0.00000000000E+00  0.00000000000E+00  0.22944147005E+03  0.22944147010E+03  0.50400001928E-02 0. -1.
        1   -1    0    0  501    0  0.00000000000E+00  0.00000000000E+00 -0.10881892032E+04  0.10881892032E+04  0.50400001928E-02 0.  1.
    10030    2    1    2    0    0  0.00000000000E+00  0.00000000000E+00 -0.85874773310E+03  0.13176306733E+04  0.99935125057E+03 0.  0.
        2    1    3    3  502    0  0.41880103408E+02 -0.49789608393E+03 -0.43545565376E+03  0.66277905810E+03  0.25500000920E-02 0.  1.
       -2    1    3    3    0  502 -0.41880103408E+02  0.49789608393E+03 -0.42329207934E+03  0.65485161517E+03  0.25500000920E-02 0. -1.
</event>
<event>
 5   0  0.5758786E-04  0.9953034E+03  0.7818609E-02  0.9313711E-01
       -1   -1    0    0    0  501  0.00000000000E+00  0.00000000000E+00  0.66121379804E+03  0.66121379806E+03  0.50400001928E-02 0.  1.
        1   -1    0    0  501    0  0.00000000000E+00  0.00000000000E+00 -0.37454937550E+03  0.37454937553E+03  0.50400001928E-02 0. -1.
    10030    2    1    2    0    0  0.00000000000E+00  0.00000000000E+00  0.28666442255E+03  0.10357631736E+04  0.99530340129E+03 0.  0.
        3    1    3    3  502    0  0.90231777150E+02 -0.34650090837E+03  0.50300095124E+03  0.61742580142E+03  0.10100000352E+00 0.  1.
       -3    1    3    3    0  502 -0.90231777150E+02  0.34650090837E+03 -0.21633652869E+03  0.41833737217E+03  0.10100000352E+00 0. -1.
</event>
<event>
 5   0  0.1006749E-03  0.1000329E+04  0.7818609E-02  0.9308184E-01
        2   -1    0    0  501    0  0.00000000000E+00  0.00000000000E+00  0.12839745564E+04  0.12839745564E+04  0.25500000920E-02 0.  1.
       -2   -1    0    0    0  501  0.00000000000E+00  0.00000000000E+00 -0.19483599897E+03  0.19483599899E+03  0.25500000920E-02 0. -1.
    10030    2    1    2    0    0  0.00000000000E+00  0.00000000000E+00  0.10891385574E+04  0.14788105554E+04  0.10003288766E+04 0.  0.
        1    1    3    3  502    0 -0.35479350053E+03 -0.32618177169E+03  0.34682998414E+03  0.59377101152E+03  0.50400001928E-02 0. -1.
       -1    1    3    3    0  502  0.35479350053E+03  0.32618177169E+03  0.74230857329E+03  0.88503954387E+03  0.50400001928E-02 0.  1.
</event>
<event>
 5   0  0.5758786E-04  0.9986138E+03  0.7818609E-02  0.9310066E-01
       -1   -1    0    0    0  501  0.00000000000E+00  0.00000000000E+00  0.47760715680E+03  0.47760715683E+03  0.50400001928E-02 0. -1.
        1   -1    0    0  501    0  0.00000000000E+00  0.00000000000E+00 -0.52199256315E+03  0.52199256317E+03  0.50400001928E-02 0.  1.
    10030    2    1    2    0    0  0.00000000000E+00  0.00000000000E+00 -0.44385406346E+02  0.99959972000E+03  0.99861380720E+03 0.  0.
        3    1    3    3  502    0  0.84984315627E+02 -0.32545001583E+03  0.34718018529E+03  0.48339852913E+03  0.10100000352E+00 0. -1.
       -3    1    3    3    0  502 -0.84984315627E+02  0.32545001583E+03 -0.39156559163E+03  0.51620119087E+03  0.10100000352E+00 0.  1.
</event>
<event>
 5   0  0.9741826E-04  0.9982605E+03  0.7818609E-02  0.9310455E-01
       -2   -1    0    0    0  501  0.00000000000E+00  0.00000000000E+00  0.44926280477E+03  0.44926280477E+03  0.25500000920E-02 0.  1.
        2   -1    0    0  501    0  0.00000000000E+00  0.00000000000E+00 -0.55453289399E+03  0.55453289400E+03  0.25500000920E-02 0. -1.
    10030    2    1    2    0    0  0.00000000000E+00  0.00000000000E+00 -0.10527008923E+03  0.10037956988E+04  0.99826049365E+03 0.  0.
        3    1    3    3  502    0  0.41439368453E+03  0.25421510813E+03 -0.16632631453E+03  0.51382088327E+03  0.10100000352E+00 0. -1.
       -3    1    3    3    0  502 -0.41439368453E+03 -0.25421510813E+03  0.61056225306E+02  0.48997481550E+03  0.10100000352E+00 0.  1.
</event>
<event>
 5   0  0.5826939E-04  0.1002014E+04  0.7818609E-02  0.9306338E-01
       -1   -1    0    0    0  501  0.00000000000E+00  0.00000000000E+00  0.14132250662E+03  0.14132250671E+03  0.50400001928E-02 0.  1.
        1   -1    0    0  501    0  0.00000000000E+00  0.00000000000E+00 -0.17761371580E+04  0.17761371580E+04  0.50400001928E-02 0. -1.
    10030    2    1    2    0    0  0.00000000000E+00  0.00000000000E+00 -0.16348146514E+04  0.19174596647E+04  0.10020142821E+04 0.  0.
        1    1    3    3  502    0 -0.65743535372E+02 -0.11357888666E+03 -0.17426621763E+04  0.17475965887E+04  0.50400001928E-02 0. -1.
       -1    1    3    3    0  502  0.65743535372E+02  0.11357888666E+03  0.10784752495E+03  0.16986307604E+03  0.50400001928E-02 0.  1.
</event>
<event>
 5   0  0.9674819E-04  0.9992836E+03  0.7818609E-02  0.9309331E-01
        2   -1    0    0  501    0  0.00000000000E+00  0.00000000000E+00  0.12060362779E+04  0.12060362779E+04  0.25500000920E-02 0.  1.
       -2   -1    0    0    0  501  0.00000000000E+00  0.00000000000E+00 -0.20699371577E+03  0.20699371579E+03  0.25500000920E-02 0. -1.
    10030    2    1    2    0    0  0.00000000000E+00  0.00000000000E+00  0.99904256210E+03  0.14130299937E+04  0.99928360443E+03 0.  0.
        4    1    3    3  502    0 -0.22855686281E+03 -0.35619762340E+03  0.12399945360E+03  0.44101299736E+03  0.12699999809E+01 0. -1.
       -4    1    3    3    0  502  0.22855686281E+03  0.35619762340E+03  0.87504310850E+03  0.97201699629E+03  0.12699999809E+01 0.  1.
</event>
<event>
 5   0  0.9674819E-04  0.9999531E+03  0.7818609E-02  0.9308596E-01
       -2   -1    0    0    0  501  0.00000000000E+00  0.00000000000E+00  0.87416059718E+03  0.87416059719E+03  0.25500000920E-02 0. -1.
        2   -1    0    0  501    0  0.00000000000E+00  0.00000000000E+00 -0.28596182235E+03  0.28596182236E+03  0.25500000920E-02 0.  1.
    10030    2    1    2    0    0  0.00000000000E+00  0.00000000000E+00  0.58819877483E+03  0.11601224195E+04  0.99995311371E+03 0.  0.
        4    1    3    3  502    0 -0.49353055240E+02  0.94230845702E+02  0.86087843858E+03  0.86742635148E+03  0.12699999809E+01 0. -1.
       -4    1    3    3    0  502  0.49353055240E+02 -0.94230845702E+02 -0.27267966374E+03  0.29269606807E+03  0.12699999809E+01 0.  1.
</event>
<event>
 5   0  0.5960102E-04  0.9976599E+03  0.7818609E-02  0.9311115E-01
        1   -1    0    0  501    0  0.00000000000E+00  0.00000000000E+00  0.12848105025E+04  0.12848105025E+04  0.50400001928E-02 0. -1.
       -1   -1    0    0    0  501  0.00000000000E+00  0.00000000000E+00 -0.19367161026E+03  0.19367161033E+03  0.50400001928E-02 0.  1.
    10030    2    1    2    0    0  0.00000000000E+00  0.00000000000E+00  0.10911388922E+04  0.14784821128E+04  0.99765989987E+03 0.  0.
        5    1    3    3  502    0  0.40089048391E+03  0.28142657418E+03  0.40580079881E+03  0.63608998975E+03  0.46999998093E+01 0.  1.
       -5    1    3    3    0  502 -0.40089048391E+03 -0.28142657418E+03  0.68533809342E+03  0.84239212308E+03  0.46999998093E+01 0. -1.
</event>
<event>
 5   0  0.5758786E-04  0.1000827E+04  0.7818609E-02  0.9307638E-01
        1   -1    0    0  501    0  0.00000000000E+00  0.00000000000E+00  0.64066181758E+03  0.64066181760E+03  0.50400001928E-02 0. -1.
       -1   -1    0    0    0  501  0.00000000000E+00  0.00000000000E+00 -0.39086728518E+03  0.39086728522E+03  0.50400001928E-02 0.  1.
    10030    2    1    2    0    0  0.00000000000E+00  0.00000000000E+00  0.24979453240E+03  0.10315291028E+04  0.10008271487E+04 0.  0.
        3    1    3    3  502    0 -0.24962630573E+03 -0.24746860755E+03  0.49199719538E+03  0.60466127270E+03  0.10100000352E+00 0. -1.
       -3    1    3    3    0  502  0.24962630573E+03  0.24746860755E+03 -0.24220266298E+03  0.42686783012E+03  0.10100000352E+00 0.  1.
</event>
<event>
 5   0  0.5888774E-04  0.9981290E+03  0.7818609E-02  0.9310599E-01
       -1   -1    0    0    0  501  0.00000000000E+00  0.00000000000E+00  0.74713459610E+03  0.74713459612E+03  0.50400001928E-02 0. -1.
        1   -1    0    0  501    0  0.00000000000E+00  0.00000000000E+00 -0.33336078850E+03  0.33336078854E+03  0.50400001928E-02 0.  1.
    10030    2    1    2    0    0  0.00000000000E+00  0.00000000000E+00  0.41377380760E+03  0.10804953847E+04  0.99812900590E+03 0.  0.
        2    1    3    3  502    0  0.23797955579E+02  0.38587981829E+03  0.54851749661E+03  0.67107452712E+03  0.25500000920E-02 0. -1.
       -2    1    3    3    0  502 -0.23797955579E+02 -0.38587981829E+03 -0.13474368901E+03  0.40942085754E+03  0.25500000920E-02 0.  1.
</event>
<event>
 5   0  0.9674819E-04  0.9935420E+03  0.7818609E-02  0.9315656E-01
        2   -1    0    0  501    0  0.00000000000E+00  0.00000000000E+00  0.42637738470E+03  0.42637738471E+03  0.25500000920E-02 0. -1.
       -2   -1    0    0    0  501  0.00000000000E+00  0.00000000000E+00 -0.57878643251E+03  0.57878643251E+03  0.25500000920E-02 0.  1.
    10030    2    1    2    0    0  0.00000000000E+00  0.00000000000E+00 -0.15240904781E+03  0.10051638172E+04  0.99354203816E+03 0.  0.
        4    1    3    3  502    0  0.26686913799E+03 -0.12463544909E+03  0.32850816870E+03  0.44121691013E+03  0.12699999809E+01 0. -1.
       -4    1    3    3    0  502 -0.26686913799E+03  0.12463544909E+03 -0.48091721651E+03  0.56394690709E+03  0.12699999809E+01 0.  1.
</event>
<event>
 5   0  0.5758786E-04  0.1000003E+04  0.7818609E-02  0.9308541E-01
        1   -1    0    0  501    0  0.00000000000E+00  0.00000000000E+00  0.13056656823E+04  0.13056656823E+04  0.50400001928E-02 0.  1.
       -1   -1    0    0    0  501  0.00000000000E+00  0.00000000000E+00 -0.19147453887E+03  0.19147453894E+03  0.50400001928E-02 0. -1.
    10030    2    1    2    0    0  0.00000000000E+00  0.00000000000E+00  0.11141911434E+04  0.14971402212E+04  0.10000034690E+04 0.  0.
        3    1    3    3  502    0  0.18619824380E+02  0.48556705929E+03  0.73347598013E+03  0.87983469502E+03  0.10100000352E+00 0.  1.
       -3    1    3    3    0  502 -0.18619824380E+02 -0.48556705929E+03  0.38071516326E+03  0.61730552619E+03  0.10100000352E+00 0. -1.
</event>
<event>
 5   0  0.1006006E-03  0.9978531E+03  0.7818609E-02  0.9310903E-01
       -2   -1    0    0    0  501  0.00000000000E+00  0.00000000000E+00  0.21949610835E+03  0.21949610836E+03  0.25500000920E-02 0.  1.
        2   -1    0    0  501    0  0.00000000000E+00  0.00000000000E+00 -0.11340871066E+04  0.11340871066E+04  0.25500000920E-02 0. -1.
    10030    2    1    2    0    0  0.00000000000E+00  0.00000000000E+00 -0.91459099820E+03  0.13535832149E+04  0.99785310828E+03 0.  0.
        2    1    3    3  502    0 -0.10490445882E+03  0.17530798826E+03 -0.10747466507E+04  0.10939918644E+04  0.25500000920E-02 0. -1.
       -2    1    3    3    0  502  0.10490445882E+03 -0.17530798826E+03  0.16015565248E+03  0.25959135051E+03  0.25500000920E-02 0.  1.
</event>
<event>
 5   0  0.9674819E-04  0.9978944E+03  0.7818609E-02  0.9310857E-01
        2   -1    0    0  501    0  0.00000000000E+00  0.00000000000E+00  0.38671430555E+03  0.38671430556E+03  0.25500000920E-02 0.  1.
       -2   -1    0    0    0  501  0.00000000000E+00  0.00000000000E+00 -0.64375246190E+03  0.64375246191E+03  0.25500000920E-02 0. -1.
    10030    2    1    2    0    0  0.00000000000E+00  0.00000000000E+00 -0.25703815635E+03  0.10304667675E+04  0.99789435565E+03 0.  0.
        4    1    3    3  502    0 -0.47572918416E+03 -0.22419809598E+02  0.25083536866E+02  0.47691896717E+03  0.12699999809E+01 0.  1.
       -4    1    3    3    0  502  0.47572918416E+03  0.22419809598E+02 -0.28212169322E+03  0.55354780029E+03  0.12699999809E+01 0. -1.
</event>
<event>
 5   0  0.5960102E-04  0.1000437E+04  0.7818609E-02  0.9308066E-01
        1   -1    0    0  501    0  0.00000000000E+00  0.00000000000E+00  0.12828934364E+04  0.12828934364E+04  0.50400001928E-02 0. -1.
       -1   -1    0    0    0  501  0.00000000000E+00  0.00000000000E+00 -0.19504238494E+03  0.19504238501E+03  0.50400001928E-02 0.  1.
    10030    2    1    2    0    0  0.00000000000E+00  0.00000000000E+00  0.10878510515E+04  0.14779358214E+04  0.10004370955E+04 0.  0.
        5    1    3    3  502    0  0.21204691131E+02 -0.30645456917E+02  0.12808071333E+04  0.12813577899E+04  0.46999998093E+01 0. -1.
       -5    1    3    3    0  502 -0.21204691131E+02  0.30645456917E+02 -0.19295608186E+03  0.19657803153E+03  0.46999998093E+01 0.  1.
</event>
<event>
 5   0  0.3854625E-04  0.1001266E+04  0.7818609E-02  0.9307157E-01
        4   -1    0    0  501    0  0.00000000000E+00  0.00000000000E+00  0.38081901771E+03  0.38082113538E+03  0.12699999809E+01 0. -1.
       -4   -1    0    0    0  501  0.00000000000E+00  0.00000000000E+00 -0.65813836429E+03  0.65813958964E+03  0.12699999809E+01 0.  1.
    10030    2    1    2    0    0  0.00000000000E+00  0.00000000000E+00 -0.27731934658E+03  0.10389607250E+04  0.10012658828E+04 0.  0.
        3    1    3    3  502    0  0.73234365309E+01 -0.49323508149E+03 -0.50010021188E+02  0.49581800165E+03  0.10100000352E+00 0. -1.
       -3    1    3    3    0  502 -0.73234365309E+01  0.49323508149E+03 -0.22730932539E+03  0.54314272337E+03  0.10100000352E+00 0.  1.
</event>
<event>
 5   0  0.1006006E-03  0.1001039E+04  0.7818609E-02  0.9307406E-01
        2   -1    0    0  501    0  0.00000000000E+00  0.00000000000E+00  0.14710852664E+04  0.14710852664E+04  0.25500000920E-02 0. -1.
       -2   -1    0    0    0  501  0.00000000000E+00  0.00000000000E+00 -0.17029586274E+03  0.17029586275E+03  0.25500000920E-02 0.  1.
    10030    2    1    2    0    0  0.00000000000E+00  0.00000000000E+00  0.13007894037E+04  0.16413811292E+04  0.10010389295E+04 0.  0.
        2    1    3    3  502    0  0.36010226367E+03  0.87250483873E+02  0.12021491381E+04  0.12579542271E+04  0.25500000920E-02 0. -1.
       -2    1    3    3    0  502 -0.36010226367E+03 -0.87250483873E+02  0.98640265588E+02  0.38342690208E+03  0.25500000920E-02 0.  1.
</event>
<event>
 5   0  0.9741826E-04  0.9993671E+03  0.7818609E-02  0.9309239E-01
       -2   -1    0    0    0  501  0.00000000000E+00  0.00000000000E+00  0.23346437704E+03  0.23346437706E+03  0.25500000920E-02 0. -1.
        2   -1    0    0  501    0  0.00000000000E+00  0.00000000000E+00 -0.10694720837E+04  0.10694720837E+04  0.25500000920E-02 0.  1.
    10030    2    1    2    0    0  0.00000000000E+00  0.00000000000E+00 -0.83600770668E+03  0.13029364608E+04  0.99936706730E+03 0.  0.
        3    1    3    3  502    0  0.33126706611E+03  0.35650978510E+03 -0.56577548931E+03  0.74628346522E+03  0.10100000352E+00 0. -1.
       -3    1    3    3    0  502 -0.33126706611E+03 -0.35650978510E+03 -0.27023221736E+03  0.55665299556E+03  0.10100000352E+00 0.  1.
</event>
<event>
 5   0  0.1020150E-03  0.9999708E+03  0.7818609E-02  0.9308577E-01
        2   -1    0    0  501    0  0.00000000000E+00  0.00000000000E+00  0.12514180008E+04  0.12514180008E+04  0.25500000920E-02 0.  1.
       -2   -1    0    0    0  501  0.00000000000E+00  0.00000000000E+00 -0.19976170042E+03  0.19976170043E+03  0.25500000920E-02 0. -1.
    10030    2    1    2    0    0  0.00000000000E+00  0.00000000000E+00  0.10516563004E+04  0.14511797013E+04  0.99997077515E+03 0.  0.
        5    1    3    3  502    0  0.13165722690E+03 -0.45926968420E+03  0.31204471231E+03  0.57066300098E+03  0.46999998093E+01 0.  1.
       -5    1    3    3    0  502 -0.13165722690E+03  0.45926968420E+03  0.73961158810E+03  0.88051670028E+03  0.46999998093E+01 0. -1.
</event>
<event>
 5   0  0.5888774E-04  0.9981123E+03  0.7818609E-02  0.9310618E-01
        1   -1    0    0  501    0  0.00000000000E+00  0.00000000000E+00  0.10031460041E+04  0.10031460041E+04  0.50400001928E-02 0. -1.
       -1   -1    0    0    0  501  0.00000000000E+00  0.00000000000E+00 -0.24827594659E+03  0.24827594664E+03  0.50400001928E-02 0.  1.
    10030    2    1    2    0    0  0.00000000000E+00  0.00000000000E+00  0.75487005753E+03  0.12514219508E+04  0.99811226579E+03 0.  0.
        2    1    3    3  502    0 -0.29035644904E+03  0.12696067365E+03  0.86080457558E+03  0.91728425120E+03  0.25500000920E-02 0. -1.
       -2    1    3    3    0  502  0.29035644904E+03 -0.12696067365E+03 -0.10593451806E+03  0.33413769957E+03  0.25500000920E-02 0.  1.
</event>
<event>
 5   0  0.1006006E-03  0.1000081E+04  0.7818609E-02  0.9308455E-01
       -2   -1    0    0    0  501  0.00000000000E+00  0.00000000000E+00  0.31087261301E+03  0.31087261302E+03  0.25500000920E-02 0. -1.
        2   -1    0    0  501    0  0.00000000000E+00  0.00000000000E+00 -0.80431891608E+03  0.80431891609E+03  0.25500000920E-02 0.  1.
    10030    2    1    2    0    0  0.00000000000E+00  0.00000000000E+00 -0.49344630307E+03  0.11151915291E+04  0.10000814430E+04 0.  0.
        2    1    3    3  502    0  0.16602540226E+03  0.43538607374E+03 -0.44903099004E+03  0.64711227574E+03  0.25500000920E-02 0.  1.
       -2    1    3    3    0  502 -0.16602540226E+03 -0.43538607374E+03 -0.44415313033E+02  0.46807925337E+03  0.25500000920E-02 0. -1.
</event>
<event>
 5   0  0.5888774E-04  0.9999466E+03  0.7818609E-02  0.9308603E-01
       -1   -1    0    0    0  501  0.00000000000E+00  0.00000000000E+00  0.35485095518E+03  0.35485095521E+03  0.50400001928E-02 0.  1.
        1   -1    0    0  501    0  0.00000000000E+00  0.00000000000E+00 -0.70444586372E+03  0.70444586373E+03  0.50400001928E-02 0. -1.
    10030    2    1    2    0    0  0.00000000000E+00  0.00000000000E+00 -0.34959490854E+03  0.10592968189E+04  0.99994657385E+03 0.  0.
        2    1    3    3  502    0 -0.26364810362E+03 -0.32686438114E+03  0.11264212527E+03  0.43478603311E+03  0.25500000920E-02 0.  1.
       -2    1    3    3    0  502  0.26364810362E+03  0.32686438114E+03 -0.46223703381E+03  0.62451078584E+03  0.25500000920E-02 0. -1.
</event>
<event>
 5   0  0.1020150E-03  0.1002444E+04  0.7818609E-02  0.9305868E-01
       -2   -1    0    0    0  501  0.00000000000E+00  0.00000000000E+00  0.15864417761E+03  0.15864417763E+03  0.25500000920E-02 0.  1.
        2   -1    0    0  501    0  0.00000000000E+00  0.00000000000E+00 -0.15835657124E+04  0.15835657124E+04  0.25500000920E-02 0. -1.
    10030    2    1    2    0    0  0.00000000000E+00  0.00000000000E+00 -0.14249215348E+04  0.17422098900E+04  0.10024439738E+04 0.  0.
        5    1    3    3  502    0  0.27054798932E+01  0.40381473780E+03 -0.12283977417E+04  0.12930803393E+04  0.46999998093E+01 0. -1.
       -5    1    3    3    0  502 -0.27054798932E+01 -0.40381473780E+03 -0.19652379308E+03  0.44912955072E+03  0.46999998093E+01 0.  1.
</event>
<event>
 5   0  0.5768102E-04  0.1000746E+04  0.7818609E-02  0.9307727E-01
       -1   -1    0    0    0  501  0.00000000000E+00  0.00000000000E+00  0.52496687251E+03  0.52496687253E+03  0.50400001928E-02 0.  1.
        1   -1    0    0  501    0  0.00000000000E+00  0.00000000000E+00 -0.47693121782E+03  0.47693121785E+03  0.50400001928E-02 0. -1.
    10030    2    1    2    0    0  0.00000000000E+00  0.00000000000E+00  0.48035654685E+02  0.10018980904E+04  0.10007459015E+04 0.  0.
        4    1    3    3  502    0  0.26047964436E+03 -0.38021064641E+03  0.21907976466E+03  0.51030122178E+03  0.12699999809E+01 0.  1.
       -4    1    3    3    0  502 -0.26047964436E+03  0.38021064641E+03 -0.17104410997E+03  0.49159686861E+03  0.12699999809E+01 0. -1.
</event>
<event>
 5   0  0.5888774E-04  0.1001555E+04  0.7818609E-02  0.9306841E-01
        1   -1    0    0  501    0  0.00000000000E+00  0.00000000000E+00  0.49936109896E+03  0.49936109899E+03  0.50400001928E-02 0. -1.
       -1   -1    0    0    0  501  0.00000000000E+00  0.00000000000E+00 -0.50219748471E+03  0.50219748473E+03  0.50400001928E-02 0.  1.
    10030    2    1    2    0    0  0.00000000000E+00  0.00000000000E+00 -0.28363857436E+01  0.10015585837E+04  0.10015545674E+04 0.  0.
        2    1    3    3  502    0  0.49005545112E+03  0.33322043229E+02  0.96117751472E+02  0.50050307281E+03  0.25500000920E-02 0. -1.
       -2    1    3    3    0  502 -0.49005545112E+03 -0.33322043229E+02 -0.98954137216E+02  0.50105551091E+03  0.25500000920E-02 0.  1.
</event>
<event>
 5   0  0.5826939E-04  0.1000525E+04  0.7818609E-02  0.9307969E-01
       -1   -1    0    0    0  501  0.00000000000E+00  0.00000000000E+00  0.45697414431E+03  0.45697414434E+03  0.50400001928E-02 0. -1.
        1   -1    0    0  501    0  0.00000000000E+00  0.00000000000E+00 -0.54765116987E+03  0.54765116989E+03  0.50400001928E-02 0.  1.
    10030    2    1    2    0    0  0.00000000000E+00  0.00000000000E+00 -0.90677025555E+02  0.10046253142E+04  0.10005247119E+04 0.  0.
        1    1    3    3  502    0 -0.39682595795E+03  0.30438141559E+03 -0.57368335765E+02  0.50339846348E+03  0.50400001928E-02 0.  1.
       -1    1    3    3    0  502  0.39682595795E+03 -0.30438141559E+03 -0.33308689790E+02  0.50122685074E+03  0.50400001928E-02 0. -1.
</event>
<event>
 5   0  0.1020150E-03  0.1000615E+04  0.7818609E-02  0.9307871E-01
        2   -1    0    0  501    0  0.00000000000E+00  0.00000000000E+00  0.41123994814E+03  0.41123994814E+03  0.25500000920E-02 0.  1.
       -2   -1    0    0    0  501  0.00000000000E+00  0.00000000000E+00 -0.60866549061E+03  0.60866549062E+03  0.25500000920E-02 0. -1.
    10030    2    1    2    0    0  0.00000000000E+00  0.00000000000E+00 -0.19742554248E+03  0.10199054388E+04  0.10006149405E+04 0.  0.
        5    1    3    3  502    0 -0.34657181141E+03 -0.35988088656E+03 -0.12488267499E+03  0.51501849043E+03  0.46999998093E+01 0.  1.
       -5    1    3    3    0  502  0.34657181141E+03  0.35988088656E+03 -0.72542867492E+02  0.50488694833E+03  0.46999998093E+01 0. -1.
</event>
<event>
 5   0  0.5960102E-04  0.9965075E+03  0.7818609E-02  0.9312384E-01
       -1   -1    0    0    0  501  0.00000000000E+00  0.00000000000E+00  0.18529073861E+03  0.18529073868E+03  0.50400001928E-02 0.  1.
        1   -1    0    0  501    0  0.00000000000E+00  0.00000000000E+00 -0.13398230806E+04  0.13398230806E+04  0.50400001928E-02 0. -1.
    10030    2    1    2    0    0  0.00000000000E+00  0.00000000000E+00 -0.11545323420E+04  0.15251138193E+04  0.99650751783E+03 0.  0.
        5    1    3    3  502    0 -0.24076041926E+03 -0.33761972517E+03 -0.99996678931E+03  0.10825471482E+04  0.46999998093E+01 0. -1.
       -5    1    3    3    0  502  0.24076041926E+03  0.33761972517E+03 -0.15456555267E+03  0.44256667111E+03  0.46999998093E+01 0.  1.
</event>
<event>
 5   0  0.5758786E-04  0.9996241E+03  0.7818609E-02  0.9308957E-01
       -1   -1    0    0    0  501  0.00000000000E+00  0.00000000000E+00  0.17777417416E+03  0.17777417423E+03  0.50400001928E-02 0.  1.
        1   -1    0    0  501    0  0.00000000000E+00  0.00000000000E+00 -0.14052215425E+04  0.14052215426E+04  0.50400001928E-02 0. -1.
    10030    2    1    2    0    0  0.00000000000E+00  0.00000000000E+00 -0.12274473684E+04  0.15829957168E+04  0.99962412795E+03 0.  0.
        3    1    3    3  502    0  0.33220906431E+03 -0.36312109127E+03 -0.75170798683E+03  0.89849023200E+03  0.10100000352E+00 0. -1.
       -3    1    3    3    0  502 -0.33220906431E+03  0.36312109127E+03 -0.47573938156E+03  0.68450548479E+03  0.10100000352E+00 0.  1.
</event>
<event>
 5   0  0.1006749E-03  0.1000072E+04  0.7818609E-02  0.9308465E-01
        2   -1    0    0  501    0  0.00000000000E+00  0.00000000000E+00  0.33669767664E+03  0.33669767665E+03  0.25500000920E-02 0. -1.
       -2   -1    0    0    0  501  0.00000000000E+00  0.00000000000E+00 -0.74261327545E+03  0.74261327545E+03  0.25500000920E-02 0.  1.
    10030    2    1    2    0    0  0.00000000000E+00  0.00000000000E+00 -0.40591559881E+03  0.10793109521E+04  0.10000723264E+04 0.  0.
        1    1    3    3  502    0  0.29744265513E+03 -0.40195024044E+03 -0.20316139272E+03  0.53973204500E+03  0.50400001928E-02 0. -1.
       -1    1    3    3    0  502 -0.29744265513E+03  0.40195024044E+03 -0.20275420609E+03  0.53957890711E+03  0.50400001928E-02 0.  1.
</event>
<event>
 5   0  0.5826939E-04  0.9986427E+03  0.7818609E-02  0.9310035E-01
        1   -1    0    0  501    0  0.00000000000E+00  0.00000000000E+00  0.16868944886E+04  0.16868944886E+04  0.50400001928E-02 0.  1.
       -1   -1    0    0    0  501  0.00000000000E+00  0.00000000000E+00 -0.14779928042E+03  0.14779928051E+03  0.50400001928E-02 0. -1.
    10030    2    1    2    0    0  0.00000000000E+00  0.00000000000E+00  0.15390952082E+04  0.18346937691E+04  0.99864266210E+03 0.  0.
        1    1    3    3  502    0 -0.37625372344E+03  0.92361440370E+02  0.13482595859E+04  0.14028190942E+04  0.50400001928E-02 0.  1.
       -1    1    3    3    0  502  0.37625372344E+03 -0.92361440370E+02  0.19083562227E+03  0.43187467490E+03  0.50400001928E-02 0. -1.
</event>
<event>
 5   0  0.9741826E-04  0.9990133E+03  0.7818609E-02  0.9309628E-01
        2   -1    0    0  501    0  0.00000000000E+00  0.00000000000E+00  0.27561929719E+03  0.27561929720E+03  0.25500000920E-02 0.  1.
       -2   -1    0    0    0  501  0.00000000000E+00  0.00000000000E+00 -0.90525920416E+03  0.90525920417E+03  0.25500000920E-02 0. -1.
    10030    2    1    2    0    0  0.00000000000E+00  0.00000000000E+00 -0.62963990697E+03  0.11808785014E+04  0.99901332451E+03 0.  0.
        3    1    3    3  502    0 -0.39579710800E+03  0.12044652679E+03 -0.64567464856E+03  0.76684971051E+03  0.10100000352E+00 0. -1.
       -3    1    3    3    0  502  0.39579710800E+03 -0.12044652679E+03  0.16034741585E+02  0.41402879086E+03  0.10100000352E+00 0.  1.
</event>
<event>
 5   0  0.5826939E-04  0.1002179E+04  0.7818609E-02  0.9306158E-01
       -1   -1    0    0    0  501  0.00000000000E+00  0.00000000000E+00  0.76655591078E+03  0.76655591079E+03  0.50400001928E-02 0.  1.
        1   -1    0    0  501    0  0.00000000000E+00  0.00000000000E+00 -0.32755711029E+03  0.32755711033E+03  0.50400001928E-02 0. -1.
    10030    2    1    2    0    0  0.00000000000E+00  0.00000000000E+00  0.43899880049E+03  0.10941130211E+04  0.10021793034E+04 0.  0.
        1    1    3    3  502    0  0.17435160564E+03  0.30573955011E+03 -0.16989265457E+03  0.39081794866E+03  0.50400001928E-02 0. -1.
       -1    1    3    3    0  502 -0.17435160564E+03 -0.30573955011E+03  0.60889145506E+03  0.70329507247E+03  0.50400001928E-02 0.  1.
</event>
<event>
 5   0  0.5768102E-04  0.9996273E+03  0.7818609E-02  0.9308954E-01
        1   -1    0    0  501    0  0.00000000000E+00  0.00000000000E+00  0.25321786412E+04  0.25321786412E+04  0.50400001928E-02 0.  1.
       -1   -1    0    0    0  501  0.00000000000E+00  0.00000000000E+00 -0.98655628511E+02  0.98655628640E+02  0.50400001928E-02 0. -1.
    10030    2    1    2    0    0  0.00000000000E+00  0.00000000000E+00  0.24335230127E+04  0.26308342698E+04  0.99962728159E+03 0.  0.
        4    1    3    3  502    0 -0.27346605672E+03  0.34965897696E+03  0.18213174602E+04  0.18746316940E+04  0.12699999809E+01 0. -1.
       -4    1    3    3    0  502  0.27346605672E+03 -0.34965897696E+03  0.61220555249E+03  0.75620257587E+03  0.12699999809E+01 0.  1.
</event>
<event>
 5   0  0.1006749E-03  0.9980207E+03  0.7818609E-02  0.9310718E-01
       -2   -1    0    0    0  501  0.00000000000E+00  0.00000000000E+00  0.35883386360E+03  0.35883386361E+03  0.25500000920E-02 0. -1.
        2   -1    0    0  501    0  0.00000000000E+00  0.00000000000E+00 -0.69394603953E+03  0.69394603954E+03  0.25500000920E-02 0.  1.
    10030    2    1    2    0    0  0.00000000000E+00  0.00000000000E+00 -0.33511217593E+03  0.10527799031E+04  0.99802071823E+03 0.  0.
        1    1    3    3  502    0 -0.18116213321E+02  0.12986906409E+03  0.34033527383E+03  0.36472218143E+03  0.50400001928E-02 0. -1.
       -1    1    3    3    0  502  0.18116213321E+02 -0.12986906409E+03 -0.67544744976E+03  0.68805772171E+03  0.50400001928E-02 0.  1.
</event>
<event>
 5   0  0.5826939E-04  0.1012101E+04  0.7818609E-02  0.9295371E-01
        1   -1    0    0  501    0  0.00000000000E+00  0.00000000000E+00  0.15995302149E+04  0.15995302149E+04  0.50400001928E-02 0.  1.
       -1   -1    0    0    0  501  0.00000000000E+00  0.00000000000E+00 -0.16010142498E+03  0.16010142506E+03  0.50400001928E-02 0. -1.
    10030    2    1    2    0    0  0.00000000000E+00  0.00000000000E+00  0.14394287899E+04  0.17596316400E+04  0.10121009175E+04 0.  0.
        1    1    3    3  502    0  0.18823617999E+03 -0.36603449804E+02 -0.94486382451E+02  0.21377639835E+03  0.50400001928E-02 0. -1.
       -1    1    3    3    0  502 -0.18823617999E+03  0.36603449804E+02  0.15339151724E+04  0.15458552416E+04  0.50400001928E-02 0.  1.
</event>
<event>
 5   0  0.5826939E-04  0.9998901E+03  0.7818609E-02  0.9308665E-01
        1   -1    0    0  501    0  0.00000000000E+00  0.00000000000E+00  0.95131817535E+03  0.95131817536E+03  0.50400001928E-02 0. -1.
       -1   -1    0    0    0  501  0.00000000000E+00  0.00000000000E+00 -0.26273549158E+03  0.26273549163E+03  0.50400001928E-02 0.  1.
    10030    2    1    2    0    0  0.00000000000E+00  0.00000000000E+00  0.68858268377E+03  0.12140536670E+04  0.99989009094E+03 0.  0.
        1    1    3    3  502    0  0.21065489666E+03  0.94159016089E+02 -0.19421623942E+03  0.30159799979E+03  0.50400001928E-02 0.  1.
       -1    1    3    3    0  502 -0.21065489666E+03 -0.94159016089E+02  0.88279892319E+03  0.91245566720E+03  0.50400001928E-02 0. -1.
</event>
<event>
 5   0  0.9741826E-04  0.9982487E+03  0.7818609E-02  0.9310468E-01
        2   -1    0    0  501    0  0.00000000000E+00  0.00000000000E+00  0.63161351229E+03  0.63161351229E+03  0.25500000920E-02 0. -1.
       -2   -1    0    0    0  501  0.00000000000E+00  0.00000000000E+00 -0.39442653159E+03  0.39442653160E+03  0.25500000920E-02 0.  1.
    10030    2    1    2    0    0  0.00000000000E+00  0.00000000000E+00  0.23718698070E+03  0.10260400439E+04  0.99824872043E+03 0.  0.
        3    1    3    3  502    0  0.37913377054E+03  0.17084338614E+02 -0.21460877971E+03  0.43599452877E+03  0.10100000352E+00 0.  1.
       -3    1    3    3    0  502 -0.37913377054E+03 -0.17084338614E+02  0.45179576041E+03  0.59004551512E+03  0.10100000352E+00 0. -1.
</event>
<event>
 5   0  0.1020150E-03  0.1000432E+04  0.7818609E-02  0.9308072E-01
        2   -1    0    0  501    0  0.00000000000E+00  0.00000000000E+00  0.28710733791E+03  0.28710733792E+03  0.25500000920E-02 0. -1.
       -2   -1    0    0    0  501  0.00000000000E+00  0.00000000000E+00 -0.87150616820E+03  0.87150616820E+03  0.25500000920E-02 0.  1.
    10030    2    1    2    0    0  0.00000000000E+00  0.00000000000E+00 -0.58439883028E+03  0.11586135061E+04  0.10004315388E+04 0.  0.
        5    1    3    3  502    0 -0.92547011432E+02 -0.48278272747E+03 -0.39928338989E+03  0.63331937181E+03  0.46999998093E+01 0.  1.
       -5    1    3    3    0  502  0.92547011432E+02  0.48278272747E+03 -0.18511544039E+03  0.52529413431E+03  0.46999998093E+01 0. -1.
</event>
<event>
 5   0  0.1006006E-03  0.9939172E+03  0.7818609E-02  0.9315242E-01
        2   -1    0    0  501    0  0.00000000000E+00  0.00000000000E+00  0.13190587227E+03  0.13190587229E+03  0.25500000920E-02 0.  1.
       -2   -1    0    0    0  501  0.00000000000E+00  0.00000000000E+00 -0.18723037923E+04  0.18723037923E+04  0.25500000920E-02 0. -1.
    10030    2    1    2    0    0  0.00000000000E+00  0.00000000000E+00 -0.17403979200E+04  0.20042096646E+04  0.99391722976E+03 0.  0.
        2    1    3    3  502    0 -0.63999557101E+02 -0.41749278906E+03 -0.34216072859E+03  0.54357164792E+03  0.25500000920E-02 0.  1.
       -2    1    3    3    0  502  0.63999557101E+02  0.41749278906E+03 -0.13982371914E+04  0.14606380167E+04  0.25500000920E-02 0. -1.
</event>
<event>
 5   0  0.1006006E-03  0.1001007E+04  0.7818609E-02  0.9307441E-01
       -2   -1    0    0    0  501  0.00000000000E+00  0.00000000000E+00  0.22629607581E+03  0.22629607582E+03  0.25500000920E-02 0.  1.
        2   -1    0    0  501    0  0.00000000000E+00  0.00000000000E+00 -0.11069730227E+04  0.11069730227E+04  0.25500000920E-02 0. -1.
    10030    2    1    2    0    0  0.00000000000E+00  0.00000000000E+00 -0.88067694685E+03  0.13332690985E+04  0.10010067953E+04 0.  0.
        2    1    3    3  502    0  0.48040966064E+02 -0.42971790765E+03 -0.10460212226E+03  0.44486741684E+03  0.25500000920E-02 0.  1.
       -2    1    3    3    0  502 -0.48040966064E+02  0.42971790765E+03 -0.77607482459E+03  0.88840168164E+03  0.25500000920E-02 0. -1.
</event>
<event>
 5   0  0.9741826E-04  0.1000068E+04  0.7818609E-02  0.9308471E-01
       -2   -1    0    0    0  501  0.00000000000E+00  0.00000000000E+00  0.21348762448E+03  0.21348762450E+03  0.25500000920E-02 0. -1.
        2   -1    0    0  501    0  0.00000000000E+00  0.00000000000E+00 -0.11711862998E+04  0.11711862998E+04  0.25500000920E-02 0.  1.
    10030    2    1    2    0    0  0.00000000000E+00  0.00000000000E+00 -0.95769867534E+03  0.13846739243E+04  0.10000675597E+04 0.  0.
        3    1    3    3  502    0 -0.27262389013E+03 -0.38762500359E+03 -0.25793676328E+03  0.53954454212E+03  0.10100000352E+00 0.  1.
       -3    1    3    3    0  502  0.27262389013E+03  0.38762500359E+03 -0.69976191206E+03  0.84512938220E+03  0.10100000352E+00 0. -1.
</event>
<event>
 5   0  0.5888774E-04  0.9995491E+03  0.7818609E-02  0.9309039E-01
        1   -1    0    0  501    0  0.00000000000E+00  0.00000000000E+00  0.14894037523E+04  0.14894037523E+04  0.50400001928E-02 0. -1.
       -1   -1    0    0    0  501  0.00000000000E+00  0.00000000000E+00 -0.16770107187E+03  0.16770107194E+03  0.50400001928E-02 0.  1.
    10030    2    1    2    0    0  0.00000000000E+00  0.00000000000E+00  0.13217026804E+04  0.16571048243E+04  0.99954910990E+03 0.  0.
        2    1    3    3  502    0 -0.38514838337E+03  0.28301753433E+03  0.41868908301E+03  0.63540439894E+03  0.25500000920E-02 0.  1.
       -2    1    3    3    0  502  0.38514838337E+03 -0.28301753433E+03  0.90301359742E+03  0.10217004253E+04  0.25500000920E-02 0. -1.
</event>
<event>
 5   0  0.1006749E-03  0.9997743E+03  0.7818609E-02  0.9308792E-01
        2   -1    0    0  501    0  0.00000000000E+00  0.00000000000E+00  0.58162977561E+03  0.58162977561E+03  0.25500000920E-02 0.  1.
       -2   -1    0    0    0  501  0.00000000000E+00  0.00000000000E+00 -0.42963271522E+03  0.42963271523E+03  0.25500000920E-02 0. -1.
    10030    2    1    2    0    0  0.00000000000E+00  0.00000000000E+00  0.15199706038E+03  0.10112624908E+04  0.99977433405E+03 0.  0.
        1    1    3    3  502    0  0.47173984087E+01  0.36061766402E+03 -0.27412899840E+03  0.45300558632E+03  0.50400001928E-02 0. -1.
       -1    1    3    3    0  502 -0.47173984087E+01 -0.36061766402E+03  0.42612605878E+03  0.55825690452E+03  0.50400001928E-02 0.  1.
</event>
<event>
 5   0  0.5758786E-04  0.9998379E+03  0.7818609E-02  0.9308723E-01
        1   -1    0    0  501    0  0.00000000000E+00  0.00000000000E+00  0.97195318321E+03  0.97195318322E+03  0.50400001928E-02 0. -1.
       -1   -1    0    0    0  501  0.00000000000E+00  0.00000000000E+00 -0.25713067314E+03  0.25713067319E+03  0.50400001928E-02 0.  1.
    10030    2    1    2    0    0  0.00000000000E+00  0.00000000000E+00  0.71482251006E+03  0.12290838564E+04  0.99983793947E+03 0.  0.
        3    1    3    3  502    0 -0.31449123003E+02 -0.46461214577E+03  0.13387947817E+03  0.48453814939E+03  0.10100000352E+00 0.  1.
       -3    1    3    3    0  502  0.31449123003E+02  0.46461214577E+03  0.58094303189E+03  0.74454570702E+03  0.10100000352E+00 0. -1.
</event>
<event>
 5   0  0.5758786E-04  0.9999945E+03  0.7818609E-02  0.9308551E-01
        1   -1    0    0  501    0  0.00000000000E+00  0.00000000000E+00  0.88954925615E+03  0.88954925616E+03  0.50400001928E-02 0. -1.
       -1   -1    0    0    0  501  0.00000000000E+00  0.00000000000E+00 -0.28103809890E+03  0.28103809895E+03  0.50400001928E-02 0.  1.
    10030    2    1    2    0    0  0.00000000000E+00  0.00000000000E+00  0.60851115724E+03  0.11705873551E+04  0.99999446371E+03 0.  0.
        3    1    3    3  502    0  0.20466014732E+03  0.34725188982E+03  0.65057645398E+03  0.76532305829E+03  0.10100000352E+00 0. -1.
       -3    1    3    3    0  502 -0.20466014732E+03 -0.34725188982E+03 -0.42065296736E+02  0.40526429682E+03  0.10100000352E+00 0.  1.
</event>
<event>
 5   0  0.5768102E-04  0.9984621E+03  0.7818609E-02  0.9310233E-01
       -1   -1    0    0    0  501  0.00000000000E+00  0.00000000000E+00  0.60329049593E+03  0.60329049595E+03  0.50400001928E-02 0.  1.
        1   -1    0    0  501    0  0.00000000000E+00  0.00000000000E+00 -0.41312043725E+03  0.41312043728E+03  0.50400001928E-02 0. -1.
    10030    2    1    2    0    0  0.00000000000E+00  0.00000000000E+00  0.19017005868E+03  0.10164109332E+04  0.99846208440E+03 0.  0.
        4    1    3    3  502    0  0.19613125776E+03 -0.33324062430E+03  0.41653556744E+03  0.56834872728E+03  0.12699999809E+01 0.  1.
       -4    1    3    3    0  502 -0.19613125776E+03  0.33324062430E+03 -0.22636550876E+03  0.44806220596E+03  0.12699999809E+01 0. -1.
</event>
<event>
 5   0  0.9674819E-04  0.1001119E+04  0.7818609E-02  0.9307319E-01
        2   -1    0    0  501    0  0.00000000000E+00  0.00000000000E+00  0.10756238195E+04  0.10756238195E+04  0.25500000920E-02 0.  1.
       -2   -1    0    0    0  501  0.00000000000E+00  0.00000000000E+00 -0.23294357232E+03  0.23294357233E+03  0.25500000920E-02 0. -1.
    10030    2    1    2    0    0  0.00000000000E+00  0.00000000000E+00  0.84268024717E+03  0.13085673918E+04  0.10011186843E+04 0.  0.
        4    1    3    3  502    0  0.23608501676E+03 -0.33425256197E+03  0.44546500677E+02  0.41163930078E+03  0.12699999809E+01 0. -1.
       -4    1    3    3    0  502 -0.23608501676E+03  0.33425256197E+03  0.79813374649E+03  0.89692809105E+03  0.12699999809E+01 0.  1.
</event>
<event>
 5   0  0.5758786E-04  0.1000969E+04  0.7818609E-02  0.9307482E-01
       -1   -1    0    0    0  501  0.00000000000E+00  0.00000000000E+00  0.35984904715E+03  0.35984904718E+03  0.50400001928E-02 0. -1.
        1   -1    0    0  501    0  0.00000000000E+00  0.00000000000E+00 -0.69608303369E+03  0.69608303371E+03  0.50400001928E-02 0.  1.
    10030    2    1    2    0    0  0.00000000000E+00  0.00000000000E+00 -0.33623398654E+03  0.10559320809E+04  0.10009691632E+04 0.  0.
        3    1    3    3  502    0  0.44682016774E+03  0.10539977732E+03  0.42144878669E+02  0.46101364010E+03  0.10100000352E+00 0. -1.
       -3    1    3    3    0  502 -0.44682016774E+03 -0.10539977732E+03 -0.37837886521E+03  0.59491844079E+03  0.10100000352E+00 0.  1.
</event>
<event>
 5   0  0.1020150E-03  0.9993432E+03  0.7818609E-02  0.9309265E-01
        2   -1    0    0  501    0  0.00000000000E+00  0.00000000000E+00  0.92144310715E+03  0.92144310715E+03  0.25500000920E-02 0. -1.
       -2   -1    0    0    0  501  0.00000000000E+00  0.00000000000E+00 -0.27095726206E+03  0.27095726208E+03  0.25500000920E-02 0.  1.
    10030    2    1    2    0    0  0.00000000000E+00  0.00000000000E+00  0.65048584508E+03  0.11924003692E+04  0.99934318723E+03 0.  0.
        5    1    3    3  502    0  0.72158986043E+02 -0.25455782060E+03  0.83096580561E+03  0.87208535327E+03  0.46999998093E+01 0. -1.
       -5    1    3    3    0  502 -0.72158986043E+02  0.25455782060E+03 -0.18047996053E+03  0.32031501596E+03  0.46999998093E+01 0.  1.
</event>
<event>
 5   0  0.5758786E-04  0.9993777E+03  0.7818609E-02  0.9309228E-01
        1   -1    0    0  501    0  0.00000000000E+00  0.00000000000E+00  0.25832385465E+04  0.25832385465E+04  0.50400001928E-02 0. -1.
       -1   -1    0    0    0  501  0.00000000000E+00  0.00000000000E+00 -0.96657326432E+02  0.96657326563E+02  0.50400001928E-02 0.  1.
    10030    2    1    2    0    0  0.00000000000E+00  0.00000000000E+00  0.24865812201E+04  0.26798958731E+04  0.99937766960E+03 0.  0.
        3    1    3    3  502    0  0.46085207277E+03 -0.37215120507E+02  0.17515113118E+04  0.18115080689E+04  0.10100000352E+00 0.  1.
       -3    1    3    3    0  502 -0.46085207277E+03  0.37215120507E+02  0.73506990827E+03  0.86838780416E+03  0.10100000352E+00 0. -1.
</event>
<event>
 5   0  0.1006749E-03  0.1002153E+04  0.7818609E-02  0.9306187E-01
       -2   -1    0    0    0  501  0.00000000000E+00  0.00000000000E+00  0.28982574460E+03  0.28982574461E+03  0.25500000920E-02 0. -1.
        2   -1    0    0  501    0  0.00000000000E+00  0.00000000000E+00 -0.86630552338E+03  0.86630552338E+03  0.25500000920E-02 0.  1.
    10030    2    1    2    0    0  0.00000000000E+00  0.00000000000E+00 -0.57647977878E+03  0.11561312680E+04  0.10021529691E+04 0.  0.
        1    1    3    3  502    0  0.27923237574E+03  0.72055566431E+02 -0.76097490487E+03  0.81378469522E+03  0.50400001928E-02 0.  1.
       -1    1    3    3    0  502 -0.27923237574E+03 -0.72055566431E+02  0.18449512608E+03  0.34234657277E+03  0.50400001928E-02 0. -1.
</event>
<event>
 5   0  0.5758786E-04  0.1003210E+04  0.7818609E-02  0.9305031E-01
        1   -1    0    0  501    0  0.00000000000E+00  0.00000000000E+00  0.30452043846E+03  0.30452043850E+03  0.50400001928E-02 0. -1.
       -1   -1    0    0    0  501  0.00000000000E+00  0.00000000000E+00 -0.82624264772E+03  0.82624264774E+03  0.50400001928E-02 0.  1.
    10030    2    1    2    0    0  0.00000000000E+00  0.00000000000E+00 -0.52172220927E+03  0.11307630862E+04  0.10032103935E+04 0.  0.
        3    1    3    3  502    0  0.17257832557E+03  0.26314436161E+03  0.17941765627E+03  0.36224154799E+03  0.10100000352E+00 0. -1.
       -3    1    3    3    0  502 -0.17257832557E+03 -0.26314436161E+03 -0.70113986554E+03  0.76852153825E+03  0.10100000352E+00 0.  1.
</event>
<event>
 5   0  0.1020150E-03  0.1000723E+04  0.7818609E-02  0.9307752E-01
       -2   -1    0    0    0  501  0.00000000000E+00  0.00000000000E+00  0.56253730308E+03  0.56253730309E+03  0.25500000920E-02 0. -1.
        2   -1    0    0  501    0  0.00000000000E+00  0.00000000000E+00 -0.44505792194E+03  0.44505792194E+03  0.25500000920E-02 0.  1.
    10030    2    1    2    0    0  0.00000000000E+00  0.00000000000E+00  0.11747938114E+03  0.10075952250E+04  0.10007231048E+04 0.  0.
        5    1    3    3  502    0  0.12517936166E+03 -0.12937841009E+03 -0.41129685661E+03  0.44899425368E+03  0.46999998093E+01 0.  1.
       -5    1    3    3    0  502 -0.12517936166E+03  0.12937841009E+03  0.52877623775E+03  0.55860097135E+03  0.46999998093E+01 0. -1.
</event>
<event>
 5   0  0.9741826E-04  0.1002391E+04  0.7818609E-02  0.9305926E-01
        2   -1    0    0  501    0  0.00000000000E+00  0.00000000000E+00  0.41108047619E+03  0.41108047620E+03  0.25500000920E-02 0.  1.
       -2   -1    0    0    0  501  0.00000000000E+00  0.00000000000E+00 -0.61106560605E+03  0.61106560605E+03  0.25500000920E-02 0. -1.
    10030    2    1    2    0    0  0.00000000000E+00  0.00000000000E+00 -0.19998512985E+03  0.10221460823E+04  0.10023914212E+04 0.  0.
        3    1    3    3  502    0  0.80422714703E+02 -0.97101883427E+02 -0.59463012402E+03  0.60784996783E+03  0.10100000352E+00 0. -1.
       -3    1    3    3    0  502 -0.80422714703E+02  0.97101883427E+02  0.39464499416E+03  0.41429611442E+03  0.10100000352E+00 0.  1.
</event>
<event>
 5   0  0.9741826E-04  0.9997750E+03  0.7818609E-02  0.9308792E-01
       -2   -1    0    0    0  501  0.00000000000E+00  0.00000000000E+00  0.38766834405E+03  0.38766834406E+03  0.25500000920E-02 0.  1.
        2   -1    0    0  501    0  0.00000000000E+00  0.00000000000E+00 -0.64459101744E+03  0.64459101745E+03  0.25500000920E-02 0. -1.
    10030    2    1    2    0    0  0.00000000000E+00  0.00000000000E+00 -0.25692267339E+03  0.10322593615E+04  0.99977503935E+03 0.  0.
        3    1    3    3  502    0  0.80643822448E+02 -0.36555398033E+03 -0.47051754529E+03  0.60126525698E+03  0.10100000352E+00 0. -1.
       -3    1    3    3    0  502 -0.80643822448E+02  0.36555398033E+03  0.21359487190E+03  0.43099410452E+03  0.10100000352E+00 0.  1.
</event>
<event>
 5   0  0.5826939E-04  0.9984167E+03  0.7818609E-02  0.9310283E-01
        1   -1    0    0  501    0  0.00000000000E+00  0.00000000000E+00  0.82845793962E+03  0.82845793964E+03  0.50400001928E-02 0. -1.
       -1   -1    0    0    0  501  0.00000000000E+00  0.00000000000E+00 -0.30081064938E+03  0.30081064942E+03  0.50400001928E-02 0.  1.
    10030    2    1    2    0    0  0.00000000000E+00  0.00000000000E+00  0.52764729024E+03  0.11292685891E+04  0.99841668823E+03 0.  0.
        1    1    3    3  502    0 -0.43150211244E+03  0.21880665123E+03  0.40298784136E+03  0.62965833908E+03  0.50400001928E-02 0. -1.
       -1    1    3    3    0  502  0.43150211244E+03 -0.21880665123E+03  0.12465944888E+03  0.49961024998E+03  0.50400001928E-02 0.  1.
</event>
<event>
 5   0  0.5768102E-04  0.1005200E+04  0.7818609E-02  0.9302860E-01
        1   -1    0    0  501    0  0.00000000000E+00  0.00000000000E+00  0.14861255352E+04  0.14861255352E+04  0.50400001928E-02 0. -1.
       -1   -1    0    0    0  501  0.00000000000E+00  0.00000000000E+00 -0.16997670856E+03  0.16997670864E+03  0.50400001928E-02 0.  1.
    10030    2    1    2    0    0  0.00000000000E+00  0.00000000000E+00  0.13161488267E+04  0.16561022439E+04  0.10051999345E+04 0.  0.
        4    1    3    3  502    0  0.28225746534E+03 -0.40122962438E+03  0.47796765053E+03  0.68491545177E+03  0.12699999809E+01 0. -1.
       -4    1    3    3    0  502 -0.28225746534E+03  0.40122962438E+03  0.83818117615E+03  0.97118679211E+03  0.12699999809E+01 0.  1.
</event>
<event>
 5   0  0.5826939E-04  0.1000976E+04  0.7818609E-02  0.9307475E-01
       -1   -1    0    0    0  501  0.00000000000E+00  0.00000000000E+00  0.44703906490E+03  0.44703906493E+03  0.50400001928E-02 0.  1.
        1   -1    0    0  501    0  0.00000000000E+00  0.00000000000E+00 -0.56032726000E+03  0.56032726002E+03  0.50400001928E-02 0. -1.
    10030    2    1    2    0    0  0.00000000000E+00  0.00000000000E+00 -0.11328819510E+03  0.10073663250E+04  0.10009758726E+04 0.  0.
        1    1    3    3  502    0 -0.42361526505E+03  0.25652443048E+02  0.21034232235E+03  0.47365792848E+03  0.50400001928E-02 0. -1.
       -1    1    3    3    0  502  0.42361526505E+03 -0.25652443048E+02 -0.32363051745E+03  0.53370839647E+03  0.50400001928E-02 0.  1.
</event>
<event>
 5   0  0.5960102E-04  0.1000429E+04  0.7818609E-02  0.9308075E-01
        1   -1    0    0  501    0  0.00000000000E+00  0.00000000000E+00  0.41683580448E+03  0.41683580451E+03  0.50400001928E-02 0.  1.
       -1   -1    0    0    0  501  0.00000000000E+00  0.00000000000E+00 -0.60027091585E+03  0.60027091587E+03  0.50400001928E-02 0. -1.
    10030    2    1    2    0    0  0.00000000000E+00  0.00000000000E+00 -0.18343511138E+03  0.10171067204E+04  0.10004287284E+04 0.  0.
        5    1    3    3  502    0 -0.14219789455E+03 -0.25407775658E+03 -0.50521219002E+03  0.58312708267E+03  0.46999998093E+01 0. -1.
       -5    1    3    3    0  502  0.14219789455E+03  0.25407775658E+03  0.32177707864E+03  0.43397963771E+03  0.46999998093E+01 0.  1.
</event>
<event>
 5   0  0.5758786E-04  0.9979883E+03  0.7818609E-02  0.9310754E-01
        1   -1    0    0  501    0  0.00000000000E+00  0.00000000000E+00  0.46948963900E+03  0.46948963902E+03  0.50400001928E-02 0.  1.
       -1   -1    0    0    0  501  0.00000000000E+00  0.00000000000E+00 -0.53035282077E+03  0.53035282080E+03  0.50400001928E-02 0. -1.
    10030    2    1    2    0    0  0.00000000000E+00  0.00000000000E+00 -0.60863181776E+02  0.99984245982E+03  0.99798828528E+03 0.  0.
        3    1    3    3  502    0 -0.51500752841E+02 -0.32998790652E+03 -0.40186397460E+03  0.52253134860E+03  0.10100000352E+00 0. -1.
       -3    1    3    3    0  502  0.51500752841E+02  0.32998790652E+03  0.34100079282E+03  0.47731111122E+03  0.10100000352E+00 0.  1.
</event>
<event>
 5   0  0.5768102E-04  0.1000290E+04  0.7818609E-02  0.9308227E-01
        1   -1    0    0  501    0  0.00000000000E+00  0.00000000000E+00  0.63447940118E+03  0.63447940120E+03  0.50400001928E-02 0.  1.
       -1   -1    0    0    0  501  0.00000000000E+00  0.00000000000E+00 -0.39425249990E+03  0.39425249993E+03  0.50400001928E-02 0. -1.
    10030    2    1    2    0    0  0.00000000000E+00  0.00000000000E+00  0.24022690128E+03  0.10287319011E+04  0.10002901381E+04 0.  0.
        4    1    3    3  502    0 -0.23528606672E+02  0.47377292490E+03 -0.42915474796E+02  0.47629584354E+03  0.12699999809E+01 0. -1.
       -4    1    3    3    0  502  0.23528606672E+02 -0.47377292490E+03  0.28314237608E+03  0.55243605759E+03  0.12699999809E+01 0.  1.
</event>
<event>
 5   0  0.5888774E-04  0.9977278E+03  0.7818609E-02  0.9311040E-01
        1   -1    0    0  501    0  0.00000000000E+00  0.00000000000E+00  0.14287412354E+04  0.14287412354E+04  0.50400001928E-02 0.  1.
       -1   -1    0    0    0  501  0.00000000000E+00  0.00000000000E+00 -0.17418493266E+03  0.17418493274E+03  0.50400001928E-02 0. -1.
    10030    2    1    2    0    0  0.00000000000E+00  0.00000000000E+00  0.12545563027E+04  0.16029261681E+04  0.99772781047E+03 0.  0.
        2    1    3    3  502    0 -0.21674512517E+03 -0.32062073215E+02  0.13473019325E+04  0.13650014370E+04  0.25500000920E-02 0.  1.
       -2    1    3    3    0  502  0.21674512517E+03  0.32062073215E+02 -0.92745629760E+02  0.23792473110E+03  0.25500000920E-02 0. -1.
</event>
<event>
 5   0  0.1006006E-03  0.1000346E+04  0.7818609E-02  0.9308165E-01
       -2   -1    0    0    0  501  0.00000000000E+00  0.00000000000E+00  0.23691048700E+03  0.23691048701E+03  0.25500000920E-02 0.  1.
        2   -1    0    0  501    0  0.00000000000E+00  0.00000000000E+00 -0.10559814287E+04  0.10559814287E+04  0.25500000920E-02 0. -1.
    10030    2    1    2    0    0  0.00000000000E+00  0.00000000000E+00 -0.81907094166E+03  0.12928919157E+04  0.10003460892E+04 0.  0.
        2    1    3    3  502    0 -0.11451350632E+03  0.39033169004E+03 -0.78568104990E+03  0.88474113929E+03  0.25500000920E-02 0. -1.
       -2    1    3    3    0  502  0.11451350632E+03 -0.39033169004E+03 -0.33389891763E+02  0.40815077638E+03  0.25500000920E-02 0.  1.
</event>
<event>
 5   0  0.5960102E-04  0.1005611E+04  0.7818609E-02  0.9302412E-01
        1   -1    0    0  501    0  0.00000000000E+00  0.00000000000E+00  0.42418171754E+03  0.42418171757E+03  0.50400001928E-02 0. -1.
       -1   -1    0    0    0  501  0.00000000000E+00  0.00000000000E+00 -0.59600289900E+03  0.59600289902E+03  0.50400001928E-02 0.  1.
    10030    2    1    2    0    0  0.00000000000E+00  0.00000000000E+00 -0.17182118146E+03  0.10201846166E+04  0.10056113233E+04 0.  0.
        5    1    3    3  502    0 -0.26420903402E+03 -0.29742732722E+03 -0.39781039387E+03  0.56262298931E+03  0.46999998093E+01 0.  1.
       -5    1    3    3    0  502  0.26420903402E+03  0.29742732722E+03  0.22598921242E+03  0.45756162728E+03  0.46999998093E+01 0. -1.
</event>
<event>
 5   0  0.5758786E-04  0.1000154E+04  0.7818609E-02  0.9308376E-01
       -1   -1    0    0    0  501  0.00000000000E+00  0.00000000000E+00  0.22782367538E+03  0.22782367544E+03  0.50400001928E-02 0. -1.
        1   -1    0    0  501    0  0.00000000000E+00  0.00000000000E+00 -0.10976785138E+04  0.10976785139E+04  0.50400001928E-02 0.  1.
    10030    2    1    2    0    0  0.00000000000E+00  0.00000000000E+00 -0.86985483846E+03  0.13255021893E+04  0.10001542950E+04 0.  0.
        3    1    3    3  502    0  0.48418922366E+03 -0.10304485277E+03 -0.34103031306E+03  0.60113154186E+03  0.10100000352E+00 0. -1.
       -3    1    3    3    0  502 -0.48418922366E+03  0.10304485277E+03 -0.52882452540E+03  0.72437064743E+03  0.10100000352E+00 0.  1.
</event>
<event>
 5   0  0.1006006E-03  0.1000279E+04  0.7818609E-02  0.9308239E-01
        2   -1    0    0  501    0  0.00000000000E+00  0.00000000000E+00  0.76994819618E+03  0.76994819618E+03  0.25500000920E-02 0.  1.
       -2   -1    0    0    0  501  0.00000000000E+00  0.00000000000E+00 -0.32487857943E+03  0.32487857944E+03  0.25500000920E-02 0. -1.
    10030    2    1    2    0    0  0.00000000000E+00  0.00000000000E+00  0.44506961674E+03  0.10948267756E+04  0.10002793134E+04 0.  0.
        2    1    3    3  502    0 -0.40036502671E+03 -0.49609782525E+00 -0.10554279137E+03  0.41404309141E+03  0.25500000920E-02 0. -1.
       -2    1    3    3    0  502  0.40036502671E+03  0.49609782525E+00  0.55061240812E+03  0.68078368422E+03  0.25500000920E-02 0.  1.
</event>
<event>
 5   0  0.5888774E-04  0.1000803E+04  0.7818609E-02  0.9307665E-01
        1   -1    0    0  501    0  0.00000000000E+00  0.00000000000E+00  0.10419224805E+04  0.10419224805E+04  0.50400001928E-02 0. -1.
       -1   -1    0    0    0  501  0.00000000000E+00  0.00000000000E+00 -0.24032636164E+03  0.24032636169E+03  0.50400001928E-02 0.  1.
    10030    2    1    2    0    0  0.00000000000E+00  0.00000000000E+00  0.80159611884E+03  0.12822488422E+04  0.10008025557E+04 0.  0.
        2    1    3    3  502    0 -0.16017485225E+03 -0.34603938584E+02  0.10065702423E+04  0.10198220769E+04  0.25500000920E-02 0. -1.
       -2    1    3    3    0  502  0.16017485225E+03  0.34603938584E+02 -0.20497412344E+03  0.26242676530E+03  0.25500000920E-02 0.  1.
</event>
<event>
 5   0  0.5960102E-04  0.9999240E+03  0.7818609E-02  0.9308628E-01
        1   -1    0    0  501    0  0.00000000000E+00  0.00000000000E+00  0.58811481352E+03  0.58811481354E+03  0.50400001928E-02 0. -1.
       -1   -1    0    0    0  501  0.00000000000E+00  0.00000000000E+00 -0.42502243407E+03  0.42502243410E+03  0.50400001928E-02 0.  1.
    10030    2    1    2    0    0  0.00000000000E+00  0.00000000000E+00  0.16309237945E+03  0.10131372476E+04  0.99992397627E+03 0.  0.
        5    1    3    3  502    0  0.12344272681E+03 -0.35272643648E+03  0.41802770035E+03  0.56073460216E+03  0.46999998093E+01 0. -1.
       -5    1    3    3    0  502 -0.12344272681E+03  0.35272643648E+03 -0.25493532090E+03  0.45240264548E+03  0.46999998093E+01 0.  1.
</event>
<event>
 5   0  0.1006749E-03  0.9960905E+03  0.7818609E-02  0.9312843E-01
        2   -1    0    0  501    0  0.00000000000E+00  0.00000000000E+00  0.30115213261E+04  0.30115213261E+04  0.25500000920E-02 0.  1.
       -2   -1    0    0    0  501  0.00000000000E+00  0.00000000000E+00 -0.82366695670E+02  0.82366695709E+02  0.25500000920E-02 0. -1.
    10030    2    1    2    0    0  0.00000000000E+00  0.00000000000E+00  0.29291546305E+04  0.30938880218E+04  0.99609047909E+03 0.  0.
        1    1    3    3  502    0  0.21250708089E+03 -0.57069457841E+02  0.76793443003E+02  0.23305238759E+03  0.50400001928E-02 0. -1.
       -1    1    3    3    0  502 -0.21250708089E+03  0.57069457841E+02  0.28523611875E+04  0.28608356343E+04  0.50400001928E-02 0.  1.
</event>
<event>
 5   0  0.1006006E-03  0.9997410E+03  0.7818609E-02  0.9308829E-01
       -2   -1    0    0    0  501  0.00000000000E+00  0.00000000000E+00  0.37462293349E+03  0.37462293349E+03  0.25500000920E-02 0.  1.
        2   -1    0    0  501    0  0.00000000000E+00  0.00000000000E+00 -0.66699200816E+03  0.66699200817E+03  0.25500000920E-02 0. -1.
    10030    2    1    2    0    0  0.00000000000E+00  0.00000000000E+00 -0.29236907468E+03  0.10416149417E+04  0.99974097189E+03 0.  0.
        2    1    3    3  502    0 -0.12794467688E+03 -0.36209190842E+03  0.18720250763E+03  0.42722964476E+03  0.25500000920E-02 0.  1.
       -2    1    3    3    0  502  0.12794467688E+03  0.36209190842E+03 -0.47957158231E+03  0.61438529691E+03  0.25500000920E-02 0. -1.
</event>
<event>
 5   0  0.9674819E-04  0.1005086E+04  0.7818609E-02  0.9302984E-01
        2   -1    0    0  501    0  0.00000000000E+00  0.00000000000E+00  0.75932088201E+03  0.75932088201E+03  0.25500000920E-02 0.  1.
       -2   -1    0    0    0  501  0.00000000000E+00  0.00000000000E+00 -0.33259931833E+03  0.33259931833E+03  0.25500000920E-02 0. -1.
    10030    2    1    2    0    0  0.00000000000E+00  0.00000000000E+00  0.42672156368E+03  0.10919202003E+04  0.10050862804E+04 0.  0.
        4    1    3    3  502    0 -0.21568185849E+03  0.18940601993E+03 -0.23477489290E+03  0.37082902759E+03  0.12699999809E+01 0. -1.
       -4    1    3    3    0  502  0.21568185849E+03 -0.18940601993E+03  0.66149645658E+03  0.72109117276E+03  0.12699999809E+01 0.  1.
</event>
<event>
 5   0  0.1020150E-03  0.9996257E+03  0.7818609E-02  0.9308955E-01
       -2   -1    0    0    0  501  0.00000000000E+00  0.00000000000E+00  0.21519697387E+03  0.21519697389E+03  0.25500000920E-02 0.  1.
        2   -1    0    0  501    0  0.00000000000E+00  0.00000000000E+00 -0.11608568756E+04  0.11608568756E+04  0.25500000920E-02 0. -1.
    10030    2    1    2    0    0  0.00000000000E+00  0.00000000000E+00 -0.94565990176E+03  0.13760538495E+04  0.99962570345E+03 0.  0.
        5    1    3    3  502    0  0.42546294304E+03  0.22129238896E+03 -0.27912090364E+03  0.55490504247E+03  0.46999998093E+01 0.  1.
       -5    1    3    3    0  502 -0.42546294304E+03 -0.22129238896E+03 -0.66653899812E+03  0.82114880705E+03  0.46999998093E+01 0. -1.
</event>
<event>
 5   0  0.9674819E-04  0.9920445E+03  0.7818609E-02  0.9317314E-01
        2   -1    0    0  501    0  0.00000000000E+00  0.00000000000E+00  0.99093777497E+03  0.99093777497E+03  0.25500000920E-02 0.  1.
       -2   -1    0    0    0  501  0.00000000000E+00  0.00000000000E+00 -0.24828810785E+03  0.24828810786E+03  0.25500000920E-02 0. -1.
    10030    2    1    2    0    0  0.00000000000E+00  0.00000000000E+00  0.74264966712E+03  0.12392258828E+04  0.99204448520E+03 0.  0.
        4    1    3    3  502    0 -0.30670579778E+03  0.96107079190E+02 -0.10060686058E+03  0.33679128605E+03  0.12699999809E+01 0. -1.
       -4    1    3    3    0  502  0.30670579778E+03 -0.96107079190E+02  0.84325652770E+03  0.90243459678E+03  0.12699999809E+01 0.  1.
</event>
<event>
 5   0  0.1006749E-03  0.9999037E+03  0.7818609E-02  0.9308650E-01
        2   -1    0    0  501    0  0.00000000000E+00  0.00000000000E+00  0.49972596252E+03  0.49972596253E+03  0.25500000920E-02 0. -1.
       -2   -1    0    0    0  501  0.00000000000E+00  0.00000000000E+00 -0.50017786833E+03  0.50017786833E+03  0.25500000920E-02 0.  1.
    10030    2    1    2    0    0  0.00000000000E+00  0.00000000000E+00 -0.45190580282E+00  0.99990383086E+03  0.99990372874E+03 0.  0.
        1    1    3    3  502    0 -0.53104103784E+02  0.30523090782E+03  0.39215899226E+03  0.49977457734E+03  0.50400001928E-02 0. -1.
       -1    1    3    3    0  502  0.53104103784E+02 -0.30523090782E+03 -0.39261089806E+03  0.50012925352E+03  0.50400001928E-02 0.  1.
</event>
<event>
 5   0  0.5888774E-04  0.9945191E+03  0.7818609E-02  0.9314577E-01
        1   -1    0    0  501    0  0.00000000000E+00  0.00000000000E+00  0.81509443422E+03  0.81509443423E+03  0.50400001928E-02 0.  1.
       -1   -1    0    0    0  501  0.00000000000E+00  0.00000000000E+00 -0.30335998655E+03  0.30335998659E+03  0.50400001928E-02 0. -1.
    10030    2    1    2    0    0  0.00000000000E+00  0.00000000000E+00  0.51173444767E+03  0.11184544208E+04  0.99451905288E+03 0.  0.
        2    1    3    3  502    0  0.47213571630E+03  0.53423975664E+02  0.90962802831E+02  0.48377731167E+03  0.25500000920E-02 0. -1.
       -2    1    3    3    0  502 -0.47213571630E+03 -0.53423975664E+02  0.42077164484E+03  0.63467710916E+03  0.25500000920E-02 0.  1.
</event>
<event>
 5   0  0.1006006E-03  0.9998785E+03  0.7818609E-02  0.9308678E-01
        2   -1    0    0  501    0  0.00000000000E+00  0.00000000000E+00  0.18792774648E+04  0.18792774648E+04  0.25500000920E-02 0. -1.
       -2   -1    0    0    0  501  0.00000000000E+00  0.00000000000E+00 -0.13299752483E+03  0.13299752485E+03  0.25500000920E-02 0.  1.
    10030    2    1    2    0    0  0.00000000000E+00  0.00000000000E+00  0.17462799400E+04  0.20122749897E+04  0.99987849524E+03 0.  0.
        2    1    3    3  502    0 -0.17625302368E+03  0.23972629503E+03  0.16816756082E+04  0.17077958532E+04  0.25500000920E-02 0.  1.
       -2    1    3    3    0  502  0.17625302368E+03 -0.23972629503E+03  0.64604331824E+02  0.30447913653E+03  0.25500000920E-02 0. -1.
</event>
<event>
 5   0  0.9741826E-04  0.9728564E+03  0.7818609E-02  0.9338827E-01
       -2   -1    0    0    0  501  0.00000000000E+00  0.00000000000E+00  0.15249738002E+03  0.15249738005E+03  0.25500000920E-02 0.  1.
        2   -1    0    0  501    0  0.00000000000E+00  0.00000000000E+00 -0.15515832691E+04  0.15515832691E+04  0.25500000920E-02 0. -1.
    10030    2    1    2    0    0  0.00000000000E+00  0.00000000000E+00 -0.13990858891E+04  0.17040806491E+04  0.97285637880E+03 0.  0.
        3    1    3    3  502    0  0.18817341395E+03 -0.64720759488E+02 -0.14770249714E+04  0.14903693458E+04  0.10100000352E+00 0. -1.
       -3    1    3    3    0  502 -0.18817341395E+03  0.64720759488E+02  0.77939082352E+02  0.21371130337E+03  0.10100000352E+00 0.  1.
</event>
<event>
 5   0  0.3854625E-04  0.9942999E+03  0.7818609E-02  0.9314819E-01
        4   -1    0    0  501    0  0.00000000000E+00  0.00000000000E+00  0.32950222940E+03  0.32950467687E+03  0.12699999809E+01 0.  1.
       -4   -1    0    0    0  501  0.00000000000E+00  0.00000000000E+00 -0.75008945991E+03  0.75009053505E+03  0.12699999809E+01 0. -1.
    10030    2    1    2    0    0  0.00000000000E+00  0.00000000000E+00 -0.42058723051E+03  0.10795952119E+04  0.99429985574E+03 0.  0.
        2    1    3    3  502    0  0.41037149574E+03 -0.28004242379E+03 -0.19058349972E+03  0.53211896603E+03  0.25500000920E-02 0.  1.
       -2    1    3    3    0  502 -0.41037149574E+03  0.28004242379E+03 -0.23000373079E+03  0.54747624589E+03  0.25500000920E-02 0. -1.
</event>
<event>
 5   0  0.1006749E-03  0.1000975E+04  0.7818609E-02  0.9307477E-01
        2   -1    0    0  501    0  0.00000000000E+00  0.00000000000E+00  0.67227296617E+03  0.67227296617E+03  0.25500000920E-02 0. -1.
       -2   -1    0    0    0  501  0.00000000000E+00  0.00000000000E+00 -0.37259795982E+03  0.37259795983E+03  0.25500000920E-02 0.  1.
    10030    2    1    2    0    0  0.00000000000E+00  0.00000000000E+00  0.29967500634E+03  0.10448709260E+04  0.10009745964E+04 0.  0.
        1    1    3    3  502    0  0.48243907355E+03  0.72853949065E+02  0.26622777782E+03  0.55581686488E+03  0.50400001928E-02 0. -1.
       -1    1    3    3    0  502 -0.48243907355E+03 -0.72853949065E+02  0.33447228521E+02  0.48905406112E+03  0.50400001928E-02 0.  1.
</event>
<event>
 5   0  0.5826939E-04  0.1001719E+04  0.7818609E-02  0.9306662E-01
       -1   -1    0    0    0  501  0.00000000000E+00  0.00000000000E+00  0.22919282001E+03  0.22919282007E+03  0.50400001928E-02 0. -1.
        1   -1    0    0  501    0  0.00000000000E+00  0.00000000000E+00 -0.10945369326E+04  0.10945369326E+04  0.50400001928E-02 0.  1.
    10030    2    1    2    0    0  0.00000000000E+00  0.00000000000E+00 -0.86534411263E+03  0.13237297527E+04  0.10017185358E+04 0.  0.
        1    1    3    3  502    0 -0.12778861310E+03  0.38117158842E+03 -0.37915586459E+02  0.40380601925E+03  0.50400001928E-02 0. -1.
       -1    1    3    3    0  502  0.12778861310E+03 -0.38117158842E+03 -0.82742852617E+03  0.91992373347E+03  0.50400001928E-02 0.  1.
</event>
<event>
 5   0  0.1006006E-03  0.9996698E+03  0.7818609E-02  0.9308907E-01
       -2   -1    0    0    0  501  0.00000000000E+00  0.00000000000E+00  0.33872800728E+03  0.33872800729E+03  0.25500000920E-02 0.  1.
        2   -1    0    0  501    0  0.00000000000E+00  0.00000000000E+00 -0.73756799651E+03  0.73756799652E+03  0.25500000920E-02 0. -1.
    10030    2    1    2    0    0  0.00000000000E+00  0.00000000000E+00 -0.39883998924E+03  0.10762960038E+04  0.99966982089E+03 0.  0.
        2    1    3    3  502    0  0.38137007570E+03  0.20162457726E+03  0.72398437653E+02  0.43742100838E+03  0.25500000920E-02 0.  1.
       -2    1    3    3    0  502 -0.38137007570E+03 -0.20162457726E+03 -0.47123842689E+03  0.63887499542E+03  0.25500000920E-02 0. -1.
</event>
<event>
 5   0  0.5758786E-04  0.1000621E+04  0.7818609E-02  0.9307863E-01
        1   -1    0    0  501    0  0.00000000000E+00  0.00000000000E+00  0.48673467111E+03  0.48673467113E+03  0.50400001928E-02 0. -1.
       -1   -1    0    0    0  501  0.00000000000E+00  0.00000000000E+00 -0.51426546909E+03  0.51426546912E+03  0.50400001928E-02 0.  1.
    10030    2    1    2    0    0  0.00000000000E+00  0.00000000000E+00 -0.27530797985E+02  0.10010001402E+04  0.10006214749E+04 0.  0.
        3    1    3    3  502    0 -0.14906658611E+03 -0.45808705726E+03  0.12136430582E+03  0.49678355855E+03  0.10100000352E+00 0.  1.
       -3    1    3    3    0  502  0.14906658611E+03  0.45808705726E+03 -0.14889510380E+03  0.50421658170E+03  0.10100000352E+00 0. -1.
</event>
<event>
 5   0  0.1020150E-03  0.1000366E+04  0.7818609E-02  0.9308144E-01
       -2   -1    0    0    0  501  0.00000000000E+00  0.00000000000E+00  0.22912140050E+03  0.22912140052E+03  0.25500000920E-02 0. -1.
        2   -1    0    0  501    0  0.00000000000E+00  0.00000000000E+00 -0.10919223962E+04  0.10919223962E+04  0.25500000920E-02 0.  1.
    10030    2    1    2    0    0  0.00000000000E+00  0.00000000000E+00 -0.86280099566E+03  0.13210437967E+04  0.10003655105E+04 0.  0.
        5    1    3    3  502    0  0.24900786789E+03 -0.52671913766E+02  0.13717958589E+03  0.28917049910E+03  0.46999998093E+01 0. -1.
       -5    1    3    3    0  502 -0.24900786789E+03  0.52671913766E+02 -0.99998058155E+03  0.10318732976E+04  0.46999998093E+01 0.  1.
</event>
<event>
 5   0  0.5888774E-04  0.9993297E+03  0.7818609E-02  0.9309280E-01
       -1   -1    0    0    0  501  0.00000000000E+00  0.00000000000E+00  0.27038511705E+03  0.27038511709E+03  0.50400001928E-02 0. -1.
        1   -1    0    0  501    0  0.00000000000E+00  0.00000000000E+00 -0.92336800039E+03  0.92336800040E+03  0.50400001928E-02 0.  1.
    10030    2    1    2    0    0  0.00000000000E+00  0.00000000000E+00 -0.65298288334E+03  0.11937531175E+04  0.99932970515E+03 0.  0.
        2    1    3    3  502    0  0.18553465569E+03  0.14376973512E+03 -0.85341307191E+03  0.88510265874E+03  0.25500000920E-02 0.  1.
       -2    1    3    3    0  502 -0.18553465569E+03 -0.14376973512E+03  0.20043018856E+03  0.30865045876E+03  0.25500000920E-02 0. -1.
</event>
<event>
 5   0  0.9674819E-04  0.9992737E+03  0.7818609E-02  0.9309342E-01
       -2   -1    0    0    0  501  0.00000000000E+00  0.00000000000E+00  0.17637603023E+03  0.17637603025E+03  0.25500000920E-02 0. -1.
        2   -1    0    0  501    0  0.00000000000E+00  0.00000000000E+00 -0.14153679397E+04  0.14153679397E+04  0.25500000920E-02 0.  1.
    10030    2    1    2    0    0  0.00000000000E+00  0.00000000000E+00 -0.12389919094E+04  0.15917439699E+04  0.99927369330E+03 0.  0.
        4    1    3    3  502    0  0.14501827207E+03 -0.20290194146E+03  0.70132401217E+02  0.25907462956E+03  0.12699999809E+01 0. -1.
       -4    1    3    3    0  502 -0.14501827207E+03  0.20290194146E+03 -0.13091243107E+04  0.13326693404E+04  0.12699999809E+01 0.  1.
</event>
<event>
 5   0  0.5826939E-04  0.1000273E+04  0.7818609E-02  0.9308245E-01
        1   -1    0    0  501    0  0.00000000000E+00  0.00000000000E+00  0.42510920612E+03  0.42510920615E+03  0.50400001928E-02 0.  1.
       -1   -1    0    0    0  501  0.00000000000E+00  0.00000000000E+00 -0.58840544731E+03  0.58840544734E+03  0.50400001928E-02 0. -1.
    10030    2    1    2    0    0  0.00000000000E+00  0.00000000000E+00 -0.16329624120E+03  0.10135146535E+04  0.10002731079E+04 0.  0.
        1    1    3    3  502    0  0.20724117086E+03  0.23864727630E+03  0.31108471430E+03  0.44348069279E+03  0.50400001928E-02 0.  1.
       -1    1    3    3    0  502 -0.20724117086E+03 -0.23864727630E+03 -0.47438095549E+03  0.57003396069E+03  0.50400001928E-02 0. -1.
</event>
<event>
 5   0  0.1006749E-03  0.1001770E+04  0.7818609E-02  0.9306606E-01
       -2   -1    0    0    0  501  0.00000000000E+00  0.00000000000E+00  0.26504542441E+03  0.26504542443E+03  0.25500000920E-02 0. -1.
        2   -1    0    0  501    0  0.00000000000E+00  0.00000000000E+00 -0.94657577504E+03  0.94657577504E+03  0.25500000920E-02 0.  1.
    10030    2    1    2    0    0  0.00000000000E+00  0.00000000000E+00 -0.68153035062E+03  0.12116211995E+04  0.10017695904E+04 0.  0.
        1    1    3    3  502    0  0.39417662836E+03  0.13452308703E+03 -0.42470192394E+01  0.41652096284E+03  0.50400001928E-02 0. -1.
       -1    1    3    3    0  502 -0.39417662836E+03 -0.13452308703E+03 -0.67728333138E+03  0.79510023663E+03  0.50400001928E-02 0.  1.
</event>
<event>
 5   0  0.5768102E-04  0.9965156E+03  0.7818609E-02  0.9312375E-01
        1   -1    0    0  501    0  0.00000000000E+00  0.00000000000E+00  0.13544260042E+04  0.13544260042E+04  0.50400001928E-02 0.  1.
       -1   -1    0    0    0  501  0.00000000000E+00  0.00000000000E+00 -0.18329596242E+03  0.18329596249E+03  0.50400001928E-02 0. -1.
    10030    2    1    2    0    0  0.00000000000E+00  0.00000000000E+00  0.11711300417E+04  0.15377219667E+04  0.99651556539E+03 0.  0.
        4    1    3    3  502    0 -0.24276353671E+03  0.43469092460E+03  0.55592826567E+03  0.74628961145E+03  0.12699999809E+01 0.  1.
       -4    1    3    3    0  502  0.24276353671E+03 -0.43469092460E+03  0.61520177607E+03  0.79143235520E+03  0.12699999809E+01 0. -1.
</event>
<event>
 5   0  0.3854625E-04  0.1000054E+04  0.7818609E-02  0.9308485E-01
        3   -1    0    0  501    0  0.00000000000E+00  0.00000000000E+00  0.21584106647E+03  0.21584109010E+03  0.10100000352E+00 0. -1.
       -3   -1    0    0    0  501  0.00000000000E+00  0.00000000000E+00 -0.11583856303E+04  0.11583856347E+04  0.10100000352E+00 0.  1.
    10030    2    1    2    0    0  0.00000000000E+00  0.00000000000E+00 -0.94254456379E+03  0.13742267248E+04  0.10000544167E+04 0.  0.
        1    1    3    3  502    0 -0.22858905836E+03 -0.43570912259E+03 -0.59365524452E+03  0.77105249269E+03  0.50400001928E-02 0. -1.
       -1    1    3    3    0  502  0.22858905836E+03  0.43570912259E+03 -0.34888931927E+03  0.60317423207E+03  0.50400001928E-02 0.  1.
</event>
<event>
 5   0  0.9741826E-04  0.1002874E+04  0.7818609E-02  0.9305398E-01
        2   -1    0    0  501    0  0.00000000000E+00  0.00000000000E+00  0.18646017112E+04  0.18646017112E+04  0.25500000920E-02 0.  1.
       -2   -1    0    0    0  501  0.00000000000E+00  0.00000000000E+00 -0.13484880064E+03  0.13484880066E+03  0.25500000920E-02 0. -1.
    10030    2    1    2    0    0  0.00000000000E+00  0.00000000000E+00  0.17297529106E+04  0.19994505119E+04  0.10028744776E+04 0.  0.
        3    1    3    3  502    0 -0.44953331366E+02  0.33113420576E+03  0.11951156025E+03  0.35489954559E+03  0.10100000352E+00 0. -1.
       -3    1    3    3    0  502  0.44953331366E+02 -0.33113420576E+03  0.16102413504E+04  0.16445509663E+04  0.10100000352E+00 0.  1.
</event>
<event>
 5   0  0.5758786E-04  0.9987429E+03  0.7818609E-02  0.9309925E-01
       -1   -1    0    0    0  501  0.00000000000E+00  0.00000000000E+00  0.54127177331E+03  0.54127177333E+03  0.50400001928E-02 0. -1.
        1   -1    0    0  501    0  0.00000000000E+00  0.00000000000E+00 -0.46071468593E+03  0.46071468596E+03  0.50400001928E-02 0.  1.
    10030    2    1    2    0    0  0.00000000000E+00  0.00000000000E+00  0.80557087380E+02  0.10019864593E+04  0.99874292002E+03 0.  0.
        3    1    3    3  502    0  0.14332217621E+03 -0.31597290251E+03  0.40059911860E+03  0.52996206028E+03  0.10100000352E+00 0. -1.
       -3    1    3    3    0  502 -0.14332217621E+03  0.31597290251E+03 -0.32004203122E+03  0.47202439901E+03  0.10100000352E+00 0.  1.
</event>
<event>
 5   0  0.1006749E-03  0.9989557E+03  0.7818609E-02  0.9309691E-01
        2   -1    0    0  501    0  0.00000000000E+00  0.00000000000E+00  0.43306567990E+03  0.43306567990E+03  0.25500000920E-02 0. -1.
       -2   -1    0    0    0  501  0.00000000000E+00  0.00000000000E+00 -0.57607452406E+03  0.57607452406E+03  0.25500000920E-02 0.  1.
    10030    2    1    2    0    0  0.00000000000E+00  0.00000000000E+00 -0.14300884416E+03  0.10091402040E+04  0.99895566556E+03 0.  0.
        1    1    3    3  502    0 -0.29774185284E+03  0.94532284544E+01 -0.47651399816E+03  0.56196544816E+03  0.50400001928E-02 0.  1.
       -1    1    3    3    0  502  0.29774185284E+03 -0.94532284544E+01  0.33350515400E+03  0.44717475580E+03  0.50400001928E-02 0. -1.
</event>
<event>
 5   0  0.5768102E-04  0.1000064E+04  0.7818609E-02  0.9308475E-01
       -1   -1    0    0    0  501  0.00000000000E+00  0.00000000000E+00  0.24384849137E+03  0.24384849143E+03  0.50400001928E-02 0. -1.
        1   -1    0    0  501    0  0.00000000000E+00  0.00000000000E+00 -0.10253571975E+04  0.10253571975E+04  0.50400001928E-02 0.  1.
    10030    2    1    2    0    0  0.00000000000E+00  0.00000000000E+00 -0.78150870612E+03  0.12692056889E+04  0.10000636095E+04 0.  0.
        4    1    3    3  502    0  0.41825508010E+03  0.64797856057E+02 -0.72867092416E+03  0.84267372262E+03  0.12699999809E+01 0.  1.
       -4    1    3    3    0  502 -0.41825508010E+03 -0.64797856057E+02 -0.52837781956E+02  0.42653196631E+03  0.12699999809E+01 0. -1.
</event>
<event>
 5   0  0.9741826E-04  0.9977178E+03  0.7818609E-02  0.9311051E-01
        2   -1    0    0  501    0  0.00000000000E+00  0.00000000000E+00  0.49747200376E+03  0.49747200376E+03  0.25500000920E-02 0.  1.
       -2   -1    0    0    0  501  0.00000000000E+00  0.00000000000E+00 -0.50024963796E+03  0.50024963797E+03  0.25500000920E-02 0. -1.
    10030    2    1    2    0    0  0.00000000000E+00  0.00000000000E+00 -0.27776342063E+01  0.99772164173E+03  0.99771777529E+03 0.  0.
        3    1    3    3  502    0 -0.18343629744E+03 -0.46380805006E+03  0.82754360423E+01  0.49883391581E+03  0.10100000352E+00 0. -1.
       -3    1    3    3    0  502  0.18343629744E+03  0.46380805006E+03 -0.11053070249E+02  0.49888772593E+03  0.10100000352E+00 0.  1.
</event>
<event>
 5   0  0.5768102E-04  0.1001260E+04  0.7818609E-02  0.9307164E-01
        1   -1    0    0  501    0  0.00000000000E+00  0.00000000000E+00  0.10806316216E+04  0.10806316216E+04  0.50400001928E-02 0. -1.
       -1   -1    0    0    0  501  0.00000000000E+00  0.00000000000E+00 -0.23192958585E+03  0.23192958591E+03  0.50400001928E-02 0.  1.
    10030    2    1    2    0    0  0.00000000000E+00  0.00000000000E+00  0.84870203570E+03  0.13125612075E+04  0.10012600951E+04 0.  0.
        4    1    3    3  502    0  0.34279709184E+03 -0.31685573686E+03  0.66148226058E+03  0.80960965787E+03  0.12699999809E+01 0. -1.
       -4    1    3    3    0  502 -0.34279709184E+03  0.31685573686E+03  0.18721977513E+03  0.50295154961E+03  0.12699999809E+01 0.  1.
</event>
<event>
 5   0  0.5960102E-04  0.9949621E+03  0.7818609E-02  0.9314088E-01
       -1   -1    0    0    0  501  0.00000000000E+00  0.00000000000E+00  0.29367346527E+03  0.29367346532E+03  0.50400001928E-02 0.  1.
        1   -1    0    0  501    0  0.00000000000E+00  0.00000000000E+00 -0.84272983541E+03  0.84272983543E+03  0.50400001928E-02 0. -1.
    10030    2    1    2    0    0  0.00000000000E+00  0.00000000000E+00 -0.54905637014E+03  0.11364033007E+04  0.99496209192E+03 0.  0.
        5    1    3    3  502    0 -0.24529686321E+02 -0.11603439292E+03  0.27726460299E+03  0.30160145212E+03  0.46999998093E+01 0.  1.
       -5    1    3    3    0  502  0.24529686321E+02  0.11603439292E+03 -0.82632097313E+03  0.83480184863E+03  0.46999998093E+01 0. -1.
</event>
<event>
 5   0  0.5768102E-04  0.9992901E+03  0.7818609E-02  0.9309324E-01
        1   -1    0    0  501    0  0.00000000000E+00  0.00000000000E+00  0.13037728794E+04  0.13037728795E+04  0.50400001928E-02 0. -1.
       -1   -1    0    0    0  501  0.00000000000E+00  0.00000000000E+00 -0.19147902124E+03  0.19147902130E+03  0.50400001928E-02 0.  1.
    10030    2    1    2    0    0  0.00000000000E+00  0.00000000000E+00  0.11122938582E+04  0.14952519008E+04  0.99929005785E+03 0.  0.
        4    1    3    3  502    0 -0.39556482506E+03 -0.10975929757E+03  0.98233364105E+03  0.10646593960E+04  0.12699999809E+01 0. -1.
       -4    1    3    3    0  502  0.39556482506E+03  0.10975929757E+03  0.12996021716E+03  0.43059250478E+03  0.12699999809E+01 0.  1.
</event>
<event>
 5   0  0.5758786E-04  0.1003280E+04  0.7818609E-02  0.9304955E-01
        1   -1    0    0  501    0  0.00000000000E+00  0.00000000000E+00  0.51026678902E+03  0.51026678905E+03  0.50400001928E-02 0. -1.
       -1   -1    0    0    0  501  0.00000000000E+00  0.00000000000E+00 -0.49315914955E+03  0.49315914958E+03  0.50400001928E-02 0.  1.
    10030    2    1    2    0    0  0.00000000000E+00  0.00000000000E+00  0.17107639470E+02  0.10034259386E+04  0.10032800920E+04 0.  0.
        3    1    3    3  502    0  0.30931261287E+03 -0.34690192558E+03 -0.18022606842E+03  0.49849441761E+03  0.10100000352E+00 0.  1.
       -3    1    3    3    0  502 -0.30931261287E+03  0.34690192558E+03  0.19733370789E+03  0.50493152102E+03  0.10100000352E+00 0. -1.
</event>
<event>
 5   0  0.1006006E-03  0.1001679E+04  0.7818609E-02  0.9306706E-01
       -2   -1    0    0    0  501  0.00000000000E+00  0.00000000000E+00  0.27151766217E+03  0.27151766219E+03  0.25500000920E-02 0. -1.
        2   -1    0    0  501    0  0.00000000000E+00  0.00000000000E+00 -0.92384420269E+03  0.92384420270E+03  0.25500000920E-02 0.  1.
    10030    2    1    2    0    0  0.00000000000E+00  0.00000000000E+00 -0.65232654052E+03  0.11953618649E+04  0.10016786274E+04 0.  0.
        2    1    3    3  502    0 -0.20251411971E+03  0.41000606387E+03 -0.82405115250E+02  0.46465852420E+03  0.25500000920E-02 0. -1.
       -2    1    3    3    0  502  0.20251411971E+03 -0.41000606387E+03 -0.56992142527E+03  0.73070334068E+03  0.25500000920E-02 0.  1.
</event>
<event>
 5   0  0.9674819E-04  0.1001324E+04  0.7818609E-02  0.9307093E-01
       -2   -1    0    0    0  501  0.00000000000E+00  0.00000000000E+00  0.36593738738E+03  0.36593738739E+03  0.25500000920E-02 0. -1.
        2   -1    0    0  501    0  0.00000000000E+00  0.00000000000E+00 -0.68498767624E+03  0.68498767625E+03  0.25500000920E-02 0.  1.
    10030    2    1    2    0    0  0.00000000000E+00  0.00000000000E+00 -0.31905028886E+03  0.10509250636E+04  0.10013243244E+04 0.  0.
        4    1    3    3  502    0 -0.25823310743E+02 -0.88021091203E+02  0.35704068912E+03  0.36863833558E+03  0.12699999809E+01 0. -1.
       -4    1    3    3    0  502  0.25823310743E+02  0.88021091203E+02 -0.67609097798E+03  0.68228672805E+03  0.12699999809E+01 0.  1.
</event>
<event>
 5   0  0.1020150E-03  0.1000123E+04  0.7818609E-02  0.9308410E-01
        2   -1    0    0  501    0  0.00000000000E+00  0.00000000000E+00  0.49837193467E+03  0.49837193468E+03  0.25500000920E-02 0. -1.
       -2   -1    0    0    0  501  0.00000000000E+00  0.00000000000E+00 -0.50175661560E+03  0.50175661560E+03  0.25500000920E-02 0.  1.
    10030    2    1    2    0    0  0.00000000000E+00  0.00000000000E+00 -0.33846809258E+01  0.10001285503E+04  0.10001228230E+04 0.  0.
        5    1    3    3  502    0 -0.46325147562E+03  0.18183608278E+03 -0.50406422342E+02  0.50022913557E+03  0.46999998093E+01 0. -1.
       -5    1    3    3    0  502  0.46325147562E+03 -0.18183608278E+03  0.47021741416E+02  0.49989941471E+03  0.46999998093E+01 0.  1.
</event>
<event>
 5   0  0.1020150E-03  0.1000598E+04  0.7818609E-02  0.9307890E-01
       -2   -1    0    0    0  501  0.00000000000E+00  0.00000000000E+00  0.40332378803E+03  0.40332378804E+03  0.25500000920E-02 0.  1.
        2   -1    0    0  501    0  0.00000000000E+00  0.00000000000E+00 -0.62059034839E+03  0.62059034839E+03  0.25500000920E-02 0. -1.
    10030    2    1    2    0    0  0.00000000000E+00  0.00000000000E+00 -0.21726656036E+03  0.10239141364E+04  0.10005975218E+04 0.  0.
        5    1    3    3  502    0  0.38235278420E+03 -0.84063621691E+02  0.21009949906E+03  0.44432446881E+03  0.46999998093E+01 0.  1.
       -5    1    3    3    0  502 -0.38235278420E+03  0.84063621691E+02 -0.42736605942E+03  0.57958966762E+03  0.46999998093E+01 0. -1.
</event>
<event>
 5   0  0.5768102E-04  0.9958425E+03  0.7818609E-02  0.9313116E-01
        1   -1    0    0  501    0  0.00000000000E+00  0.00000000000E+00  0.10223536120E+04  0.10223536120E+04  0.50400001928E-02 0.  1.
       -1   -1    0    0    0  501  0.00000000000E+00  0.00000000000E+00 -0.24250472055E+03  0.24250472060E+03  0.50400001928E-02 0. -1.
    10030    2    1    2    0    0  0.00000000000E+00  0.00000000000E+00  0.77984889145E+03  0.12648583326E+04  0.99584251168E+03 0.  0.
        4    1    3    3  502    0 -0.10577440827E+03  0.11995572033E+02 -0.22788011438E+03  0.25152152716E+03  0.12699999809E+01 0. -1.
       -4    1    3    3    0  502  0.10577440827E+03 -0.11995572033E+02  0.10077290058E+04  0.10133368055E+04  0.12699999809E+01 0.  1.
</event>
<event>
 5   0  0.5826939E-04  0.9954314E+03  0.7818609E-02  0.9313570E-01
       -1   -1    0    0    0  501  0.00000000000E+00  0.00000000000E+00  0.46625056790E+03  0.46625056793E+03  0.50400001928E-02 0.  1.
        1   -1    0    0  501    0  0.00000000000E+00  0.00000000000E+00 -0.53130431895E+03  0.53130431897E+03  0.50400001928E-02 0. -1.
    10030    2    1    2    0    0  0.00000000000E+00  0.00000000000E+00 -0.65053751047E+02  0.99755488690E+03  0.99543144508E+03 0.  0.
        1    1    3    3  502    0 -0.81175681708E+02  0.11211138956E+03 -0.51162880494E+03  0.53002121565E+03  0.50400001928E-02 0. -1.
       -1    1    3    3    0  502  0.81175681708E+02 -0.11211138956E+03  0.44657505389E+03  0.46753367125E+03  0.50400001928E-02 0.  1.
</event>
<event>
 5   0  0.9741826E-04  0.1000607E+04  0.7818609E-02  0.9307880E-01
       -2   -1    0    0    0  501  0.00000000000E+00  0.00000000000E+00  0.13750635608E+03  0.13750635610E+03  0.25500000920E-02 0.  1.
        2   -1    0    0  501    0  0.00000000000E+00  0.00000000000E+00 -0.18203046892E+04  0.18203046892E+04  0.25500000920E-02 0. -1.
    10030    2    1    2    0    0  0.00000000000E+00  0.00000000000E+00 -0.16827983331E+04  0.19578110453E+04  0.10006067455E+04 0.  0.
        3    1    3    3  502    0 -0.27165344140E+01 -0.92639825450E+02 -0.18033617826E+04  0.18057417440E+04  0.10100000352E+00 0. -1.
       -3    1    3    3    0  502  0.27165344140E+01  0.92639825450E+02  0.12056344954E+03  0.15206930126E+03  0.10100000352E+00 0.  1.
</event>
<event>
 5   0  0.1006749E-03  0.1002263E+04  0.7818609E-02  0.9306066E-01
        2   -1    0    0  501    0  0.00000000000E+00  0.00000000000E+00  0.26842267545E+03  0.26842267546E+03  0.25500000920E-02 0. -1.
       -2   -1    0    0    0  501  0.00000000000E+00  0.00000000000E+00 -0.93558693376E+03  0.93558693377E+03  0.25500000920E-02 0.  1.
    10030    2    1    2    0    0  0.00000000000E+00  0.00000000000E+00 -0.66716425831E+03  0.12040096092E+04  0.10022629353E+04 0.  0.
        1    1    3    3  502    0 -0.30899473399E+03 -0.31003497860E+03 -0.40473696325E+02  0.43958793627E+03  0.50400001928E-02 0. -1.
       -1    1    3    3    0  502  0.30899473399E+03  0.31003497860E+03 -0.62669056199E+03  0.76442167297E+03  0.50400001928E-02 0.  1.
</event>
<event>
 5   0  0.3854625E-04  0.1002926E+04  0.7818609E-02  0.9305341E-01
        3   -1    0    0  501    0  0.00000000000E+00  0.00000000000E+00  0.17307446496E+03  0.17307449443E+03  0.10100000352E+00 0.  1.
       -3   -1    0    0    0  501  0.00000000000E+00  0.00000000000E+00 -0.14529309240E+04  0.14529309275E+04  0.10100000352E+00 0. -1.
    10030    2    1    2    0    0  0.00000000000E+00  0.00000000000E+00 -0.12798564590E+04  0.16260054219E+04  0.10029262567E+04 0.  0.
        1    1    3    3  502    0 -0.24596758355E+03  0.19849771015E+03 -0.87517021908E+01  0.31619295597E+03  0.50400001928E-02 0.  1.
       -1    1    3    3    0  502  0.24596758355E+03 -0.19849771015E+03 -0.12711047568E+04  0.13098124659E+04  0.50400001928E-02 0. -1.
</event>
<event>
 5   0  0.1020150E-03  0.1002415E+04  0.7818609E-02  0.9305900E-01
       -2   -1    0    0    0  501  0.00000000000E+00  0.00000000000E+00  0.39479340236E+03  0.39479340237E+03  0.25500000920E-02 0.  1.
        2   -1    0    0  501    0  0.00000000000E+00  0.00000000000E+00 -0.63630441228E+03  0.63630441229E+03  0.25500000920E-02 0. -1.
    10030    2    1    2    0    0  0.00000000000E+00  0.00000000000E+00 -0.24151100992E+03  0.10310978147E+04  0.10024146525E+04 0.  0.
        5    1    3    3  502    0  0.32295651310E+03 -0.17806087140E+03  0.22833754758E+03  0.43378186789E+03  0.46999998093E+01 0.  1.
       -5    1    3    3    0  502 -0.32295651310E+03  0.17806087140E+03 -0.46984855750E+03  0.59731594677E+03  0.46999998093E+01 0. -1.
</event>
<event>
 5   0  0.5758786E-04  0.1000154E+04  0.7818609E-02  0.9308376E-01
       -1   -1    0    0    0  501  0.00000000000E+00  0.00000000000E+00  0.36570877969E+03  0.36570877973E+03  0.50400001928E-02 0.  1.
        1   -1    0    0  501    0  0.00000000000E+00  0.00000000000E+00 -0.68381397811E+03  0.68381397813E+03  0.50400001928E-02 0. -1.
    10030    2    1    2    0    0  0.00000000000E+00  0.00000000000E+00 -0.31810519842E+03  0.10495227579E+04  0.10001535392E+04 0.  0.
        3    1    3    3  502    0 -0.50124118173E+02  0.49450292958E+03 -0.21682651648E+03  0.54227236979E+03  0.10100000352E+00 0. -1.
       -3    1    3    3    0  502  0.50124118173E+02 -0.49450292958E+03 -0.10127868194E+03  0.50725038807E+03  0.10100000352E+00 0.  1.
</event>
<event>
 5   0  0.3854625E-04  0.9999296E+03  0.7818609E-02  0.9308622E-01
       -3   -1    0    0    0  501  0.00000000000E+00  0.00000000000E+00  0.16050732853E+03  0.16050736031E+03  0.10100000352E+00 0.  1.
        3   -1    0    0  501    0  0.00000000000E+00  0.00000000000E+00 -0.15573419062E+04  0.15573419094E+04  0.10100000352E+00 0. -1.
    10030    2    1    2    0    0  0.00000000000E+00  0.00000000000E+00 -0.13968345776E+04  0.17178492697E+04  0.99992963569E+03 0.  0.
        3    1    3    3  502    0 -0.21564916229E+02  0.44674037786E+03 -0.31456416984E+03  0.54680219273E+03  0.10100000352E+00 0.  1.
       -3    1    3    3    0  502  0.21564916229E+02 -0.44674037786E+03 -0.10822704078E+04  0.11710470770E+04  0.10100000352E+00 0. -1.
</event>
<event>
 5   0  0.1006006E-03  0.1000719E+04  0.7818609E-02  0.9307756E-01
        2   -1    0    0  501    0  0.00000000000E+00  0.00000000000E+00  0.98400945310E+03  0.98400945311E+03  0.25500000920E-02 0.  1.
       -2   -1    0    0    0  501  0.00000000000E+00  0.00000000000E+00 -0.25442826552E+03  0.25442826553E+03  0.25500000920E-02 0. -1.
    10030    2    1    2    0    0  0.00000000000E+00  0.00000000000E+00  0.72958118758E+03  0.12384377186E+04  0.10007193781E+04 0.  0.
        2    1    3    3  502    0  0.29072967272E+03  0.39231576525E+03  0.49992950733E+03  0.69883110590E+03  0.25500000920E-02 0.  1.
       -2    1    3    3    0  502 -0.29072967272E+03 -0.39231576525E+03  0.22965168026E+03  0.53960661274E+03  0.25500000920E-02 0. -1.
</event>
<event>
 5   0  0.5826939E-04  0.9971724E+03  0.7818609E-02  0.9311651E-01
        1   -1    0    0  501    0  0.00000000000E+00  0.00000000000E+00  0.49247726697E+03  0.49247726700E+03  0.50400001928E-02 0.  1.
       -1   -1    0    0    0  501  0.00000000000E+00  0.00000000000E+00 -0.50477096015E+03  0.50477096017E+03  0.50400001928E-02 0. -1.
    10030    2    1    2    0    0  0.00000000000E+00  0.00000000000E+00 -0.12293693175E+02  0.99724822717E+03  0.99717244833E+03 0.  0.
        1    1    3    3  502    0  0.26975985776E+02  0.44651906101E+03 -0.22634815463E+03  0.50133867075E+03  0.50400001928E-02 0. -1.
       -1    1    3    3    0  502 -0.26975985776E+02 -0.44651906101E+03  0.21405446146E+03  0.49590955642E+03  0.50400001928E-02 0.  1.
</event>
<event>
 5   0  0.9741826E-04  0.9761463E+03  0.7818609E-02  0.9335101E-01
       -2   -1    0    0    0  501  0.00000000000E+00  0.00000000000E+00  0.25035121639E+03  0.25035121640E+03  0.25500000920E-02 0. -1.
        2   -1    0    0  501    0  0.00000000000E+00  0.00000000000E+00 -0.95152475453E+03  0.95152475453E+03  0.25500000920E-02 0.  1.
    10030    2    1    2    0    0  0.00000000000E+00  0.00000000000E+00 -0.70117353814E+03  0.12018759709E+04  0.97614625898E+03 0.  0.
        3    1    3    3  502    0  0.32449004335E+03 -0.23125918696E+03 -0.69761633740E+03  0.80339477481E+03  0.10100000352E+00 0.  1.
       -3    1    3    3    0  502 -0.32449004335E+03  0.23125918696E+03 -0.35572007407E+01  0.39848119613E+03  0.10100000352E+00 0. -1.
</event>
<event>
 5   0  0.1006006E-03  0.1000541E+04  0.7818609E-02  0.9307952E-01
       -2   -1    0    0    0  501  0.00000000000E+00  0.00000000000E+00  0.16723317759E+03  0.16723317761E+03  0.25500000920E-02 0.  1.
        2   -1    0    0  501    0  0.00000000000E+00  0.00000000000E+00 -0.14965364446E+04  0.14965364446E+04  0.25500000920E-02 0. -1.
    10030    2    1    2    0    0  0.00000000000E+00  0.00000000000E+00 -0.13293032670E+04  0.16637696222E+04  0.10005409437E+04 0.  0.
        2    1    3    3  502    0  0.40408401768E+02 -0.49019993281E+03 -0.51277658122E+03  0.71054108630E+03  0.25500000920E-02 0.  1.
       -2    1    3    3    0  502 -0.40408401768E+02  0.49019993281E+03 -0.81652668578E+03  0.95322853590E+03  0.25500000920E-02 0. -1.
</event>
<event>
 5   0  0.5826939E-04  0.9993220E+03  0.7818609E-02  0.9309289E-01
       -1   -1    0    0    0  501  0.00000000000E+00  0.00000000000E+00  0.27007170423E+03  0.27007170428E+03  0.50400001928E-02 0.  1.
        1   -1    0    0  501    0  0.00000000000E+00  0.00000000000E+00 -0.92442534682E+03  0.92442534684E+03  0.50400001928E-02 0. -1.
    10030    2    1    2    0    0  0.00000000000E+00  0.00000000000E+00 -0.65435364259E+03  0.11944970511E+04  0.99932202795E+03 0.  0.
        1    1    3    3  502    0 -0.39313373534E+03  0.29568755185E+03 -0.22245351799E+03  0.53988038478E+03  0.50400001928E-02 0. -1.
       -1    1    3    3    0  502  0.39313373534E+03 -0.29568755185E+03 -0.43190012460E+03  0.65461666633E+03  0.50400001928E-02 0.  1.
</event>
<event>
 5   0  0.1020150E-03  0.1001045E+04  0.7818609E-02  0.9307400E-01
       -2   -1    0    0    0  501  0.00000000000E+00  0.00000000000E+00  0.13024952066E+03  0.13024952069E+03  0.25500000920E-02 0. -1.
        2   -1    0    0  501    0  0.00000000000E+00  0.00000000000E+00 -0.19234054706E+04  0.19234054706E+04  0.25500000920E-02 0.  1.
    10030    2    1    2    0    0  0.00000000000E+00  0.00000000000E+00 -0.17931559500E+04  0.20536549913E+04  0.10010447355E+04 0.  0.
        5    1    3    3  502    0 -0.19576395812E+03  0.24176265583E+03 -0.17009376015E+04  0.17291568822E+04  0.46999998093E+01 0.  1.
       -5    1    3    3    0  502  0.19576395812E+03 -0.24176265583E+03 -0.92218348504E+02  0.32449810916E+03  0.46999998093E+01 0. -1.
</event>
<event>
 5   0  0.1006006E-03  0.9999177E+03  0.7818609E-02  0.9308635E-01
       -2   -1    0    0    0  501  0.00000000000E+00  0.00000000000E+00  0.14721958797E+03  0.14721958799E+03  0.25500000920E-02 0. -1.
        2   -1    0    0  501    0  0.00000000000E+00  0.00000000000E+00 -0.16978641372E+04  0.16978641372E+04  0.25500000920E-02 0.  1.
    10030    2    1    2    0    0  0.00000000000E+00  0.00000000000E+00 -0.15506445493E+04  0.18450837252E+04  0.99991771408E+03 0.  0.
        2    1    3    3  502    0  0.22333339537E+03  0.12634377842E+03  0.16450013542E+02  0.25712090305E+03  0.25500000920E-02 0. -1.
       -2    1    3    3    0  502 -0.22333339537E+03 -0.12634377842E+03 -0.15670945628E+04  0.15879628222E+04  0.25500000920E-02 0.  1.
</event>
<event>
 5   0  0.1020150E-03  0.9997535E+03  0.7818609E-02  0.9308815E-01
        2   -1    0    0  501    0  0.00000000000E+00  0.00000000000E+00  0.12546563040E+04  0.12546563040E+04  0.25500000920E-02 0. -1.
       -2   -1    0    0    0  501  0.00000000000E+00  0.00000000000E+00 -0.19915955150E+03  0.19915955152E+03  0.25500000920E-02 0.  1.
    10030    2    1    2    0    0  0.00000000000E+00  0.00000000000E+00  0.10554967525E+04  0.14538158555E+04  0.99975354325E+03 0.  0.
        5    1    3    3  502    0  0.59363917576E+02  0.38224498810E+03  0.67393943767E+02  0.39268223705E+03  0.46999998093E+01 0.  1.
       -5    1    3    3    0  502 -0.59363917576E+02 -0.38224498810E+03  0.98810280874E+03  0.10611336185E+04  0.46999998093E+01 0. -1.
</event>
<event>
 5   0  0.5826939E-04  0.9992087E+03  0.7818609E-02  0.9309413E-01
        1   -1    0    0  501    0  0.00000000000E+00  0.00000000000E+00  0.14708964250E+04  0.14708964250E+04  0.50400001928E-02 0.  1.
       -1   -1    0    0    0  501  0.00000000000E+00  0.00000000000E+00 -0.16969549431E+03  0.16969549439E+03  0.50400001928E-02 0. -1.
    10030    2    1    2    0    0  0.00000000000E+00  0.00000000000E+00  0.13012009307E+04  0.16405919194E+04  0.99920867890E+03 0.  0.
        1    1    3    3  502    0 -0.78287417056E+02 -0.49332542853E+03  0.66747267456E+03  0.83367779712E+03  0.50400001928E-02 0. -1.
       -1    1    3    3    0  502  0.78287417056E+02  0.49332542853E+03  0.63372825615E+03  0.80691412231E+03  0.50400001928E-02 0.  1.
</event>
<event>
 5   0  0.9674819E-04  0.9998680E+03  0.7818609E-02  0.9308690E-01
        2   -1    0    0  501    0  0.00000000000E+00  0.00000000000E+00  0.15172837929E+04  0.15172837929E+04  0.25500000920E-02 0. -1.
       -2   -1    0    0    0  501  0.00000000000E+00  0.00000000000E+00 -0.16472463907E+03  0.16472463909E+03  0.25500000920E-02 0.  1.
    10030    2    1    2    0    0  0.00000000000E+00  0.00000000000E+00  0.13525591538E+04  0.16820084319E+04  0.99986804162E+03 0.  0.
        4    1    3    3  502    0 -0.95889631010E+01 -0.48929393189E+03  0.50446205769E+03  0.70284001063E+03  0.12699999809E+01 0. -1.
       -4    1    3    3    0  502  0.95889631010E+01  0.48929393189E+03  0.84809709610E+03  0.97916842132E+03  0.12699999809E+01 0.  1.
</event>
<event>
 5   0  0.9741826E-04  0.1001764E+04  0.7818609E-02  0.9306612E-01
        2   -1    0    0  501    0  0.00000000000E+00  0.00000000000E+00  0.18851224771E+04  0.18851224771E+04  0.25500000920E-02 0.  1.
       -2   -1    0    0    0  501  0.00000000000E+00  0.00000000000E+00 -0.13308567054E+03  0.13308567056E+03  0.25500000920E-02 0. -1.
    10030    2    1    2    0    0  0.00000000000E+00  0.00000000000E+00  0.17520368066E+04  0.20182081477E+04  0.10017640220E+04 0.  0.
        3    1    3    3  502    0 -0.41570606385E+03  0.27290839957E+02  0.31579069896E+03  0.52276198907E+03  0.10100000352E+00 0. -1.
       -3    1    3    3    0  502  0.41570606385E+03 -0.27290839957E+02  0.14362461076E+04  0.14954461586E+04  0.10100000352E+00 0.  1.
</event>
<event>
 5   0  0.1020150E-03  0.9845407E+03  0.7818609E-02  0.9325665E-01
       -2   -1    0    0    0  501  0.00000000000E+00  0.00000000000E+00  0.18422304436E+03  0.18422304438E+03  0.25500000920E-02 0. -1.
        2   -1    0    0  501    0  0.00000000000E+00  0.00000000000E+00 -0.13154169140E+04  0.13154169140E+04  0.25500000920E-02 0.  1.
    10030    2    1    2    0    0  0.00000000000E+00  0.00000000000E+00 -0.11311938697E+04  0.14996399584E+04  0.98454072241E+03 0.  0.
        5    1    3    3  502    0  0.19235165079E+03  0.28151869594E+03 -0.24798748010E+02  0.34189033567E+03  0.46999998093E+01 0. -1.
       -5    1    3    3    0  502 -0.19235165079E+03 -0.28151869594E+03 -0.11063951216E+04  0.11577496227E+04  0.46999998093E+01 0.  1.
</event>
<event>
 5   0  0.9741826E-04  0.1010123E+04  0.7818609E-02  0.9297511E-01
       -2   -1    0    0    0  501  0.00000000000E+00  0.00000000000E+00  0.43484891889E+03  0.43484891890E+03  0.25500000920E-02 0.  1.
        2   -1    0    0  501    0  0.00000000000E+00  0.00000000000E+00 -0.58661074884E+03  0.58661074884E+03  0.25500000920E-02 0. -1.
    10030    2    1    2    0    0  0.00000000000E+00  0.00000000000E+00 -0.15176182995E+03  0.10214596677E+04  0.10101228637E+04 0.  0.
        3    1    3    3  502    0 -0.78476836334E+02 -0.49690909918E+03 -0.30547281158E+02  0.50399445758E+03  0.10100000352E+00 0.  1.
       -3    1    3    3    0  502  0.78476836334E+02  0.49690909918E+03 -0.12121454879E+03  0.51746521016E+03  0.10100000352E+00 0. -1.
</event>
<event>
 5   0  0.5758786E-04  0.9973404E+03  0.7818609E-02  0.9311467E-01
        1   -1    0    0  501    0  0.00000000000E+00  0.00000000000E+00  0.90302129743E+03  0.90302129745E+03  0.50400001928E-02 0.  1.
       -1   -1    0    0    0  501  0.00000000000E+00  0.00000000000E+00 -0.27537772541E+03  0.27537772546E+03  0.50400001928E-02 0. -1.
    10030    2    1    2    0    0  0.00000000000E+00  0.00000000000E+00  0.62764357202E+03  0.11783990229E+04  0.99734036502E+03 0.  0.
        3    1    3    3  502    0 -0.36079840260E+03  0.32224119595E+03  0.17077685102E+03  0.51301034954E+03  0.10100000352E+00 0.  1.
       -3    1    3    3    0  502  0.36079840260E+03 -0.32224119595E+03  0.45686672100E+03  0.66538867337E+03  0.10100000352E+00 0. -1.
</event>
<event>
 5   0  0.5758786E-04  0.1001412E+04  0.7818609E-02  0.9306998E-01
       -1   -1    0    0    0  501  0.00000000000E+00  0.00000000000E+00  0.17296929297E+03  0.17296929304E+03  0.50400001928E-02 0. -1.
        1   -1    0    0  501    0  0.00000000000E+00  0.00000000000E+00 -0.14494276586E+04  0.14494276586E+04  0.50400001928E-02 0.  1.
    10030    2    1    2    0    0  0.00000000000E+00  0.00000000000E+00 -0.12764583656E+04  0.16223969516E+04  0.10014119580E+04 0.  0.
        3    1    3    3  502    0 -0.45119073949E+02 -0.47907297188E+03 -0.41397523056E+03  0.63476148665E+03  0.10100000352E+00 0. -1.
       -3    1    3    3    0  502  0.45119073949E+02  0.47907297188E+03 -0.86248313507E+03  0.98763546499E+03  0.10100000352E+00 0.  1.
</event>
<event>
 5   0  0.9674819E-04  0.1008670E+04  0.7818609E-02  0.9299086E-01
        2   -1    0    0  501    0  0.00000000000E+00  0.00000000000E+00  0.62154696490E+03  0.62154696490E+03  0.25500000920E-02 0.  1.
       -2   -1    0    0    0  501  0.00000000000E+00  0.00000000000E+00 -0.40922724793E+03  0.40922724794E+03  0.25500000920E-02 0. -1.
    10030    2    1    2    0    0  0.00000000000E+00  0.00000000000E+00  0.21231971697E+03  0.10307742128E+04  0.10086703206E+04 0.  0.
        4    1    3    3  502    0 -0.42381385967E+03  0.20968340088E+03 -0.73089270269E+02  0.47846522401E+03  0.12699999809E+01 0. -1.
       -4    1    3    3    0  502  0.42381385967E+03 -0.20968340088E+03  0.28540898724E+03  0.55230898884E+03  0.12699999809E+01 0.  1.
</event>
<event>
 5   0  0.5960102E-04  0.1003040E+04  0.7818609E-02  0.9305217E-01
        1   -1    0    0  501    0  0.00000000000E+00  0.00000000000E+00  0.45736694787E+03  0.45736694790E+03  0.50400001928E-02 0.  1.
       -1   -1    0    0    0  501  0.00000000000E+00  0.00000000000E+00 -0.54993564834E+03  0.54993564836E+03  0.50400001928E-02 0. -1.
    10030    2    1    2    0    0  0.00000000000E+00  0.00000000000E+00 -0.92568700467E+02  0.10073025963E+04  0.10030401568E+04 0.  0.
        5    1    3    3  502    0 -0.48486273945E+03 -0.26498554454E+02 -0.17214149633E+03  0.51521726898E+03  0.46999998093E+01 0. -1.
       -5    1    3    3    0  502  0.48486273945E+03  0.26498554454E+02  0.79572795866E+02  0.49208532729E+03  0.46999998093E+01 0.  1.
</event>
<event>
 5   0  0.3854625E-04  0.1000851E+04  0.7818609E-02  0.9307612E-01
        3   -1    0    0  501    0  0.00000000000E+00  0.00000000000E+00  0.97988890467E+03  0.97988890988E+03  0.10100000352E+00 0.  1.
       -3   -1    0    0    0  501  0.00000000000E+00  0.00000000000E+00 -0.25556519472E+03  0.25556521468E+03  0.10100000352E+00 0. -1.
    10030    2    1    2    0    0  0.00000000000E+00  0.00000000000E+00  0.72432370995E+03  0.12354541246E+04  0.10008506667E+04 0.  0.
        4    1    3    3  502    0 -0.10443908557E+03 -0.48110391582E+03  0.47295194674E+03  0.68268122666E+03  0.12699999809E+01 0. -1.
       -4    1    3    3    0  502  0.10443908557E+03  0.48110391582E+03  0.25137176321E+03  0.55277289790E+03  0.12699999809E+01 0.  1.
</event>
<event>
 5   0  0.5758786E-04  0.9943951E+03  0.7818609E-02  0.9314714E-01
       -1   -1    0    0    0  501  0.00000000000E+00  0.00000000000E+00  0.63796139631E+03  0.63796139633E+03  0.50400001928E-02 0.  1.
        1   -1    0    0  501    0  0.00000000000E+00  0.00000000000E+00 -0.38749274609E+03  0.38749274612E+03  0.50400001928E-02 0. -1.
    10030    2    1    2    0    0  0.00000000000E+00  0.00000000000E+00  0.25046865022E+03  0.10254541424E+04  0.99439511942E+03 0.  0.
        3    1    3    3  502    0 -0.36732689205E+03 -0.19805480801E+03  0.40395507627E+03  0.58080501586E+03  0.10100000352E+00 0.  1.
       -3    1    3    3    0  502  0.36732689205E+03  0.19805480801E+03 -0.15348642605E+03  0.44464912659E+03  0.10100000352E+00 0. -1.
</event>
<event>
 5   0  0.3854625E-04  0.1000238E+04  0.7818609E-02  0.9308283E-01
        3   -1    0    0  501    0  0.00000000000E+00  0.00000000000E+00  0.13184526979E+04  0.13184527018E+04  0.10100000352E+00 0. -1.
       -3   -1    0    0    0  501  0.00000000000E+00  0.00000000000E+00 -0.18970658227E+03  0.18970660916E+03  0.10100000352E+00 0.  1.
    10030    2    1    2    0    0  0.00000000000E+00  0.00000000000E+00  0.11287461157E+04  0.15081593110E+04  0.10002383284E+04 0.  0.
        2    1    3    3  502    0  0.14778369120E+02  0.23100584332E+03 -0.10407239817E+03  0.25379748601E+03  0.25500000920E-02 0.  1.
       -2    1    3    3    0  502 -0.14778369120E+02 -0.23100584332E+03  0.12328185138E+04  0.12543618250E+04  0.25500000920E-02 0. -1.
</event>
<event>
 5   0  0.5758786E-04  0.9995592E+03  0.7818609E-02  0.9309028E-01
        1   -1    0    0  501    0  0.00000000000E+00  0.00000000000E+00  0.14321064430E+04  0.14321064430E+04  0.50400001928E-02 0.  1.
       -1   -1    0    0    0  501  0.00000000000E+00  0.00000000000E+00 -0.17441417130E+03  0.17441417137E+03  0.50400001928E-02 0. -1.
    10030    2    1    2    0    0  0.00000000000E+00  0.00000000000E+00  0.12576922717E+04  0.16065206144E+04  0.99955921991E+03 0.  0.
        3    1    3    3  502    0 -0.14929790833E+03  0.47642047158E+03  0.66526032652E+03  0.83176778214E+03  0.10100000352E+00 0.  1.
       -3    1    3    3    0  502  0.14929790833E+03 -0.47642047158E+03  0.59243194516E+03  0.77475283221E+03  0.10100000352E+00 0. -1.
</event>
<event>
 5   0  0.1006749E-03  0.9971531E+03  0.7818609E-02  0.9311673E-01
       -2   -1    0    0    0  501  0.00000000000E+00  0.00000000000E+00  0.16834620074E+03  0.16834620076E+03  0.25500000920E-02 0.  1.
        2   -1    0    0  501    0  0.00000000000E+00  0.00000000000E+00 -0.14765915917E+04  0.14765915917E+04  0.25500000920E-02 0. -1.
    10030    2    1    2    0    0  0.00000000000E+00  0.00000000000E+00 -0.13082453910E+04  0.16449377924E+04  0.99715311666E+03 0.  0.
        1    1    3    3  502    0 -0.99970088758E+02 -0.17806525884E+03 -0.14044384721E+04  0.14192070592E+04  0.50400001928E-02 0. -1.
       -1    1    3    3    0  502  0.99970088758E+02  0.17806525884E+03  0.96193081108E+02  0.22573073325E+03  0.50400001928E-02 0.  1.
</event>
<event>
 5   0  0.5888774E-04  0.9994247E+03  0.7818609E-02  0.9309176E-01
        1   -1    0    0  501    0  0.00000000000E+00  0.00000000000E+00  0.21535314664E+03  0.21535314670E+03  0.50400001928E-02 0.  1.
       -1   -1    0    0    0  501  0.00000000000E+00  0.00000000000E+00 -0.11595486818E+04  0.11595486818E+04  0.50400001928E-02 0. -1.
    10030    2    1    2    0    0  0.00000000000E+00  0.00000000000E+00 -0.94419553513E+03  0.13749018285E+04  0.99942474923E+03 0.  0.
        2    1    3    3  502    0  0.25468843035E+02  0.31166362340E+03 -0.10083174610E+04  0.10556926533E+04  0.25500000920E-02 0. -1.
       -2    1    3    3    0  502 -0.25468843035E+02 -0.31166362340E+03  0.64121925870E+02  0.31920917515E+03  0.25500000920E-02 0.  1.
</event>
<event>
 5   0  0.5758786E-04  0.1000107E+04  0.7818609E-02  0.9308427E-01
        1   -1    0    0  501    0  0.00000000000E+00  0.00000000000E+00  0.19859729982E+03  0.19859729989E+03  0.50400001928E-02 0.  1.
       -1   -1    0    0    0  501  0.00000000000E+00  0.00000000000E+00 -0.12590990096E+04  0.12590990097E+04  0.50400001928E-02 0. -1.
    10030    2    1    2    0    0  0.00000000000E+00  0.00000000000E+00 -0.10605017098E+04  0.14576963095E+04  0.10001073214E+04 0.  0.
        3    1    3    3  502    0  0.24643535703E+03 -0.21849501769E+03 -0.10786872943E+04  0.11278460653E+04  0.10100000352E+00 0. -1.
       -3    1    3    3    0  502 -0.24643535703E+03  0.21849501769E+03  0.18185584460E+02  0.32985024425E+03  0.10100000352E+00 0.  1.
</event>
<event>
 5   0  0.5888774E-04  0.9972448E+03  0.7818609E-02  0.9311572E-01
        1   -1    0    0  501    0  0.00000000000E+00  0.00000000000E+00  0.61793096403E+03  0.61793096405E+03  0.50400001928E-02 0. -1.
       -1   -1    0    0    0  501  0.00000000000E+00  0.00000000000E+00 -0.40234964756E+03  0.40234964759E+03  0.50400001928E-02 0.  1.
    10030    2    1    2    0    0  0.00000000000E+00  0.00000000000E+00  0.21558131647E+03  0.10202806116E+04  0.99724481573E+03 0.  0.
        2    1    3    3  502    0  0.29862922081E+03 -0.34963894795E+03 -0.89530985152E+02  0.46844701168E+03  0.25500000920E-02 0. -1.
       -2    1    3    3    0  502 -0.29862922081E+03  0.34963894795E+03  0.30511230162E+03  0.55183359997E+03  0.25500000920E-02 0.  1.
</event>
<event>
 5   0  0.5758786E-04  0.9998932E+03  0.7818609E-02  0.9308662E-01
        1   -1    0    0  501    0  0.00000000000E+00  0.00000000000E+00  0.23302136262E+03  0.23302136267E+03  0.50400001928E-02 0. -1.
       -1   -1    0    0    0  501  0.00000000000E+00  0.00000000000E+00 -0.10726338195E+04  0.10726338195E+04  0.50400001928E-02 0.  1.
    10030    2    1    2    0    0  0.00000000000E+00  0.00000000000E+00 -0.83961245690E+03  0.13056551822E+04  0.99989318281E+03 0.  0.
        3    1    3    3  502    0  0.21204720420E+03 -0.16386203059E+03  0.13131307174E+03  0.29842572759E+03  0.10100000352E+00 0. -1.
       -3    1    3    3    0  502 -0.21204720420E+03  0.16386203059E+03 -0.97092552864E+03  0.10072294546E+04  0.10100000352E+00 0.  1.
</event>
<event>
 5   0  0.1020150E-03  0.1007034E+04  0.7818609E-02  0.9300863E-01
        2   -1    0    0  501    0  0.00000000000E+00  0.00000000000E+00  0.17396938512E+04  0.17396938512E+04  0.25500000920E-02 0.  1.
       -2   -1    0    0    0  501  0.00000000000E+00  0.00000000000E+00 -0.14573229598E+03  0.14573229601E+03  0.25500000920E-02 0. -1.
    10030    2    1    2    0    0  0.00000000000E+00  0.00000000000E+00  0.15939615553E+04  0.18854261472E+04  0.10070344170E+04 0.  0.
        5    1    3    3  502    0  0.77246272597E+02  0.49708493932E+02 -0.12987018419E+03  0.15914231285E+03  0.46999998093E+01 0. -1.
       -5    1    3    3    0  502 -0.77246272597E+02 -0.49708493932E+02  0.17238317394E+04  0.17262838344E+04  0.46999998093E+01 0.  1.
</event>
<event>
 5   0  0.1006749E-03  0.9993744E+03  0.7818609E-02  0.9309231E-01
       -2   -1    0    0    0  501  0.00000000000E+00  0.00000000000E+00  0.24954638878E+03  0.24954638880E+03  0.25500000920E-02 0.  1.
        2   -1    0    0  501    0  0.00000000000E+00  0.00000000000E+00 -0.10005646459E+04  0.10005646459E+04  0.25500000920E-02 0. -1.
    10030    2    1    2    0    0  0.00000000000E+00  0.00000000000E+00 -0.75101825707E+03  0.12501110346E+04  0.99937439256E+03 0.  0.
        1    1    3    3  502    0 -0.10528354247E+03 -0.44830637730E+03 -0.13287426061E+03  0.47928989286E+03  0.50400001928E-02 0.  1.
       -1    1    3    3    0  502  0.10528354247E+03  0.44830637730E+03 -0.61814399646E+03  0.77082114179E+03  0.50400001928E-02 0. -1.
</event>
<event>
 5   0  0.5826939E-04  0.9975070E+03  0.7818609E-02  0.9311283E-01
        1   -1    0    0  501    0  0.00000000000E+00  0.00000000000E+00  0.50954291335E+03  0.50954291338E+03  0.50400001928E-02 0. -1.
       -1   -1    0    0    0  501  0.00000000000E+00  0.00000000000E+00 -0.48819251505E+03  0.48819251508E+03  0.50400001928E-02 0.  1.
    10030    2    1    2    0    0  0.00000000000E+00  0.00000000000E+00  0.21350398301E+02  0.99773542846E+03  0.99750696524E+03 0.  0.
        1    1    3    3  502    0  0.66405205096E+01 -0.61029203092E+02  0.50574954673E+03  0.50946173967E+03  0.50400001928E-02 0. -1.
       -1    1    3    3    0  502 -0.66405205096E+01  0.61029203092E+02 -0.48439914843E+03  0.48827368879E+03  0.50400001928E-02 0.  1.
</event>
<event>
 5   0  0.1006006E-03  0.1000798E+04  0.7818609E-02  0.9307670E-01
        2   -1    0    0  501    0  0.00000000000E+00  0.00000000000E+00  0.10071044482E+04  0.10071044482E+04  0.25500000920E-02 0.  1.
       -2   -1    0    0    0  501  0.00000000000E+00  0.00000000000E+00 -0.24863277737E+03  0.24863277738E+03  0.25500000920E-02 0. -1.
    10030    2    1    2    0    0  0.00000000000E+00  0.00000000000E+00  0.75847167082E+03  0.12557372256E+04  0.10007980337E+04 0.  0.
        2    1    3    3  502    0 -0.40407237190E+03 -0.28518681300E+03  0.28373422665E+03  0.57018515539E+03  0.25500000920E-02 0.  1.
       -2    1    3    3    0  502  0.40407237190E+03  0.28518681300E+03  0.47473744417E+03  0.68555207020E+03  0.25500000920E-02 0. -1.
</event>
<event>
 5   0  0.1020150E-03  0.1000729E+04  0.7818609E-02  0.9307746E-01
        2   -1    0    0  501    0  0.00000000000E+00  0.00000000000E+00  0.13223727915E+04  0.13223727915E+04  0.25500000920E-02 0. -1.
       -2   -1    0    0    0  501  0.00000000000E+00  0.00000000000E+00 -0.18932971286E+03  0.18932971288E+03  0.25500000920E-02 0.  1.
    10030    2    1    2    0    0  0.00000000000E+00  0.00000000000E+00  0.11330430786E+04  0.15117025044E+04  0.10007286564E+04 0.  0.
        5    1    3    3  502    0 -0.31540270206E+03 -0.34602815253E+03  0.30000401314E+03  0.55609247856E+03  0.46999998093E+01 0. -1.
       -5    1    3    3    0  502  0.31540270206E+03  0.34602815253E+03  0.83303906548E+03  0.95561002580E+03  0.46999998093E+01 0.  1.
</event>
<event>
 5   0  0.5888774E-04  0.9995416E+03  0.7818609E-02  0.9309048E-01
        1   -1    0    0  501    0  0.00000000000E+00  0.00000000000E+00  0.77611595165E+03  0.77611595166E+03  0.50400001928E-02 0.  1.
       -1   -1    0    0    0  501  0.00000000000E+00  0.00000000000E+00 -0.32182153813E+03  0.32182153817E+03  0.50400001928E-02 0. -1.
    10030    2    1    2    0    0  0.00000000000E+00  0.00000000000E+00  0.45429441352E+03  0.10979374898E+04  0.99954155362E+03 0.  0.
        2    1    3    3  502    0  0.45945475189E+03 -0.31848530777E+02  0.44030657006E+03  0.63716785355E+03  0.25500000920E-02 0.  1.
       -2    1    3    3    0  502 -0.45945475189E+03  0.31848530777E+02  0.13987843461E+02  0.46076963628E+03  0.25500000920E-02 0. -1.
</event>
<event>
 5   0  0.1006006E-03  0.9993827E+03  0.7818609E-02  0.9309222E-01
        2   -1    0    0  501    0  0.00000000000E+00  0.00000000000E+00  0.85533738518E+03  0.85533738519E+03  0.25500000920E-02 0.  1.
       -2   -1    0    0    0  501  0.00000000000E+00  0.00000000000E+00 -0.29192160545E+03  0.29192160546E+03  0.25500000920E-02 0. -1.
    10030    2    1    2    0    0  0.00000000000E+00  0.00000000000E+00  0.56341577974E+03  0.11472589906E+04  0.99938273487E+03 0.  0.
        2    1    3    3  502    0  0.19344568831E+03 -0.15284911771E+03  0.78065450956E+03  0.81866082746E+03  0.25500000920E-02 0.  1.
       -2    1    3    3    0  502 -0.19344568831E+03  0.15284911771E+03 -0.21723872982E+03  0.32859816319E+03  0.25500000920E-02 0. -1.
</event>
<event>
 5   0  0.9741826E-04  0.1002182E+04  0.7818609E-02  0.9306155E-01
       -2   -1    0    0    0  501  0.00000000000E+00  0.00000000000E+00  0.88994093339E+03  0.88994093339E+03  0.25500000920E-02 0.  1.
        2   -1    0    0  501    0  0.00000000000E+00  0.00000000000E+00 -0.28214486215E+03  0.28214486216E+03  0.25500000920E-02 0. -1.
    10030    2    1    2    0    0  0.00000000000E+00  0.00000000000E+00  0.60779607124E+03  0.11720857956E+04  0.10021821431E+04 0.  0.
        3    1    3    3  502    0 -0.11408637780E+03  0.37709822368E+03 -0.58229866009E+02  0.39825808140E+03  0.10100000352E+00 0.  1.
       -3    1    3    3    0  502  0.11408637780E+03 -0.37709822368E+03  0.66602593725E+03  0.77382771415E+03  0.10100000352E+00 0. -1.
</event>
<event>
 5   0  0.5960102E-04  0.1000454E+04  0.7818609E-02  0.9308047E-01
       -1   -1    0    0    0  501  0.00000000000E+00  0.00000000000E+00  0.22607205020E+03  0.22607205026E+03  0.50400001928E-02 0.  1.
        1   -1    0    0  501    0  0.00000000000E+00  0.00000000000E+00 -0.11068464145E+04  0.11068464145E+04  0.50400001928E-02 0. -1.
    10030    2    1    2    0    0  0.00000000000E+00  0.00000000000E+00 -0.88077436428E+03  0.13329184648E+04  0.10004539734E+04 0.  0.
        5    1    3    3  502    0  0.24382941324E+03 -0.43586500519E+03 -0.47744999974E+03  0.69094983737E+03  0.46999998093E+01 0. -1.
       -5    1    3    3    0  502 -0.24382941324E+03  0.43586500519E+03 -0.40332436455E+03  0.64196862739E+03  0.46999998093E+01 0.  1.
</event>
<event>
 5   0  0.5960102E-04  0.1000241E+04  0.7818609E-02  0.9308280E-01
        1   -1    0    0  501    0  0.00000000000E+00  0.00000000000E+00  0.92366188236E+03  0.92366188237E+03  0.50400001928E-02 0. -1.
       -1   -1    0    0    0  501  0.00000000000E+00  0.00000000000E+00 -0.27079230993E+03  0.27079230997E+03  0.50400001928E-02 0.  1.
    10030    2    1    2    0    0  0.00000000000E+00  0.00000000000E+00  0.65286957243E+03  0.11944541923E+04  0.10002410405E+04 0.  0.
        5    1    3    3  502    0  0.15271237186E+03  0.46932412071E+03  0.42280220498E+03  0.64989998718E+03  0.46999998093E+01 0. -1.
       -5    1    3    3    0  502 -0.15271237186E+03 -0.46932412071E+03  0.23006736746E+03  0.54455420517E+03  0.46999998093E+01 0.  1.
</event>
<event>
 5   0  0.1006749E-03  0.9747989E+03  0.7818609E-02  0.9336625E-01
       -2   -1    0    0    0  501  0.00000000000E+00  0.00000000000E+00  0.66193844785E+03  0.66193844785E+03  0.25500000920E-02 0. -1.
        2   -1    0    0  501    0  0.00000000000E+00  0.00000000000E+00 -0.35888266733E+03  0.35888266734E+03  0.25500000920E-02 0.  1.
    10030    2    1    2    0    0  0.00000000000E+00  0.00000000000E+00  0.30305578051E+03  0.10208211152E+04  0.97479892446E+03 0.  0.
        1    1    3    3  502    0  0.34256826330E+03 -0.34627799119E+03  0.13348744706E+03  0.50505480965E+03  0.50400001928E-02 0.  1.
       -1    1    3    3    0  502 -0.34256826330E+03  0.34627799119E+03  0.16956833345E+03  0.51576630555E+03  0.50400001928E-02 0. -1.
</event>
<event>
 5   0  0.5768102E-04  0.1000323E+04  0.7818609E-02  0.9308191E-01
       -1   -1    0    0    0  501  0.00000000000E+00  0.00000000000E+00  0.25632964020E+03  0.25632964025E+03  0.50400001928E-02 0.  1.
        1   -1    0    0  501    0  0.00000000000E+00  0.00000000000E+00 -0.97593682601E+03  0.97593682602E+03  0.50400001928E-02 0. -1.
    10030    2    1    2    0    0  0.00000000000E+00  0.00000000000E+00 -0.71960718580E+03  0.12322664663E+04  0.10003230188E+04 0.  0.
        4    1    3    3  502    0  0.38111013100E+03  0.26310840358E+03 -0.12708488046E+03  0.48023238513E+03  0.12699999809E+01 0.  1.
       -4    1    3    3    0  502 -0.38111013100E+03 -0.26310840358E+03 -0.59252230534E+03  0.75203408115E+03  0.12699999809E+01 0. -1.
</event>
<event>
 5   0  0.5888774E-04  0.1000906E+04  0.7818609E-02  0.9307552E-01
        1   -1    0    0  501    0  0.00000000000E+00  0.00000000000E+00  0.23436656119E+04  0.23436656119E+04  0.50400001928E-02 0. -1.
       -1   -1    0    0    0  501  0.00000000000E+00  0.00000000000E+00 -0.10686388831E+03  0.10686388843E+03  0.50400001928E-02 0.  1.
    10030    2    1    2    0    0  0.00000000000E+00  0.00000000000E+00  0.22368017236E+04  0.24505295003E+04  0.10009060302E+04 0.  0.
        2    1    3    3  502    0 -0.10321664004E+03 -0.15598513503E+03 -0.18069735509E+02  0.18791368359E+03  0.25500000920E-02 0.  1.
       -2    1    3    3    0  502  0.10321664004E+03  0.15598513503E+03  0.22548714591E+04  0.22626158167E+04  0.25500000920E-02 0. -1.
</event>
<event>
 5   0  0.9674819E-04  0.9986466E+03  0.7818609E-02  0.9310030E-01
        2   -1    0    0  501    0  0.00000000000E+00  0.00000000000E+00  0.14874024715E+04  0.14874024715E+04  0.25500000920E-02 0. -1.
       -2   -1    0    0    0  501  0.00000000000E+00  0.00000000000E+00 -0.16762361139E+03  0.16762361141E+03  0.25500000920E-02 0.  1.
    10030    2    1    2    0    0  0.00000000000E+00  0.00000000000E+00  0.13197788601E+04  0.16550260829E+04  0.99864663195E+03 0.  0.
        4    1    3    3  502    0 -0.13204067308E+03 -0.27592805983E+03  0.58429684750E+01  0.30595226218E+03  0.12699999809E+01 0.  1.
       -4    1    3    3    0  502  0.13204067308E+03  0.27592805983E+03  0.13139358916E+04  0.13490738207E+04  0.12699999809E+01 0. -1.
</event>
<event>
 5   0  0.1006006E-03  0.1000488E+04  0.7818609E-02  0.9308010E-01
       -2   -1    0    0    0  501  0.00000000000E+00  0.00000000000E+00  0.18254737035E+03  0.18254737037E+03  0.25500000920E-02 0.  1.
        2   -1    0    0  501    0  0.00000000000E+00  0.00000000000E+00 -0.13708432629E+04  0.13708432629E+04  0.25500000920E-02 0. -1.
    10030    2    1    2    0    0  0.00000000000E+00  0.00000000000E+00 -0.11882958926E+04  0.15533906333E+04  0.10004875468E+04 0.  0.
        2    1    3    3  502    0 -0.46485104739E+03  0.11047458262E+03 -0.36410284092E+03  0.60071791086E+03  0.25500000920E-02 0. -1.
       -2    1    3    3    0  502  0.46485104739E+03 -0.11047458262E+03 -0.82419305165E+03  0.95267272243E+03  0.25500000920E-02 0.  1.
</event>
<event>
 5   0  0.9741826E-04  0.1001152E+04  0.7818609E-02  0.9307283E-01
        2   -1    0    0  501    0  0.00000000000E+00  0.00000000000E+00  0.17149820379E+03  0.17149820380E+03  0.25500000920E-02 0.  1.
       -2   -1    0    0    0  501  0.00000000000E+00  0.00000000000E+00 -0.14611006929E+04  0.14611006929E+04  0.25500000920E-02 0. -1.
    10030    2    1    2    0    0  0.00000000000E+00  0.00000000000E+00 -0.12896024891E+04  0.16325988967E+04  0.10011516257E+04 0.  0.
        3    1    3    3  502    0  0.22915249838E+02  0.36659162431E+03 -0.90208412847E+02  0.37822228337E+03  0.10100000352E+00 0.  1.
       -3    1    3    3    0  502 -0.22915249838E+02 -0.36659162431E+03 -0.11993940763E+04  0.12543766133E+04  0.10100000352E+00 0. -1.
</event>
<event>
 5   0  0.3854625E-04  0.9996840E+03  0.7818609E-02  0.9308892E-01
       -4   -1    0    0    0  501  0.00000000000E+00  0.00000000000E+00  0.74976326282E+03  0.74976433842E+03  0.12699999809E+01 0.  1.
        4   -1    0    0  501    0  0.00000000000E+00  0.00000000000E+00 -0.33322532826E+03  0.33322774839E+03  0.12699999809E+01 0. -1.
    10030    2    1    2    0    0  0.00000000000E+00  0.00000000000E+00  0.41653793455E+03  0.10829920868E+04  0.99968395464E+03 0.  0.
        1    1    3    3  502    0 -0.45817698532E+03  0.15895124421E+03  0.33939430700E+03  0.59192917107E+03  0.50400001928E-02 0. -1.
       -1    1    3    3    0  502  0.45817698532E+03 -0.15895124421E+03  0.77143627550E+02  0.49106291574E+03  0.50400001928E-02 0.  1.
</event>
<event>
 5   0  0.9674819E-04  0.9990445E+03  0.7818609E-02  0.9309593E-01
       -2   -1    0    0    0  501  0.00000000000E+00  0.00000000000E+00  0.26478118580E+03  0.26478118581E+03  0.25500000920E-02 0. -1.
        2   -1    0    0  501    0  0.00000000000E+00  0.00000000000E+00 -0.94237232361E+03  0.94237232361E+03  0.25500000920E-02 0.  1.
    10030    2    1    2    0    0  0.00000000000E+00  0.00000000000E+00 -0.67759113781E+03  0.12071535094E+04  0.99904446611E+03 0.  0.
        4    1    3    3  502    0 -0.10091341251E+03 -0.73108355234E+02  0.24569653904E+03  0.27549364898E+03  0.12699999809E+01 0. -1.
       -4    1    3    3    0  502  0.10091341251E+03  0.73108355234E+02 -0.92328767685E+03  0.93165986044E+03  0.12699999809E+01 0.  1.
</event>
<event>
 5   0  0.9741826E-04  0.1000585E+04  0.7818609E-02  0.9307903E-01
       -2   -1    0    0    0  501  0.00000000000E+00  0.00000000000E+00  0.22477503595E+03  0.22477503597E+03  0.25500000920E-02 0.  1.
        2   -1    0    0  501    0  0.00000000000E+00  0.00000000000E+00 -0.11135251379E+04  0.11135251379E+04  0.25500000920E-02 0. -1.
    10030    2    1    2    0    0  0.00000000000E+00  0.00000000000E+00 -0.88875010194E+03  0.13383001739E+04  0.10005851346E+04 0.  0.
        3    1    3    3  502    0 -0.40426915303E+03 -0.19518978492E+03 -0.14902875702E+03  0.47301393304E+03  0.10100000352E+00 0.  1.
       -3    1    3    3    0  502  0.40426915303E+03  0.19518978492E+03 -0.73972134492E+03  0.86528624083E+03  0.10100000352E+00 0. -1.
</event>
<event>
 5   0  0.5758786E-04  0.9996481E+03  0.7818609E-02  0.9308931E-01
        1   -1    0    0  501    0  0.00000000000E+00  0.00000000000E+00  0.58398919236E+03  0.58398919238E+03  0.50400001928E-02 0. -1.
       -1   -1    0    0    0  501  0.00000000000E+00  0.00000000000E+00 -0.42778890016E+03  0.42778890019E+03  0.50400001928E-02 0.  1.
    10030    2    1    2    0    0  0.00000000000E+00  0.00000000000E+00  0.15620029219E+03  0.10117780926E+04  0.99964812676E+03 0.  0.
        3    1    3    3  502    0  0.88614152099E+02 -0.44208058114E+02  0.57396046500E+03  0.58244093772E+03  0.10100000352E+00 0. -1.
       -3    1    3    3    0  502 -0.88614152099E+02  0.44208058114E+02 -0.41776017280E+03  0.42933715485E+03  0.10100000352E+00 0.  1.
</event>
<event>
 5   0  0.9741826E-04  0.1000140E+04  0.7818609E-02  0.9308391E-01
       -2   -1    0    0    0  501  0.00000000000E+00  0.00000000000E+00  0.24868867095E+03  0.24868867096E+03  0.25500000920E-02 0. -1.
        2   -1    0    0  501    0  0.00000000000E+00  0.00000000000E+00 -0.10055546422E+04  0.10055546422E+04  0.25500000920E-02 0.  1.
    10030    2    1    2    0    0  0.00000000000E+00  0.00000000000E+00 -0.75686597127E+03  0.12542433132E+04  0.10001400853E+04 0.  0.
        3    1    3    3  502    0 -0.69305047627E+01 -0.49168122577E+03 -0.26437777350E+03  0.55829568957E+03  0.10100000352E+00 0. -1.
       -3    1    3    3    0  502  0.69305047627E+01  0.49168122577E+03 -0.49248819776E+03  0.69594762361E+03  0.10100000352E+00 0.  1.
</event>
<event>
 5   0  0.5888774E-04  0.1006123E+04  0.7818609E-02  0.9301855E-01
       -1   -1    0    0    0  501  0.00000000000E+00  0.00000000000E+00  0.39819432096E+03  0.39819432099E+03  0.50400001928E-02 0.  1.
        1   -1    0    0  501    0  0.00000000000E+00  0.00000000000E+00 -0.63554600794E+03  0.63554600796E+03  0.50400001928E-02 0. -1.
    10030    2    1    2    0    0  0.00000000000E+00  0.00000000000E+00 -0.23735168698E+03  0.10337403289E+04  0.10061228774E+04 0.  0.
        2    1    3    3  502    0  0.81910852469E+02  0.21279641750E+02  0.39082780024E+03  0.39988570912E+03  0.25500000920E-02 0.  1.
       -2    1    3    3    0  502 -0.81910852469E+02 -0.21279641750E+02 -0.62817948722E+03  0.63385461983E+03  0.25500000920E-02 0. -1.
</event>
<event>
 5   0  0.5826939E-04  0.1003457E+04  0.7818609E-02  0.9304761E-01
        1   -1    0    0  501    0  0.00000000000E+00  0.00000000000E+00  0.67042974028E+03  0.67042974030E+03  0.50400001928E-02 0.  1.
       -1   -1    0    0    0  501  0.00000000000E+00  0.00000000000E+00 -0.37547793869E+03  0.37547793872E+03  0.50400001928E-02 0. -1.
    10030    2    1    2    0    0  0.00000000000E+00  0.00000000000E+00  0.29495180159E+03  0.10459076790E+04  0.10034571779E+04 0.  0.
        1    1    3    3  502    0 -0.86256040276E+02  0.22578224564E+03  0.60575071797E+03  0.65218989510E+03  0.50400001928E-02 0.  1.
       -1    1    3    3    0  502  0.86256040276E+02 -0.22578224564E+03 -0.31079891637E+03  0.39371778392E+03  0.50400001928E-02 0. -1.
</event>
<event>
 5   0  0.9674819E-04  0.9992325E+03  0.7818609E-02  0.9309387E-01
       -2   -1    0    0    0  501  0.00000000000E+00  0.00000000000E+00  0.14511356715E+03  0.14511356717E+03  0.25500000920E-02 0. -1.
        2   -1    0    0  501    0  0.00000000000E+00  0.00000000000E+00 -0.17201450620E+04  0.17201450620E+04  0.25500000920E-02 0.  1.
    10030    2    1    2    0    0  0.00000000000E+00  0.00000000000E+00 -0.15750314948E+04  0.18652586292E+04  0.99923247740E+03 0.  0.
        4    1    3    3  502    0 -0.22253255687E+03  0.41971258541E+03 -0.49871874663E+03  0.68876802652E+03  0.12699999809E+01 0. -1.
       -4    1    3    3    0  502  0.22253255687E+03 -0.41971258541E+03 -0.10763127482E+04  0.11764906026E+04  0.12699999809E+01 0.  1.
</event>
<event>
 5   0  0.9674819E-04  0.9908643E+03  0.7818609E-02  0.9318622E-01
       -2   -1    0    0    0  501  0.00000000000E+00  0.00000000000E+00  0.42545778016E+03  0.42545778017E+03  0.25500000920E-02 0. -1.
        2   -1    0    0  501    0  0.00000000000E+00  0.00000000000E+00 -0.57691505544E+03  0.57691505544E+03  0.25500000920E-02 0.  1.
    10030    2    1    2    0    0  0.00000000000E+00  0.00000000000E+00 -0.15145727528E+03  0.10023728356E+04  0.99086426686E+03 0.  0.
        4    1    3    3  502    0 -0.12703059282E+03 -0.26882901542E+03 -0.47662117663E+03  0.56176077645E+03  0.12699999809E+01 0.  1.
       -4    1    3    3    0  502  0.12703059282E+03  0.26882901542E+03  0.32516390135E+03  0.44061205917E+03  0.12699999809E+01 0. -1.
</event>
<event>
 5   0  0.9674819E-04  0.9975897E+03  0.7818609E-02  0.9311192E-01
       -2   -1    0    0    0  501  0.00000000000E+00  0.00000000000E+00  0.23537422506E+03  0.23537422507E+03  0.25500000920E-02 0. -1.
        2   -1    0    0  501    0  0.00000000000E+00  0.00000000000E+00 -0.10570243731E+04  0.10570243731E+04  0.25500000920E-02 0.  1.
    10030    2    1    2    0    0  0.00000000000E+00  0.00000000000E+00 -0.82165014808E+03  0.12923985982E+04  0.99758968060E+03 0.  0.
        4    1    3    3  502    0 -0.25429594118E+03  0.35691287142E+03 -0.10222589286E+03  0.45000552169E+03  0.12699999809E+01 0. -1.
       -4    1    3    3    0  502  0.25429594118E+03 -0.35691287142E+03 -0.71942425522E+03  0.84239307653E+03  0.12699999809E+01 0.  1.
</event>
<event>
 5   0  0.3854625E-04  0.9997759E+03  0.7818609E-02  0.9308791E-01
        3   -1    0    0  501    0  0.00000000000E+00  0.00000000000E+00  0.42366819055E+03  0.42366820259E+03  0.10100000352E+00 0.  1.
       -3   -1    0    0    0  501  0.00000000000E+00  0.00000000000E+00 -0.58981993215E+03  0.58981994080E+03  0.10100000352E+00 0. -1.
    10030    2    1    2    0    0  0.00000000000E+00  0.00000000000E+00 -0.16615174160E+03  0.10134881434E+04  0.99977588266E+03 0.  0.
        1    1    3    3  502    0 -0.19730984372E+03 -0.16837537321E+03  0.35010986553E+03  0.43572739035E+03  0.50400001928E-02 0.  1.
       -1    1    3    3    0  502  0.19730984372E+03  0.16837537321E+03 -0.51626160713E+03  0.57776075304E+03  0.50400001928E-02 0. -1.
</event>
<event>
 5   0  0.5826939E-04  0.9993029E+03  0.7818609E-02  0.9309310E-01
        1   -1    0    0  501    0  0.00000000000E+00  0.00000000000E+00  0.93362360831E+03  0.93362360833E+03  0.50400001928E-02 0. -1.
       -1   -1    0    0    0  501  0.00000000000E+00  0.00000000000E+00 -0.26740066881E+03  0.26740066885E+03  0.50400001928E-02 0.  1.
    10030    2    1    2    0    0  0.00000000000E+00  0.00000000000E+00  0.66622293951E+03  0.12010242772E+04  0.99930291166E+03 0.  0.
        1    1    3    3  502    0  0.10244236539E+03 -0.33736629890E+03 -0.92390346229E+02  0.36448104747E+03  0.50400001928E-02 0.  1.
       -1    1    3    3    0  502 -0.10244236539E+03  0.33736629890E+03  0.75861328574E+03  0.83654322972E+03  0.50400001928E-02 0. -1.
</event>
<event>
 5   0  0.3854625E-04  0.9997525E+03  0.7818609E-02  0.9308816E-01
       -3   -1    0    0    0  501  0.00000000000E+00  0.00000000000E+00  0.31840382144E+03  0.31840383746E+03  0.10100000352E+00 0. -1.
        3   -1    0    0  501    0  0.00000000000E+00  0.00000000000E+00 -0.78477786452E+03  0.78477787102E+03  0.10100000352E+00 0.  1.
    10030    2    1    2    0    0  0.00000000000E+00  0.00000000000E+00 -0.46637404309E+03  0.11031817085E+04  0.99975253631E+03 0.  0.
        1    1    3    3  502    0 -0.11435005696E+03  0.16467571798E+03  0.27209678240E+03  0.33798030510E+03  0.50400001928E-02 0. -1.
       -1    1    3    3    0  502  0.11435005696E+03 -0.16467571798E+03 -0.73847082549E+03  0.76520140338E+03  0.50400001928E-02 0.  1.
</event>
<event>
 5   0  0.9741826E-04  0.1000679E+04  0.7818609E-02  0.9307801E-01
        2   -1    0    0  501    0  0.00000000000E+00  0.00000000000E+00  0.72196301489E+03  0.72196301489E+03  0.25500000920E-02 0. -1.
       -2   -1    0    0    0  501  0.00000000000E+00  0.00000000000E+00 -0.34674843598E+03  0.34674843599E+03  0.25500000920E-02 0.  1.
    10030    2    1    2    0    0  0.00000000000E+00  0.00000000000E+00  0.37521457891E+03  0.10687114509E+04  0.10006788621E+04 0.  0.
        3    1    3    3  502    0 -0.25854239778E+03  0.42693641562E+03  0.15029401325E+03  0.52125538371E+03  0.10100000352E+00 0. -1.
       -3    1    3    3    0  502  0.25854239778E+03 -0.42693641562E+03  0.22492056565E+03  0.54745606717E+03  0.10100000352E+00 0.  1.
</event>
<event>
 5   0  0.1006749E-03  0.1000031E+04  0.7818609E-02  0.9308511E-01
       -2   -1    0    0    0  501  0.00000000000E+00  0.00000000000E+00  0.54016405384E+03  0.54016405384E+03  0.25500000920E-02 0.  1.
        2   -1    0    0  501    0  0.00000000000E+00  0.00000000000E+00 -0.46285083051E+03  0.46285083052E+03  0.25500000920E-02 0. -1.
    10030    2    1    2    0    0  0.00000000000E+00  0.00000000000E+00  0.77313223324E+02  0.10030148844E+04  0.10000307614E+04 0.  0.
        1    1    3    3  502    0  0.28329190440E+03  0.18371435780E+03  0.40855259768E+03  0.53001933310E+03  0.50400001928E-02 0.  1.
       -1    1    3    3    0  502 -0.28329190440E+03 -0.18371435780E+03 -0.33123937436E+03  0.47299555126E+03  0.50400001928E-02 0. -1.
</event>
<event>
 5   0  0.3854625E-04  0.9985785E+03  0.7818609E-02  0.9310105E-01
       -4   -1    0    0    0  501  0.00000000000E+00  0.00000000000E+00  0.48293563867E+03  0.48293730856E+03  0.12699999809E+01 0.  1.
        4   -1    0    0  501    0  0.00000000000E+00  0.00000000000E+00 -0.51619326407E+03  0.51619482637E+03  0.12699999809E+01 0. -1.
    10030    2    1    2    0    0  0.00000000000E+00  0.00000000000E+00 -0.33257625395E+02  0.99913213493E+03  0.99857846632E+03 0.  0.
        3    1    3    3  502    0  0.11412692442E+03 -0.41399707299E+02  0.46794420164E+03  0.48343632123E+03  0.10100000352E+00 0.  1.
       -3    1    3    3    0  502 -0.11412692442E+03  0.41399707299E+02 -0.50120182703E+03  0.51569581369E+03  0.10100000352E+00 0. -1.
</event>
<event>
 5   0  0.5826939E-04  0.1006229E+04  0.7818609E-02  0.9301740E-01
        1   -1    0    0  501    0  0.00000000000E+00  0.00000000000E+00  0.12931771287E+04  0.12931771287E+04  0.50400001928E-02 0. -1.
       -1   -1    0    0    0  501  0.00000000000E+00  0.00000000000E+00 -0.19573804766E+03  0.19573804773E+03  0.50400001928E-02 0.  1.
    10030    2    1    2    0    0  0.00000000000E+00  0.00000000000E+00  0.10974390811E+04  0.14889151765E+04  0.10062285357E+04 0.  0.
        1    1    3    3  502    0 -0.29444446333E+03  0.17484702175E+02 -0.54374748890E+02  0.29993310944E+03  0.50400001928E-02 0.  1.
       -1    1    3    3    0  502  0.29444446333E+03 -0.17484702175E+02  0.11518138300E+04  0.11889820670E+04  0.50400001928E-02 0. -1.
</event>
<event>
 5   0  0.5888774E-04  0.1000258E+04  0.7818609E-02  0.9308261E-01
       -1   -1    0    0    0  501  0.00000000000E+00  0.00000000000E+00  0.18710899405E+03  0.18710899411E+03  0.50400001928E-02 0.  1.
        1   -1    0    0  501    0  0.00000000000E+00  0.00000000000E+00 -0.13368101185E+04  0.13368101185E+04  0.50400001928E-02 0. -1.
    10030    2    1    2    0    0  0.00000000000E+00  0.00000000000E+00 -0.11497011245E+04  0.15239191126E+04  0.10002583598E+04 0.  0.
        2    1    3    3  502    0  0.36938347937E+03  0.15355105305E+03 -0.10321801194E+04  0.11069859437E+04  0.25500000920E-02 0. -1.
       -2    1    3    3    0  502 -0.36938347937E+03 -0.15355105305E+03 -0.11752100513E+03  0.41693316896E+03  0.25500000920E-02 0.  1.
</event>
<event>
 5   0  0.9741826E-04  0.1001754E+04  0.7818609E-02  0.9306623E-01
       -2   -1    0    0    0  501  0.00000000000E+00  0.00000000000E+00  0.79465746207E+03  0.79465746208E+03  0.25500000920E-02 0. -1.
        2   -1    0    0  501    0  0.00000000000E+00  0.00000000000E+00 -0.31570547586E+03  0.31570547587E+03  0.25500000920E-02 0.  1.
    10030    2    1    2    0    0  0.00000000000E+00  0.00000000000E+00  0.47895198621E+03  0.11103629380E+04  0.10017538864E+04 0.  0.
        3    1    3    3  502    0  0.34350628077E+03 -0.69329903565E+02  0.63615138415E+03  0.72628630320E+03  0.10100000352E+00 0. -1.
       -3    1    3    3    0  502 -0.34350628077E+03  0.69329903565E+02 -0.15719939794E+03  0.38407663476E+03  0.10100000352E+00 0.  1.
</event>
<event>
 5   0  0.5888774E-04  0.1000433E+04  0.7818609E-02  0.9308070E-01
        1   -1    0    0  501    0  0.00000000000E+00  0.00000000000E+00  0.39433996203E+03  0.39433996206E+03  0.50400001928E-02 0. -1.
       -1   -1    0    0    0  501  0.00000000000E+00  0.00000000000E+00 -0.63452014872E+03  0.63452014874E+03  0.50400001928E-02 0.  1.
    10030    2    1    2    0    0  0.00000000000E+00  0.00000000000E+00 -0.24018018669E+03  0.10288601108E+04  0.10004332089E+04 0.  0.
        2    1    3    3  502    0 -0.32823095296E+03 -0.34433097857E+03 -0.27913656327E+03  0.55155833984E+03  0.25500000920E-02 0.  1.
       -2    1    3    3    0  502  0.32823095296E+03  0.34433097857E+03  0.38956376580E+02  0.47730177096E+03  0.25500000920E-02 0. -1.
</event>
<event>
 5   0  0.9674819E-04  0.1003292E+04  0.7818609E-02  0.9304942E-01
        2   -1    0    0  501    0  0.00000000000E+00  0.00000000000E+00  0.79192144487E+03  0.79192144487E+03  0.25500000920E-02 0. -1.
       -2   -1    0    0    0  501  0.00000000000E+00  0.00000000000E+00 -0.31776956476E+03  0.31776956477E+03  0.25500000920E-02 0.  1.
    10030    2    1    2    0    0  0.00000000000E+00  0.00000000000E+00  0.47415188011E+03  0.11096910096E+04  0.10032916483E+04 0.  0.
        4    1    3    3  502    0 -0.27236574614E+03 -0.37881173917E+03  0.33233884249E+02  0.46774730076E+03  0.12699999809E+01 0.  1.
       -4    1    3    3    0  502  0.27236574614E+03  0.37881173917E+03  0.44091799586E+03  0.64194370889E+03  0.12699999809E+01 0. -1.
</event>
<event>
 5   0  0.5758786E-04  0.9960653E+03  0.7818609E-02  0.9312871E-01
       -1   -1    0    0    0  501  0.00000000000E+00  0.00000000000E+00  0.18777932457E+03  0.18777932463E+03  0.50400001928E-02 0.  1.
        1   -1    0    0  501    0  0.00000000000E+00  0.00000000000E+00 -0.13208935636E+04  0.13208935636E+04  0.50400001928E-02 0. -1.
    10030    2    1    2    0    0  0.00000000000E+00  0.00000000000E+00 -0.11331142390E+04  0.15086728882E+04  0.99606526141E+03 0.  0.
        3    1    3    3  502    0  0.33703664142E+03 -0.42513941159E+02 -0.11181732395E+04  0.11686370423E+04  0.10100000352E+00 0. -1.
       -3    1    3    3    0  502 -0.33703664142E+03  0.42513941159E+02 -0.14940999510E+02  0.34003584594E+03  0.10100000352E+00 0.  1.
</event>
<event>
 5   0  0.5826939E-04  0.9999648E+03  0.7818609E-02  0.9308583E-01
        1   -1    0    0  501    0  0.00000000000E+00  0.00000000000E+00  0.76753502433E+03  0.76753502435E+03  0.50400001928E-02 0. -1.
       -1   -1    0    0    0  501  0.00000000000E+00  0.00000000000E+00 -0.32569513130E+03  0.32569513134E+03  0.50400001928E-02 0.  1.
    10030    2    1    2    0    0  0.00000000000E+00  0.00000000000E+00  0.44183989303E+03  0.10932301557E+04  0.99996484050E+03 0.  0.
        1    1    3    3  502    0  0.18047634025E+03  0.11252237758E+03 -0.27377584843E+03  0.34667882839E+03  0.50400001928E-02 0.  1.
       -1    1    3    3    0  502 -0.18047634025E+03 -0.11252237758E+03  0.71561574146E+03  0.74655132730E+03  0.50400001928E-02 0. -1.
</event>
<event>
 5   0  0.9674819E-04  0.9998340E+03  0.7818609E-02  0.9308727E-01
       -2   -1    0    0    0  501  0.00000000000E+00  0.00000000000E+00  0.36198860994E+03  0.36198860995E+03  0.25500000920E-02 0. -1.
        2   -1    0    0  501    0  0.00000000000E+00  0.00000000000E+00 -0.69040012984E+03  0.69040012985E+03  0.25500000920E-02 0.  1.
    10030    2    1    2    0    0  0.00000000000E+00  0.00000000000E+00 -0.32841151990E+03  0.10523887398E+04  0.99983395284E+03 0.  0.
        4    1    3    3  502    0  0.36502050221E+03 -0.28618799422E+03 -0.36047946433E+03  0.58744411834E+03  0.12699999809E+01 0.  1.
       -4    1    3    3    0  502 -0.36502050221E+03  0.28618799422E+03  0.32067944431E+02  0.46494462146E+03  0.12699999809E+01 0. -1.
</event>
<event>
 5   0  0.1020150E-03  0.1001996E+04  0.7818609E-02  0.9306358E-01
        2   -1    0    0  501    0  0.00000000000E+00  0.00000000000E+00  0.65287480536E+03  0.65287480536E+03  0.25500000920E-02 0. -1.
       -2   -1    0    0    0  501  0.00000000000E+00  0.00000000000E+00 -0.38445192844E+03  0.38445192844E+03  0.25500000920E-02 0.  1.
    10030    2    1    2    0    0  0.00000000000E+00  0.00000000000E+00  0.26842287692E+03  0.10373267338E+04  0.10019959640E+04 0.  0.
        5    1    3    3  502    0 -0.44246874141E+03 -0.21833376592E+02  0.37638627198E+03  0.58132950999E+03  0.46999998093E+01 0. -1.
       -5    1    3    3    0  502  0.44246874141E+03  0.21833376592E+02 -0.10796339506E+03  0.45599722381E+03  0.46999998093E+01 0.  1.
</event>
<event>
 5   0  0.5888774E-04  0.1000316E+04  0.7818609E-02  0.9308198E-01
        1   -1    0    0  501    0  0.00000000000E+00  0.00000000000E+00  0.40182061959E+03  0.40182061962E+03  0.50400001928E-02 0. -1.
       -1   -1    0    0    0  501  0.00000000000E+00  0.00000000000E+00 -0.62256198368E+03  0.62256198370E+03  0.50400001928E-02 0.  1.
    10030    2    1    2    0    0  0.00000000000E+00  0.00000000000E+00 -0.22074136409E+03  0.10243826033E+04  0.10003164340E+04 0.  0.
        2    1    3    3  502    0 -0.12997848376E+03  0.41356853947E+03  0.14507989651E+03  0.45714496547E+03  0.25500000920E-02 0. -1.
       -2    1    3    3    0  502  0.12997848376E+03 -0.41356853947E+03 -0.36582126060E+03  0.56723763785E+03  0.25500000920E-02 0.  1.
</event>
<event>
 5   0  0.5888774E-04  0.9998835E+03  0.7818609E-02  0.9308673E-01
       -1   -1    0    0    0  501  0.00000000000E+00  0.00000000000E+00  0.22642834116E+03  0.22642834121E+03  0.50400001928E-02 0. -1.
        1   -1    0    0  501    0  0.00000000000E+00  0.00000000000E+00 -0.11038448856E+04  0.11038448856E+04  0.50400001928E-02 0.  1.
    10030    2    1    2    0    0  0.00000000000E+00  0.00000000000E+00 -0.87741654440E+03  0.13302732268E+04  0.99988352597E+03 0.  0.
        2    1    3    3  502    0  0.24858160247E+01  0.27477489899E+03 -0.99436609527E+03  0.10316352824E+04  0.25500000920E-02 0.  1.
       -2    1    3    3    0  502 -0.24858160247E+01 -0.27477489899E+03  0.11694955086E+03  0.29863794442E+03  0.25500000920E-02 0. -1.
</event>
<event>
 5   0  0.5826939E-04  0.9984770E+03  0.7818609E-02  0.9310217E-01
       -1   -1    0    0    0  501  0.00000000000E+00  0.00000000000E+00  0.36211492224E+03  0.36211492228E+03  0.50400001928E-02 0.  1.
        1   -1    0    0  501    0  0.00000000000E+00  0.00000000000E+00 -0.68828720747E+03  0.68828720749E+03  0.50400001928E-02 0. -1.
    10030    2    1    2    0    0  0.00000000000E+00  0.00000000000E+00 -0.32617228523E+03  0.10504021298E+04  0.99847697748E+03 0.  0.
        1    1    3    3  502    0 -0.11811836811E+03  0.12457003031E+03 -0.65626128239E+03  0.67834247407E+03  0.50400001928E-02 0. -1.
       -1    1    3    3    0  502  0.11811836811E+03 -0.12457003031E+03  0.33008899715E+03  0.37205965570E+03  0.50400001928E-02 0.  1.
</event>
<event>
 5   0  0.5960102E-04  0.9992117E+03  0.7818609E-02  0.9309410E-01
        1   -1    0    0  501    0  0.00000000000E+00  0.00000000000E+00  0.11494589643E+04  0.11494589643E+04  0.50400001928E-02 0.  1.
       -1   -1    0    0    0  501  0.00000000000E+00  0.00000000000E+00 -0.21715084800E+03  0.21715084806E+03  0.50400001928E-02 0. -1.
    10030    2    1    2    0    0  0.00000000000E+00  0.00000000000E+00  0.93230811632E+03  0.13666098124E+04  0.99921166705E+03 0.  0.
        5    1    3    3  502    0  0.10557438759E+03 -0.28478364984E+03 -0.76348005877E+02  0.31320725811E+03  0.46999998093E+01 0. -1.
       -5    1    3    3    0  502 -0.10557438759E+03  0.28478364984E+03  0.10086561222E+04  0.10534025543E+04  0.46999998093E+01 0.  1.
</event>
<event>
 5   0  0.5758786E-04  0.9975061E+03  0.7818609E-02  0.9311284E-01
       -1   -1    0    0    0  501  0.00000000000E+00  0.00000000000E+00  0.40670968208E+03  0.40670968211E+03  0.50400001928E-02 0.  1.
        1   -1    0    0  501    0  0.00000000000E+00  0.00000000000E+00 -0.61162697883E+03  0.61162697885E+03  0.50400001928E-02 0. -1.
    10030    2    1    2    0    0  0.00000000000E+00  0.00000000000E+00 -0.20491729675E+03  0.10183366610E+04  0.99750611855E+03 0.  0.
        3    1    3    3  502    0 -0.27509697697E+03  0.15294293234E+03 -0.49742903992E+03  0.58864721800E+03  0.10100000352E+00 0. -1.
       -3    1    3    3    0  502  0.27509697697E+03 -0.15294293234E+03  0.29251174318E+03  0.42968944296E+03  0.10100000352E+00 0.  1.
</event>
<event>
 5   0  0.1006749E-03  0.1002748E+04  0.7818609E-02  0.9305536E-01
       -2   -1    0    0    0  501  0.00000000000E+00  0.00000000000E+00  0.57002017953E+03  0.57002017953E+03  0.25500000920E-02 0.  1.
        2   -1    0    0  501    0  0.00000000000E+00  0.00000000000E+00 -0.44099454437E+03  0.44099454438E+03  0.25500000920E-02 0. -1.
    10030    2    1    2    0    0  0.00000000000E+00  0.00000000000E+00  0.12902563516E+03  0.10110147239E+04  0.10027478035E+04 0.  0.
        1    1    3    3  502    0 -0.39623552045E+03 -0.29178154887E+03 -0.32387426612E+02  0.49314095892E+03  0.50400001928E-02 0. -1.
       -1    1    3    3    0  502  0.39623552045E+03  0.29178154887E+03  0.16141306177E+03  0.51787376499E+03  0.50400001928E-02 0.  1.
</event>
<event>
 5   0  0.5960102E-04  0.1000670E+04  0.7818609E-02  0.9307810E-01
       -1   -1    0    0    0  501  0.00000000000E+00  0.00000000000E+00  0.24528409138E+03  0.24528409144E+03  0.50400001928E-02 0.  1.
        1   -1    0    0  501    0  0.00000000000E+00  0.00000000000E+00 -0.10205935483E+04  0.10205935483E+04  0.50400001928E-02 0. -1.
    10030    2    1    2    0    0  0.00000000000E+00  0.00000000000E+00 -0.77530945695E+03  0.12658776398E+04  0.10006704976E+04 0.  0.
        5    1    3    3  502    0  0.37778466204E+03 -0.31727280824E+03 -0.49296404535E+03  0.69743739915E+03  0.46999998093E+01 0.  1.
       -5    1    3    3    0  502 -0.37778466204E+03  0.31727280824E+03 -0.28234541160E+03  0.56844024063E+03  0.46999998093E+01 0. -1.
</event>
<event>
 5   0  0.5826939E-04  0.9982685E+03  0.7818609E-02  0.9310446E-01
       -1   -1    0    0    0  501  0.00000000000E+00  0.00000000000E+00  0.26289511990E+03  0.26289511994E+03  0.50400001928E-02 0.  1.
        1   -1    0    0  501    0  0.00000000000E+00  0.00000000000E+00 -0.94765927045E+03  0.94765927046E+03  0.50400001928E-02 0. -1.
    10030    2    1    2    0    0  0.00000000000E+00  0.00000000000E+00 -0.68476415055E+03  0.12105543904E+04  0.99826849607E+03 0.  0.
        1    1    3    3  502    0  0.35277948753E+02 -0.82713290621E+02  0.25299154276E+03  0.26849719337E+03  0.50400001928E-02 0.  1.
       -1    1    3    3    0  502 -0.35277948753E+02  0.82713290621E+02 -0.93775569332E+03  0.94205719704E+03  0.50400001928E-02 0. -1.
</event>
<event>
 5   0  0.5826939E-04  0.1004762E+04  0.7818609E-02  0.9303337E-01
        1   -1    0    0  501    0  0.00000000000E+00  0.00000000000E+00  0.77737391195E+03  0.77737391197E+03  0.50400001928E-02 0.  1.
       -1   -1    0    0    0  501  0.00000000000E+00  0.00000000000E+00 -0.32466599343E+03  0.32466599347E+03  0.50400001928E-02 0. -1.
    10030    2    1    2    0    0  0.00000000000E+00  0.00000000000E+00  0.45270791852E+03  0.11020399054E+04  0.10047624066E+04 0.  0.
        1    1    3    3  502    0  0.40165150043E+03 -0.30152950632E+03  0.23946550000E+03  0.55640605379E+03  0.50400001928E-02 0.  1.
       -1    1    3    3    0  502 -0.40165150043E+03  0.30152950632E+03  0.21324241853E+03  0.54563385165E+03  0.50400001928E-02 0. -1.
</event>
<event>
 5   0  0.5888774E-04  0.1002245E+04  0.7818609E-02  0.9306085E-01
        1   -1    0    0  501    0  0.00000000000E+00  0.00000000000E+00  0.18642797398E+04  0.18642797399E+04  0.50400001928E-02 0. -1.
       -1   -1    0    0    0  501  0.00000000000E+00  0.00000000000E+00 -0.13470296421E+03  0.13470296430E+03  0.50400001928E-02 0.  1.
    10030    2    1    2    0    0  0.00000000000E+00  0.00000000000E+00  0.17295767756E+04  0.19989827042E+04  0.10022454932E+04 0.  0.
        2    1    3    3  502    0  0.26432494079E+03 -0.30796858083E+03  0.14510901021E+04  0.15067762958E+04  0.25500000920E-02 0. -1.
       -2    1    3    3    0  502 -0.26432494079E+03  0.30796858083E+03  0.27848667355E+03  0.49220640838E+03  0.25500000920E-02 0.  1.
</event>
<event>
 5   0  0.5758786E-04  0.9983038E+03  0.7818609E-02  0.9310407E-01
       -1   -1    0    0    0  501  0.00000000000E+00  0.00000000000E+00  0.19820136871E+03  0.19820136877E+03  0.50400001928E-02 0. -1.
        1   -1    0    0  501    0  0.00000000000E+00  0.00000000000E+00 -0.12570680984E+04  0.12570680984E+04  0.50400001928E-02 0.  1.
    10030    2    1    2    0    0  0.00000000000E+00  0.00000000000E+00 -0.10588667297E+04  0.14552694672E+04  0.99830379687E+03 0.  0.
        3    1    3    3  502    0 -0.36627229747E+03  0.28998241018E+03 -0.27315495227E+03  0.54116433018E+03  0.10100000352E+00 0. -1.
       -3    1    3    3    0  502  0.36627229747E+03 -0.28998241018E+03 -0.78571177741E+03  0.91410513699E+03  0.10100000352E+00 0.  1.
</event>
<event>
 5   0  0.1006749E-03  0.9987859E+03  0.7818609E-02  0.9309877E-01
       -2   -1    0    0    0  501  0.00000000000E+00  0.00000000000E+00  0.16809322269E+03  0.16809322271E+03  0.25500000920E-02 0.  1.
        2   -1    0    0  501    0  0.00000000000E+00  0.00000000000E+00 -0.14836608222E+04  0.14836608222E+04  0.25500000920E-02 0. -1.
    10030    2    1    2    0    0  0.00000000000E+00  0.00000000000E+00 -0.13155675996E+04  0.16517540450E+04  0.99878592103E+03 0.  0.
        1    1    3    3  502    0 -0.36242638784E+03  0.27525797820E+02 -0.12241405482E+04  0.12769614865E+04  0.50400001928E-02 0. -1.
       -1    1    3    3    0  502  0.36242638784E+03 -0.27525797820E+02 -0.91427051339E+02  0.37479255848E+03  0.50400001928E-02 0.  1.
</event>
<event>
 5   0  0.9741826E-04  0.9995516E+03  0.7818609E-02  0.9309037E-01
       -2   -1    0    0    0  501  0.00000000000E+00  0.00000000000E+00  0.95975246361E+03  0.95975246361E+03  0.25500000920E-02 0. -1.
        2   -1    0    0  501    0  0.00000000000E+00  0.00000000000E+00 -0.26025025710E+03  0.26025025711E+03  0.25500000920E-02 0.  1.
    10030    2    1    2    0    0  0.00000000000E+00  0.00000000000E+00  0.69950220651E+03  0.12200027207E+04  0.99955155027E+03 0.  0.
        3    1    3    3  502    0 -0.18498344504E+02 -0.21648387580E+03 -0.19958912797E+03  0.29503099403E+03  0.10100000352E+00 0.  1.
       -3    1    3    3    0  502  0.18498344504E+02  0.21648387580E+03  0.89909133448E+03  0.92497172669E+03  0.10100000352E+00 0. -1.
</event>
<event>
 5   0  0.5758786E-04  0.1002371E+04  0.7818609E-02  0.9305948E-01
        1   -1    0    0  501    0  0.00000000000E+00  0.00000000000E+00  0.49960166160E+03  0.49960166162E+03  0.50400001928E-02 0.  1.
       -1   -1    0    0    0  501  0.00000000000E+00  0.00000000000E+00 -0.50277461666E+03  0.50277461669E+03  0.50400001928E-02 0. -1.
    10030    2    1    2    0    0  0.00000000000E+00  0.00000000000E+00 -0.31729550661E+01  0.10023762783E+04  0.10023712564E+04 0.  0.
        3    1    3    3  502    0 -0.31388635641E+03  0.42852005163E+02 -0.38995176424E+03  0.50241748350E+03  0.10100000352E+00 0. -1.
       -3    1    3    3    0  502  0.31388635641E+03 -0.42852005163E+02  0.38677880917E+03  0.49995879482E+03  0.10100000352E+00 0.  1.
</event>
<event>
 5   0  0.3854625E-04  0.1015984E+04  0.7818609E-02  0.9291185E-01
        4   -1    0    0  501    0  0.00000000000E+00  0.00000000000E+00  0.38184232963E+03  0.38184444162E+03  0.12699999809E+01 0. -1.
       -4   -1    0    0    0  501  0.00000000000E+00  0.00000000000E+00 -0.67581348943E+03  0.67581468273E+03  0.12699999809E+01 0.  1.
    10030    2    1    2    0    0  0.00000000000E+00  0.00000000000E+00 -0.29397115980E+03  0.10576591244E+04  0.10159841438E+04 0.  0.
        2    1    3    3  502    0  0.89460896199E+02  0.26087091744E+03 -0.59109845099E+03  0.65226855381E+03  0.25500000920E-02 0.  1.
       -2    1    3    3    0  502 -0.89460896199E+02 -0.26087091744E+03  0.29712729119E+03  0.40539057055E+03  0.25500000920E-02 0. -1.
</event>
<event>
 5   0  0.5768102E-04  0.9951842E+03  0.7818609E-02  0.9313843E-01
        1   -1    0    0  501    0  0.00000000000E+00  0.00000000000E+00  0.31218450469E+03  0.31218450473E+03  0.50400001928E-02 0.  1.
       -1   -1    0    0    0  501  0.00000000000E+00  0.00000000000E+00 -0.79311398318E+03  0.79311398320E+03  0.50400001928E-02 0. -1.
    10030    2    1    2    0    0  0.00000000000E+00  0.00000000000E+00 -0.48092947850E+03  0.11052984879E+04  0.99518419608E+03 0.  0.
        4    1    3    3  502    0  0.45233667205E+03  0.15558920675E+03 -0.88262240256E+02  0.48642399416E+03  0.12699999809E+01 0. -1.
       -4    1    3    3    0  502 -0.45233667205E+03 -0.15558920675E+03 -0.39266723824E+03  0.61887449376E+03  0.12699999809E+01 0.  1.
</event>
<event>
 5   0  0.5888774E-04  0.1001262E+04  0.7818609E-02  0.9307161E-01
        1   -1    0    0  501    0  0.00000000000E+00  0.00000000000E+00  0.25948974774E+03  0.25948974779E+03  0.50400001928E-02 0.  1.
       -1   -1    0    0    0  501  0.00000000000E+00  0.00000000000E+00 -0.96586326638E+03  0.96586326639E+03  0.50400001928E-02 0. -1.
    10030    2    1    2    0    0  0.00000000000E+00  0.00000000000E+00 -0.70637351864E+03  0.12253530142E+04  0.10012624339E+04 0.  0.
        2    1    3    3  502    0  0.23671939781E+03  0.43115737812E+03 -0.23904504103E+03  0.54687776482E+03  0.25500000920E-02 0.  1.
       -2    1    3    3    0  502 -0.23671939781E+03 -0.43115737812E+03 -0.46732847761E+03  0.67847524936E+03  0.25500000920E-02 0. -1.
</event>
<event>
 5   0  0.5826939E-04  0.9993989E+03  0.7818609E-02  0.9309204E-01
        1   -1    0    0  501    0  0.00000000000E+00  0.00000000000E+00  0.77509115691E+03  0.77509115693E+03  0.50400001928E-02 0.  1.
       -1   -1    0    0    0  501  0.00000000000E+00  0.00000000000E+00 -0.32215504275E+03  0.32215504279E+03  0.50400001928E-02 0. -1.
    10030    2    1    2    0    0  0.00000000000E+00  0.00000000000E+00  0.45293611416E+03  0.10972461997E+04  0.99939886896E+03 0.  0.
        1    1    3    3  502    0 -0.10109487475E+03  0.16383963246E+03 -0.27980352817E+03  0.33963747330E+03  0.50400001928E-02 0. -1.
       -1    1    3    3    0  502  0.10109487475E+03 -0.16383963246E+03  0.73273964234E+03  0.75760872641E+03  0.50400001928E-02 0.  1.
</event>
<event>
 5   0  0.5960102E-04  0.9990562E+03  0.7818609E-02  0.9309580E-01
       -1   -1    0    0    0  501  0.00000000000E+00  0.00000000000E+00  0.64891235612E+03  0.64891235614E+03  0.50400001928E-02 0. -1.
        1   -1    0    0  501    0  0.00000000000E+00  0.00000000000E+00 -0.38453320186E+03  0.38453320190E+03  0.50400001928E-02 0.  1.
    10030    2    1    2    0    0  0.00000000000E+00  0.00000000000E+00  0.26437915426E+03  0.10334455580E+04  0.99905624677E+03 0.  0.
        5    1    3    3  502    0 -0.15343345822E+03  0.32271673488E+03 -0.22884932511E+03  0.42436072000E+03  0.46999998093E+01 0.  1.
       -5    1    3    3    0  502  0.15343345822E+03 -0.32271673488E+03  0.49322847937E+03  0.60908483804E+03  0.46999998093E+01 0. -1.
</event>
<event>
 5   0  0.1020150E-03  0.1001257E+04  0.7818609E-02  0.9307167E-01
       -2   -1    0    0    0  501  0.00000000000E+00  0.00000000000E+00  0.21450307813E+03  0.21450307815E+03  0.25500000920E-02 0. -1.
        2   -1    0    0  501    0  0.00000000000E+00  0.00000000000E+00 -0.11684161337E+04  0.11684161337E+04  0.25500000920E-02 0.  1.
    10030    2    1    2    0    0  0.00000000000E+00  0.00000000000E+00 -0.95391305554E+03  0.13829192118E+04  0.10012569245E+04 0.  0.
        5    1    3    3  502    0  0.45324628626E+03 -0.14941915640E+03 -0.26818080296E+03  0.54744982727E+03  0.46999998093E+01 0. -1.
       -5    1    3    3    0  502 -0.45324628626E+03  0.14941915640E+03 -0.68573225257E+03  0.83546938455E+03  0.46999998093E+01 0.  1.
</event>
<event>
 5   0  0.9674819E-04  0.1003285E+04  0.7818609E-02  0.9304949E-01
       -2   -1    0    0    0  501  0.00000000000E+00  0.00000000000E+00  0.16990483910E+03  0.16990483912E+03  0.25500000920E-02 0.  1.
        2   -1    0    0  501    0  0.00000000000E+00  0.00000000000E+00 -0.14810953561E+04  0.14810953561E+04  0.25500000920E-02 0. -1.
    10030    2    1    2    0    0  0.00000000000E+00  0.00000000000E+00 -0.13111905170E+04  0.16510001952E+04  0.10032851403E+04 0.  0.
        4    1    3    3  502    0 -0.17562496268E+03 -0.37248893916E+03 -0.11269697258E+04  0.11998560385E+04  0.12699999809E+01 0. -1.
       -4    1    3    3    0  502  0.17562496268E+03  0.37248893916E+03 -0.18422079113E+03  0.45114415667E+03  0.12699999809E+01 0.  1.
</event>
<event>
 5   0  0.5960102E-04  0.9932665E+03  0.7818609E-02  0.9315961E-01
        1   -1    0    0  501    0  0.00000000000E+00  0.00000000000E+00  0.25386746851E+03  0.25386746856E+03  0.50400001928E-02 0.  1.
       -1   -1    0    0    0  501  0.00000000000E+00  0.00000000000E+00 -0.97154851529E+03  0.97154851530E+03  0.50400001928E-02 0. -1.
    10030    2    1    2    0    0  0.00000000000E+00  0.00000000000E+00 -0.71768104678E+03  0.12254159839E+04  0.99326645398E+03 0.  0.
        5    1    3    3  502    0  0.27283300208E+02  0.31229222164E+03  0.11634585282E+03  0.33440881811E+03  0.46999998093E+01 0.  1.
       -5    1    3    3    0  502 -0.27283300208E+02 -0.31229222164E+03 -0.83402689960E+03  0.89100716575E+03  0.46999998093E+01 0. -1.
</event>
<event>
 5   0  0.3854625E-04  0.1004160E+04  0.7818609E-02  0.9303994E-01
        3   -1    0    0  501    0  0.00000000000E+00  0.00000000000E+00  0.29248808405E+03  0.29248810149E+03  0.10100000352E+00 0. -1.
       -3   -1    0    0    0  501  0.00000000000E+00  0.00000000000E+00 -0.86186151320E+03  0.86186151912E+03  0.10100000352E+00 0.  1.
    10030    2    1    2    0    0  0.00000000000E+00  0.00000000000E+00 -0.56937342915E+03  0.11543496206E+04  0.10041598203E+04 0.  0.
        2    1    3    3  502    0  0.18895278330E+02 -0.32559232976E+03 -0.72350972873E+03  0.79362064257E+03  0.25500000920E-02 0.  1.
       -2    1    3    3    0  502 -0.18895278330E+02  0.32559232976E+03  0.15413629958E+03  0.36072897803E+03  0.25500000920E-02 0. -1.
</event>
<event>
 5   0  0.1006749E-03  0.9925929E+03  0.7818609E-02  0.9316706E-01
       -2   -1    0    0    0  501  0.00000000000E+00  0.00000000000E+00  0.14087258940E+03  0.14087258942E+03  0.25500000920E-02 0.  1.
        2   -1    0    0  501    0  0.00000000000E+00  0.00000000000E+00 -0.17484604950E+04  0.17484604950E+04  0.25500000920E-02 0. -1.
    10030    2    1    2    0    0  0.00000000000E+00  0.00000000000E+00 -0.16075879056E+04  0.18893330844E+04  0.99259288212E+03 0.  0.
        1    1    3    3  502    0  0.38982622701E+03 -0.22014179934E+03 -0.39607162177E+03  0.59774545475E+03  0.50400001928E-02 0.  1.
       -1    1    3    3    0  502 -0.38982622701E+03  0.22014179934E+03 -0.12115162838E+04  0.12915876297E+04  0.50400001928E-02 0. -1.
</event>
<event>
 5   0  0.9674819E-04  0.1002465E+04  0.7818609E-02  0.9305845E-01
        2   -1    0    0  501    0  0.00000000000E+00  0.00000000000E+00  0.18806228196E+04  0.18806228196E+04  0.25500000920E-02 0. -1.
       -2   -1    0    0    0  501  0.00000000000E+00  0.00000000000E+00 -0.13359086429E+03  0.13359086432E+03  0.25500000920E-02 0.  1.
    10030    2    1    2    0    0  0.00000000000E+00  0.00000000000E+00  0.17470319553E+04  0.20142136840E+04  0.10024650177E+04 0.  0.
        4    1    3    3  502    0  0.16976295138E+03  0.24391176584E+03  0.62510991522E+02  0.30368017080E+03  0.12699999809E+01 0.  1.
       -4    1    3    3    0  502 -0.16976295138E+03 -0.24391176584E+03  0.16845209638E+04  0.17105335132E+04  0.12699999809E+01 0. -1.
</event>
<event>
 5   0  0.9674819E-04  0.9994485E+03  0.7818609E-02  0.9309150E-01
        2   -1    0    0  501    0  0.00000000000E+00  0.00000000000E+00  0.17522302403E+04  0.17522302403E+04  0.25500000920E-02 0. -1.
       -2   -1    0    0    0  501  0.00000000000E+00  0.00000000000E+00 -0.14251797722E+03  0.14251797724E+03  0.25500000920E-02 0.  1.
    10030    2    1    2    0    0  0.00000000000E+00  0.00000000000E+00  0.16097122631E+04  0.18947482175E+04  0.99944846689E+03 0.  0.
        4    1    3    3  502    0  0.35438007463E+03  0.31001738007E+03  0.11222342305E+04  0.12170075161E+04  0.12699999809E+01 0. -1.
       -4    1    3    3    0  502 -0.35438007463E+03 -0.31001738007E+03  0.48747803258E+03  0.67774070144E+03  0.12699999809E+01 0.  1.
</event>
<event>
 5   0  0.5768102E-04  0.1001821E+04  0.7818609E-02  0.9306550E-01
        1   -1    0    0  501    0  0.00000000000E+00  0.00000000000E+00  0.45709620872E+03  0.45709620875E+03  0.50400001928E-02 0. -1.
       -1   -1    0    0    0  501  0.00000000000E+00  0.00000000000E+00 -0.54892480058E+03  0.54892480061E+03  0.50400001928E-02 0.  1.
    10030    2    1    2    0    0  0.00000000000E+00  0.00000000000E+00 -0.91828591864E+02  0.10060210094E+04  0.10018212320E+04 0.  0.
        4    1    3    3  502    0 -0.21459908177E+03  0.28864175482E+03 -0.39600598534E+03  0.53496652405E+03  0.12699999809E+01 0.  1.
       -4    1    3    3    0  502  0.21459908177E+03 -0.28864175482E+03  0.30417739348E+03  0.47105448531E+03  0.12699999809E+01 0. -1.
</event>
<event>
 5   0  0.5758786E-04  0.1000270E+04  0.7818609E-02  0.9308249E-01
       -1   -1    0    0    0  501  0.00000000000E+00  0.00000000000E+00  0.29518522540E+03  0.29518522545E+03  0.50400001928E-02 0. -1.
        1   -1    0    0  501    0  0.00000000000E+00  0.00000000000E+00 -0.84738324572E+03  0.84738324574E+03  0.50400001928E-02 0.  1.
    10030    2    1    2    0    0  0.00000000000E+00  0.00000000000E+00 -0.55219802032E+03  0.11425684712E+04  0.10002699924E+04 0.  0.
        3    1    3    3  502    0 -0.19820570561E+03  0.31801710421E+03 -0.65445207357E+03  0.75414050886E+03  0.10100000352E+00 0. -1.
       -3    1    3    3    0  502  0.19820570561E+03 -0.31801710421E+03  0.10225405325E+03  0.38842796232E+03  0.10100000352E+00 0.  1.
</event>
<event>
 5   0  0.5758786E-04  0.9992291E+03  0.7818609E-02  0.9309391E-01
        1   -1    0    0  501    0  0.00000000000E+00  0.00000000000E+00  0.45489397932E+03  0.45489397934E+03  0.50400001928E-02 0.  1.
       -1   -1    0    0    0  501  0.00000000000E+00  0.00000000000E+00 -0.54873156558E+03  0.54873156561E+03  0.50400001928E-02 0. -1.
    10030    2    1    2    0    0  0.00000000000E+00  0.00000000000E+00 -0.93837586266E+02  0.10036255450E+04  0.99922907378E+03 0.  0.
        3    1    3    3  502    0  0.65642601854E+02  0.47966444568E+03 -0.17086248359E+03  0.51340133437E+03  0.10100000352E+00 0. -1.
       -3    1    3    3    0  502 -0.65642601854E+02 -0.47966444568E+03  0.77024897326E+02  0.49022421058E+03  0.10100000352E+00 0.  1.
</event>
<event>
 5   0  0.9674819E-04  0.1004394E+04  0.7818609E-02  0.9303738E-01
        2   -1    0    0  501    0  0.00000000000E+00  0.00000000000E+00  0.59900039290E+03  0.59900039291E+03  0.25500000920E-02 0. -1.
       -2   -1    0    0    0  501  0.00000000000E+00  0.00000000000E+00 -0.42103795379E+03  0.42103795380E+03  0.25500000920E-02 0.  1.
    10030    2    1    2    0    0  0.00000000000E+00  0.00000000000E+00  0.17796243911E+03  0.10200383467E+04  0.10043941453E+04 0.  0.
        4    1    3    3  502    0  0.72413145559E+02  0.49532734963E+03  0.48263851228E+02  0.50291535985E+03  0.12699999809E+01 0.  1.
       -4    1    3    3    0  502 -0.72413145559E+02 -0.49532734963E+03  0.12969858788E+03  0.51712298686E+03  0.12699999809E+01 0. -1.
</event>
<event>
 5   0  0.5768102E-04  0.9988794E+03  0.7818609E-02  0.9309775E-01
        1   -1    0    0  501    0  0.00000000000E+00  0.00000000000E+00  0.55262510671E+03  0.55262510673E+03  0.50400001928E-02 0.  1.
       -1   -1    0    0    0  501  0.00000000000E+00  0.00000000000E+00 -0.45137291296E+03  0.45137291299E+03  0.50400001928E-02 0. -1.
    10030    2    1    2    0    0  0.00000000000E+00  0.00000000000E+00  0.10125219375E+03  0.10039980197E+04  0.99887938054E+03 0.  0.
        4    1    3    3  502    0  0.49292590880E+03  0.77352369129E+02  0.72625483137E+02  0.50421762591E+03  0.12699999809E+01 0. -1.
       -4    1    3    3    0  502 -0.49292590880E+03 -0.77352369129E+02  0.28626710610E+02  0.49978039381E+03  0.12699999809E+01 0.  1.
</event>
<event>
 5   0  0.1006749E-03  0.1000181E+04  0.7818609E-02  0.9308346E-01
       -2   -1    0    0    0  501  0.00000000000E+00  0.00000000000E+00  0.30145055062E+03  0.30145055063E+03  0.25500000920E-02 0. -1.
        2   -1    0    0  501    0  0.00000000000E+00  0.00000000000E+00 -0.82962352179E+03  0.82962352180E+03  0.25500000920E-02 0.  1.
    10030    2    1    2    0    0  0.00000000000E+00  0.00000000000E+00 -0.52817297118E+03  0.11310740724E+04  0.10001809186E+04 0.  0.
        1    1    3    3  502    0  0.18245301018E+03 -0.11584313064E+03  0.24591149557E+03  0.32738539295E+03  0.50400001928E-02 0. -1.
       -1    1    3    3    0  502 -0.18245301018E+03  0.11584313064E+03 -0.77408446674E+03  0.80368867948E+03  0.50400001928E-02 0.  1.
</event>
<event>
 5   0  0.5960102E-04  0.1000157E+04  0.7818609E-02  0.9308372E-01
       -1   -1    0    0    0  501  0.00000000000E+00  0.00000000000E+00  0.21042319564E+03  0.21042319570E+03  0.50400001928E-02 0.  1.
        1   -1    0    0  501    0  0.00000000000E+00  0.00000000000E+00 -0.11884554444E+04  0.11884554444E+04  0.50400001928E-02 0. -1.
    10030    2    1    2    0    0  0.00000000000E+00  0.00000000000E+00 -0.97803224880E+03  0.13988786401E+04  0.10001571727E+04 0.  0.
        5    1    3    3  502    0  0.17025922882E+03 -0.32341660405E+03 -0.11686027575E+02  0.36571185107E+03  0.46999998093E+01 0.  1.
       -5    1    3    3    0  502 -0.17025922882E+03  0.32341660405E+03 -0.96634622123E+03  0.10331667891E+04  0.46999998093E+01 0. -1.
</event>
<event>
 5   0  0.9741826E-04  0.9885235E+03  0.7818609E-02  0.9321222E-01
       -2   -1    0    0    0  501  0.00000000000E+00  0.00000000000E+00  0.20944490470E+03  0.20944490472E+03  0.25500000920E-02 0.  1.
        2   -1    0    0  501    0  0.00000000000E+00  0.00000000000E+00 -0.11663910692E+04  0.11663910692E+04  0.25500000920E-02 0. -1.
    10030    2    1    2    0    0  0.00000000000E+00  0.00000000000E+00 -0.95694616449E+03  0.13758359739E+04  0.98852347741E+03 0.  0.
        3    1    3    3  502    0  0.44998562886E+03 -0.11878637866E+02 -0.76257431627E+03  0.88552118340E+03  0.10100000352E+00 0. -1.
       -3    1    3    3    0  502 -0.44998562886E+03  0.11878637866E+02 -0.19437184822E+03  0.49031479052E+03  0.10100000352E+00 0.  1.
</event>
<event>
 5   0  0.1006749E-03  0.9990277E+03  0.7818609E-02  0.9309612E-01
        2   -1    0    0  501    0  0.00000000000E+00  0.00000000000E+00  0.18363786735E+04  0.18363786735E+04  0.25500000920E-02 0.  1.
       -2   -1    0    0    0  501  0.00000000000E+00  0.00000000000E+00 -0.13587288930E+03  0.13587288932E+03  0.25500000920E-02 0. -1.
    10030    2    1    2    0    0  0.00000000000E+00  0.00000000000E+00  0.17005057842E+04  0.19722515628E+04  0.99902767975E+03 0.  0.
        1    1    3    3  502    0 -0.75477575023E+01 -0.46361939771E+03  0.48349163561E+03  0.66989855673E+03  0.50400001928E-02 0. -1.
       -1    1    3    3    0  502  0.75477575023E+01  0.46361939771E+03  0.12170141485E+04  0.13023530060E+04  0.50400001928E-02 0.  1.
</event>
<event>
 5   0  0.5960102E-04  0.1000336E+04  0.7818609E-02  0.9308176E-01
       -1   -1    0    0    0  501  0.00000000000E+00  0.00000000000E+00  0.41101894185E+03  0.41101894189E+03  0.50400001928E-02 0.  1.
        1   -1    0    0  501    0  0.00000000000E+00  0.00000000000E+00 -0.60865342829E+03  0.60865342831E+03  0.50400001928E-02 0. -1.
    10030    2    1    2    0    0  0.00000000000E+00  0.00000000000E+00 -0.19763448644E+03  0.10196723702E+04  0.10003361197E+04 0.  0.
        5    1    3    3  502    0  0.29601769999E+03  0.21770899517E+02  0.31151273966E+03  0.43030538893E+03  0.46999998093E+01 0.  1.
       -5    1    3    3    0  502 -0.29601769999E+03 -0.21770899517E+02 -0.50914722610E+03  0.58936698127E+03  0.46999998093E+01 0. -1.
</event>
<event>
 5   0  0.5888774E-04  0.1000663E+04  0.7818609E-02  0.9307818E-01
        1   -1    0    0  501    0  0.00000000000E+00  0.00000000000E+00  0.49927137038E+03  0.49927137041E+03  0.50400001928E-02 0.  1.
       -1   -1    0    0    0  501  0.00000000000E+00  0.00000000000E+00 -0.50139422718E+03  0.50139422721E+03  0.50400001928E-02 0. -1.
    10030    2    1    2    0    0  0.00000000000E+00  0.00000000000E+00 -0.21228567989E+01  0.10006655976E+04  0.10006633459E+04 0.  0.
        2    1    3    3  502    0 -0.12097569804E+03 -0.23831010524E+03  0.42191110300E+03  0.49943548594E+03  0.25500000920E-02 0.  1.
       -2    1    3    3    0  502  0.12097569804E+03  0.23831010524E+03 -0.42403395980E+03  0.50123011167E+03  0.25500000920E-02 0. -1.
</event>
<event>
 5   0  0.1006006E-03  0.9978235E+03  0.7818609E-02  0.9310935E-01
        2   -1    0    0  501    0  0.00000000000E+00  0.00000000000E+00  0.37252893554E+03  0.37252893555E+03  0.25500000920E-02 0. -1.
       -2   -1    0    0    0  501  0.00000000000E+00  0.00000000000E+00 -0.66817073533E+03  0.66817073533E+03  0.25500000920E-02 0.  1.
    10030    2    1    2    0    0  0.00000000000E+00  0.00000000000E+00 -0.29564179979E+03  0.10406996709E+04  0.99782349702E+03 0.  0.
        2    1    3    3  502    0 -0.21395642985E+03  0.33888354745E+03 -0.45773126855E+03  0.60838912452E+03  0.25500000920E-02 0.  1.
       -2    1    3    3    0  502  0.21395642985E+03 -0.33888354745E+03  0.16208946877E+03  0.43231054637E+03  0.25500000920E-02 0. -1.
</event>
<event>
 5   0  0.1006006E-03  0.9999301E+03  0.7818609E-02  0.9308621E-01
        2   -1    0    0  501    0  0.00000000000E+00  0.00000000000E+00  0.31785349798E+03  0.31785349799E+03  0.25500000920E-02 0. -1.
       -2   -1    0    0    0  501  0.00000000000E+00  0.00000000000E+00 -0.78641592732E+03  0.78641592732E+03  0.25500000920E-02 0.  1.
    10030    2    1    2    0    0  0.00000000000E+00  0.00000000000E+00 -0.46856242934E+03  0.11042694253E+04  0.99993010431E+03 0.  0.
        2    1    3    3  502    0 -0.70819968092E+02 -0.22168274781E+03  0.25439228051E+03  0.34478129437E+03  0.25500000920E-02 0. -1.
       -2    1    3    3    0  502  0.70819968092E+02  0.22168274781E+03 -0.72295470984E+03  0.75948813095E+03  0.25500000920E-02 0.  1.
</event>
<event>
 5   0  0.5758786E-04  0.9990147E+03  0.7818609E-02  0.9309626E-01
        1   -1    0    0  501    0  0.00000000000E+00  0.00000000000E+00  0.19111664815E+04  0.19111664815E+04  0.50400001928E-02 0.  1.
       -1   -1    0    0    0  501  0.00000000000E+00  0.00000000000E+00 -0.13055251859E+03  0.13055251869E+03  0.50400001928E-02 0. -1.
    10030    2    1    2    0    0  0.00000000000E+00  0.00000000000E+00  0.17806139629E+04  0.20417190002E+04  0.99901471003E+03 0.  0.
        3    1    3    3  502    0  0.34328437880E+03  0.27530326007E+02  0.15086681000E+03  0.37598256361E+03  0.10100000352E+00 0. -1.
       -3    1    3    3    0  502 -0.34328437880E+03 -0.27530326007E+02  0.16297471529E+04  0.16657364366E+04  0.10100000352E+00 0.  1.
</event>
<event>
 5   0  0.5888774E-04  0.9983200E+03  0.7818609E-02  0.9310389E-01
        1   -1    0    0  501    0  0.00000000000E+00  0.00000000000E+00  0.45428956905E+03  0.45428956907E+03  0.50400001928E-02 0.  1.
       -1   -1    0    0    0  501  0.00000000000E+00  0.00000000000E+00 -0.54846227535E+03  0.54846227538E+03  0.50400001928E-02 0. -1.
    10030    2    1    2    0    0  0.00000000000E+00  0.00000000000E+00 -0.94172706309E+02  0.10027518445E+04  0.99831997022E+03 0.  0.
        2    1    3    3  502    0 -0.56064080514E+02 -0.68045129368E+02  0.44640663030E+03  0.45502988950E+03  0.25500000920E-02 0.  1.
       -2    1    3    3    0  502  0.56064080514E+02  0.68045129368E+02 -0.54057933661E+03  0.54772195495E+03  0.25500000920E-02 0. -1.
</event>
<event>
 5   0  0.1006749E-03  0.9982745E+03  0.7818609E-02  0.9310439E-01
       -2   -1    0    0    0  501  0.00000000000E+00  0.00000000000E+00  0.35581686711E+03  0.35581686712E+03  0.25500000920E-02 0. -1.
        2   -1    0    0  501    0  0.00000000000E+00  0.00000000000E+00 -0.70018601789E+03  0.70018601790E+03  0.25500000920E-02 0.  1.
    10030    2    1    2    0    0  0.00000000000E+00  0.00000000000E+00 -0.34436915078E+03  0.10560028850E+04  0.99827450190E+03 0.  0.
        1    1    3    3  502    0 -0.13563387486E+02 -0.33119354319E+03  0.22257794238E+03  0.39926691447E+03  0.50400001928E-02 0. -1.
       -1    1    3    3    0  502  0.13563387486E+02  0.33119354319E+03 -0.56694709317E+03  0.65673597054E+03  0.50400001928E-02 0.  1.
</event>
<event>
 5   0  0.5768102E-04  0.1000244E+04  0.7818609E-02  0.9308277E-01
        1   -1    0    0  501    0  0.00000000000E+00  0.00000000000E+00  0.35967627264E+03  0.35967627268E+03  0.50400001928E-02 0. -1.
       -1   -1    0    0    0  501  0.00000000000E+00  0.00000000000E+00 -0.69540923282E+03  0.69540923284E+03  0.50400001928E-02 0.  1.
    10030    2    1    2    0    0  0.00000000000E+00  0.00000000000E+00 -0.33573296018E+03  0.10550855055E+04  0.10002443718E+04 0.  0.
        4    1    3    3  502    0 -0.18918058335E+03 -0.50161880816E+02 -0.65333377671E+03  0.68202063319E+03  0.12699999809E+01 0.  1.
       -4    1    3    3    0  502  0.18918058335E+03  0.50161880816E+02  0.31760081653E+03  0.37306487233E+03  0.12699999809E+01 0. -1.
</event>
<event>
 5   0  0.1006749E-03  0.9991315E+03  0.7818609E-02  0.9309498E-01
        2   -1    0    0  501    0  0.00000000000E+00  0.00000000000E+00  0.13582635703E+04  0.13582635703E+04  0.25500000920E-02 0. -1.
       -2   -1    0    0    0  501  0.00000000000E+00  0.00000000000E+00 -0.18373896797E+03  0.18373896799E+03  0.25500000920E-02 0.  1.
    10030    2    1    2    0    0  0.00000000000E+00  0.00000000000E+00  0.11745246023E+04  0.15420025383E+04  0.99913151617E+03 0.  0.
        1    1    3    3  502    0  0.49943178813E+03  0.13293218502E+01  0.56952603879E+03  0.75749177354E+03  0.50400001928E-02 0.  1.
       -1    1    3    3    0  502 -0.49943178813E+03 -0.13293218502E+01  0.60499856354E+03  0.78451076475E+03  0.50400001928E-02 0. -1.
</event>
<event>
 5   0  0.5826939E-04  0.1001107E+04  0.7818609E-02  0.9307331E-01
        1   -1    0    0  501    0  0.00000000000E+00  0.00000000000E+00  0.33037827539E+03  0.33037827543E+03  0.50400001928E-02 0. -1.
       -1   -1    0    0    0  501  0.00000000000E+00  0.00000000000E+00 -0.75838497044E+03  0.75838497045E+03  0.50400001928E-02 0.  1.
    10030    2    1    2    0    0  0.00000000000E+00  0.00000000000E+00 -0.42800669505E+03  0.10887632459E+04  0.10011072243E+04 0.  0.
        1    1    3    3  502    0 -0.11420973497E+03  0.10160650013E+03  0.30437136237E+03  0.34060192408E+03  0.50400001928E-02 0. -1.
       -1    1    3    3    0  502  0.11420973497E+03 -0.10160650013E+03 -0.73237805742E+03  0.74816132180E+03  0.50400001928E-02 0.  1.
</event>
<event>
 5   0  0.9674819E-04  0.1001443E+04  0.7818609E-02  0.9306964E-01
        2   -1    0    0  501    0  0.00000000000E+00  0.00000000000E+00  0.87481129971E+03  0.87481129971E+03  0.25500000920E-02 0.  1.
       -2   -1    0    0    0  501  0.00000000000E+00  0.00000000000E+00 -0.28660120907E+03  0.28660120908E+03  0.25500000920E-02 0. -1.
    10030    2    1    2    0    0  0.00000000000E+00  0.00000000000E+00  0.58821009064E+03  0.11614125088E+04  0.10014429114E+04 0.  0.
        4    1    3    3  502    0 -0.24682282970E+01 -0.39207886631E+03 -0.67072111934E+02  0.39778412569E+03  0.12699999809E+01 0. -1.
       -4    1    3    3    0  502  0.24682282970E+01  0.39207886631E+03  0.65528220258E+03  0.76362838310E+03  0.12699999809E+01 0.  1.
</event>
<event>
 5   0  0.3854625E-04  0.9875192E+03  0.7818609E-02  0.9322340E-01
       -3   -1    0    0    0  501  0.00000000000E+00  0.00000000000E+00  0.89088705196E+03  0.89088705769E+03  0.10100000352E+00 0.  1.
        3   -1    0    0  501    0  0.00000000000E+00  0.00000000000E+00 -0.27365816884E+03  0.27365818748E+03  0.10100000352E+00 0. -1.
    10030    2    1    2    0    0  0.00000000000E+00  0.00000000000E+00  0.61722888313E+03  0.11645452452E+04  0.98751918152E+03 0.  0.
        2    1    3    3  502    0  0.47370405136E+03 -0.13770347930E+03  0.28385673424E+03  0.56915061457E+03  0.25500000920E-02 0. -1.
       -2    1    3    3    0  502 -0.47370405136E+03  0.13770347930E+03  0.33337214889E+03  0.59539463060E+03  0.25500000920E-02 0.  1.
</event>
<event>
 5   0  0.9741826E-04  0.1002360E+04  0.7818609E-02  0.9305960E-01
        2   -1    0    0  501    0  0.00000000000E+00  0.00000000000E+00  0.16408766264E+04  0.16408766264E+04  0.25500000920E-02 0.  1.
       -2   -1    0    0    0  501  0.00000000000E+00  0.00000000000E+00 -0.15307747355E+03  0.15307747357E+03  0.25500000920E-02 0. -1.
    10030    2    1    2    0    0  0.00000000000E+00  0.00000000000E+00  0.14877991529E+04  0.17939541000E+04  0.10023597127E+04 0.  0.
        3    1    3    3  502    0 -0.18611584347E+03  0.53267186110E+01  0.15766799322E+04  0.15876356950E+04  0.10100000352E+00 0.  1.
       -3    1    3    3    0  502  0.18611584347E+03 -0.53267186110E+01 -0.88880779322E+02  0.20631840503E+03  0.10100000352E+00 0. -1.
</event>
<event>
 5   0  0.1006006E-03  0.1001964E+04  0.7818609E-02  0.9306394E-01
       -2   -1    0    0    0  501  0.00000000000E+00  0.00000000000E+00  0.45141209327E+03  0.45141209328E+03  0.25500000920E-02 0.  1.
        2   -1    0    0  501    0  0.00000000000E+00  0.00000000000E+00 -0.55599480921E+03  0.55599480921E+03  0.25500000920E-02 0. -1.
    10030    2    1    2    0    0  0.00000000000E+00  0.00000000000E+00 -0.10458271594E+03  0.10074069025E+04  0.10019636334E+04 0.  0.
        2    1    3    3  502    0 -0.24124282890E+03  0.24725829928E+03  0.31251308186E+03  0.46583172433E+03  0.25500000920E-02 0.  1.
       -2    1    3    3    0  502  0.24124282890E+03 -0.24725829928E+03 -0.41709579779E+03  0.54157517816E+03  0.25500000920E-02 0. -1.
</event>
<event>
 5   0  0.1006749E-03  0.9923260E+03  0.7818609E-02  0.9317002E-01
       -2   -1    0    0    0  501  0.00000000000E+00  0.00000000000E+00  0.14277789410E+03  0.14277789412E+03  0.25500000920E-02 0. -1.
        2   -1    0    0  501    0  0.00000000000E+00  0.00000000000E+00 -0.17242005114E+04  0.17242005114E+04  0.25500000920E-02 0.  1.
    10030    2    1    2    0    0  0.00000000000E+00  0.00000000000E+00 -0.15814226173E+04  0.18669784056E+04  0.99232599090E+03 0.  0.
        1    1    3    3  502    0 -0.46003335975E+03  0.18556312835E+03 -0.77068051000E+03  0.91652213023E+03  0.50400001928E-02 0. -1.
       -1    1    3    3    0  502  0.46003335975E+03 -0.18556312835E+03 -0.81074210735E+03  0.95045627534E+03  0.50400001928E-02 0.  1.
</event>
<event>
 5   0  0.5888774E-04  0.9702376E+03  0.7818609E-02  0.9341804E-01
       -1   -1    0    0    0  501  0.00000000000E+00  0.00000000000E+00  0.42751421682E+03  0.42751421685E+03  0.50400001928E-02 0.  1.
        1   -1    0    0  501    0  0.00000000000E+00  0.00000000000E+00 -0.55048515670E+03  0.55048515673E+03  0.50400001928E-02 0. -1.
    10030    2    1    2    0    0  0.00000000000E+00  0.00000000000E+00 -0.12297093989E+03  0.97799937357E+03  0.97023755991E+03 0.  0.
        2    1    3    3  502    0  0.46252141810E+03  0.11516359827E+03  0.29522543652E+02  0.47755659053E+03  0.25500000920E-02 0.  1.
       -2    1    3    3    0  502 -0.46252141810E+03 -0.11516359827E+03 -0.15249348354E+03  0.50044278304E+03  0.25500000920E-02 0. -1.
</event>
<event>
 5   0  0.1006006E-03  0.1003015E+04  0.7818609E-02  0.9305245E-01
        2   -1    0    0  501    0  0.00000000000E+00  0.00000000000E+00  0.58853248909E+03  0.58853248910E+03  0.25500000920E-02 0.  1.
       -2   -1    0    0    0  501  0.00000000000E+00  0.00000000000E+00 -0.42735036064E+03  0.42735036064E+03  0.25500000920E-02 0. -1.
    10030    2    1    2    0    0  0.00000000000E+00  0.00000000000E+00  0.16118212846E+03  0.10158828497E+04  0.10030145990E+04 0.  0.
        2    1    3    3  502    0 -0.38101199849E+03 -0.18619570492E+03 -0.19055721825E+03  0.46492046305E+03  0.25500000920E-02 0.  1.
       -2    1    3    3    0  502  0.38101199849E+03  0.18619570492E+03  0.35173934670E+03  0.55096238670E+03  0.25500000920E-02 0. -1.
</event>
<event>
 5   0  0.5758786E-04  0.1003115E+04  0.7818609E-02  0.9305135E-01
       -1   -1    0    0    0  501  0.00000000000E+00  0.00000000000E+00  0.40049215532E+03  0.40049215535E+03  0.50400001928E-02 0. -1.
        1   -1    0    0  501    0  0.00000000000E+00  0.00000000000E+00 -0.62812725026E+03  0.62812725028E+03  0.50400001928E-02 0.  1.
    10030    2    1    2    0    0  0.00000000000E+00  0.00000000000E+00 -0.22763509494E+03  0.10286194056E+04  0.10031152203E+04 0.  0.
        3    1    3    3  502    0  0.23251822622E+03  0.43820294167E+03 -0.18968155132E+03  0.53109852638E+03  0.10100000352E+00 0.  1.
       -3    1    3    3    0  502 -0.23251822622E+03 -0.43820294167E+03 -0.37953543619E+02  0.49752087925E+03  0.10100000352E+00 0. -1.
</event>
<event>
 5   0  0.5768102E-04  0.9983679E+03  0.7818609E-02  0.9310337E-01
       -1   -1    0    0    0  501  0.00000000000E+00  0.00000000000E+00  0.43975131881E+03  0.43975131884E+03  0.50400001928E-02 0.  1.
        1   -1    0    0  501    0  0.00000000000E+00  0.00000000000E+00 -0.56664891112E+03  0.56664891114E+03  0.50400001928E-02 0. -1.
    10030    2    1    2    0    0  0.00000000000E+00  0.00000000000E+00 -0.12689759231E+03  0.10064002300E+04  0.99836788007E+03 0.  0.
        4    1    3    3  502    0  0.19239074502E+03 -0.10864668368E+03  0.38777367967E+03  0.44630520969E+03  0.12699999809E+01 0.  1.
       -4    1    3    3    0  502 -0.19239074502E+03  0.10864668368E+03 -0.51467127199E+03  0.56009502029E+03  0.12699999809E+01 0. -1.
</event>
<event>
 5   0  0.5888774E-04  0.1000187E+04  0.7818609E-02  0.9308340E-01
       -1   -1    0    0    0  501  0.00000000000E+00  0.00000000000E+00  0.21386517960E+03  0.21386517966E+03  0.50400001928E-02 0. -1.
        1   -1    0    0  501    0  0.00000000000E+00  0.00000000000E+00 -0.11693980885E+04  0.11693980885E+04  0.50400001928E-02 0.  1.
    10030    2    1    2    0    0  0.00000000000E+00  0.00000000000E+00 -0.95553290888E+03  0.13832632681E+04  0.10001870470E+04 0.  0.
        2    1    3    3  502    0 -0.64331890935E+02 -0.10845318529E+03 -0.11470504370E+04  0.11539607405E+04  0.25500000920E-02 0.  1.
       -2    1    3    3    0  502  0.64331890935E+02  0.10845318529E+03  0.19151752813E+03  0.22930252763E+03  0.25500000920E-02 0. -1.
</event>
<event>
 5   0  0.5960102E-04  0.9988466E+03  0.7818609E-02  0.9309811E-01
        1   -1    0    0  501    0  0.00000000000E+00  0.00000000000E+00  0.59867410821E+03  0.59867410824E+03  0.50400001928E-02 0. -1.
       -1   -1    0    0    0  501  0.00000000000E+00  0.00000000000E+00 -0.41662669489E+03  0.41662669492E+03  0.50400001928E-02 0.  1.
    10030    2    1    2    0    0  0.00000000000E+00  0.00000000000E+00  0.18204741333E+03  0.10153008032E+04  0.99884656489E+03 0.  0.
        5    1    3    3  502    0  0.23346331222E+03 -0.42894764448E+03 -0.15100798082E+02  0.48862186194E+03  0.46999998093E+01 0.  1.
       -5    1    3    3    0  502 -0.23346331222E+03  0.42894764448E+03  0.19714821141E+03  0.52667894122E+03  0.46999998093E+01 0. -1.
</event>
<event>
 5   0  0.9741826E-04  0.9966370E+03  0.7818609E-02  0.9312241E-01
        2   -1    0    0  501    0  0.00000000000E+00  0.00000000000E+00  0.21781937848E+04  0.21781937848E+04  0.25500000920E-02 0.  1.
       -2   -1    0    0    0  501  0.00000000000E+00  0.00000000000E+00 -0.11400332746E+03  0.11400332749E+03  0.25500000920E-02 0. -1.
    10030    2    1    2    0    0  0.00000000000E+00  0.00000000000E+00  0.20641904574E+04  0.22921971123E+04  0.99663702390E+03 0.  0.
        3    1    3    3  502    0 -0.14733048356E+03 -0.10533278087E+03 -0.35628260751E+02  0.18458236448E+03  0.10100000352E+00 0. -1.
       -3    1    3    3    0  502  0.14733048356E+03  0.10533278087E+03  0.20998187181E+04  0.21076147478E+04  0.10100000352E+00 0.  1.
</event>
<event>
 5   0  0.9674819E-04  0.1000091E+04  0.7818609E-02  0.9308445E-01
        2   -1    0    0  501    0  0.00000000000E+00  0.00000000000E+00  0.11295665064E+04  0.11295665064E+04  0.25500000920E-02 0.  1.
       -2   -1    0    0    0  501  0.00000000000E+00  0.00000000000E+00 -0.22136414658E+03  0.22136414659E+03  0.25500000920E-02 0. -1.
    10030    2    1    2    0    0  0.00000000000E+00  0.00000000000E+00  0.90820235977E+03  0.13509306529E+04  0.10000910472E+04 0.  0.
        4    1    3    3  502    0 -0.48445183278E+03  0.62996465099E-02  0.28674088284E+03  0.56295250698E+03  0.12699999809E+01 0. -1.
       -4    1    3    3    0  502  0.48445183278E+03 -0.62996465099E-02  0.62146147693E+03  0.78797814597E+03  0.12699999809E+01 0.  1.
</event>
<event>
 5   0  0.9741826E-04  0.9998929E+03  0.7818609E-02  0.9308662E-01
        2   -1    0    0  501    0  0.00000000000E+00  0.00000000000E+00  0.56218883065E+03  0.56218883065E+03  0.25500000920E-02 0.  1.
       -2   -1    0    0    0  501  0.00000000000E+00  0.00000000000E+00 -0.44459517693E+03  0.44459517694E+03  0.25500000920E-02 0. -1.
    10030    2    1    2    0    0  0.00000000000E+00  0.00000000000E+00  0.11759365371E+03  0.10067840076E+04  0.99989287954E+03 0.  0.
        3    1    3    3  502    0 -0.10062743474E+03 -0.48167365122E+02 -0.43190204241E+03  0.44607775121E+03  0.10100000352E+00 0. -1.
       -3    1    3    3    0  502  0.10062743474E+03  0.48167365122E+02  0.54949569613E+03  0.56070625638E+03  0.10100000352E+00 0.  1.
</event>
<event>
 5   0  0.5888774E-04  0.1000229E+04  0.7818609E-02  0.9308294E-01
       -1   -1    0    0    0  501  0.00000000000E+00  0.00000000000E+00  0.38217125665E+03  0.38217125668E+03  0.50400001928E-02 0.  1.
        1   -1    0    0  501    0  0.00000000000E+00  0.00000000000E+00 -0.65445616287E+03  0.65445616289E+03  0.50400001928E-02 0. -1.
    10030    2    1    2    0    0  0.00000000000E+00  0.00000000000E+00 -0.27228490622E+03  0.10366274196E+04  0.10002286423E+04 0.  0.
        2    1    3    3  502    0 -0.27786528559E+03  0.21920977386E+03 -0.50234525731E+03  0.61450207439E+03  0.25500000920E-02 0. -1.
       -2    1    3    3    0  502  0.27786528559E+03 -0.21920977386E+03  0.23006035109E+03  0.42212534517E+03  0.25500000920E-02 0.  1.
</event>
<event>
 5   0  0.3854625E-04  0.9999634E+03  0.7818609E-02  0.9308585E-01
       -4   -1    0    0    0  501  0.00000000000E+00  0.00000000000E+00  0.36048085775E+03  0.36048309489E+03  0.12699999809E+01 0. -1.
        4   -1    0    0  501    0  0.00000000000E+00  0.00000000000E+00 -0.69346234766E+03  0.69346351059E+03  0.12699999809E+01 0.  1.
    10030    2    1    2    0    0  0.00000000000E+00  0.00000000000E+00 -0.33298148991E+03  0.10539466055E+04  0.99996338663E+03 0.  0.
        1    1    3    3  502    0 -0.16344281330E+03 -0.27344506068E+03 -0.57264574068E+03  0.65529298697E+03  0.50400001928E-02 0.  1.
       -1    1    3    3    0  502  0.16344281330E+03  0.27344506068E+03  0.23966425077E+03  0.39865361851E+03  0.50400001928E-02 0. -1.
</event>
<event>
 5   0  0.3854625E-04  0.9992090E+03  0.7818609E-02  0.9309413E-01
        3   -1    0    0  501    0  0.00000000000E+00  0.00000000000E+00  0.22781357277E+03  0.22781359516E+03  0.10100000352E+00 0.  1.
       -3   -1    0    0    0  501  0.00000000000E+00  0.00000000000E+00 -0.10956531330E+04  0.10956531377E+04  0.10100000352E+00 0. -1.
    10030    2    1    2    0    0  0.00000000000E+00  0.00000000000E+00 -0.86783956024E+03  0.13234667328E+04  0.99920903246E+03 0.  0.
        2    1    3    3  502    0  0.74204205914E+02 -0.34096942982E+03  0.39653398062E+02  0.35119625316E+03  0.25500000920E-02 0.  1.
       -2    1    3    3    0  502 -0.74204205914E+02  0.34096942982E+03 -0.90749295830E+03  0.97227047966E+03  0.25500000920E-02 0. -1.
</event>
<event>
 5   0  0.3854625E-04  0.1001279E+04  0.7818609E-02  0.9307143E-01
       -3   -1    0    0    0  501  0.00000000000E+00  0.00000000000E+00  0.96232340941E+02  0.96232393943E+02  0.10100000352E+00 0. -1.
        3   -1    0    0  501    0  0.00000000000E+00  0.00000000000E+00 -0.26045268560E+04  0.26045268579E+04  0.10100000352E+00 0.  1.
    10030    2    1    2    0    0  0.00000000000E+00  0.00000000000E+00 -0.25082945150E+04  0.27007592519E+04  0.10012787636E+04 0.  0.
        2    1    3    3  502    0 -0.14042289277E+03  0.24629341197E+03 -0.14116524040E+03  0.31671226484E+03  0.25500000920E-02 0. -1.
       -2    1    3    3    0  502  0.14042289277E+03 -0.24629341197E+03 -0.23671292746E+04  0.23840469870E+04  0.25500000920E-02 0.  1.
</event>
<event>
 5   0  0.5768102E-04  0.9950334E+03  0.7818609E-02  0.9314009E-01
       -1   -1    0    0    0  501  0.00000000000E+00  0.00000000000E+00  0.50564253077E+03  0.50564253080E+03  0.50400001928E-02 0.  1.
        1   -1    0    0  501    0  0.00000000000E+00  0.00000000000E+00 -0.48952146271E+03  0.48952146273E+03  0.50400001928E-02 0. -1.
    10030    2    1    2    0    0  0.00000000000E+00  0.00000000000E+00  0.16121068065E+02  0.99516399353E+03  0.99503340908E+03 0.  0.
        4    1    3    3  502    0 -0.23031475607E+00  0.44238660894E+03 -0.21959906836E+03  0.49389404586E+03  0.12699999809E+01 0. -1.
       -4    1    3    3    0  502  0.23031475607E+00 -0.44238660894E+03  0.23572013642E+03  0.50126994766E+03  0.12699999809E+01 0.  1.
</event>
<event>
 5   0  0.5826939E-04  0.1000771E+04  0.7818609E-02  0.9307700E-01
        1   -1    0    0  501    0  0.00000000000E+00  0.00000000000E+00  0.71413485138E+03  0.71413485140E+03  0.50400001928E-02 0.  1.
       -1   -1    0    0    0  501  0.00000000000E+00  0.00000000000E+00 -0.35061375576E+03  0.35061375579E+03  0.50400001928E-02 0. -1.
    10030    2    1    2    0    0  0.00000000000E+00  0.00000000000E+00  0.36352109562E+03  0.10647486072E+04  0.10007707078E+04 0.  0.
        1    1    3    3  502    0 -0.44733193301E+03  0.20873655777E+03  0.94617755573E+02  0.50262245128E+03  0.50400001928E-02 0. -1.
       -1    1    3    3    0  502  0.44733193301E+03 -0.20873655777E+03  0.26890334005E+03  0.56212615591E+03  0.50400001928E-02 0.  1.
</event>
<event>
 5   0  0.9674819E-04  0.1001524E+04  0.7818609E-02  0.9306875E-01
        2   -1    0    0  501    0  0.00000000000E+00  0.00000000000E+00  0.11057369189E+04  0.11057369189E+04  0.25500000920E-02 0. -1.
       -2   -1    0    0    0  501  0.00000000000E+00  0.00000000000E+00 -0.22678300447E+03  0.22678300448E+03  0.25500000920E-02 0.  1.
    10030    2    1    2    0    0  0.00000000000E+00  0.00000000000E+00  0.87895391444E+03  0.13325199234E+04  0.10015235207E+04 0.  0.
        4    1    3    3  502    0  0.13084506968E+03  0.32837093230E+03  0.91140416620E+03  0.97755156821E+03  0.12699999809E+01 0. -1.
       -4    1    3    3    0  502 -0.13084506968E+03 -0.32837093230E+03 -0.32450251767E+02  0.35496835518E+03  0.12699999809E+01 0.  1.
</event>
<event>
 5   0  0.1020150E-03  0.1001064E+04  0.7818609E-02  0.9307379E-01
       -2   -1    0    0    0  501  0.00000000000E+00  0.00000000000E+00  0.42905586921E+03  0.42905586922E+03  0.25500000920E-02 0. -1.
        2   -1    0    0  501    0  0.00000000000E+00  0.00000000000E+00 -0.58391498893E+03  0.58391498893E+03  0.25500000920E-02 0.  1.
    10030    2    1    2    0    0  0.00000000000E+00  0.00000000000E+00 -0.15485911972E+03  0.10129708582E+04  0.10010637405E+04 0.  0.
        5    1    3    3  502    0 -0.35205643922E+03 -0.33346480302E+03 -0.20286999860E+03  0.52566228472E+03  0.46999998093E+01 0.  1.
       -5    1    3    3    0  502  0.35205643922E+03  0.33346480302E+03  0.48010878881E+02  0.48730857343E+03  0.46999998093E+01 0. -1.
</event>
<event>
 5   0  0.5960102E-04  0.1001847E+04  0.7818609E-02  0.9306522E-01
       -1   -1    0    0    0  501  0.00000000000E+00  0.00000000000E+00  0.14642501730E+03  0.14642501738E+03  0.50400001928E-02 0. -1.
        1   -1    0    0  501    0  0.00000000000E+00  0.00000000000E+00 -0.17136698336E+04  0.17136698336E+04  0.50400001928E-02 0.  1.
    10030    2    1    2    0    0  0.00000000000E+00  0.00000000000E+00 -0.15672448163E+04  0.18600948510E+04  0.10018465653E+04 0.  0.
        5    1    3    3  502    0 -0.54559766790E+01 -0.38953309569E+03 -0.13682106946E+04  0.14225991688E+04  0.46999998093E+01 0.  1.
       -5    1    3    3    0  502  0.54559766790E+01  0.38953309569E+03 -0.19903412170E+03  0.43749568217E+03  0.46999998093E+01 0. -1.
</event>
<event>
 5   0  0.1006749E-03  0.1001359E+04  0.7818609E-02  0.9307056E-01
       -2   -1    0    0    0  501  0.00000000000E+00  0.00000000000E+00  0.38258796631E+03  0.38258796632E+03  0.25500000920E-02 0.  1.
        2   -1    0    0  501    0  0.00000000000E+00  0.00000000000E+00 -0.65522130155E+03  0.65522130156E+03  0.25500000920E-02 0. -1.
    10030    2    1    2    0    0  0.00000000000E+00  0.00000000000E+00 -0.27263333525E+03  0.10378092679E+04  0.10013586475E+04 0.  0.
        1    1    3    3  502    0 -0.35208325529E+03  0.38616625382E+02 -0.50307079707E+03  0.61525124080E+03  0.50400001928E-02 0. -1.
       -1    1    3    3    0  502  0.35208325529E+03 -0.38616625382E+02  0.23043746183E+03  0.42255802708E+03  0.50400001928E-02 0.  1.
</event>
<event>
 5   0  0.1006006E-03  0.9997972E+03  0.7818609E-02  0.9308767E-01
        2   -1    0    0  501    0  0.00000000000E+00  0.00000000000E+00  0.86935131780E+03  0.86935131780E+03  0.25500000920E-02 0.  1.
       -2   -1    0    0    0  501  0.00000000000E+00  0.00000000000E+00 -0.28745410725E+03  0.28745410726E+03  0.25500000920E-02 0. -1.
    10030    2    1    2    0    0  0.00000000000E+00  0.00000000000E+00  0.58189721055E+03  0.11568054251E+04  0.99979719334E+03 0.  0.
        2    1    3    3  502    0  0.80669093914E+02  0.31837053696E+03 -0.14510556347E+03  0.35905838811E+03  0.25500000920E-02 0. -1.
       -2    1    3    3    0  502 -0.80669093914E+02 -0.31837053696E+03  0.72700277403E+03  0.79774703695E+03  0.25500000920E-02 0.  1.
</event>
<event>
 5   0  0.1006006E-03  0.1002135E+04  0.7818609E-02  0.9306206E-01
        2   -1    0    0  501    0  0.00000000000E+00  0.00000000000E+00  0.23051988806E+04  0.23051988806E+04  0.25500000920E-02 0.  1.
       -2   -1    0    0    0  501  0.00000000000E+00  0.00000000000E+00 -0.10891419593E+03  0.10891419596E+03  0.25500000920E-02 0. -1.
    10030    2    1    2    0    0  0.00000000000E+00  0.00000000000E+00  0.21962846847E+04  0.24141130766E+04  0.10021354850E+04 0.  0.
        2    1    3    3  502    0  0.34752055316E+03 -0.17292613591E+03  0.33485687783E+03  0.51264325997E+03  0.25500000920E-02 0. -1.
       -2    1    3    3    0  502 -0.34752055316E+03  0.17292613591E+03  0.18614278069E+04  0.19014698166E+04  0.25500000920E-02 0.  1.
</event>
<event>
 5   0  0.5768102E-04  0.1000086E+04  0.7818609E-02  0.9308450E-01
        1   -1    0    0  501    0  0.00000000000E+00  0.00000000000E+00  0.40169979055E+03  0.40169979058E+03  0.50400001928E-02 0.  1.
       -1   -1    0    0    0  501  0.00000000000E+00  0.00000000000E+00 -0.62246235886E+03  0.62246235888E+03  0.50400001928E-02 0. -1.
    10030    2    1    2    0    0  0.00000000000E+00  0.00000000000E+00 -0.22076256831E+03  0.10241621495E+04  0.10000859947E+04 0.  0.
        4    1    3    3  502    0 -0.45224894359E+02  0.73966091162E+01 -0.62030579467E+03  0.62199750217E+03  0.12699999809E+01 0. -1.
       -4    1    3    3    0  502  0.45224894359E+02 -0.73966091162E+01  0.39954322636E+03  0.40216464729E+03  0.12699999809E+01 0.  1.
</event>
<event>
 5   0  0.5826939E-04  0.1000070E+04  0.7818609E-02  0.9308468E-01
        1   -1    0    0  501    0  0.00000000000E+00  0.00000000000E+00  0.10872443439E+04  0.10872443439E+04  0.50400001928E-02 0. -1.
       -1   -1    0    0    0  501  0.00000000000E+00  0.00000000000E+00 -0.22997144920E+03  0.22997144925E+03  0.50400001928E-02 0.  1.
    10030    2    1    2    0    0  0.00000000000E+00  0.00000000000E+00  0.85727289471E+03  0.13172157932E+04  0.10000703124E+04 0.  0.
        1    1    3    3  502    0 -0.31837234324E+03  0.38506044696E+03  0.40220651852E+03  0.64140671989E+03  0.50400001928E-02 0.  1.
       -1    1    3    3    0  502  0.31837234324E+03 -0.38506044696E+03  0.45506637620E+03  0.67580907328E+03  0.50400001928E-02 0. -1.
</event>
<event>
 5   0  0.1020150E-03  0.9810946E+03  0.7818609E-02  0.9329526E-01
        2   -1    0    0  501    0  0.00000000000E+00  0.00000000000E+00  0.14176503046E+04  0.14176503046E+04  0.25500000920E-02 0.  1.
       -2   -1    0    0    0  501  0.00000000000E+00  0.00000000000E+00 -0.16974331337E+03  0.16974331339E+03  0.25500000920E-02 0. -1.
    10030    2    1    2    0    0  0.00000000000E+00  0.00000000000E+00  0.12479069912E+04  0.15873936180E+04  0.98109461300E+03 0.  0.
        5    1    3    3  502    0  0.10673942970E+03 -0.20983043385E+03 -0.72328845787E+02  0.24632431621E+03  0.46999998093E+01 0. -1.
       -5    1    3    3    0  502 -0.10673942970E+03  0.20983043385E+03  0.13202358370E+04  0.13410693018E+04  0.46999998093E+01 0.  1.
</event>
<event>
 5   0  0.5960102E-04  0.1001406E+04  0.7818609E-02  0.9307004E-01
        1   -1    0    0  501    0  0.00000000000E+00  0.00000000000E+00  0.88366038211E+03  0.88366038212E+03  0.50400001928E-02 0.  1.
       -1   -1    0    0    0  501  0.00000000000E+00  0.00000000000E+00 -0.28371009707E+03  0.28371009712E+03  0.50400001928E-02 0. -1.
    10030    2    1    2    0    0  0.00000000000E+00  0.00000000000E+00  0.59995028503E+03  0.11673704792E+04  0.10014057576E+04 0.  0.
        5    1    3    3  502    0  0.10652642842E+03  0.28645663707E+02  0.86929259082E+03  0.87627629915E+03  0.46999998093E+01 0.  1.
       -5    1    3    3    0  502 -0.10652642842E+03 -0.28645663707E+02 -0.26934230578E+03  0.29109418009E+03  0.46999998093E+01 0. -1.
</event>
<event>
 5   0  0.1006006E-03  0.9986175E+03  0.7818609E-02  0.9310062E-01
        2   -1    0    0  501    0  0.00000000000E+00  0.00000000000E+00  0.31246824326E+03  0.31246824327E+03  0.25500000920E-02 0.  1.
       -2   -1    0    0    0  501  0.00000000000E+00  0.00000000000E+00 -0.79787067866E+03  0.79787067866E+03  0.25500000920E-02 0. -1.
    10030    2    1    2    0    0  0.00000000000E+00  0.00000000000E+00 -0.48540243540E+03  0.11103389219E+04  0.99861754303E+03 0.  0.
        2    1    3    3  502    0  0.13451606803E+03 -0.38028112409E+03  0.84502089220E+02  0.41212729707E+03  0.25500000920E-02 0.  1.
       -2    1    3    3    0  502 -0.13451606803E+03  0.38028112409E+03 -0.56990452462E+03  0.69821162486E+03  0.25500000920E-02 0. -1.
</event>
<event>
 5   0  0.9674819E-04  0.9991670E+03  0.7818609E-02  0.9309459E-01
       -2   -1    0    0    0  501  0.00000000000E+00  0.00000000000E+00  0.40923828499E+03  0.40923828500E+03  0.25500000920E-02 0. -1.
        2   -1    0    0  501    0  0.00000000000E+00  0.00000000000E+00 -0.60987369224E+03  0.60987369225E+03  0.25500000920E-02 0.  1.
    10030    2    1    2    0    0  0.00000000000E+00  0.00000000000E+00 -0.20063540725E+03  0.10191119772E+04  0.99916698080E+03 0.  0.
        4    1    3    3  502    0 -0.46997093217E+03 -0.16780739258E+03 -0.12423907401E+03  0.51426545529E+03  0.12699999809E+01 0.  1.
       -4    1    3    3    0  502  0.46997093217E+03  0.16780739258E+03 -0.76396333240E+02  0.50484652195E+03  0.12699999809E+01 0. -1.
</event>
<event>
 5   0  0.5768102E-04  0.1002913E+04  0.7818609E-02  0.9305356E-01
       -1   -1    0    0    0  501  0.00000000000E+00  0.00000000000E+00  0.28632957819E+03  0.28632957824E+03  0.50400001928E-02 0.  1.
        1   -1    0    0  501    0  0.00000000000E+00  0.00000000000E+00 -0.87821306268E+03  0.87821306270E+03  0.50400001928E-02 0. -1.
    10030    2    1    2    0    0  0.00000000000E+00  0.00000000000E+00 -0.59188348449E+03  0.11645426409E+04  0.10029125103E+04 0.  0.
        4    1    3    3  502    0 -0.44803787506E+03  0.10434800775E+03 -0.52768080034E+03  0.70005362948E+03  0.12699999809E+01 0. -1.
       -4    1    3    3    0  502  0.44803787506E+03 -0.10434800775E+03 -0.64202684149E+02  0.46448901145E+03  0.12699999809E+01 0.  1.
</event>
<event>
 5   0  0.1020150E-03  0.1000511E+04  0.7818609E-02  0.9307985E-01
        2   -1    0    0  501    0  0.00000000000E+00  0.00000000000E+00  0.11998530792E+04  0.11998530792E+04  0.25500000920E-02 0.  1.
       -2   -1    0    0    0  501  0.00000000000E+00  0.00000000000E+00 -0.20857168392E+03  0.20857168393E+03  0.25500000920E-02 0. -1.
    10030    2    1    2    0    0  0.00000000000E+00  0.00000000000E+00  0.99128139526E+03  0.14084247631E+04  0.10005106240E+04 0.  0.
        5    1    3    3  502    0  0.27533848431E+03  0.34780344464E+03  0.17017503152E+03  0.47514224018E+03  0.46999998093E+01 0. -1.
       -5    1    3    3    0  502 -0.27533848431E+03 -0.34780344464E+03  0.82110636373E+03  0.93328252293E+03  0.46999998093E+01 0.  1.
</event>
<event>
 5   0  0.9741826E-04  0.1000989E+04  0.7818609E-02  0.9307461E-01
       -2   -1    0    0    0  501  0.00000000000E+00  0.00000000000E+00  0.44746310048E+03  0.44746310049E+03  0.25500000920E-02 0.  1.
        2   -1    0    0  501    0  0.00000000000E+00  0.00000000000E+00 -0.55981104567E+03  0.55981104568E+03  0.25500000920E-02 0. -1.
    10030    2    1    2    0    0  0.00000000000E+00  0.00000000000E+00 -0.11234794519E+03  0.10072741462E+04  0.10009890832E+04 0.  0.
        3    1    3    3  502    0  0.39608463646E+03  0.30551447100E+03 -0.39558338499E+02  0.50178382156E+03  0.10100000352E+00 0. -1.
       -3    1    3    3    0  502 -0.39608463646E+03 -0.30551447100E+03 -0.72789606691E+02  0.50549032461E+03  0.10100000352E+00 0.  1.
</event>
<event>
 5   0  0.9674819E-04  0.9981489E+03  0.7818609E-02  0.9310577E-01
        2   -1    0    0  501    0  0.00000000000E+00  0.00000000000E+00  0.61674577104E+03  0.61674577105E+03  0.25500000920E-02 0.  1.
       -2   -1    0    0    0  501  0.00000000000E+00  0.00000000000E+00 -0.40385407142E+03  0.40385407143E+03  0.25500000920E-02 0. -1.
    10030    2    1    2    0    0  0.00000000000E+00  0.00000000000E+00  0.21289169962E+03  0.10205998425E+04  0.99814886801E+03 0.  0.
        4    1    3    3  502    0  0.28193653333E+03  0.27469259971E+03 -0.20726022339E+03  0.44486250265E+03  0.12699999809E+01 0. -1.
       -4    1    3    3    0  502 -0.28193653333E+03 -0.27469259971E+03  0.42015192301E+03  0.57573733983E+03  0.12699999809E+01 0.  1.
</event>
<event>
 5   0  0.5888774E-04  0.9984049E+03  0.7818609E-02  0.9310296E-01
        1   -1    0    0  501    0  0.00000000000E+00  0.00000000000E+00  0.80961329128E+03  0.80961329130E+03  0.50400001928E-02 0. -1.
       -1   -1    0    0    0  501  0.00000000000E+00  0.00000000000E+00 -0.30780507158E+03  0.30780507162E+03  0.50400001928E-02 0.  1.
    10030    2    1    2    0    0  0.00000000000E+00  0.00000000000E+00  0.50180821970E+03  0.11174183629E+04  0.99840488201E+03 0.  0.
        2    1    3    3  502    0  0.21910991218E+03 -0.17684920276E+03 -0.21044444385E+03  0.35152760643E+03  0.25500000920E-02 0.  1.
       -2    1    3    3    0  502 -0.21910991218E+03  0.17684920276E+03  0.71225266355E+03  0.76589075649E+03  0.25500000920E-02 0. -1.
</event>
<event>
 5   0  0.9741826E-04  0.9955385E+03  0.7818609E-02  0.9313452E-01
       -2   -1    0    0    0  501  0.00000000000E+00  0.00000000000E+00  0.26512590087E+03  0.26512590089E+03  0.25500000920E-02 0.  1.
        2   -1    0    0  501    0  0.00000000000E+00  0.00000000000E+00 -0.93455312786E+03  0.93455312787E+03  0.25500000920E-02 0. -1.
    10030    2    1    2    0    0  0.00000000000E+00  0.00000000000E+00 -0.66942722699E+03  0.11996790288E+04  0.99553852753E+03 0.  0.
        3    1    3    3  502    0  0.38769368269E+02 -0.48729062878E+03 -0.44787985349E+03  0.66298687330E+03  0.10100000352E+00 0. -1.
       -3    1    3    3    0  502 -0.38769368269E+02  0.48729062878E+03 -0.22154737350E+03  0.53669215545E+03  0.10100000352E+00 0.  1.
</event>
<event>
 5   0  0.5758786E-04  0.9995848E+03  0.7818609E-02  0.9309000E-01
        1   -1    0    0  501    0  0.00000000000E+00  0.00000000000E+00  0.40367412927E+03  0.40367412930E+03  0.50400001928E-02 0.  1.
       -1   -1    0    0    0  501  0.00000000000E+00  0.00000000000E+00 -0.61879731663E+03  0.61879731665E+03  0.50400001928E-02 0. -1.
    10030    2    1    2    0    0  0.00000000000E+00  0.00000000000E+00 -0.21512318736E+03  0.10224714460E+04  0.99958484985E+03 0.  0.
        3    1    3    3  502    0 -0.25076359002E+03 -0.11986654316E+03  0.31733089391E+03  0.42184034027E+03  0.10100000352E+00 0.  1.
       -3    1    3    3    0  502  0.25076359002E+03  0.11986654316E+03 -0.53245408127E+03  0.60063110568E+03  0.10100000352E+00 0. -1.
</event>
<event>
 5   0  0.9674819E-04  0.9981517E+03  0.7818609E-02  0.9310574E-01
       -2   -1    0    0    0  501  0.00000000000E+00  0.00000000000E+00  0.15239650775E+03  0.15239650777E+03  0.25500000920E-02 0.  1.
        2   -1    0    0  501    0  0.00000000000E+00  0.00000000000E+00 -0.16343989939E+04  0.16343989939E+04  0.25500000920E-02 0. -1.
    10030    2    1    2    0    0  0.00000000000E+00  0.00000000000E+00 -0.14820024862E+04  0.17867955017E+04  0.99815168981E+03 0.  0.
        4    1    3    3  502    0 -0.37219001522E+03 -0.87164148007E+02 -0.16662576826E+03  0.41699970705E+03  0.12699999809E+01 0.  1.
       -4    1    3    3    0  502  0.37219001522E+03  0.87164148007E+02 -0.13153767179E+04  0.13697957947E+04  0.12699999809E+01 0. -1.
</event>
<event>
 5   0  0.5826939E-04  0.1001439E+04  0.7818609E-02  0.9306968E-01
        1   -1    0    0  501    0  0.00000000000E+00  0.00000000000E+00  0.87950515848E+03  0.87950515849E+03  0.50400001928E-02 0.  1.
       -1   -1    0    0    0  501  0.00000000000E+00  0.00000000000E+00 -0.28506955810E+03  0.28506955814E+03  0.50400001928E-02 0. -1.
    10030    2    1    2    0    0  0.00000000000E+00  0.00000000000E+00  0.59443560038E+03  0.11645747166E+04  0.10014392581E+04 0.  0.
        1    1    3    3  502    0  0.11506064927E+03 -0.48447898939E+03  0.23610956320E+03  0.55109579025E+03  0.50400001928E-02 0.  1.
       -1    1    3    3    0  502 -0.11506064927E+03  0.48447898939E+03  0.35832603718E+03  0.61347892638E+03  0.50400001928E-02 0. -1.
</event>
<event>
 5   0  0.1020150E-03  0.9974841E+03  0.7818609E-02  0.9311308E-01
       -2   -1    0    0    0  501  0.00000000000E+00  0.00000000000E+00  0.22315803478E+03  0.22315803480E+03  0.25500000920E-02 0.  1.
        2   -1    0    0  501    0  0.00000000000E+00  0.00000000000E+00 -0.11146523794E+04  0.11146523794E+04  0.25500000920E-02 0. -1.
    10030    2    1    2    0    0  0.00000000000E+00  0.00000000000E+00 -0.89149434464E+03  0.13378104142E+04  0.99748410407E+03 0.  0.
        5    1    3    3  502    0 -0.15307716728E+03  0.11799181117E+03 -0.10623521616E+04  0.10798003945E+04  0.46999998093E+01 0. -1.
       -5    1    3    3    0  502  0.15307716728E+03 -0.11799181117E+03  0.17085781700E+03  0.25801001972E+03  0.46999998093E+01 0.  1.
</event>
<event>
 5   0  0.5960102E-04  0.1000954E+04  0.7818609E-02  0.9307499E-01
        1   -1    0    0  501    0  0.00000000000E+00  0.00000000000E+00  0.75721280561E+03  0.75721280562E+03  0.50400001928E-02 0.  1.
       -1   -1    0    0    0  501  0.00000000000E+00  0.00000000000E+00 -0.33078839406E+03  0.33078839410E+03  0.50400001928E-02 0. -1.
    10030    2    1    2    0    0  0.00000000000E+00  0.00000000000E+00  0.42642441155E+03  0.10880011997E+04  0.10009539609E+04 0.  0.
        5    1    3    3  502    0  0.14168127206E+03  0.46669769787E+03  0.33510154138E+03  0.59177314664E+03  0.46999998093E+01 0.  1.
       -5    1    3    3    0  502 -0.14168127206E+03 -0.46669769787E+03  0.91322870165E+02  0.49622805308E+03  0.46999998093E+01 0. -1.
</event>
<event>
 5   0  0.5960102E-04  0.9991841E+03  0.7818609E-02  0.9309440E-01
       -1   -1    0    0    0  501  0.00000000000E+00  0.00000000000E+00  0.25317751520E+03  0.25317751525E+03  0.50400001928E-02 0.  1.
        1   -1    0    0  501    0  0.00000000000E+00  0.00000000000E+00 -0.98583883882E+03  0.98583883883E+03  0.50400001928E-02 0. -1.
    10030    2    1    2    0    0  0.00000000000E+00  0.00000000000E+00 -0.73266132362E+03  0.12390163541E+04  0.99918412245E+03 0.  0.
        5    1    3    3  502    0  0.44429139197E+03  0.57025005591E+02 -0.64060806670E+03  0.78169525863E+03  0.46999998093E+01 0.  1.
       -5    1    3    3    0  502 -0.44429139197E+03 -0.57025005591E+02 -0.92053256920E+02  0.45732109546E+03  0.46999998093E+01 0. -1.
</event>
<event>
 5   0  0.1020150E-03  0.9987084E+03  0.7818609E-02  0.9309963E-01
        2   -1    0    0  501    0  0.00000000000E+00  0.00000000000E+00  0.20407957104E+04  0.20407957104E+04  0.25500000920E-02 0.  1.
       -2   -1    0    0    0  501  0.00000000000E+00  0.00000000000E+00 -0.12218498934E+03  0.12218498937E+03  0.25500000920E-02 0. -1.
    10030    2    1    2    0    0  0.00000000000E+00  0.00000000000E+00  0.19186107211E+04  0.21629806998E+04  0.99870837015E+03 0.  0.
        5    1    3    3  502    0 -0.50481045402E+02  0.25633960293E+03  0.18809048450E+04  0.18989690503E+04  0.46999998093E+01 0.  1.
       -5    1    3    3    0  502  0.50481045402E+02 -0.25633960293E+03  0.37705876049E+02  0.26401164948E+03  0.46999998093E+01 0. -1.
</event>
<event>
 5   0  0.5768102E-04  0.9954828E+03  0.7818609E-02  0.9313513E-01
       -1   -1    0    0    0  501  0.00000000000E+00  0.00000000000E+00  0.70942729748E+03  0.70942729750E+03  0.50400001928E-02 0. -1.
        1   -1    0    0  501    0  0.00000000000E+00  0.00000000000E+00 -0.34922045243E+03  0.34922045247E+03  0.50400001928E-02 0.  1.
    10030    2    1    2    0    0  0.00000000000E+00  0.00000000000E+00  0.36020684505E+03  0.10586477500E+04  0.99548284129E+03 0.  0.
        4    1    3    3  502    0  0.31268422057E+03 -0.14590565517E+03  0.56159214946E+03  0.65912611634E+03  0.12699999809E+01 0. -1.
       -4    1    3    3    0  502 -0.31268422057E+03  0.14590565517E+03 -0.20138530442E+03  0.39952163363E+03  0.12699999809E+01 0.  1.
</event>
<event>
 5   0  0.5768102E-04  0.1000350E+04  0.7818609E-02  0.9308161E-01
        1   -1    0    0  501    0  0.00000000000E+00  0.00000000000E+00  0.52315740424E+03  0.52315740426E+03  0.50400001928E-02 0. -1.
       -1   -1    0    0    0  501  0.00000000000E+00  0.00000000000E+00 -0.47820242535E+03  0.47820242538E+03  0.50400001928E-02 0.  1.
    10030    2    1    2    0    0  0.00000000000E+00  0.00000000000E+00  0.44954978888E+02  0.10013598296E+04  0.10003502178E+04 0.  0.
        4    1    3    3  502    0 -0.13540657990E+03  0.31141679568E+03  0.39007851635E+03  0.51718296988E+03  0.12699999809E+01 0. -1.
       -4    1    3    3    0  502  0.13540657990E+03 -0.31141679568E+03 -0.34512353747E+03  0.48417685976E+03  0.12699999809E+01 0.  1.
</event>
<event>
 5   0  0.5960102E-04  0.1004874E+04  0.7818609E-02  0.9303216E-01
       -1   -1    0    0    0  501  0.00000000000E+00  0.00000000000E+00  0.75893040768E+03  0.75893040770E+03  0.50400001928E-02 0.  1.
        1   -1    0    0  501    0  0.00000000000E+00  0.00000000000E+00 -0.33262963303E+03  0.33262963307E+03  0.50400001928E-02 0. -1.
    10030    2    1    2    0    0  0.00000000000E+00  0.00000000000E+00  0.42630077465E+03  0.10915600408E+04  0.10048736100E+04 0.  0.
        5    1    3    3  502    0 -0.25068164637E+03 -0.94192573096E+02  0.67491837872E+03  0.72612012545E+03  0.46999998093E+01 0.  1.
       -5    1    3    3    0  502  0.25068164637E+03  0.94192573096E+02 -0.24861760407E+03  0.36543991531E+03  0.46999998093E+01 0. -1.
</event>
<event>
 5   0  0.5888774E-04  0.1001973E+04  0.7818609E-02  0.9306383E-01
        1   -1    0    0  501    0  0.00000000000E+00  0.00000000000E+00  0.17321024445E+04  0.17321024445E+04  0.50400001928E-02 0.  1.
       -1   -1    0    0    0  501  0.00000000000E+00  0.00000000000E+00 -0.14490344520E+03  0.14490344529E+03  0.50400001928E-02 0. -1.
    10030    2    1    2    0    0  0.00000000000E+00  0.00000000000E+00  0.15871989993E+04  0.18770058898E+04  0.10019732766E+04 0.  0.
        2    1    3    3  502    0  0.28812056476E+03 -0.40822635086E+03  0.72539976077E+03  0.88083314328E+03  0.25500000920E-02 0. -1.
       -2    1    3    3    0  502 -0.28812056476E+03  0.40822635086E+03  0.86179923856E+03  0.99617274654E+03  0.25500000920E-02 0.  1.
</event>
<event>
 5   0  0.5768102E-04  0.9998847E+03  0.7818609E-02  0.9308671E-01
        1   -1    0    0  501    0  0.00000000000E+00  0.00000000000E+00  0.65114813525E+03  0.65114813527E+03  0.50400001928E-02 0.  1.
       -1   -1    0    0    0  501  0.00000000000E+00  0.00000000000E+00 -0.38384870238E+03  0.38384870241E+03  0.50400001928E-02 0. -1.
    10030    2    1    2    0    0  0.00000000000E+00  0.00000000000E+00  0.26729943288E+03  0.10349968377E+04  0.99988472695E+03 0.  0.
        4    1    3    3  502    0 -0.47883035439E+03  0.13213619380E+03  0.19222551124E+03  0.53262626867E+03  0.12699999809E+01 0. -1.
       -4    1    3    3    0  502  0.47883035439E+03 -0.13213619380E+03  0.75073921639E+02  0.50237056902E+03  0.12699999809E+01 0.  1.
</event>
<event>
 5   0  0.5768102E-04  0.9990881E+03  0.7818609E-02  0.9309546E-01
        1   -1    0    0  501    0  0.00000000000E+00  0.00000000000E+00  0.44820544412E+03  0.44820544415E+03  0.50400001928E-02 0. -1.
       -1   -1    0    0    0  501  0.00000000000E+00  0.00000000000E+00 -0.55676307826E+03  0.55676307828E+03  0.50400001928E-02 0.  1.
    10030    2    1    2    0    0  0.00000000000E+00  0.00000000000E+00 -0.10855763414E+03  0.10049685224E+04  0.99908806977E+03 0.  0.
        4    1    3    3  502    0 -0.48508046010E+03  0.77971157637E+02  0.36586004803E+02  0.49266895868E+03  0.12699999809E+01 0.  1.
       -4    1    3    3    0  502  0.48508046010E+03 -0.77971157637E+02 -0.14514363894E+03  0.51229956375E+03  0.12699999809E+01 0. -1.
</event>
<event>
 5   0  0.5826939E-04  0.1000235E+04  0.7818609E-02  0.9308287E-01
        1   -1    0    0  501    0  0.00000000000E+00  0.00000000000E+00  0.10617368307E+04  0.10617368307E+04  0.50400001928E-02 0. -1.
       -1   -1    0    0    0  501  0.00000000000E+00  0.00000000000E+00 -0.23557390271E+03  0.23557390276E+03  0.50400001928E-02 0.  1.
    10030    2    1    2    0    0  0.00000000000E+00  0.00000000000E+00  0.82616292801E+03  0.12973107335E+04  0.10002349502E+04 0.  0.
        1    1    3    3  502    0 -0.25985649145E+03  0.22158977682E+03 -0.60796436420E+02  0.34687696961E+03  0.50400001928E-02 0.  1.
       -1    1    3    3    0  502  0.25985649145E+03 -0.22158977682E+03  0.88695936443E+03  0.95043376388E+03  0.50400001928E-02 0. -1.
</event>
<event>
 5   0  0.1006006E-03  0.1004100E+04  0.7818609E-02  0.9304059E-01
       -2   -1    0    0    0  501  0.00000000000E+00  0.00000000000E+00  0.11436022657E+03  0.11436022660E+03  0.25500000920E-02 0. -1.
        2   -1    0    0  501    0  0.00000000000E+00  0.00000000000E+00 -0.22040385401E+04  0.22040385401E+04  0.25500000920E-02 0.  1.
    10030    2    1    2    0    0  0.00000000000E+00  0.00000000000E+00 -0.20896783135E+04  0.23183987667E+04  0.10041002875E+04 0.  0.
        2    1    3    3  502    0  0.12364661649E+03  0.40421891287E+03 -0.16702695486E+04  0.17229282574E+04  0.25500000920E-02 0.  1.
       -2    1    3    3    0  502 -0.12364661649E+03 -0.40421891287E+03 -0.41940876494E+03  0.59547050927E+03  0.25500000920E-02 0. -1.
</event>
<event>
 5   0  0.5826939E-04  0.1000926E+04  0.7818609E-02  0.9307530E-01
       -1   -1    0    0    0  501  0.00000000000E+00  0.00000000000E+00  0.41372607417E+03  0.41372607420E+03  0.50400001928E-02 0.  1.
        1   -1    0    0  501    0  0.00000000000E+00  0.00000000000E+00 -0.60538427198E+03  0.60538427200E+03  0.50400001928E-02 0. -1.
    10030    2    1    2    0    0  0.00000000000E+00  0.00000000000E+00 -0.19165819781E+03  0.10191103462E+04  0.10009260877E+04 0.  0.
        1    1    3    3  502    0  0.14116125625E+03  0.45299564791E+03  0.66221775188E+02  0.47907920099E+03  0.50400001928E-02 0. -1.
       -1    1    3    3    0  502 -0.14116125625E+03 -0.45299564791E+03 -0.25787997300E+03  0.54003114520E+03  0.50400001928E-02 0.  1.
</event>
<event>
 5   0  0.5768102E-04  0.1000738E+04  0.7818609E-02  0.9307736E-01
        1   -1    0    0  501    0  0.00000000000E+00  0.00000000000E+00  0.19712714359E+04  0.19712714360E+04  0.50400001928E-02 0.  1.
       -1   -1    0    0    0  501  0.00000000000E+00  0.00000000000E+00 -0.12700893316E+03  0.12700893326E+03  0.50400001928E-02 0. -1.
    10030    2    1    2    0    0  0.00000000000E+00  0.00000000000E+00  0.18442625028E+04  0.20982803692E+04  0.10007378921E+04 0.  0.
        4    1    3    3  502    0 -0.24476145664E+03  0.41476076741E+03  0.12067994026E+04  0.12993464034E+04  0.12699999809E+01 0.  1.
       -4    1    3    3    0  502  0.24476145664E+03 -0.41476076741E+03  0.63746310015E+03  0.79893396585E+03  0.12699999809E+01 0. -1.
</event>
<event>
 5   0  0.1020150E-03  0.1001838E+04  0.7818609E-02  0.9306532E-01
       -2   -1    0    0    0  501  0.00000000000E+00  0.00000000000E+00  0.62526371913E+03  0.62526371914E+03  0.25500000920E-02 0.  1.
        2   -1    0    0  501    0  0.00000000000E+00  0.00000000000E+00 -0.40130214341E+03  0.40130214342E+03  0.25500000920E-02 0. -1.
    10030    2    1    2    0    0  0.00000000000E+00  0.00000000000E+00  0.22396157572E+03  0.10265658626E+04  0.10018376529E+04 0.  0.
        5    1    3    3  502    0 -0.71265105765E+02 -0.36815616943E+03 -0.22830017297E+03  0.43904525891E+03  0.46999998093E+01 0. -1.
       -5    1    3    3    0  502  0.71265105765E+02  0.36815616943E+03  0.45226174869E+03  0.58752060365E+03  0.46999998093E+01 0.  1.
</event>
<event>
 5   0  0.3854625E-04  0.1000865E+04  0.7818609E-02  0.9307596E-01
        4   -1    0    0  501    0  0.00000000000E+00  0.00000000000E+00  0.58479535536E+03  0.58479673438E+03  0.12699999809E+01 0.  1.
       -4   -1    0    0    0  501  0.00000000000E+00  0.00000000000E+00 -0.42823731312E+03  0.42823919630E+03  0.12699999809E+01 0. -1.
    10030    2    1    2    0    0  0.00000000000E+00  0.00000000000E+00  0.15655804224E+03  0.10130359307E+04  0.10008653138E+04 0.  0.
        4    1    3    3  502    0 -0.42315417541E+03 -0.20750937324E+03  0.24858570250E+03  0.53283774316E+03  0.12699999809E+01 0.  1.
       -4    1    3    3    0  502  0.42315417541E+03  0.20750937324E+03 -0.92027660264E+02  0.48019818753E+03  0.12699999809E+01 0. -1.
</event>
<event>
 5   0  0.5758786E-04  0.9984974E+03  0.7818609E-02  0.9310194E-01
        1   -1    0    0  501    0  0.00000000000E+00  0.00000000000E+00  0.54536750656E+03  0.54536750658E+03  0.50400001928E-02 0. -1.
       -1   -1    0    0    0  501  0.00000000000E+00  0.00000000000E+00 -0.45702990267E+03  0.45702990270E+03  0.50400001928E-02 0.  1.
    10030    2    1    2    0    0  0.00000000000E+00  0.00000000000E+00  0.88337603889E+02  0.10023974093E+04  0.99849738801E+03 0.  0.
        3    1    3    3  502    0 -0.13751739370E+03 -0.18443565223E+03 -0.40064388003E+03  0.46199899588E+03  0.10100000352E+00 0.  1.
       -3    1    3    3    0  502  0.13751739370E+03  0.18443565223E+03  0.48898148392E+03  0.54039841340E+03  0.10100000352E+00 0. -1.
</event>
<event>
 5   0  0.5768102E-04  0.9998596E+03  0.7818609E-02  0.9308699E-01
       -1   -1    0    0    0  501  0.00000000000E+00  0.00000000000E+00  0.84903802439E+03  0.84903802440E+03  0.50400001928E-02 0. -1.
        1   -1    0    0  501    0  0.00000000000E+00  0.00000000000E+00 -0.29436819609E+03  0.29436819613E+03  0.50400001928E-02 0.  1.
    10030    2    1    2    0    0  0.00000000000E+00  0.00000000000E+00  0.55466982830E+03  0.11434062205E+04  0.99985957350E+03 0.  0.
        4    1    3    3  502    0  0.22926816774E+03 -0.25430899456E+03 -0.13922995115E+03  0.36962622966E+03  0.12699999809E+01 0.  1.
       -4    1    3    3    0  502 -0.22926816774E+03  0.25430899456E+03  0.69389977945E+03  0.77377999087E+03  0.12699999809E+01 0. -1.
</event>
<event>
 5   0  0.5768102E-04  0.1000201E+04  0.7818609E-02  0.9308325E-01
       -1   -1    0    0    0  501  0.00000000000E+00  0.00000000000E+00  0.50224707910E+03  0.50224707912E+03  0.50400001928E-02 0. -1.
        1   -1    0    0  501    0  0.00000000000E+00  0.00000000000E+00 -0.49796283324E+03  0.49796283327E+03  0.50400001928E-02 0.  1.
    10030    2    1    2    0    0  0.00000000000E+00  0.00000000000E+00  0.42842458538E+01  0.10002099124E+04  0.10002007369E+04 0.  0.
        4    1    3    3  502    0  0.63282901534E+02 -0.39674766303E+03 -0.29566143485E+03  0.49882936030E+03  0.12699999809E+01 0.  1.
       -4    1    3    3    0  502 -0.63282901534E+02  0.39674766303E+03  0.29994568070E+03  0.50138055209E+03  0.12699999809E+01 0. -1.
</event>
<event>
 5   0  0.9674819E-04  0.1001517E+04  0.7818609E-02  0.9306882E-01
       -2   -1    0    0    0  501  0.00000000000E+00  0.00000000000E+00  0.13213413970E+03  0.13213413973E+03  0.25500000920E-02 0. -1.
        2   -1    0    0  501    0  0.00000000000E+00  0.00000000000E+00 -0.18977628933E+04  0.18977628933E+04  0.25500000920E-02 0.  1.
    10030    2    1    2    0    0  0.00000000000E+00  0.00000000000E+00 -0.17656287536E+04  0.20298970330E+04  0.10015173834E+04 0.  0.
        4    1    3    3  502    0 -0.12232703754E+03  0.20795268824E+03 -0.17721928950E+04  0.17885406047E+04  0.12699999809E+01 0.  1.
       -4    1    3    3    0  502  0.12232703754E+03 -0.20795268824E+03  0.65641413752E+01  0.24135642836E+03  0.12699999809E+01 0. -1.
</event>
<event>
 5   0  0.3854625E-04  0.1009748E+04  0.7818609E-02  0.9297918E-01
        3   -1    0    0  501    0  0.00000000000E+00  0.00000000000E+00  0.10182165912E+04  0.10182165962E+04  0.10100000352E+00 0. -1.
       -3   -1    0    0    0  501  0.00000000000E+00  0.00000000000E+00 -0.25033744414E+03  0.25033746451E+03  0.10100000352E+00 0.  1.
    10030    2    1    2    0    0  0.00000000000E+00  0.00000000000E+00  0.76787914706E+03  0.12685540607E+04  0.10097479985E+04 0.  0.
        2    1    3    3  502    0 -0.16142502302E+03  0.46302746372E+03  0.23294580143E+03  0.54287771793E+03  0.25500000920E-02 0.  1.
       -2    1    3    3    0  502  0.16142502302E+03 -0.46302746372E+03  0.53493334563E+03  0.72567634279E+03  0.25500000920E-02 0. -1.
</event>
<event>
 5   0  0.5758786E-04  0.1000593E+04  0.7818609E-02  0.9307895E-01
        1   -1    0    0  501    0  0.00000000000E+00  0.00000000000E+00  0.19469081897E+04  0.19469081897E+04  0.50400001928E-02 0.  1.
       -1   -1    0    0    0  501  0.00000000000E+00  0.00000000000E+00 -0.12856100904E+03  0.12856100914E+03  0.50400001928E-02 0. -1.
    10030    2    1    2    0    0  0.00000000000E+00  0.00000000000E+00  0.18183471806E+04  0.20754691988E+04  0.10005927873E+04 0.  0.
        3    1    3    3  502    0 -0.63969642416E+01 -0.10649855649E+03  0.19230368087E+04  0.19259941437E+04  0.10100000352E+00 0.  1.
       -3    1    3    3    0  502  0.63969642416E+01  0.10649855649E+03 -0.10468962806E+03  0.14947505514E+03  0.10100000352E+00 0. -1.
</event>
<event>
 5   0  0.1006006E-03  0.9993671E+03  0.7818609E-02  0.9309239E-01
        2   -1    0    0  501    0  0.00000000000E+00  0.00000000000E+00  0.13385050704E+04  0.13385050704E+04  0.25500000920E-02 0. -1.
       -2   -1    0    0    0  501  0.00000000000E+00  0.00000000000E+00 -0.18653920627E+03  0.18653920629E+03  0.25500000920E-02 0.  1.
    10030    2    1    2    0    0  0.00000000000E+00  0.00000000000E+00  0.11519658641E+04  0.15250442767E+04  0.99936714661E+03 0.  0.
        2    1    3    3  502    0 -0.16735673434E+03 -0.37499144422E+03  0.10104452834E+04  0.10907000186E+04  0.25500000920E-02 0. -1.
       -2    1    3    3    0  502  0.16735673434E+03  0.37499144422E+03  0.14152058071E+03  0.43434425809E+03  0.25500000920E-02 0.  1.
</event>
<event>
 5   0  0.1020150E-03  0.1000505E+04  0.7818609E-02  0.9307991E-01
       -2   -1    0    0    0  501  0.00000000000E+00  0.00000000000E+00  0.55030971265E+03  0.55030971266E+03  0.25500000920E-02 0. -1.
        2   -1    0    0  501    0  0.00000000000E+00  0.00000000000E+00 -0.45474901503E+03  0.45474901504E+03  0.25500000920E-02 0.  1.
    10030    2    1    2    0    0  0.00000000000E+00  0.00000000000E+00  0.95560697622E+02  0.10050587277E+04  0.10005054718E+04 0.  0.
        5    1    3    3  502    0 -0.86735079280E+01 -0.49982405085E+03  0.29493154624E+02  0.50079062263E+03  0.46999998093E+01 0.  1.
       -5    1    3    3    0  502  0.86735079280E+01  0.49982405085E+03  0.66067542998E+02  0.50426810506E+03  0.46999998093E+01 0. -1.
</event>
<event>
 5   0  0.9741826E-04  0.1000293E+04  0.7818609E-02  0.9308224E-01
       -2   -1    0    0    0  501  0.00000000000E+00  0.00000000000E+00  0.71074499833E+03  0.71074499834E+03  0.25500000920E-02 0. -1.
        2   -1    0    0  501    0  0.00000000000E+00  0.00000000000E+00 -0.35194951564E+03  0.35194951565E+03  0.25500000920E-02 0.  1.
    10030    2    1    2    0    0  0.00000000000E+00  0.00000000000E+00  0.35879548269E+03  0.10626945140E+04  0.10002926730E+04 0.  0.
        3    1    3    3  502    0  0.23248580634E+03  0.12894726804E+03  0.62946397898E+03  0.68330224580E+03  0.10100000352E+00 0. -1.
       -3    1    3    3    0  502 -0.23248580634E+03 -0.12894726804E+03 -0.27066849628E+03  0.37939226819E+03  0.10100000352E+00 0.  1.
</event>
<event>
 5   0  0.5888774E-04  0.9969369E+03  0.7818609E-02  0.9311911E-01
        1   -1    0    0  501    0  0.00000000000E+00  0.00000000000E+00  0.11250763329E+04  0.11250763329E+04  0.50400001928E-02 0. -1.
       -1   -1    0    0    0  501  0.00000000000E+00  0.00000000000E+00 -0.22084795538E+03  0.22084795544E+03  0.50400001928E-02 0.  1.
    10030    2    1    2    0    0  0.00000000000E+00  0.00000000000E+00  0.90422837749E+03  0.13459242883E+04  0.99693692440E+03 0.  0.
        2    1    3    3  502    0  0.97231469455E+02  0.39143807053E+03  0.84755281971E+03  0.93862852285E+03  0.25500000920E-02 0. -1.
       -2    1    3    3    0  502 -0.97231469455E+02 -0.39143807053E+03  0.56675557783E+02  0.40729576547E+03  0.25500000920E-02 0.  1.
</event>
<event>
 5   0  0.9741826E-04  0.1014333E+04  0.7818609E-02  0.9292963E-01
       -2   -1    0    0    0  501  0.00000000000E+00  0.00000000000E+00  0.19920069917E+03  0.19920069919E+03  0.25500000920E-02 0. -1.
        2   -1    0    0  501    0  0.00000000000E+00  0.00000000000E+00 -0.12912493276E+04  0.12912493276E+04  0.25500000920E-02 0.  1.
    10030    2    1    2    0    0  0.00000000000E+00  0.00000000000E+00 -0.10920486285E+04  0.14904500268E+04  0.10143328229E+04 0.  0.
        3    1    3    3  502    0  0.22856815329E+03  0.45252604063E+03 -0.56651903440E+03  0.76024143842E+03  0.10100000352E+00 0.  1.
       -3    1    3    3    0  502 -0.22856815329E+03 -0.45252604063E+03 -0.52552959407E+03  0.73020858841E+03  0.10100000352E+00 0. -1.
</event>
<event>
 5   0  0.5960102E-04  0.1001912E+04  0.7818609E-02  0.9306450E-01
        1   -1    0    0  501    0  0.00000000000E+00  0.00000000000E+00  0.83560936319E+03  0.83560936320E+03  0.50400001928E-02 0.  1.
       -1   -1    0    0    0  501  0.00000000000E+00  0.00000000000E+00 -0.30032799629E+03  0.30032799633E+03  0.50400001928E-02 0. -1.
    10030    2    1    2    0    0  0.00000000000E+00  0.00000000000E+00  0.53528136690E+03  0.11359373595E+04  0.10019119438E+04 0.  0.
        5    1    3    3  502    0 -0.26028306896E+03 -0.17271515002E+03 -0.17635283152E+03  0.35874811528E+03  0.46999998093E+01 0. -1.
       -5    1    3    3    0  502  0.26028306896E+03  0.17271515002E+03  0.71163419842E+03  0.77718924426E+03  0.46999998093E+01 0.  1.
</event>
<event>
 5   0  0.5758786E-04  0.9993320E+03  0.7818609E-02  0.9309278E-01
       -1   -1    0    0    0  501  0.00000000000E+00  0.00000000000E+00  0.49851312720E+03  0.49851312723E+03  0.50400001928E-02 0. -1.
        1   -1    0    0  501    0  0.00000000000E+00  0.00000000000E+00 -0.50082156976E+03  0.50082156979E+03  0.50400001928E-02 0.  1.
    10030    2    1    2    0    0  0.00000000000E+00  0.00000000000E+00 -0.23084425577E+01  0.99933469702E+03  0.99933203079E+03 0.  0.
        3    1    3    3  502    0 -0.72053563101E+02 -0.69241145969E+02  0.48841839175E+03  0.49853644586E+03  0.10100000352E+00 0. -1.
       -3    1    3    3    0  502  0.72053563101E+02  0.69241145969E+02 -0.49072683431E+03  0.50079825116E+03  0.10100000352E+00 0.  1.
</event>
<event>
 5   0  0.3854625E-04  0.1000051E+04  0.7818609E-02  0.9308489E-01
       -3   -1    0    0    0  501  0.00000000000E+00  0.00000000000E+00  0.24817037829E+03  0.24817039884E+03  0.10100000352E+00 0. -1.
        3   -1    0    0  501    0  0.00000000000E+00  0.00000000000E+00 -0.10074745381E+04  0.10074745431E+04  0.10100000352E+00 0.  1.
    10030    2    1    2    0    0  0.00000000000E+00  0.00000000000E+00 -0.75930415978E+03  0.12556449420E+04  0.10000507053E+04 0.  0.
        5    1    3    3  502    0  0.24565535082E+03 -0.38731053235E+03 -0.12964549974E+03  0.47664037329E+03  0.46999998093E+01 0. -1.
       -5    1    3    3    0  502 -0.24565535082E+03  0.38731053235E+03 -0.62965866005E+03  0.77900456868E+03  0.46999998093E+01 0.  1.
</event>
<event>
 5   0  0.5768102E-04  0.1000493E+04  0.7818609E-02  0.9308004E-01
        1   -1    0    0  501    0  0.00000000000E+00  0.00000000000E+00  0.84161286124E+03  0.84161286125E+03  0.50400001928E-02 0. -1.
       -1   -1    0    0    0  501  0.00000000000E+00  0.00000000000E+00 -0.29734174738E+03  0.29734174743E+03  0.50400001928E-02 0.  1.
    10030    2    1    2    0    0  0.00000000000E+00  0.00000000000E+00  0.54427111386E+03  0.11389546087E+04  0.10004931560E+04 0.  0.
        4    1    3    3  502    0 -0.18496784271E+02 -0.34209795182E+03 -0.14282693619E+03  0.37117958763E+03  0.12699999809E+01 0.  1.
       -4    1    3    3    0  502  0.18496784271E+02  0.34209795182E+03  0.68709805005E+03  0.76777502105E+03  0.12699999809E+01 0. -1.
</event>
<event>
 5   0  0.9674819E-04  0.1000353E+04  0.7818609E-02  0.9308158E-01
       -2   -1    0    0    0  501  0.00000000000E+00  0.00000000000E+00  0.43411904442E+03  0.43411904442E+03  0.25500000920E-02 0. -1.
        2   -1    0    0  501    0  0.00000000000E+00  0.00000000000E+00 -0.57628557272E+03  0.57628557273E+03  0.25500000920E-02 0.  1.
    10030    2    1    2    0    0  0.00000000000E+00  0.00000000000E+00 -0.14216652830E+03  0.10104046172E+04  0.10003530220E+04 0.  0.
        4    1    3    3  502    0 -0.22809785609E+02 -0.22581598129E+03  0.37911021578E+03  0.44185892809E+03  0.12699999809E+01 0. -1.
       -4    1    3    3    0  502  0.22809785609E+02  0.22581598129E+03 -0.52127674408E+03  0.56854568906E+03  0.12699999809E+01 0.  1.
</event>
<event>
 5   0  0.5768102E-04  0.1001055E+04  0.7818609E-02  0.9307388E-01
       -1   -1    0    0    0  501  0.00000000000E+00  0.00000000000E+00  0.38393366580E+03  0.38393366583E+03  0.50400001928E-02 0.  1.
        1   -1    0    0  501    0  0.00000000000E+00  0.00000000000E+00 -0.65252881170E+03  0.65252881172E+03  0.50400001928E-02 0. -1.
    10030    2    1    2    0    0  0.00000000000E+00  0.00000000000E+00 -0.26859514590E+03  0.10364624775E+04  0.10010550010E+04 0.  0.
        4    1    3    3  502    0  0.35126843614E+03 -0.29446317326E+03 -0.34247673831E+03  0.57218004493E+03  0.12699999809E+01 0. -1.
       -4    1    3    3    0  502 -0.35126843614E+03  0.29446317326E+03  0.73881592411E+02  0.46428243261E+03  0.12699999809E+01 0.  1.
</event>
<event>
 5   0  0.1020150E-03  0.1001336E+04  0.7818609E-02  0.9307081E-01
        2   -1    0    0  501    0  0.00000000000E+00  0.00000000000E+00  0.16411877999E+04  0.16411877999E+04  0.25500000920E-02 0.  1.
       -2   -1    0    0    0  501  0.00000000000E+00  0.00000000000E+00 -0.15273597069E+03  0.15273597071E+03  0.25500000920E-02 0. -1.
    10030    2    1    2    0    0  0.00000000000E+00  0.00000000000E+00  0.14884518292E+04  0.17939237706E+04  0.10013359311E+04 0.  0.
        5    1    3    3  502    0  0.33710463466E+02 -0.12575770287E+03  0.16102876010E+04  0.16155493316E+04  0.46999998093E+01 0.  1.
       -5    1    3    3    0  502 -0.33710463466E+02  0.12575770287E+03 -0.12183577179E+03  0.17837443893E+03  0.46999998093E+01 0. -1.
</event>
<event>
 5   0  0.5758786E-04  0.1007071E+04  0.7818609E-02  0.9300823E-01
        1   -1    0    0  501    0  0.00000000000E+00  0.00000000000E+00  0.11744329191E+04  0.11744329191E+04  0.50400001928E-02 0.  1.
       -1   -1    0    0    0  501  0.00000000000E+00  0.00000000000E+00 -0.21588972748E+03  0.21588972754E+03  0.50400001928E-02 0. -1.
    10030    2    1    2    0    0  0.00000000000E+00  0.00000000000E+00  0.95854319164E+03  0.13903226467E+04  0.10070710063E+04 0.  0.
        3    1    3    3  502    0  0.27606768610E+03 -0.15481592582E+03  0.10199275327E+04  0.10679108204E+04  0.10100000352E+00 0.  1.
       -3    1    3    3    0  502 -0.27606768610E+03  0.15481592582E+03 -0.61384341053E+02  0.32241182627E+03  0.10100000352E+00 0. -1.
</event>
<event>
 5   0  0.1006006E-03  0.1002380E+04  0.7818609E-02  0.9305939E-01
        2   -1    0    0  501    0  0.00000000000E+00  0.00000000000E+00  0.14326833059E+04  0.14326833059E+04  0.25500000920E-02 0.  1.
       -2   -1    0    0    0  501  0.00000000000E+00  0.00000000000E+00 -0.17532917096E+03  0.17532917097E+03  0.25500000920E-02 0. -1.
    10030    2    1    2    0    0  0.00000000000E+00  0.00000000000E+00  0.12573541349E+04  0.16080124769E+04  0.10023795215E+04 0.  0.
        2    1    3    3  502    0  0.57464732935E+02 -0.11617939900E+03 -0.14797767501E+03  0.19671614217E+03  0.25500000920E-02 0. -1.
       -2    1    3    3    0  502 -0.57464732935E+02  0.11617939900E+03  0.14053318099E+04  0.14112963347E+04  0.25500000920E-02 0.  1.
</event>
<event>
 5   0  0.9674819E-04  0.9985249E+03  0.7818609E-02  0.9310164E-01
        2   -1    0    0  501    0  0.00000000000E+00  0.00000000000E+00  0.10501323245E+04  0.10501323245E+04  0.25500000920E-02 0. -1.
       -2   -1    0    0    0  501  0.00000000000E+00  0.00000000000E+00 -0.23736343495E+03  0.23736343496E+03  0.25500000920E-02 0.  1.
    10030    2    1    2    0    0  0.00000000000E+00  0.00000000000E+00  0.81276888958E+03  0.12874957595E+04  0.99852494354E+03 0.  0.
        4    1    3    3  502    0 -0.22707932610E+02  0.23152804358E+03  0.97597216205E+03  0.10033165797E+04  0.12699999809E+01 0. -1.
       -4    1    3    3    0  502  0.22707932610E+02 -0.23152804358E+03 -0.16320327247E+03  0.28417917977E+03  0.12699999809E+01 0.  1.
</event>
<event>
 5   0  0.1006006E-03  0.9906508E+03  0.7818609E-02  0.9318859E-01
       -2   -1    0    0    0  501  0.00000000000E+00  0.00000000000E+00  0.88812227740E+03  0.88812227741E+03  0.25500000920E-02 0.  1.
        2   -1    0    0  501    0  0.00000000000E+00  0.00000000000E+00 -0.27625390561E+03  0.27625390562E+03  0.25500000920E-02 0. -1.
    10030    2    1    2    0    0  0.00000000000E+00  0.00000000000E+00  0.61186837180E+03  0.11643761830E+04  0.99065079175E+03 0.  0.
        2    1    3    3  502    0 -0.30926097636E+03  0.24672565047E+03 -0.44378490449E+02  0.39810218352E+03  0.25500000920E-02 0. -1.
       -2    1    3    3    0  502  0.30926097636E+03 -0.24672565047E+03  0.65624686224E+03  0.76627399950E+03  0.25500000920E-02 0.  1.
</event>
<event>
 5   0  0.5768102E-04  0.1012627E+04  0.7818609E-02  0.9294804E-01
       -1   -1    0    0    0  501  0.00000000000E+00  0.00000000000E+00  0.86490582194E+03  0.86490582196E+03  0.50400001928E-02 0. -1.
        1   -1    0    0  501    0  0.00000000000E+00  0.00000000000E+00 -0.29639429301E+03  0.29639429305E+03  0.50400001928E-02 0.  1.
    10030    2    1    2    0    0  0.00000000000E+00  0.00000000000E+00  0.56851152894E+03  0.11613001150E+04  0.10126265840E+04 0.  0.
        4    1    3    3  502    0  0.18167805769E+03 -0.14012984901E+03  0.80186193936E+03  0.83404284897E+03  0.12699999809E+01 0. -1.
       -4    1    3    3    0  502 -0.18167805769E+03  0.14012984901E+03 -0.23335041042E+03  0.32725726604E+03  0.12699999809E+01 0.  1.
</event>
<event>
 5   0  0.1020150E-03  0.1011452E+04  0.7818609E-02  0.9296073E-01
        2   -1    0    0  501    0  0.00000000000E+00  0.00000000000E+00  0.45289419495E+03  0.45289419496E+03  0.25500000920E-02 0.  1.
       -2   -1    0    0    0  501  0.00000000000E+00  0.00000000000E+00 -0.56472103347E+03  0.56472103348E+03  0.25500000920E-02 0. -1.
    10030    2    1    2    0    0  0.00000000000E+00  0.00000000000E+00 -0.11182683852E+03  0.10176152284E+04  0.10114521795E+04 0.  0.
        5    1    3    3  502    0 -0.26030779310E+03  0.10902534720E+03 -0.47810126922E+03  0.55520229386E+03  0.46999998093E+01 0. -1.
       -5    1    3    3    0  502  0.26030779310E+03 -0.10902534720E+03  0.36627443070E+03  0.46241293458E+03  0.46999998093E+01 0.  1.
</event>
<event>
 5   0  0.5888774E-04  0.9997745E+03  0.7818609E-02  0.9308792E-01
       -1   -1    0    0    0  501  0.00000000000E+00  0.00000000000E+00  0.19142504875E+03  0.19142504881E+03  0.50400001928E-02 0.  1.
        1   -1    0    0  501    0  0.00000000000E+00  0.00000000000E+00 -0.13054053178E+04  0.13054053178E+04  0.50400001928E-02 0. -1.
    10030    2    1    2    0    0  0.00000000000E+00  0.00000000000E+00 -0.11139802691E+04  0.14968303666E+04  0.99977452789E+03 0.  0.
        2    1    3    3  502    0 -0.23127976080E+03  0.33720656249E+03 -0.12646991279E+03  0.42801078537E+03  0.25500000920E-02 0.  1.
       -2    1    3    3    0  502  0.23127976080E+03 -0.33720656249E+03 -0.98751035627E+03  0.10688195813E+04  0.25500000920E-02 0. -1.
</event>
<event>
 5   0  0.5826939E-04  0.9999350E+03  0.7818609E-02  0.9308616E-01
        1   -1    0    0  501    0  0.00000000000E+00  0.00000000000E+00  0.57618829409E+03  0.57618829411E+03  0.50400001928E-02 0. -1.
       -1   -1    0    0    0  501  0.00000000000E+00  0.00000000000E+00 -0.43382953844E+03  0.43382953847E+03  0.50400001928E-02 0.  1.
    10030    2    1    2    0    0  0.00000000000E+00  0.00000000000E+00  0.14235875564E+03  0.10100178326E+04  0.99993500130E+03 0.  0.
        1    1    3    3  502    0 -0.61276437384E+02  0.32544281940E+03  0.44952228597E+03  0.55833512883E+03  0.50400001928E-02 0. -1.
       -1    1    3    3    0  502  0.61276437384E+02 -0.32544281940E+03 -0.30716353033E+03  0.45168270375E+03  0.50400001928E-02 0.  1.
</event>
<event>
 5   0  0.5960102E-04  0.1000184E+04  0.7818609E-02  0.9308343E-01
       -1   -1    0    0    0  501  0.00000000000E+00  0.00000000000E+00  0.20307697961E+03  0.20307697967E+03  0.50400001928E-02 0. -1.
        1   -1    0    0  501    0  0.00000000000E+00  0.00000000000E+00 -0.12315128786E+04  0.12315128786E+04  0.50400001928E-02 0.  1.
    10030    2    1    2    0    0  0.00000000000E+00  0.00000000000E+00 -0.10284358990E+04  0.14345898583E+04  0.10001838147E+04 0.  0.
        5    1    3    3  502    0  0.19793079661E+03  0.36124572385E+03 -0.92090634965E+03  0.10088437283E+04  0.46999998093E+01 0.  1.
       -5    1    3    3    0  502 -0.19793079661E+03 -0.36124572385E+03 -0.10752954935E+03  0.42574613002E+03  0.46999998093E+01 0. -1.
</event>
<event>
 5   0  0.5768102E-04  0.9982732E+03  0.7818609E-02  0.9310441E-01
        1   -1    0    0  501    0  0.00000000000E+00  0.00000000000E+00  0.82365194427E+03  0.82365194428E+03  0.50400001928E-02 0.  1.
       -1   -1    0    0    0  501  0.00000000000E+00  0.00000000000E+00 -0.30247893215E+03  0.30247893219E+03  0.50400001928E-02 0. -1.
    10030    2    1    2    0    0  0.00000000000E+00  0.00000000000E+00  0.52117301212E+03  0.11261308765E+04  0.99827323033E+03 0.  0.
        4    1    3    3  502    0  0.20371695247E+03 -0.36956720983E+03  0.56128929829E+03  0.70223059502E+03  0.12699999809E+01 0.  1.
       -4    1    3    3    0  502 -0.20371695247E+03  0.36956720983E+03 -0.40116286177E+02  0.42390028146E+03  0.12699999809E+01 0. -1.
</event>
<event>
 5   0  0.1006749E-03  0.1001539E+04  0.7818609E-02  0.9306859E-01
        2   -1    0    0  501    0  0.00000000000E+00  0.00000000000E+00  0.11857097943E+04  0.11857097943E+04  0.25500000920E-02 0.  1.
       -2   -1    0    0    0  501  0.00000000000E+00  0.00000000000E+00 -0.21149351794E+03  0.21149351796E+03  0.25500000920E-02 0. -1.
    10030    2    1    2    0    0  0.00000000000E+00  0.00000000000E+00  0.97421627638E+03  0.13972033123E+04  0.10015386876E+04 0.  0.
        1    1    3    3  502    0  0.41202430211E+03 -0.88496277333E+02  0.10973479328E+03  0.43547369785E+03  0.50400001928E-02 0. -1.
       -1    1    3    3    0  502 -0.41202430211E+03  0.88496277333E+02  0.86448148310E+03  0.96172961443E+03  0.50400001928E-02 0.  1.
</event>
<event>
 5   0  0.5826939E-04  0.9998093E+03  0.7818609E-02  0.9308754E-01
        1   -1    0    0  501    0  0.00000000000E+00  0.00000000000E+00  0.15582682282E+04  0.15582682282E+04  0.50400001928E-02 0. -1.
       -1   -1    0    0    0  501  0.00000000000E+00  0.00000000000E+00 -0.16037332512E+03  0.16037332520E+03  0.50400001928E-02 0.  1.
    10030    2    1    2    0    0  0.00000000000E+00  0.00000000000E+00  0.13978949031E+04  0.17186415534E+04  0.99980929633E+03 0.  0.
        1    1    3    3  502    0  0.40631006946E+03  0.19179481264E+03  0.10756784602E+04  0.11657432275E+04  0.50400001928E-02 0. -1.
       -1    1    3    3    0  502 -0.40631006946E+03 -0.19179481264E+03  0.32221644289E+03  0.55289832591E+03  0.50400001928E-02 0.  1.
</event>
<event>
 5   0  0.9741826E-04  0.1000175E+04  0.7818609E-02  0.9308352E-01
       -2   -1    0    0    0  501  0.00000000000E+00  0.00000000000E+00  0.35655314564E+03  0.35655314565E+03  0.25500000920E-02 0. -1.
        2   -1    0    0  501    0  0.00000000000E+00  0.00000000000E+00 -0.70140369333E+03  0.70140369334E+03  0.25500000920E-02 0.  1.
    10030    2    1    2    0    0  0.00000000000E+00  0.00000000000E+00 -0.34485054769E+03  0.10579568390E+04  0.10001753711E+04 0.  0.
        3    1    3    3  502    0 -0.22998387234E+03 -0.92439911256E+02  0.28700558040E+03  0.37922280010E+03  0.10100000352E+00 0. -1.
       -3    1    3    3    0  502  0.22998387234E+03  0.92439911256E+02 -0.63185612810E+03  0.67873403889E+03  0.10100000352E+00 0.  1.
</event>
<event>
 5   0  0.1006749E-03  0.1000887E+04  0.7818609E-02  0.9307573E-01
       -2   -1    0    0    0  501  0.00000000000E+00  0.00000000000E+00  0.48926660695E+03  0.48926660696E+03  0.25500000920E-02 0. -1.
        2   -1    0    0  501    0  0.00000000000E+00  0.00000000000E+00 -0.51187522154E+03  0.51187522154E+03  0.25500000920E-02 0.  1.
    10030    2    1    2    0    0  0.00000000000E+00  0.00000000000E+00 -0.22608614581E+02  0.10011418285E+04  0.10008865127E+04 0.  0.
        1    1    3    3  502    0 -0.49175001000E+03 -0.35865151313E+02  0.74385926168E+02  0.49863578637E+03  0.50400001928E-02 0. -1.
       -1    1    3    3    0  502  0.49175001000E+03  0.35865151313E+02 -0.96994540749E+02  0.50250604213E+03  0.50400001928E-02 0.  1.
</event>
<event>
 5   0  0.1006749E-03  0.1000490E+04  0.7818609E-02  0.9308008E-01
       -2   -1    0    0    0  501  0.00000000000E+00  0.00000000000E+00  0.68047605865E+03  0.68047605865E+03  0.25500000920E-02 0. -1.
        2   -1    0    0  501    0  0.00000000000E+00  0.00000000000E+00 -0.36774977623E+03  0.36774977624E+03  0.25500000920E-02 0.  1.
    10030    2    1    2    0    0  0.00000000000E+00  0.00000000000E+00  0.31272628242E+03  0.10482258349E+04  0.10004897167E+04 0.  0.
        1    1    3    3  502    0 -0.46471880320E+03  0.90292632080E+01  0.35011869934E+03  0.58191768945E+03  0.50400001928E-02 0.  1.
       -1    1    3    3    0  502  0.46471880320E+03 -0.90292632080E+01 -0.37392416918E+02  0.46630814544E+03  0.50400001928E-02 0. -1.
</event>
<event>
 5   0  0.1020150E-03  0.1000904E+04  0.7818609E-02  0.9307554E-01
       -2   -1    0    0    0  501  0.00000000000E+00  0.00000000000E+00  0.29925741443E+03  0.29925741444E+03  0.25500000920E-02 0.  1.
        2   -1    0    0  501    0  0.00000000000E+00  0.00000000000E+00 -0.83691185808E+03  0.83691185808E+03  0.25500000920E-02 0. -1.
    10030    2    1    2    0    0  0.00000000000E+00  0.00000000000E+00 -0.53765444365E+03  0.11361692725E+04  0.10009037491E+04 0.  0.
        5    1    3    3  502    0 -0.35542367429E+03  0.29615712590E+03 -0.48538377520E+03  0.67056284619E+03  0.46999998093E+01 0. -1.
       -5    1    3    3    0  502  0.35542367429E+03 -0.29615712590E+03 -0.52270668447E+02  0.46560642633E+03  0.46999998093E+01 0.  1.
</event>
<event>
 5   0  0.5960102E-04  0.9995683E+03  0.7818609E-02  0.9309018E-01
       -1   -1    0    0    0  501  0.00000000000E+00  0.00000000000E+00  0.39275937944E+03  0.39275937947E+03  0.50400001928E-02 0.  1.
        1   -1    0    0  501    0  0.00000000000E+00  0.00000000000E+00 -0.63597262791E+03  0.63597262793E+03  0.50400001928E-02 0. -1.
    10030    2    1    2    0    0  0.00000000000E+00  0.00000000000E+00 -0.24321324848E+03  0.10287320074E+04  0.99956833624E+03 0.  0.
        5    1    3    3  502    0  0.22931636352E+03  0.11179407811E+03 -0.56388692405E+03  0.61893009589E+03  0.46999998093E+01 0. -1.
       -5    1    3    3    0  502 -0.22931636352E+03 -0.11179407811E+03  0.32067367558E+03  0.40980191152E+03  0.46999998093E+01 0.  1.
</event>
<event>
 5   0  0.9741826E-04  0.9991860E+03  0.7818609E-02  0.9309438E-01
       -2   -1    0    0    0  501  0.00000000000E+00  0.00000000000E+00  0.10929524842E+03  0.10929524845E+03  0.25500000920E-02 0. -1.
        2   -1    0    0  501    0  0.00000000000E+00  0.00000000000E+00 -0.22836596889E+04  0.22836596889E+04  0.25500000920E-02 0.  1.
    10030    2    1    2    0    0  0.00000000000E+00  0.00000000000E+00 -0.21743644405E+04  0.23929549374E+04  0.99918597479E+03 0.  0.
        3    1    3    3  502    0 -0.33339255058E+03 -0.17026523130E+03 -0.29486218285E+03  0.47653390105E+03  0.10100000352E+00 0. -1.
       -3    1    3    3    0  502  0.33339255058E+03  0.17026523130E+03 -0.18795022577E+04  0.19164210363E+04  0.10100000352E+00 0.  1.
</event>
<event>
 5   0  0.5888774E-04  0.1000927E+04  0.7818609E-02  0.9307529E-01
        1   -1    0    0  501    0  0.00000000000E+00  0.00000000000E+00  0.63378671782E+03  0.63378671784E+03  0.50400001928E-02 0. -1.
       -1   -1    0    0    0  501  0.00000000000E+00  0.00000000000E+00 -0.39518621625E+03  0.39518621628E+03  0.50400001928E-02 0.  1.
    10030    2    1    2    0    0  0.00000000000E+00  0.00000000000E+00  0.23860050158E+03  0.10289729341E+04  0.10009271201E+04 0.  0.
        2    1    3    3  502    0  0.49124255945E+03 -0.94062894570E+02  0.13700771251E+03  0.51859251214E+03  0.25500000920E-02 0.  1.
       -2    1    3    3    0  502 -0.49124255945E+03  0.94062894570E+02  0.10159278907E+03  0.51038042199E+03  0.25500000920E-02 0. -1.
</event>
<event>
 5   0  0.5826939E-04  0.9971283E+03  0.7818609E-02  0.9311700E-01
        1   -1    0    0  501    0  0.00000000000E+00  0.00000000000E+00  0.44716580126E+03  0.44716580128E+03  0.50400001928E-02 0. -1.
       -1   -1    0    0    0  501  0.00000000000E+00  0.00000000000E+00 -0.55587037386E+03  0.55587037388E+03  0.50400001928E-02 0.  1.
    10030    2    1    2    0    0  0.00000000000E+00  0.00000000000E+00 -0.10870457260E+03  0.10030361752E+04  0.99712831902E+03 0.  0.
        1    1    3    3  502    0  0.88877848051E+02  0.30385792644E+03 -0.44178005471E+03  0.54350577559E+03  0.50400001928E-02 0.  1.
       -1    1    3    3    0  502 -0.88877848051E+02 -0.30385792644E+03  0.33307548210E+03  0.45953039958E+03  0.50400001928E-02 0. -1.
</event>
<event>
 5   0  0.5758786E-04  0.9959687E+03  0.7818609E-02  0.9312977E-01
       -1   -1    0    0    0  501  0.00000000000E+00  0.00000000000E+00  0.71146189992E+03  0.71146189993E+03  0.50400001928E-02 0. -1.
        1   -1    0    0  501    0  0.00000000000E+00  0.00000000000E+00 -0.34856175290E+03  0.34856175293E+03  0.50400001928E-02 0.  1.
    10030    2    1    2    0    0  0.00000000000E+00  0.00000000000E+00  0.36290014702E+03  0.10600236529E+04  0.99596868823E+03 0.  0.
        3    1    3    3  502    0  0.25125961730E+03  0.49287459789E+02  0.63603530174E+03  0.68563952937E+03  0.10100000352E+00 0. -1.
       -3    1    3    3    0  502 -0.25125961730E+03 -0.49287459789E+02 -0.27313515473E+03  0.37438412349E+03  0.10100000352E+00 0.  1.
</event>
<event>
 5   0  0.5758786E-04  0.9925653E+03  0.7818609E-02  0.9316737E-01
       -1   -1    0    0    0  501  0.00000000000E+00  0.00000000000E+00  0.12516941783E+03  0.12516941793E+03  0.50400001928E-02 0.  1.
        1   -1    0    0  501    0  0.00000000000E+00  0.00000000000E+00 -0.19677047509E+04  0.19677047509E+04  0.50400001928E-02 0. -1.
    10030    2    1    2    0    0  0.00000000000E+00  0.00000000000E+00 -0.18425353330E+04  0.20928741688E+04  0.99256527894E+03 0.  0.
        3    1    3    3  502    0 -0.30853354167E+03  0.35572226573E+03 -0.59078861326E+03  0.75548823448E+03  0.10100000352E+00 0.  1.
       -3    1    3    3    0  502  0.30853354167E+03 -0.35572226573E+03 -0.12517467198E+04  0.13373859343E+04  0.10100000352E+00 0. -1.
</event>
<event>
 5   0  0.1006006E-03  0.9999538E+03  0.7818609E-02  0.9308595E-01
       -2   -1    0    0    0  501  0.00000000000E+00  0.00000000000E+00  0.41943083716E+03  0.41943083716E+03  0.25500000920E-02 0. -1.
        2   -1    0    0  501    0  0.00000000000E+00  0.00000000000E+00 -0.59599076319E+03  0.59599076319E+03  0.25500000920E-02 0.  1.
    10030    2    1    2    0    0  0.00000000000E+00  0.00000000000E+00 -0.17655992603E+03  0.10154216004E+04  0.99995380843E+03 0.  0.
        2    1    3    3  502    0  0.64316512108E+02 -0.25616727280E+03 -0.51936831459E+03  0.58266777119E+03  0.25500000920E-02 0.  1.
       -2    1    3    3    0  502 -0.64316512108E+02  0.25616727280E+03  0.34280838856E+03  0.43275382916E+03  0.25500000920E-02 0. -1.
</event>
<event>
 5   0  0.5960102E-04  0.9998333E+03  0.7818609E-02  0.9308728E-01
       -1   -1    0    0    0  501  0.00000000000E+00  0.00000000000E+00  0.16548116083E+03  0.16548116091E+03  0.50400001928E-02 0. -1.
        1   -1    0    0  501    0  0.00000000000E+00  0.00000000000E+00 -0.15102422840E+04  0.15102422840E+04  0.50400001928E-02 0.  1.
    10030    2    1    2    0    0  0.00000000000E+00  0.00000000000E+00 -0.13447611231E+04  0.16757234449E+04  0.99983327881E+03 0.  0.
        5    1    3    3  502    0  0.32412579422E+03 -0.19971087496E+03 -0.12941617728E+03  0.40213505318E+03  0.46999998093E+01 0. -1.
       -5    1    3    3    0  502 -0.32412579422E+03  0.19971087496E+03 -0.12153449459E+04  0.12735883917E+04  0.46999998093E+01 0.  1.
</event>
<event>
 5   0  0.1020150E-03  0.1011573E+04  0.7818609E-02  0.9295942E-01
       -2   -1    0    0    0  501  0.00000000000E+00  0.00000000000E+00  0.10034625958E+04  0.10034625958E+04  0.25500000920E-02 0. -1.
        2   -1    0    0  501    0  0.00000000000E+00  0.00000000000E+00 -0.25493726754E+03  0.25493726755E+03  0.25500000920E-02 0.  1.
    10030    2    1    2    0    0  0.00000000000E+00  0.00000000000E+00  0.74852532825E+03  0.12583998633E+04  0.10115730567E+04 0.  0.
        5    1    3    3  502    0 -0.35609945606E+03  0.28312585202E+03  0.99366577001E+02  0.46568538447E+03  0.46999998093E+01 0.  1.
       -5    1    3    3    0  502  0.35609945606E+03 -0.28312585202E+03  0.64915875125E+03  0.79271447887E+03  0.46999998093E+01 0. -1.
</event>
<event>
 5   0  0.5888774E-04  0.1001329E+04  0.7818609E-02  0.9307088E-01
        1   -1    0    0  501    0  0.00000000000E+00  0.00000000000E+00  0.51063744107E+03  0.51063744110E+03  0.50400001928E-02 0. -1.
       -1   -1    0    0    0  501  0.00000000000E+00  0.00000000000E+00 -0.49088643873E+03  0.49088643875E+03  0.50400001928E-02 0.  1.
    10030    2    1    2    0    0  0.00000000000E+00  0.00000000000E+00  0.19751002345E+02  0.10015238799E+04  0.10013291066E+04 0.  0.
        2    1    3    3  502    0  0.32831121137E+03 -0.26767794079E+03  0.27680802984E+03  0.50602610297E+03  0.25500000920E-02 0. -1.
       -2    1    3    3    0  502 -0.32831121137E+03  0.26767794079E+03 -0.25705702749E+03  0.49549777688E+03  0.25500000920E-02 0.  1.
</event>
<event>
 5   0  0.3854625E-04  0.9998959E+03  0.7818609E-02  0.9308659E-01
        4   -1    0    0  501    0  0.00000000000E+00  0.00000000000E+00  0.93867843217E+03  0.93867929130E+03  0.12699999809E+01 0. -1.
       -4   -1    0    0    0  501  0.00000000000E+00  0.00000000000E+00 -0.26627393789E+03  0.26627696652E+03  0.12699999809E+01 0.  1.
    10030    2    1    2    0    0  0.00000000000E+00  0.00000000000E+00  0.67240449428E+03  0.12049562578E+04  0.99989588425E+03 0.  0.
        4    1    3    3  502    0  0.17195658771E+03 -0.30704461270E+03  0.76413501392E+03  0.84127842873E+03  0.12699999809E+01 0. -1.
       -4    1    3    3    0  502 -0.17195658771E+03  0.30704461270E+03 -0.91730519644E+02  0.36367782910E+03  0.12699999809E+01 0.  1.
</event>
<event>
 5   0  0.5826939E-04  0.9979803E+03  0.7818609E-02  0.9310763E-01
       -1   -1    0    0    0  501  0.00000000000E+00  0.00000000000E+00  0.78976604599E+03  0.78976604601E+03  0.50400001928E-02 0.  1.
        1   -1    0    0  501    0  0.00000000000E+00  0.00000000000E+00 -0.31527203198E+03  0.31527203202E+03  0.50400001928E-02 0. -1.
    10030    2    1    2    0    0  0.00000000000E+00  0.00000000000E+00  0.47449401401E+03  0.11050380780E+04  0.99798025259E+03 0.  0.
        1    1    3    3  502    0 -0.15269477257E+03 -0.27331968397E+03  0.66747950918E+03  0.73725724032E+03  0.50400001928E-02 0.  1.
       -1    1    3    3    0  502  0.15269477257E+03  0.27331968397E+03 -0.19298549517E+03  0.36778083771E+03  0.50400001928E-02 0. -1.
</event>
<event>
 5   0  0.5888774E-04  0.1002491E+04  0.7818609E-02  0.9305817E-01
       -1   -1    0    0    0  501  0.00000000000E+00  0.00000000000E+00  0.56988146504E+03  0.56988146507E+03  0.50400001928E-02 0. -1.
        1   -1    0    0  501    0  0.00000000000E+00  0.00000000000E+00 -0.44087600245E+03  0.44087600248E+03  0.50400001928E-02 0.  1.
    10030    2    1    2    0    0  0.00000000000E+00  0.00000000000E+00  0.12900546259E+03  0.10107574675E+04  0.10024910218E+04 0.  0.
        2    1    3    3  502    0 -0.62944960323E+02  0.11579843799E+03 -0.42309203095E+03  0.44314581452E+03  0.25500000920E-02 0.  1.
       -2    1    3    3    0  502  0.62944960323E+02 -0.11579843799E+03  0.55209749354E+03  0.56761165302E+03  0.25500000920E-02 0. -1.
</event>
<event>
 5   0  0.1006749E-03  0.9998187E+03  0.7818609E-02  0.9308744E-01
       -2   -1    0    0    0  501  0.00000000000E+00  0.00000000000E+00  0.12387368221E+03  0.12387368224E+03  0.25500000920E-02 0. -1.
        2   -1    0    0  501    0  0.00000000000E+00  0.00000000000E+00 -0.20174532724E+04  0.20174532724E+04  0.25500000920E-02 0.  1.
    10030    2    1    2    0    0  0.00000000000E+00  0.00000000000E+00 -0.18935795901E+04  0.21413269546E+04  0.99981871471E+03 0.  0.
        1    1    3    3  502    0 -0.36999763378E+03  0.26311941812E+03 -0.49866799585E+03  0.67438849879E+03  0.50400001928E-02 0. -1.
       -1    1    3    3    0  502  0.36999763378E+03 -0.26311941812E+03 -0.13949115943E+04  0.14669384558E+04  0.50400001928E-02 0.  1.
</event>
<event>
 5   0  0.1006749E-03  0.1001759E+04  0.7818609E-02  0.9306617E-01
       -2   -1    0    0    0  501  0.00000000000E+00  0.00000000000E+00  0.12474470295E+03  0.12474470297E+03  0.25500000920E-02 0.  1.
        2   -1    0    0  501    0  0.00000000000E+00  0.00000000000E+00 -0.20111503860E+04  0.20111503860E+04  0.25500000920E-02 0. -1.
    10030    2    1    2    0    0  0.00000000000E+00  0.00000000000E+00 -0.18864056830E+04  0.21358950890E+04  0.10017591677E+04 0.  0.
        1    1    3    3  502    0  0.25041665693E+03  0.14126005185E+02 -0.18795188154E+02  0.25151800177E+03  0.50400001928E-02 0.  1.
       -1    1    3    3    0  502 -0.25041665693E+03 -0.14126005185E+02 -0.18676104949E+04  0.18843770872E+04  0.50400001928E-02 0. -1.
</event>
<event>
 5   0  0.3854625E-04  0.9996982E+03  0.7818609E-02  0.9308876E-01
        3   -1    0    0  501    0  0.00000000000E+00  0.00000000000E+00  0.95893370234E+03  0.95893370766E+03  0.10100000352E+00 0. -1.
       -3   -1    0    0    0  501  0.00000000000E+00  0.00000000000E+00 -0.26054888686E+03  0.26054890644E+03  0.10100000352E+00 0.  1.
    10030    2    1    2    0    0  0.00000000000E+00  0.00000000000E+00  0.69838481548E+03  0.12194826141E+04  0.99969820226E+03 0.  0.
        2    1    3    3  502    0  0.43969534112E+03 -0.10499751493E+03  0.89010356721E+02  0.46073779393E+03  0.25500000920E-02 0.  1.
       -2    1    3    3    0  502 -0.43969534112E+03  0.10499751493E+03  0.60937445876E+03  0.75874482017E+03  0.25500000920E-02 0. -1.
</event>
<event>
 5   0  0.5768102E-04  0.9996549E+03  0.7818609E-02  0.9308923E-01
       -1   -1    0    0    0  501  0.00000000000E+00  0.00000000000E+00  0.92939097315E+03  0.92939097316E+03  0.50400001928E-02 0. -1.
        1   -1    0    0  501    0  0.00000000000E+00  0.00000000000E+00 -0.26880773141E+03  0.26880773146E+03  0.50400001928E-02 0.  1.
    10030    2    1    2    0    0  0.00000000000E+00  0.00000000000E+00  0.66058324174E+03  0.11981987046E+04  0.99965489870E+03 0.  0.
        4    1    3    3  502    0  0.11264059997E+03  0.39539831980E+03 -0.10414081504E+02  0.41126366489E+03  0.12699999809E+01 0.  1.
       -4    1    3    3    0  502 -0.11264059997E+03 -0.39539831980E+03  0.67099732324E+03  0.78693503973E+03  0.12699999809E+01 0. -1.
</event>
<event>
 5   0  0.1020150E-03  0.9968665E+03  0.7818609E-02  0.9311988E-01
       -2   -1    0    0    0  501  0.00000000000E+00  0.00000000000E+00  0.37411362940E+03  0.37411362941E+03  0.25500000920E-02 0. -1.
        2   -1    0    0  501    0  0.00000000000E+00  0.00000000000E+00 -0.66406487608E+03  0.66406487608E+03  0.25500000920E-02 0.  1.
    10030    2    1    2    0    0  0.00000000000E+00  0.00000000000E+00 -0.28995124667E+03  0.10381785055E+04  0.99686653260E+03 0.  0.
        5    1    3    3  502    0  0.38178155944E+03 -0.31887195430E+03 -0.11242080155E+03  0.50999706762E+03  0.46999998093E+01 0.  1.
       -5    1    3    3    0  502 -0.38178155944E+03  0.31887195430E+03 -0.17753044513E+03  0.52818143787E+03  0.46999998093E+01 0. -1.
</event>
<event>
 5   0  0.5960102E-04  0.1000586E+04  0.7818609E-02  0.9307902E-01
       -1   -1    0    0    0  501  0.00000000000E+00  0.00000000000E+00  0.14570369847E+04  0.14570369847E+04  0.50400001928E-02 0.  1.
        1   -1    0    0  501    0  0.00000000000E+00  0.00000000000E+00 -0.17178240094E+03  0.17178240101E+03  0.50400001928E-02 0. -1.
    10030    2    1    2    0    0  0.00000000000E+00  0.00000000000E+00  0.12852545837E+04  0.16288193857E+04  0.10005864511E+04 0.  0.
        5    1    3    3  502    0  0.20438935004E+03 -0.27047345366E+03  0.43758170402E+02  0.34185927371E+03  0.46999998093E+01 0. -1.
       -5    1    3    3    0  502 -0.20438935004E+03  0.27047345366E+03  0.12414964133E+04  0.12869601120E+04  0.46999998093E+01 0.  1.
</event>
<event>
 5   0  0.5888774E-04  0.9924864E+03  0.7818609E-02  0.9316824E-01
       -1   -1    0    0    0  501  0.00000000000E+00  0.00000000000E+00  0.52051441173E+03  0.52051441176E+03  0.50400001928E-02 0.  1.
        1   -1    0    0  501    0  0.00000000000E+00  0.00000000000E+00 -0.47310378204E+03  0.47310378206E+03  0.50400001928E-02 0. -1.
    10030    2    1    2    0    0  0.00000000000E+00  0.00000000000E+00  0.47410629698E+02  0.99361819382E+03  0.99248644690E+03 0.  0.
        2    1    3    3  502    0 -0.21329970850E+03  0.27640942671E+03  0.37675230482E+03  0.51365478292E+03  0.25500000920E-02 0.  1.
       -2    1    3    3    0  502  0.21329970850E+03 -0.27640942671E+03 -0.32934167512E+03  0.47996341090E+03  0.25500000920E-02 0. -1.
</event>
<event>
 5   0  0.1020150E-03  0.1000569E+04  0.7818609E-02  0.9307921E-01
        2   -1    0    0  501    0  0.00000000000E+00  0.00000000000E+00  0.87684612094E+03  0.87684612094E+03  0.25500000920E-02 0. -1.
       -2   -1    0    0    0  501  0.00000000000E+00  0.00000000000E+00 -0.28543746776E+03  0.28543746777E+03  0.25500000920E-02 0.  1.
    10030    2    1    2    0    0  0.00000000000E+00  0.00000000000E+00  0.59140865318E+03  0.11622835887E+04  0.10005693107E+04 0.  0.
        5    1    3    3  502    0  0.47139963838E+03  0.15252428299E+03  0.21538110420E+03  0.54027065995E+03  0.46999998093E+01 0.  1.
       -5    1    3    3    0  502 -0.47139963838E+03 -0.15252428299E+03  0.37602754898E+03  0.62201292876E+03  0.46999998093E+01 0. -1.
</event>
<event>
 5   0  0.1006749E-03  0.9997863E+03  0.7818609E-02  0.9308779E-01
       -2   -1    0    0    0  501  0.00000000000E+00  0.00000000000E+00  0.11218350993E+04  0.11218350993E+04  0.25500000920E-02 0.  1.
        2   -1    0    0  501    0  0.00000000000E+00  0.00000000000E+00 -0.22275392440E+03  0.22275392441E+03  0.25500000920E-02 0. -1.
    10030    2    1    2    0    0  0.00000000000E+00  0.00000000000E+00  0.89908117487E+03  0.13445890237E+04  0.99978631898E+03 0.  0.
        1    1    3    3  502    0  0.11581896251E+03  0.69852362868E+02 -0.19767869724E+03  0.23952088019E+03  0.50400001928E-02 0. -1.
       -1    1    3    3    0  502 -0.11581896251E+03 -0.69852362868E+02  0.10967598721E+04  0.11050681435E+04  0.50400001928E-02 0.  1.
</event>
<event>
 5   0  0.5888774E-04  0.1030768E+04  0.7818609E-02  0.9275428E-01
        1   -1    0    0  501    0  0.00000000000E+00  0.00000000000E+00  0.56814523998E+03  0.56814524000E+03  0.50400001928E-02 0. -1.
       -1   -1    0    0    0  501  0.00000000000E+00  0.00000000000E+00 -0.46752291515E+03  0.46752291517E+03  0.50400001928E-02 0.  1.
    10030    2    1    2    0    0  0.00000000000E+00  0.00000000000E+00  0.10062232483E+03  0.10356681552E+04  0.10307684878E+04 0.  0.
        2    1    3    3  502    0 -0.37530162761E+03 -0.31861669014E+03  0.20352539025E+03  0.53271989958E+03  0.25500000920E-02 0. -1.
       -2    1    3    3    0  502  0.37530162761E+03  0.31861669014E+03 -0.10290306542E+03  0.50294825559E+03  0.25500000920E-02 0.  1.
</event>
<event>
 5   0  0.5960102E-04  0.9975401E+03  0.7818609E-02  0.9311247E-01
        1   -1    0    0  501    0  0.00000000000E+00  0.00000000000E+00  0.31395541706E+03  0.31395541710E+03  0.50400001928E-02 0.  1.
       -1   -1    0    0    0  501  0.00000000000E+00  0.00000000000E+00 -0.79237860213E+03  0.79237860214E+03  0.50400001928E-02 0. -1.
    10030    2    1    2    0    0  0.00000000000E+00  0.00000000000E+00 -0.47842318507E+03  0.11063340192E+04  0.99754008347E+03 0.  0.
        5    1    3    3  502    0  0.68644087700E+02  0.20304244221E+03 -0.73867295840E+03  0.76915412863E+03  0.46999998093E+01 0. -1.
       -5    1    3    3    0  502 -0.68644087700E+02 -0.20304244221E+03  0.26024977333E+03  0.33717989062E+03  0.46999998093E+01 0.  1.
</event>
<event>
 5   0  0.5758786E-04  0.1000081E+04  0.7818609E-02  0.9308456E-01
        1   -1    0    0  501    0  0.00000000000E+00  0.00000000000E+00  0.62645057789E+03  0.62645057791E+03  0.50400001928E-02 0. -1.
       -1   -1    0    0    0  501  0.00000000000E+00  0.00000000000E+00 -0.39913804967E+03  0.39913804970E+03  0.50400001928E-02 0.  1.
    10030    2    1    2    0    0  0.00000000000E+00  0.00000000000E+00  0.22731252822E+03  0.10255886276E+04  0.10000805206E+04 0.  0.
        3    1    3    3  502    0 -0.24902448926E+03  0.24627380882E+03 -0.25234491617E+03  0.43167343221E+03  0.10100000352E+00 0.  1.
       -3    1    3    3    0  502  0.24902448926E+03 -0.24627380882E+03  0.47965744439E+03  0.59391519540E+03  0.10100000352E+00 0. -1.
</event>
<event>
 5   0  0.5758786E-04  0.9999250E+03  0.7818609E-02  0.9308627E-01
        1   -1    0    0  501    0  0.00000000000E+00  0.00000000000E+00  0.14216152006E+04  0.14216152006E+04  0.50400001928E-02 0. -1.
       -1   -1    0    0    0  501  0.00000000000E+00  0.00000000000E+00 -0.17582993143E+03  0.17582993150E+03  0.50400001928E-02 0.  1.
    10030    2    1    2    0    0  0.00000000000E+00  0.00000000000E+00  0.12457852691E+04  0.15974451321E+04  0.99992500380E+03 0.  0.
        3    1    3    3  502    0  0.57724979616E+02  0.85547122659E+02 -0.15862857508E+03  0.18924459966E+03  0.10100000352E+00 0.  1.
       -3    1    3    3    0  502 -0.57724979616E+02 -0.85547122659E+02  0.14044138442E+04  0.14082005324E+04  0.10100000352E+00 0. -1.
</event>
<event>
 5   0  0.5960102E-04  0.1008971E+04  0.7818609E-02  0.9298759E-01
        1   -1    0    0  501    0  0.00000000000E+00  0.00000000000E+00  0.51362938816E+03  0.51362938818E+03  0.50400001928E-02 0.  1.
       -1   -1    0    0    0  501  0.00000000000E+00  0.00000000000E+00 -0.49550487043E+03  0.49550487046E+03  0.50400001928E-02 0. -1.
    10030    2    1    2    0    0  0.00000000000E+00  0.00000000000E+00  0.18124517725E+02  0.10091342586E+04  0.10089714832E+04 0.  0.
        5    1    3    3  502    0  0.13408763723E+03 -0.24631762079E+03  0.42845306293E+03  0.51209958201E+03  0.46999998093E+01 0.  1.
       -5    1    3    3    0  502 -0.13408763723E+03  0.24631762079E+03 -0.41032854520E+03  0.49703467663E+03  0.46999998093E+01 0. -1.
</event>
<event>
 5   0  0.5768102E-04  0.9987788E+03  0.7818609E-02  0.9309885E-01
        1   -1    0    0  501    0  0.00000000000E+00  0.00000000000E+00  0.11409189328E+04  0.11409189328E+04  0.50400001928E-02 0.  1.
       -1   -1    0    0    0  501  0.00000000000E+00  0.00000000000E+00 -0.21858674856E+03  0.21858674862E+03  0.50400001928E-02 0. -1.
    10030    2    1    2    0    0  0.00000000000E+00  0.00000000000E+00  0.92233218427E+03  0.13595056815E+04  0.99877877420E+03 0.  0.
        4    1    3    3  502    0 -0.11314449028E+03 -0.44895435492E+03  0.71591353727E+03  0.85258166426E+03  0.12699999809E+01 0.  1.
       -4    1    3    3    0  502  0.11314449028E+03  0.44895435492E+03  0.20641864699E+03  0.50692401720E+03  0.12699999809E+01 0. -1.
</event>
<event>
 5   0  0.5960102E-04  0.1011291E+04  0.7818609E-02  0.9296247E-01
        1   -1    0    0  501    0  0.00000000000E+00  0.00000000000E+00  0.94389796703E+03  0.94389796705E+03  0.50400001928E-02 0. -1.
       -1   -1    0    0    0  501  0.00000000000E+00  0.00000000000E+00 -0.27087405997E+03  0.27087406002E+03  0.50400001928E-02 0.  1.
    10030    2    1    2    0    0  0.00000000000E+00  0.00000000000E+00  0.67302390706E+03  0.12147720271E+04  0.10112912035E+04 0.  0.
        5    1    3    3  502    0 -0.47537164653E+03 -0.12909616588E+03  0.19949322399E+03  0.53147310260E+03  0.46999998093E+01 0.  1.
       -5    1    3    3    0  502  0.47537164653E+03  0.12909616588E+03  0.47353068307E+03  0.68329892446E+03  0.46999998093E+01 0. -1.
</event>
<event>
 5   0  0.9674819E-04  0.1015112E+04  0.7818609E-02  0.9292123E-01
        2   -1    0    0  501    0  0.00000000000E+00  0.00000000000E+00  0.84002828735E+03  0.84002828736E+03  0.25500000920E-02 0.  1.
       -2   -1    0    0    0  501  0.00000000000E+00  0.00000000000E+00 -0.30667212735E+03  0.30667212737E+03  0.25500000920E-02 0. -1.
    10030    2    1    2    0    0  0.00000000000E+00  0.00000000000E+00  0.53335616000E+03  0.11467004147E+04  0.10151123326E+04 0.  0.
        4    1    3    3  502    0 -0.30801542708E+03 -0.17424035534E+03 -0.14432445638E+03  0.38218368144E+03  0.12699999809E+01 0. -1.
       -4    1    3    3    0  502  0.30801542708E+03  0.17424035534E+03  0.67768061638E+03  0.76451673328E+03  0.12699999809E+01 0.  1.
</event>
<event>
 5   0  0.5758786E-04  0.9980896E+03  0.7818609E-02  0.9310643E-01
       -1   -1    0    0    0  501  0.00000000000E+00  0.00000000000E+00  0.27071639356E+03  0.27071639360E+03  0.50400001928E-02 0. -1.
        1   -1    0    0  501    0  0.00000000000E+00  0.00000000000E+00 -0.91995062622E+03  0.91995062623E+03  0.50400001928E-02 0.  1.
    10030    2    1    2    0    0  0.00000000000E+00  0.00000000000E+00 -0.64923423266E+03  0.11906670198E+04  0.99808960683E+03 0.  0.
        3    1    3    3  502    0  0.27342687802E+03  0.41678335837E+03 -0.35322495108E+03  0.61093248539E+03  0.10100000352E+00 0. -1.
       -3    1    3    3    0  502 -0.27342687802E+03 -0.41678335837E+03 -0.29600928158E+03  0.57973453444E+03  0.10100000352E+00 0.  1.
</event>
<event>
 5   0  0.9741826E-04  0.9983849E+03  0.7818609E-02  0.9310318E-01
        2   -1    0    0  501    0  0.00000000000E+00  0.00000000000E+00  0.28149882453E+03  0.28149882455E+03  0.25500000920E-02 0. -1.
       -2   -1    0    0    0  501  0.00000000000E+00  0.00000000000E+00 -0.88523675766E+03  0.88523675767E+03  0.25500000920E-02 0.  1.
    10030    2    1    2    0    0  0.00000000000E+00  0.00000000000E+00 -0.60373793313E+03  0.11667355822E+04  0.99838490919E+03 0.  0.
        3    1    3    3  502    0 -0.24940414597E+03 -0.13384899706E+03 -0.78239207744E+03  0.83201884299E+03  0.10100000352E+00 0.  1.
       -3    1    3    3    0  502  0.24940414597E+03  0.13384899706E+03  0.17865414431E+03  0.33471673923E+03  0.10100000352E+00 0. -1.
</event>
<event>
 5   0  0.9741826E-04  0.1000559E+04  0.7818609E-02  0.9307932E-01
       -2   -1    0    0    0  501  0.00000000000E+00  0.00000000000E+00  0.23053795303E+03  0.23053795305E+03  0.25500000920E-02 0.  1.
        2   -1    0    0  501    0  0.00000000000E+00  0.00000000000E+00 -0.10856319370E+04  0.10856319370E+04  0.25500000920E-02 0. -1.
    10030    2    1    2    0    0  0.00000000000E+00  0.00000000000E+00 -0.85509398393E+03  0.13161698900E+04  0.10005585730E+04 0.  0.
        3    1    3    3  502    0  0.38188803376E+03 -0.19338047791E+01 -0.24412921926E+01  0.38190074632E+03  0.10100000352E+00 0.  1.
       -3    1    3    3    0  502 -0.38188803376E+03  0.19338047791E+01 -0.85265269173E+03  0.93426914369E+03  0.10100000352E+00 0. -1.
</event>
<event>
 5   0  0.3854625E-04  0.1000779E+04  0.7818609E-02  0.9307691E-01
       -4   -1    0    0    0  501  0.00000000000E+00  0.00000000000E+00  0.21217599795E+03  0.21217979877E+03  0.12699999809E+01 0. -1.
        4   -1    0    0  501    0  0.00000000000E+00  0.00000000000E+00 -0.11800891560E+04  0.11800898394E+04  0.12699999809E+01 0.  1.
    10030    2    1    2    0    0  0.00000000000E+00  0.00000000000E+00 -0.96791315803E+03  0.13922696381E+04  0.10007791284E+04 0.  0.
        1    1    3    3  502    0 -0.32060502061E+02  0.37761050128E+03 -0.93854053716E+03  0.10121639721E+04  0.50400001928E-02 0.  1.
       -1    1    3    3    0  502  0.32060502061E+02 -0.37761050128E+03 -0.29372620871E+02  0.38010566604E+03  0.50400001928E-02 0. -1.
</event>
<event>
 5   0  0.1020150E-03  0.1000575E+04  0.7818609E-02  0.9307915E-01
       -2   -1    0    0    0  501  0.00000000000E+00  0.00000000000E+00  0.21471991875E+03  0.21471991877E+03  0.25500000920E-02 0.  1.
        2   -1    0    0  501    0  0.00000000000E+00  0.00000000000E+00 -0.11656457480E+04  0.11656457480E+04  0.25500000920E-02 0. -1.
    10030    2    1    2    0    0  0.00000000000E+00  0.00000000000E+00 -0.95092582924E+03  0.13803656668E+04  0.10005745556E+04 0.  0.
        5    1    3    3  502    0 -0.18150856858E+03  0.46376884472E+03 -0.41019338425E+03  0.64521903590E+03  0.46999998093E+01 0. -1.
       -5    1    3    3    0  502  0.18150856858E+03 -0.46376884472E+03 -0.54073244500E+03  0.73514663087E+03  0.46999998093E+01 0.  1.
</event>
<event>
 5   0  0.5960102E-04  0.1008377E+04  0.7818609E-02  0.9299405E-01
        1   -1    0    0  501    0  0.00000000000E+00  0.00000000000E+00  0.10110546150E+04  0.10110546150E+04  0.50400001928E-02 0.  1.
       -1   -1    0    0    0  501  0.00000000000E+00  0.00000000000E+00 -0.25142651896E+03  0.25142651902E+03  0.50400001928E-02 0. -1.
    10030    2    1    2    0    0  0.00000000000E+00  0.00000000000E+00  0.75962809604E+03  0.12624811340E+04  0.10083767994E+04 0.  0.
        5    1    3    3  502    0 -0.52636427444E+02  0.98663673906E+02  0.99530443535E+03  0.10015778168E+04  0.46999998093E+01 0.  1.
       -5    1    3    3    0  502  0.52636427444E+02 -0.98663673906E+02 -0.23567633931E+03  0.26090331725E+03  0.46999998093E+01 0. -1.
</event>
<event>
 5   0  0.5888774E-04  0.1003436E+04  0.7818609E-02  0.9304785E-01
       -1   -1    0    0    0  501  0.00000000000E+00  0.00000000000E+00  0.42744621376E+03  0.42744621379E+03  0.50400001928E-02 0. -1.
        1   -1    0    0  501    0  0.00000000000E+00  0.00000000000E+00 -0.58889450466E+03  0.58889450469E+03  0.50400001928E-02 0.  1.
    10030    2    1    2    0    0  0.00000000000E+00  0.00000000000E+00 -0.16144829091E+03  0.10163407185E+04  0.10034355512E+04 0.  0.
        2    1    3    3  502    0  0.77987754401E+02  0.49500420320E+03 -0.55719085379E+02  0.50419824227E+03  0.25500000920E-02 0. -1.
       -2    1    3    3    0  502 -0.77987754401E+02 -0.49500420320E+03 -0.10572920553E+03  0.51214247620E+03  0.25500000920E-02 0.  1.
</event>
<event>
 5   0  0.1020150E-03  0.9995350E+03  0.7818609E-02  0.9309055E-01
       -2   -1    0    0    0  501  0.00000000000E+00  0.00000000000E+00  0.54978161144E+03  0.54978161144E+03  0.25500000920E-02 0. -1.
        2   -1    0    0  501    0  0.00000000000E+00  0.00000000000E+00 -0.45430323149E+03  0.45430323150E+03  0.25500000920E-02 0.  1.
    10030    2    1    2    0    0  0.00000000000E+00  0.00000000000E+00  0.95478379947E+02  0.10040848429E+04  0.99953501729E+03 0.  0.
        5    1    3    3  502    0 -0.44118674653E+03 -0.22344820954E+03  0.11997356510E+03  0.50891118477E+03  0.46999998093E+01 0. -1.
       -5    1    3    3    0  502  0.44118674653E+03  0.22344820954E+03 -0.24495185148E+02  0.49517365818E+03  0.46999998093E+01 0.  1.
</event>
<event>
 5   0  0.1006749E-03  0.9988994E+03  0.7818609E-02  0.9309753E-01
       -2   -1    0    0    0  501  0.00000000000E+00  0.00000000000E+00  0.69569507205E+03  0.69569507205E+03  0.25500000920E-02 0.  1.
        2   -1    0    0  501    0  0.00000000000E+00  0.00000000000E+00 -0.35856229385E+03  0.35856229386E+03  0.25500000920E-02 0. -1.
    10030    2    1    2    0    0  0.00000000000E+00  0.00000000000E+00  0.33713277820E+03  0.10542573659E+04  0.99889943610E+03 0.  0.
        1    1    3    3  502    0  0.97980587212E+02 -0.28910449866E+02 -0.34741799275E+03  0.36212604338E+03  0.50400001928E-02 0. -1.
       -1    1    3    3    0  502 -0.97980587212E+02  0.28910449866E+02  0.68455077095E+03  0.69213132253E+03  0.50400001928E-02 0.  1.
</event>
<event>
 5   0  0.5888774E-04  0.1003091E+04  0.7818609E-02  0.9305161E-01
       -1   -1    0    0    0  501  0.00000000000E+00  0.00000000000E+00  0.54190182933E+03  0.54190182935E+03  0.50400001928E-02 0. -1.
        1   -1    0    0  501    0  0.00000000000E+00  0.00000000000E+00 -0.46419466786E+03  0.46419466789E+03  0.50400001928E-02 0.  1.
    10030    2    1    2    0    0  0.00000000000E+00  0.00000000000E+00  0.77707161466E+02  0.10060964972E+04  0.10030911019E+04 0.  0.
        2    1    3    3  502    0  0.51554406074E+02  0.87808391347E+02  0.53142555327E+03  0.54109268065E+03  0.25500000920E-02 0. -1.
       -2    1    3    3    0  502 -0.51554406074E+02 -0.87808391347E+02 -0.45371839180E+03  0.46500381659E+03  0.25500000920E-02 0.  1.
</event>
<event>
 5   0  0.1006749E-03  0.1001509E+04  0.7818609E-02  0.9306892E-01
        2   -1    0    0  501    0  0.00000000000E+00  0.00000000000E+00  0.88623976256E+03  0.88623976256E+03  0.25500000920E-02 0.  1.
       -2   -1    0    0    0  501  0.00000000000E+00  0.00000000000E+00 -0.28294242076E+03  0.28294242077E+03  0.25500000920E-02 0. -1.
    10030    2    1    2    0    0  0.00000000000E+00  0.00000000000E+00  0.60329734180E+03  0.11691821833E+04  0.10015085098E+04 0.  0.
        1    1    3    3  502    0 -0.16612470058E+03  0.14677911218E+03 -0.22253940056E+03  0.31411034485E+03  0.50400001928E-02 0. -1.
       -1    1    3    3    0  502  0.16612470058E+03 -0.14677911218E+03  0.82583674236E+03  0.85507183849E+03  0.50400001928E-02 0.  1.
</event>
<event>
 5   0  0.5768102E-04  0.1002387E+04  0.7818609E-02  0.9305931E-01
        1   -1    0    0  501    0  0.00000000000E+00  0.00000000000E+00  0.20466149298E+04  0.20466149298E+04  0.50400001928E-02 0.  1.
       -1   -1    0    0    0  501  0.00000000000E+00  0.00000000000E+00 -0.12273676217E+03  0.12273676227E+03  0.50400001928E-02 0. -1.
    10030    2    1    2    0    0  0.00000000000E+00  0.00000000000E+00  0.19238781677E+04  0.21693516921E+04  0.10023869313E+04 0.  0.
        4    1    3    3  502    0 -0.14196408922E+03 -0.33193425520E+03  0.20956419641E+03  0.41743612412E+03  0.12699999809E+01 0. -1.
       -4    1    3    3    0  502  0.14196408922E+03  0.33193425520E+03  0.17143139712E+04  0.17519155680E+04  0.12699999809E+01 0.  1.
</event>
<event>
 5   0  0.3854625E-04  0.1000410E+04  0.7818609E-02  0.9308096E-01
       -3   -1    0    0    0  501  0.00000000000E+00  0.00000000000E+00  0.11994565244E+04  0.11994565287E+04  0.10100000352E+00 0. -1.
        3   -1    0    0  501    0  0.00000000000E+00  0.00000000000E+00 -0.20859847520E+03  0.20859849965E+03  0.10100000352E+00 0.  1.
    10030    2    1    2    0    0  0.00000000000E+00  0.00000000000E+00  0.99085804923E+03  0.14080550283E+04  0.10004095607E+04 0.  0.
        5    1    3    3  502    0  0.15697682272E+03  0.11505415310E+03 -0.15308656977E+03  0.24766261094E+03  0.46999998093E+01 0.  1.
       -5    1    3    3    0  502 -0.15697682272E+03 -0.11505415310E+03  0.11439446190E+04  0.11603924174E+04  0.46999998093E+01 0. -1.
</event>
<event>
 5   0  0.9741826E-04  0.1000272E+04  0.7818609E-02  0.9308246E-01
       -2   -1    0    0    0  501  0.00000000000E+00  0.00000000000E+00  0.15346692317E+03  0.15346692319E+03  0.25500000920E-02 0.  1.
        2   -1    0    0  501    0  0.00000000000E+00  0.00000000000E+00 -0.16299020406E+04  0.16299020406E+04  0.25500000920E-02 0. -1.
    10030    2    1    2    0    0  0.00000000000E+00  0.00000000000E+00 -0.14764351175E+04  0.17833689638E+04  0.10002720655E+04 0.  0.
        3    1    3    3  502    0 -0.16719392711E+03 -0.12922799785E+02 -0.15782855757E+04  0.15871692338E+04  0.10100000352E+00 0. -1.
       -3    1    3    3    0  502  0.16719392711E+03  0.12922799785E+02  0.10185045825E+03  0.19619973003E+03  0.10100000352E+00 0.  1.
</event>
<event>
 5   0  0.5768102E-04  0.9990921E+03  0.7818609E-02  0.9309541E-01
       -1   -1    0    0    0  501  0.00000000000E+00  0.00000000000E+00  0.28543173160E+03  0.28543173164E+03  0.50400001928E-02 0. -1.
        1   -1    0    0  501    0  0.00000000000E+00  0.00000000000E+00 -0.87427651281E+03  0.87427651283E+03  0.50400001928E-02 0.  1.
    10030    2    1    2    0    0  0.00000000000E+00  0.00000000000E+00 -0.58884478121E+03  0.11597082445E+04  0.99909210583E+03 0.  0.
        4    1    3    3  502    0 -0.49718431339E+03 -0.19755710866E+02 -0.34583925772E+03  0.60596116598E+03  0.12699999809E+01 0. -1.
       -4    1    3    3    0  502  0.49718431339E+03  0.19755710866E+02 -0.24300552349E+03  0.55374707849E+03  0.12699999809E+01 0.  1.
</event>
<event>
 5   0  0.9741826E-04  0.1000042E+04  0.7818609E-02  0.9308499E-01
       -2   -1    0    0    0  501  0.00000000000E+00  0.00000000000E+00  0.15762871640E+03  0.15762871642E+03  0.25500000920E-02 0.  1.
        2   -1    0    0  501    0  0.00000000000E+00  0.00000000000E+00 -0.15861378293E+04  0.15861378294E+04  0.25500000920E-02 0. -1.
    10030    2    1    2    0    0  0.00000000000E+00  0.00000000000E+00 -0.14285091130E+04  0.17437665458E+04  0.10000417393E+04 0.  0.
        3    1    3    3  502    0 -0.21857083776E+03 -0.44762029422E+03 -0.78993409948E+03  0.93388062976E+03  0.10100000352E+00 0.  1.
       -3    1    3    3    0  502  0.21857083776E+03  0.44762029422E+03 -0.63857501347E+03  0.80988591601E+03  0.10100000352E+00 0. -1.
</event>
<event>
 5   0  0.9674819E-04  0.1000504E+04  0.7818609E-02  0.9307992E-01
        2   -1    0    0  501    0  0.00000000000E+00  0.00000000000E+00  0.54842590982E+03  0.54842590982E+03  0.25500000920E-02 0. -1.
       -2   -1    0    0    0  501  0.00000000000E+00  0.00000000000E+00 -0.45630989645E+03  0.45630989646E+03  0.25500000920E-02 0.  1.
    10030    2    1    2    0    0  0.00000000000E+00  0.00000000000E+00  0.92116013368E+02  0.10047358063E+04  0.10005042131E+04 0.  0.
        4    1    3    3  502    0  0.69461853959E+02 -0.42907819982E+02 -0.44957224531E+03  0.45692761662E+03  0.12699999809E+01 0.  1.
       -4    1    3    3    0  502 -0.69461853959E+02  0.42907819982E+02  0.54168825868E+03  0.54780818967E+03  0.12699999809E+01 0. -1.
</event>
<event>
 5   0  0.1006006E-03  0.1000800E+04  0.7818609E-02  0.9307667E-01
       -2   -1    0    0    0  501  0.00000000000E+00  0.00000000000E+00  0.27214246693E+03  0.27214246694E+03  0.25500000920E-02 0. -1.
        2   -1    0    0  501    0  0.00000000000E+00  0.00000000000E+00 -0.92010749323E+03  0.92010749323E+03  0.25500000920E-02 0.  1.
    10030    2    1    2    0    0  0.00000000000E+00  0.00000000000E+00 -0.64796502630E+03  0.11922499602E+04  0.10008003259E+04 0.  0.
        2    1    3    3  502    0 -0.10891553996E+03 -0.43855701669E+03 -0.58005715904E+03  0.73529664727E+03  0.25500000920E-02 0.  1.
       -2    1    3    3    0  502  0.10891553996E+03  0.43855701669E+03 -0.67907867260E+02  0.45695331290E+03  0.25500000920E-02 0. -1.
</event>
<event>
 5   0  0.1006006E-03  0.1017532E+04  0.7818609E-02  0.9289523E-01
        2   -1    0    0  501    0  0.00000000000E+00  0.00000000000E+00  0.61351261372E+03  0.61351261373E+03  0.25500000920E-02 0.  1.
       -2   -1    0    0    0  501  0.00000000000E+00  0.00000000000E+00 -0.42190282487E+03  0.42190282488E+03  0.25500000920E-02 0. -1.
    10030    2    1    2    0    0  0.00000000000E+00  0.00000000000E+00  0.19160978885E+03  0.10354154386E+04  0.10175317289E+04 0.  0.
        2    1    3    3  502    0  0.14760106586E+03  0.61188872954E+02 -0.39570891927E+03  0.42675016299E+03  0.25500000920E-02 0. -1.
       -2    1    3    3    0  502 -0.14760106586E+03 -0.61188872954E+02  0.58731870813E+03  0.60866527561E+03  0.25500000920E-02 0.  1.
</event>
<event>
 5   0  0.5888774E-04  0.9954905E+03  0.7818609E-02  0.9313505E-01
        1   -1    0    0  501    0  0.00000000000E+00  0.00000000000E+00  0.86052256818E+03  0.86052256820E+03  0.50400001928E-02 0. -1.
       -1   -1    0    0    0  501  0.00000000000E+00  0.00000000000E+00 -0.28790686790E+03  0.28790686795E+03  0.50400001928E-02 0.  1.
    10030    2    1    2    0    0  0.00000000000E+00  0.00000000000E+00  0.57261570028E+03  0.11484294361E+04  0.99549054721E+03 0.  0.
        2    1    3    3  502    0  0.16794570203E+03 -0.22888165338E+03 -0.18535370870E+03  0.33904065747E+03  0.25500000920E-02 0.  1.
       -2    1    3    3    0  502 -0.16794570203E+03  0.22888165338E+03  0.75796940898E+03  0.80938877867E+03  0.25500000920E-02 0. -1.
</event>
<event>
 5   0  0.1006006E-03  0.1000476E+04  0.7818609E-02  0.9308023E-01
        2   -1    0    0  501    0  0.00000000000E+00  0.00000000000E+00  0.12128509355E+04  0.12128509355E+04  0.25500000920E-02 0. -1.
       -2   -1    0    0    0  501  0.00000000000E+00  0.00000000000E+00 -0.20632209234E+03  0.20632209236E+03  0.25500000920E-02 0.  1.
    10030    2    1    2    0    0  0.00000000000E+00  0.00000000000E+00  0.10065288432E+04  0.14191730279E+04  0.10004757723E+04 0.  0.
        2    1    3    3  502    0  0.79566720458E+02  0.49364969882E+03  0.52416283120E+03  0.72440842194E+03  0.25500000920E-02 0. -1.
       -2    1    3    3    0  502 -0.79566720458E+02 -0.49364969882E+03  0.48236601195E+03  0.69476460592E+03  0.25500000920E-02 0.  1.
</event>
<event>
 5   0  0.1020150E-03  0.1000027E+04  0.7818609E-02  0.9308515E-01
       -2   -1    0    0    0  501  0.00000000000E+00  0.00000000000E+00  0.31909258932E+03  0.31909258933E+03  0.25500000920E-02 0.  1.
        2   -1    0    0  501    0  0.00000000000E+00  0.00000000000E+00 -0.78351386612E+03  0.78351386612E+03  0.25500000920E-02 0. -1.
    10030    2    1    2    0    0  0.00000000000E+00  0.00000000000E+00 -0.46442127680E+03  0.11026064555E+04  0.10000269363E+04 0.  0.
        5    1    3    3  502    0  0.25789416188E+03 -0.20848644929E+02  0.23951612050E+03  0.35261044611E+03  0.46999998093E+01 0.  1.
       -5    1    3    3    0  502 -0.25789416188E+03  0.20848644929E+02 -0.70393739730E+03  0.74999600935E+03  0.46999998093E+01 0. -1.
</event>
<event>
 5   0  0.1020150E-03  0.9998061E+03  0.7818609E-02  0.9308757E-01
       -2   -1    0    0    0  501  0.00000000000E+00  0.00000000000E+00  0.17674819356E+03  0.17674819358E+03  0.25500000920E-02 0.  1.
        2   -1    0    0  501    0  0.00000000000E+00  0.00000000000E+00 -0.14138931460E+04  0.14138931460E+04  0.25500000920E-02 0. -1.
    10030    2    1    2    0    0  0.00000000000E+00  0.00000000000E+00 -0.12371449524E+04  0.15906413395E+04  0.99980610010E+03 0.  0.
        5    1    3    3  502    0 -0.41816529573E+03  0.29451703889E+02 -0.18534497265E+03  0.45837153740E+03  0.46999998093E+01 0.  1.
       -5    1    3    3    0  502  0.41816529573E+03 -0.29451703889E+02 -0.10517999797E+04  0.11322698021E+04  0.46999998093E+01 0. -1.
</event>
<event>
 5   0  0.9741826E-04  0.9994729E+03  0.7818609E-02  0.9309123E-01
       -2   -1    0    0    0  501  0.00000000000E+00  0.00000000000E+00  0.17227762654E+03  0.17227762655E+03  0.25500000920E-02 0.  1.
        2   -1    0    0  501    0  0.00000000000E+00  0.00000000000E+00 -0.14496166445E+04  0.14496166445E+04  0.25500000920E-02 0. -1.
    10030    2    1    2    0    0  0.00000000000E+00  0.00000000000E+00 -0.12773390180E+04  0.16218942711E+04  0.99947289092E+03 0.  0.
        3    1    3    3  502    0  0.15662302771E+03 -0.47129286998E+03 -0.72885647703E+03  0.88197478219E+03  0.10100000352E+00 0.  1.
       -3    1    3    3    0  502 -0.15662302771E+03  0.47129286998E+03 -0.54848254095E+03  0.73991948889E+03  0.10100000352E+00 0. -1.
</event>
<event>
 5   0  0.5960102E-04  0.9992894E+03  0.7818609E-02  0.9309324E-01
        1   -1    0    0  501    0  0.00000000000E+00  0.00000000000E+00  0.70546703074E+03  0.70546703076E+03  0.50400001928E-02 0.  1.
       -1   -1    0    0    0  501  0.00000000000E+00  0.00000000000E+00 -0.35387174537E+03  0.35387174541E+03  0.50400001928E-02 0. -1.
    10030    2    1    2    0    0  0.00000000000E+00  0.00000000000E+00  0.35159528537E+03  0.10593387762E+04  0.99928944655E+03 0.  0.
        5    1    3    3  502    0 -0.10950980618E+03  0.16634442831E+03  0.66154644681E+03  0.69088975804E+03  0.46999998093E+01 0.  1.
       -5    1    3    3    0  502  0.10950980618E+03 -0.16634442831E+03 -0.30995116144E+03  0.36844901812E+03  0.46999998093E+01 0. -1.
</event>
<event>
 5   0  0.5826939E-04  0.1001041E+04  0.7818609E-02  0.9307404E-01
        1   -1    0    0  501    0  0.00000000000E+00  0.00000000000E+00  0.10714864045E+04  0.10714864045E+04  0.50400001928E-02 0.  1.
       -1   -1    0    0    0  501  0.00000000000E+00  0.00000000000E+00 -0.23380680391E+03  0.23380680396E+03  0.50400001928E-02 0. -1.
    10030    2    1    2    0    0  0.00000000000E+00  0.00000000000E+00  0.83767960060E+03  0.13052932085E+04  0.10010410815E+04 0.  0.
        1    1    3    3  502    0  0.10396523016E+03  0.34204262776E+03 -0.37945242926E+02  0.35950211373E+03  0.50400001928E-02 0.  1.
       -1    1    3    3    0  502 -0.10396523016E+03 -0.34204262776E+03  0.87562484353E+03  0.94579109476E+03  0.50400001928E-02 0. -1.
</event>
<event>
 5   0  0.9741826E-04  0.9985612E+03  0.7818609E-02  0.9310124E-01
       -2   -1    0    0    0  501  0.00000000000E+00  0.00000000000E+00  0.28865330442E+03  0.28865330443E+03  0.25500000920E-02 0. -1.
        2   -1    0    0  501    0  0.00000000000E+00  0.00000000000E+00 -0.86360045801E+03  0.86360045801E+03  0.25500000920E-02 0.  1.
    10030    2    1    2    0    0  0.00000000000E+00  0.00000000000E+00 -0.57494715359E+03  0.11522537624E+04  0.99856121677E+03 0.  0.
        3    1    3    3  502    0  0.18430454241E+03  0.32640924925E+03  0.93090605845E+02  0.38623442810E+03  0.10100000352E+00 0. -1.
       -3    1    3    3    0  502 -0.18430454241E+03 -0.32640924925E+03 -0.66803775943E+03  0.76601933434E+03  0.10100000352E+00 0.  1.
</event>
<event>
 5   0  0.3854625E-04  0.1003076E+04  0.7818609E-02  0.9305177E-01
        4   -1    0    0  501    0  0.00000000000E+00  0.00000000000E+00  0.36921572454E+03  0.36921790876E+03  0.12699999809E+01 0.  1.
       -4   -1    0    0    0  501  0.00000000000E+00  0.00000000000E+00 -0.68127853308E+03  0.68127971680E+03  0.12699999809E+01 0. -1.
    10030    2    1    2    0    0  0.00000000000E+00  0.00000000000E+00 -0.31206280853E+03  0.10504976256E+04  0.10030763006E+04 0.  0.
        5    1    3    3  502    0  0.12038176877E+03  0.19365219884E+03  0.31176867350E+03  0.38628323823E+03  0.46999998093E+01 0.  1.
       -5    1    3    3    0  502 -0.12038176877E+03 -0.19365219884E+03 -0.62383148203E+03  0.66421438733E+03  0.46999998093E+01 0. -1.
</event>
<event>
 5   0  0.9674819E-04  0.9882665E+03  0.7818609E-02  0.9321508E-01
        2   -1    0    0  501    0  0.00000000000E+00  0.00000000000E+00  0.74891277265E+03  0.74891277265E+03  0.25500000920E-02 0. -1.
       -2   -1    0    0    0  501  0.00000000000E+00  0.00000000000E+00 -0.32602950402E+03  0.32602950403E+03  0.25500000920E-02 0.  1.
    10030    2    1    2    0    0  0.00000000000E+00  0.00000000000E+00  0.42288326863E+03  0.10749422767E+04  0.98826648193E+03 0.  0.
        4    1    3    3  502    0 -0.15058626183E+03  0.46142664486E+03  0.11071713126E+03  0.49784602729E+03  0.12699999809E+01 0. -1.
       -4    1    3    3    0  502  0.15058626183E+03 -0.46142664486E+03  0.31216613737E+03  0.57709624939E+03  0.12699999809E+01 0.  1.
</event>
<event>
 5   0  0.3854625E-04  0.1000351E+04  0.7818609E-02  0.9308159E-01
       -3   -1    0    0    0  501  0.00000000000E+00  0.00000000000E+00  0.84812273779E+03  0.84812274380E+03  0.10100000352E+00 0.  1.
        3   -1    0    0  501    0  0.00000000000E+00  0.00000000000E+00 -0.29497586237E+03  0.29497587966E+03  0.10100000352E+00 0. -1.
    10030    2    1    2    0    0  0.00000000000E+00  0.00000000000E+00  0.55314687542E+03  0.11430986235E+04  0.10003514368E+04 0.  0.
        3    1    3    3  502    0  0.23755575439E+02 -0.48319881195E+02 -0.29165453917E+03  0.29658307218E+03  0.10100000352E+00 0. -1.
       -3    1    3    3    0  502 -0.23755575439E+02  0.48319881195E+02  0.84480141459E+03  0.84651555129E+03  0.10100000352E+00 0.  1.
</event>
<event>
 5   0  0.5768102E-04  0.1001687E+04  0.7818609E-02  0.9306697E-01
       -1   -1    0    0    0  501  0.00000000000E+00  0.00000000000E+00  0.27840976493E+03  0.27840976497E+03  0.50400001928E-02 0.  1.
        1   -1    0    0  501    0  0.00000000000E+00  0.00000000000E+00 -0.90098892788E+03  0.90098892789E+03  0.50400001928E-02 0. -1.
    10030    2    1    2    0    0  0.00000000000E+00  0.00000000000E+00 -0.62257916295E+03  0.11793986929E+04  0.10016868086E+04 0.  0.
        4    1    3    3  502    0  0.40102099090E+03  0.15509403792E+03 -0.61370476935E+03  0.74933780938E+03  0.12699999809E+01 0. -1.
       -4    1    3    3    0  502 -0.40102099090E+03 -0.15509403792E+03 -0.88743935997E+01  0.43006088348E+03  0.12699999809E+01 0.  1.
</event>
<event>
 5   0  0.9674819E-04  0.9999597E+03  0.7818609E-02  0.9308589E-01
        2   -1    0    0  501    0  0.00000000000E+00  0.00000000000E+00  0.82349260582E+03  0.82349260582E+03  0.25500000920E-02 0.  1.
       -2   -1    0    0    0  501  0.00000000000E+00  0.00000000000E+00 -0.30356054276E+03  0.30356054277E+03  0.25500000920E-02 0. -1.
    10030    2    1    2    0    0  0.00000000000E+00  0.00000000000E+00  0.51993206306E+03  0.11270531486E+04  0.99995972397E+03 0.  0.
        4    1    3    3  502    0  0.29533086412E+03  0.20179716242E+03 -0.13377037913E+03  0.38188812668E+03  0.12699999809E+01 0. -1.
       -4    1    3    3    0  502 -0.29533086412E+03 -0.20179716242E+03  0.65370244219E+03  0.74516502192E+03  0.12699999809E+01 0.  1.
</event>
<event>
 5   0  0.1006749E-03  0.9897452E+03  0.7818609E-02  0.9319864E-01
        2   -1    0    0  501    0  0.00000000000E+00  0.00000000000E+00  0.12658431539E+04  0.12658431539E+04  0.25500000920E-02 0.  1.
       -2   -1    0    0    0  501  0.00000000000E+00  0.00000000000E+00 -0.19346700066E+03  0.19346700067E+03  0.25500000920E-02 0. -1.
    10030    2    1    2    0    0  0.00000000000E+00  0.00000000000E+00  0.10723761533E+04  0.14593101546E+04  0.98974517591E+03 0.  0.
        1    1    3    3  502    0 -0.86374617693E+02  0.35383768703E+03  0.10301490218E+04  0.10926429840E+04  0.50400001928E-02 0.  1.
       -1    1    3    3    0  502  0.86374617693E+02 -0.35383768703E+03  0.42227131482E+02  0.36666717061E+03  0.50400001928E-02 0. -1.
</event>
<event>
 5   0  0.1006006E-03  0.9999834E+03  0.7818609E-02  0.9308563E-01
        2   -1    0    0  501    0  0.00000000000E+00  0.00000000000E+00  0.11791983644E+04  0.11791983644E+04  0.25500000920E-02 0. -1.
       -2   -1    0    0    0  501  0.00000000000E+00  0.00000000000E+00 -0.21200138034E+03  0.21200138035E+03  0.25500000920E-02 0.  1.
    10030    2    1    2    0    0  0.00000000000E+00  0.00000000000E+00  0.96719698411E+03  0.13911997448E+04  0.99998336179E+03 0.  0.
        2    1    3    3  502    0  0.39084920109E+02 -0.22589385739E+03 -0.13457432492E+03  0.26583061283E+03  0.25500000920E-02 0.  1.
       -2    1    3    3    0  502 -0.39084920109E+02  0.22589385739E+03  0.11017713090E+04  0.11253691320E+04  0.25500000920E-02 0. -1.
</event>
<event>
 5   0  0.5758786E-04  0.1005911E+04  0.7818609E-02  0.9302085E-01
        1   -1    0    0  501    0  0.00000000000E+00  0.00000000000E+00  0.59384034797E+03  0.59384034799E+03  0.50400001928E-02 0.  1.
       -1   -1    0    0    0  501  0.00000000000E+00  0.00000000000E+00 -0.42598021897E+03  0.42598021900E+03  0.50400001928E-02 0. -1.
    10030    2    1    2    0    0  0.00000000000E+00  0.00000000000E+00  0.16786012899E+03  0.10198205670E+04  0.10059110129E+04 0.  0.
        3    1    3    3  502    0 -0.28403542643E+03 -0.45152593635E+02  0.50224843393E+03  0.57876452877E+03  0.10100000352E+00 0.  1.
       -3    1    3    3    0  502  0.28403542643E+03  0.45152593635E+02 -0.33438830493E+03  0.44105603823E+03  0.10100000352E+00 0. -1.
</event>
<event>
 5   0  0.3854625E-04  0.1000201E+04  0.7818609E-02  0.9308324E-01
        3   -1    0    0  501    0  0.00000000000E+00  0.00000000000E+00  0.12696281053E+04  0.12696281093E+04  0.10100000352E+00 0. -1.
       -3   -1    0    0    0  501  0.00000000000E+00  0.00000000000E+00 -0.19698722742E+03  0.19698725331E+03  0.10100000352E+00 0.  1.
    10030    2    1    2    0    0  0.00000000000E+00  0.00000000000E+00  0.10726408779E+04  0.14666153626E+04  0.10002010643E+04 0.  0.
        1    1    3    3  502    0 -0.16253324447E+03  0.23358335931E+03 -0.66696284867E+02  0.29227835319E+03  0.50400001928E-02 0.  1.
       -1    1    3    3    0  502  0.16253324447E+03 -0.23358335931E+03  0.11393371628E+04  0.11743370094E+04  0.50400001928E-02 0. -1.
</event>
<event>
 5   0  0.5826939E-04  0.1004558E+04  0.7818609E-02  0.9303560E-01
       -1   -1    0    0    0  501  0.00000000000E+00  0.00000000000E+00  0.34855446563E+03  0.34855446567E+03  0.50400001928E-02 0. -1.
        1   -1    0    0  501    0  0.00000000000E+00  0.00000000000E+00 -0.72380121984E+03  0.72380121985E+03  0.50400001928E-02 0.  1.
    10030    2    1    2    0    0  0.00000000000E+00  0.00000000000E+00 -0.37524675420E+03  0.10723556855E+04  0.10045579076E+04 0.  0.
        1    1    3    3  502    0  0.24363498312E+03 -0.41237987450E+03 -0.26192244477E+02  0.47968864859E+03  0.50400001928E-02 0. -1.
       -1    1    3    3    0  502 -0.24363498312E+03  0.41237987450E+03 -0.34905450973E+03  0.59266703694E+03  0.50400001928E-02 0.  1.
</event>
<event>
 5   0  0.5888774E-04  0.9996915E+03  0.7818609E-02  0.9308883E-01
       -1   -1    0    0    0  501  0.00000000000E+00  0.00000000000E+00  0.76136517717E+03  0.76136517719E+03  0.50400001928E-02 0.  1.
        1   -1    0    0  501    0  0.00000000000E+00  0.00000000000E+00 -0.32815500989E+03  0.32815500993E+03  0.50400001928E-02 0. -1.
    10030    2    1    2    0    0  0.00000000000E+00  0.00000000000E+00  0.43321016728E+03  0.10895201871E+04  0.99969154699E+03 0.  0.
        2    1    3    3  502    0 -0.12040943575E+03 -0.42950453250E+03 -0.29213030175E+02  0.44701898930E+03  0.25500000920E-02 0. -1.
       -2    1    3    3    0  502  0.12040943575E+03  0.42950453250E+03  0.46242319745E+03  0.64250119782E+03  0.25500000920E-02 0.  1.
</event>
<event>
 5   0  0.1006006E-03  0.1002837E+04  0.7818609E-02  0.9305439E-01
        2   -1    0    0  501    0  0.00000000000E+00  0.00000000000E+00  0.16499228460E+04  0.16499228460E+04  0.25500000920E-02 0.  1.
       -2   -1    0    0    0  501  0.00000000000E+00  0.00000000000E+00 -0.15238321683E+03  0.15238321685E+03  0.25500000920E-02 0. -1.
    10030    2    1    2    0    0  0.00000000000E+00  0.00000000000E+00  0.14975396292E+04  0.18023060629E+04  0.10028370771E+04 0.  0.
        2    1    3    3  502    0 -0.13765389819E+02 -0.13807241822E+03  0.16147310943E+04  0.16206819507E+04  0.25500000920E-02 0.  1.
       -2    1    3    3    0  502  0.13765389819E+02  0.13807241822E+03 -0.11719146505E+03  0.18162411216E+03  0.25500000920E-02 0. -1.
</event>
<event>
 5   0  0.1020150E-03  0.1001021E+04  0.7818609E-02  0.9307426E-01
        2   -1    0    0  501    0  0.00000000000E+00  0.00000000000E+00  0.96373652428E+03  0.96373652428E+03  0.25500000920E-02 0.  1.
       -2   -1    0    0    0  501  0.00000000000E+00  0.00000000000E+00 -0.25993678952E+03  0.25993678953E+03  0.25500000920E-02 0. -1.
    10030    2    1    2    0    0  0.00000000000E+00  0.00000000000E+00  0.70379973476E+03  0.12236733138E+04  0.10010206353E+04 0.  0.
        5    1    3    3  502    0 -0.19060406230E+03 -0.20333934235E+03 -0.15627012836E+03  0.31956101097E+03  0.46999998093E+01 0. -1.
       -5    1    3    3    0  502  0.19060406230E+03  0.20333934235E+03  0.86006986312E+03  0.90411230285E+03  0.46999998093E+01 0.  1.
</event>
<event>
 5   0  0.5826939E-04  0.9997101E+03  0.7818609E-02  0.9308863E-01
        1   -1    0    0  501    0  0.00000000000E+00  0.00000000000E+00  0.14642223858E+04  0.14642223858E+04  0.50400001928E-02 0. -1.
       -1   -1    0    0    0  501  0.00000000000E+00  0.00000000000E+00 -0.17064009826E+03  0.17064009833E+03  0.50400001928E-02 0.  1.
    10030    2    1    2    0    0  0.00000000000E+00  0.00000000000E+00  0.12935822875E+04  0.16348624841E+04  0.99971006167E+03 0.  0.
        1    1    3    3  502    0 -0.32717659619E+03  0.62687321816E+02  0.12562274330E+04  0.12996467169E+04  0.50400001928E-02 0. -1.
       -1    1    3    3    0  502  0.32717659619E+03 -0.62687321816E+02  0.37354854564E+02  0.33521576722E+03  0.50400001928E-02 0.  1.
</event>
<event>
 5   0  0.1006749E-03  0.9985720E+03  0.7818609E-02  0.9310112E-01
        2   -1    0    0  501    0  0.00000000000E+00  0.00000000000E+00  0.88922270720E+03  0.88922270720E+03  0.25500000920E-02 0. -1.
       -2   -1    0    0    0  501  0.00000000000E+00  0.00000000000E+00 -0.28034203899E+03  0.28034203901E+03  0.25500000920E-02 0.  1.
    10030    2    1    2    0    0  0.00000000000E+00  0.00000000000E+00  0.60888066821E+03  0.11695647462E+04  0.99857199413E+03 0.  0.
        1    1    3    3  502    0  0.24780661141E+03 -0.17395551588E+03  0.76943461632E+03  0.82686048822E+03  0.50400001928E-02 0.  1.
       -1    1    3    3    0  502 -0.24780661141E+03  0.17395551588E+03 -0.16055394811E+03  0.34270425799E+03  0.50400001928E-02 0. -1.
</event>
<event>
 5   0  0.5826939E-04  0.9994545E+03  0.7818609E-02  0.9309143E-01
       -1   -1    0    0    0  501  0.00000000000E+00  0.00000000000E+00  0.35833068266E+03  0.35833068269E+03  0.50400001928E-02 0.  1.
        1   -1    0    0  501    0  0.00000000000E+00  0.00000000000E+00 -0.69691865706E+03  0.69691865708E+03  0.50400001928E-02 0. -1.
    10030    2    1    2    0    0  0.00000000000E+00  0.00000000000E+00 -0.33858797441E+03  0.10552493398E+04  0.99945452757E+03 0.  0.
        1    1    3    3  502    0  0.28589697331E+03  0.34810509887E+03  0.59147903090E+02  0.45432665965E+03  0.50400001928E-02 0.  1.
       -1    1    3    3    0  502 -0.28589697331E+03 -0.34810509887E+03 -0.39773587750E+03  0.60092268012E+03  0.50400001928E-02 0. -1.
</event>
<event>
 5   0  0.1020150E-03  0.1000883E+04  0.7818609E-02  0.9307576E-01
       -2   -1    0    0    0  501  0.00000000000E+00  0.00000000000E+00  0.18235574039E+03  0.18235574041E+03  0.25500000920E-02 0.  1.
        2   -1    0    0  501    0  0.00000000000E+00  0.00000000000E+00 -0.13733702267E+04  0.13733702267E+04  0.25500000920E-02 0. -1.
    10030    2    1    2    0    0  0.00000000000E+00  0.00000000000E+00 -0.11910144863E+04  0.15557259671E+04  0.10008834988E+04 0.  0.
        5    1    3    3  502    0 -0.22223901530E+03  0.67267033716E+02 -0.12845341412E+04  0.13053601356E+04  0.46999998093E+01 0. -1.
       -5    1    3    3    0  502  0.22223901530E+03 -0.67267033716E+02  0.93519654867E+02  0.25036583152E+03  0.46999998093E+01 0.  1.
</event>
<event>
 5   0  0.1006749E-03  0.1001856E+04  0.7818609E-02  0.9306512E-01
       -2   -1    0    0    0  501  0.00000000000E+00  0.00000000000E+00  0.26961917847E+03  0.26961917848E+03  0.25500000920E-02 0.  1.
        2   -1    0    0  501    0  0.00000000000E+00  0.00000000000E+00 -0.93067861650E+03  0.93067861650E+03  0.25500000920E-02 0. -1.
    10030    2    1    2    0    0  0.00000000000E+00  0.00000000000E+00 -0.66105943803E+03  0.12002977950E+04  0.10018558859E+04 0.  0.
        1    1    3    3  502    0 -0.27518839726E+03 -0.39246361957E+03 -0.15620082006E+03  0.50413792050E+03  0.50400001928E-02 0. -1.
       -1    1    3    3    0  502  0.27518839726E+03  0.39246361957E+03 -0.50485861797E+03  0.69615987448E+03  0.50400001928E-02 0.  1.
</event>
<event>
 5   0  0.1020150E-03  0.1000626E+04  0.7818609E-02  0.9307859E-01
       -2   -1    0    0    0  501  0.00000000000E+00  0.00000000000E+00  0.19451796827E+03  0.19451796829E+03  0.25500000920E-02 0. -1.
        2   -1    0    0  501    0  0.00000000000E+00  0.00000000000E+00 -0.12868374624E+04  0.12868374624E+04  0.25500000920E-02 0.  1.
    10030    2    1    2    0    0  0.00000000000E+00  0.00000000000E+00 -0.10923194942E+04  0.14813554307E+04  0.10006258216E+04 0.  0.
        5    1    3    3  502    0  0.31730659829E+03  0.22378557198E+03 -0.79114424874E+02  0.39628858394E+03  0.46999998093E+01 0. -1.
       -5    1    3    3    0  502 -0.31730659829E+03 -0.22378557198E+03 -0.10132050693E+04  0.10850668468E+04  0.46999998093E+01 0.  1.
</event>
<event>
 5   0  0.1020150E-03  0.1001069E+04  0.7818609E-02  0.9307373E-01
       -2   -1    0    0    0  501  0.00000000000E+00  0.00000000000E+00  0.55103307601E+03  0.55103307602E+03  0.25500000920E-02 0.  1.
        2   -1    0    0  501    0  0.00000000000E+00  0.00000000000E+00 -0.45466366954E+03  0.45466366955E+03  0.25500000920E-02 0. -1.
    10030    2    1    2    0    0  0.00000000000E+00  0.00000000000E+00  0.96369406474E+02  0.10056967456E+04  0.10010688695E+04 0.  0.
        5    1    3    3  502    0  0.21003260704E+03 -0.15961127306E+03 -0.37913231555E+03  0.46190135008E+03  0.46999998093E+01 0. -1.
       -5    1    3    3    0  502 -0.21003260704E+03  0.15961127306E+03  0.47550172203E+03  0.54379539549E+03  0.46999998093E+01 0.  1.
</event>
<event>
 5   0  0.3854625E-04  0.1012291E+04  0.7818609E-02  0.9295166E-01
        4   -1    0    0  501    0  0.00000000000E+00  0.00000000000E+00  0.99968126498E+03  0.99968207169E+03  0.12699999809E+01 0.  1.
       -4   -1    0    0    0  501  0.00000000000E+00  0.00000000000E+00 -0.25626265215E+03  0.25626579909E+03  0.12699999809E+01 0. -1.
    10030    2    1    2    0    0  0.00000000000E+00  0.00000000000E+00  0.74341861283E+03  0.12559478708E+04  0.10122913712E+04 0.  0.
        1    1    3    3  502    0  0.61297112242E+02  0.48257807310E+03  0.19825758658E+03  0.52530467662E+03  0.50400001928E-02 0.  1.
       -1    1    3    3    0  502 -0.61297112242E+02 -0.48257807310E+03  0.54516102625E+03  0.73064319416E+03  0.50400001928E-02 0. -1.
</event>
<event>
 5   0  0.1006749E-03  0.9945031E+03  0.7818609E-02  0.9314594E-01
       -2   -1    0    0    0  501  0.00000000000E+00  0.00000000000E+00  0.86082649832E+03  0.86082649832E+03  0.25500000920E-02 0.  1.
        2   -1    0    0  501    0  0.00000000000E+00  0.00000000000E+00 -0.28723452967E+03  0.28723452969E+03  0.25500000920E-02 0. -1.
    10030    2    1    2    0    0  0.00000000000E+00  0.00000000000E+00  0.57359196865E+03  0.11480610280E+04  0.99450308071E+03 0.  0.
        1    1    3    3  502    0 -0.33133365469E+03  0.35287506104E+03  0.15539480757E+03  0.50838011928E+03  0.50400001928E-02 0.  1.
       -1    1    3    3    0  502  0.33133365469E+03 -0.35287506104E+03  0.41819716107E+03  0.63968090873E+03  0.50400001928E-02 0. -1.
</event>
<event>
 5   0  0.5888774E-04  0.1000704E+04  0.7818609E-02  0.9307773E-01
       -1   -1    0    0    0  501  0.00000000000E+00  0.00000000000E+00  0.47541950996E+03  0.47541950999E+03  0.50400001928E-02 0.  1.
        1   -1    0    0  501    0  0.00000000000E+00  0.00000000000E+00 -0.52659240751E+03  0.52659240754E+03  0.50400001928E-02 0. -1.
    10030    2    1    2    0    0  0.00000000000E+00  0.00000000000E+00 -0.51172897554E+02  0.10020119175E+04  0.10007043606E+04 0.  0.
        2    1    3    3  502    0  0.21952792983E+03 -0.40896701530E+03  0.16148853800E+03  0.49145201138E+03  0.25500000920E-02 0. -1.
       -2    1    3    3    0  502 -0.21952792983E+03  0.40896701530E+03 -0.21266143555E+03  0.51055990614E+03  0.25500000920E-02 0.  1.
</event>
<event>
 5   0  0.9674819E-04  0.9974014E+03  0.7818609E-02  0.9311399E-01
        2   -1    0    0  501    0  0.00000000000E+00  0.00000000000E+00  0.43146424153E+03  0.43146424154E+03  0.25500000920E-02 0.  1.
       -2   -1    0    0    0  501  0.00000000000E+00  0.00000000000E+00 -0.57641488132E+03  0.57641488133E+03  0.25500000920E-02 0. -1.
    10030    2    1    2    0    0  0.00000000000E+00  0.00000000000E+00 -0.14495063979E+03  0.10078791229E+04  0.99740144291E+03 0.  0.
        4    1    3    3  502    0  0.21624083386E+03  0.20690863138E+03  0.33062563699E+03  0.44596659595E+03  0.12699999809E+01 0.  1.
       -4    1    3    3    0  502 -0.21624083386E+03 -0.20690863138E+03 -0.47557627678E+03  0.56191252691E+03  0.12699999809E+01 0. -1.
</event>
<event>
 5   0  0.5758786E-04  0.9976667E+03  0.7818609E-02  0.9311108E-01
       -1   -1    0    0    0  501  0.00000000000E+00  0.00000000000E+00  0.88248424181E+03  0.88248424183E+03  0.50400001928E-02 0.  1.
        1   -1    0    0  501    0  0.00000000000E+00  0.00000000000E+00 -0.28197072338E+03  0.28197072342E+03  0.50400001928E-02 0. -1.
    10030    2    1    2    0    0  0.00000000000E+00  0.00000000000E+00  0.60051351844E+03  0.11644549652E+04  0.99766671803E+03 0.  0.
        3    1    3    3  502    0 -0.25195058831E+03  0.92337739541E+02 -0.19055435800E+03  0.32911446436E+03  0.10100000352E+00 0. -1.
       -3    1    3    3    0  502  0.25195058831E+03 -0.92337739541E+02  0.79106787644E+03  0.83534050089E+03  0.10100000352E+00 0.  1.
</event>
<event>
 5   0  0.9741826E-04  0.9960533E+03  0.7818609E-02  0.9312884E-01
        2   -1    0    0  501    0  0.00000000000E+00  0.00000000000E+00  0.13131887727E+04  0.13131887727E+04  0.25500000920E-02 0. -1.
       -2   -1    0    0    0  501  0.00000000000E+00  0.00000000000E+00 -0.18887653696E+03  0.18887653698E+03  0.25500000920E-02 0.  1.
    10030    2    1    2    0    0  0.00000000000E+00  0.00000000000E+00  0.11243122358E+04  0.15020653097E+04  0.99605330737E+03 0.  0.
        3    1    3    3  502    0  0.41068839076E+03 -0.12843319779E+03  0.94027614555E+03  0.10340596118E+04  0.10100000352E+00 0.  1.
       -3    1    3    3    0  502 -0.41068839076E+03  0.12843319779E+03  0.18403609022E+03  0.46800569794E+03  0.10100000352E+00 0. -1.
</event>
<event>
 5   0  0.5768102E-04  0.9993505E+03  0.7818609E-02  0.9309257E-01
        1   -1    0    0  501    0  0.00000000000E+00  0.00000000000E+00  0.67303376513E+03  0.67303376515E+03  0.50400001928E-02 0.  1.
       -1   -1    0    0    0  501  0.00000000000E+00  0.00000000000E+00 -0.37097002750E+03  0.37097002753E+03  0.50400001928E-02 0. -1.
    10030    2    1    2    0    0  0.00000000000E+00  0.00000000000E+00  0.30206373763E+03  0.10440037927E+04  0.99935049784E+03 0.  0.
        4    1    3    3  502    0  0.28809059662E+03  0.21580573740E+03  0.51307938341E+03  0.62675383903E+03  0.12699999809E+01 0.  1.
       -4    1    3    3    0  502 -0.28809059662E+03 -0.21580573740E+03 -0.21101564578E+03  0.41724995365E+03  0.12699999809E+01 0. -1.
</event>
<event>
 5   0  0.1006749E-03  0.1001674E+04  0.7818609E-02  0.9306710E-01
        2   -1    0    0  501    0  0.00000000000E+00  0.00000000000E+00  0.82975885058E+03  0.82975885058E+03  0.25500000920E-02 0.  1.
       -2   -1    0    0    0  501  0.00000000000E+00  0.00000000000E+00 -0.30230203823E+03  0.30230203825E+03  0.25500000920E-02 0. -1.
    10030    2    1    2    0    0  0.00000000000E+00  0.00000000000E+00  0.52745681235E+03  0.11320608888E+04  0.10016741821E+04 0.  0.
        1    1    3    3  502    0 -0.26026888617E+03 -0.79709444431E+02  0.73886230700E+03  0.78740777070E+03  0.50400001928E-02 0.  1.
       -1    1    3    3    0  502  0.26026888617E+03  0.79709444431E+02 -0.21140549465E+03  0.34465311813E+03  0.50400001928E-02 0. -1.
</event>
<event>
 5   0  0.5960102E-04  0.1002294E+04  0.7818609E-02  0.9306032E-01
       -1   -1    0    0    0  501  0.00000000000E+00  0.00000000000E+00  0.19369632982E+03  0.19369632988E+03  0.50400001928E-02 0. -1.
        1   -1    0    0  501    0  0.00000000000E+00  0.00000000000E+00 -0.12966094179E+04  0.12966094179E+04  0.50400001928E-02 0.  1.
    10030    2    1    2    0    0  0.00000000000E+00  0.00000000000E+00 -0.11029130880E+04  0.14903057478E+04  0.10022943390E+04 0.  0.
        5    1    3    3  502    0  0.27687347585E+03 -0.23887405015E+03 -0.10609357572E+04  0.11221971771E+04  0.46999998093E+01 0.  1.
       -5    1    3    3    0  502 -0.27687347585E+03  0.23887405015E+03 -0.41977330852E+02  0.36810857063E+03  0.46999998093E+01 0. -1.
</event>
<event>
 5   0  0.5768102E-04  0.1000144E+04  0.7818609E-02  0.9308387E-01
        1   -1    0    0  501    0  0.00000000000E+00  0.00000000000E+00  0.79070869873E+03  0.79070869875E+03  0.50400001928E-02 0.  1.
       -1   -1    0    0    0  501  0.00000000000E+00  0.00000000000E+00 -0.31626284477E+03  0.31626284481E+03  0.50400001928E-02 0. -1.
    10030    2    1    2    0    0  0.00000000000E+00  0.00000000000E+00  0.47444585396E+03  0.11069715436E+04  0.10001435546E+04 0.  0.
        4    1    3    3  502    0 -0.79204740792E+02  0.19546732956E+02 -0.30884607068E+03  0.31944165978E+03  0.12699999809E+01 0. -1.
       -4    1    3    3    0  502  0.79204740792E+02 -0.19546732956E+02  0.78329192464E+03  0.78752988377E+03  0.12699999809E+01 0.  1.
</event>
<event>
 5   0  0.9741826E-04  0.1000774E+04  0.7818609E-02  0.9307697E-01
        2   -1    0    0  501    0  0.00000000000E+00  0.00000000000E+00  0.12126409915E+04  0.12126409915E+04  0.25500000920E-02 0.  1.
       -2   -1    0    0    0  501  0.00000000000E+00  0.00000000000E+00 -0.20648069832E+03  0.20648069834E+03  0.25500000920E-02 0. -1.
    10030    2    1    2    0    0  0.00000000000E+00  0.00000000000E+00  0.10061602931E+04  0.14191216898E+04  0.10007736182E+04 0.  0.
        3    1    3    3  502    0 -0.65330315903E+01  0.47537327489E+03  0.72442156962E+03  0.86649238410E+03  0.10100000352E+00 0.  1.
       -3    1    3    3    0  502  0.65330315903E+01 -0.47537327489E+03  0.28173872351E+03  0.55262930569E+03  0.10100000352E+00 0. -1.
</event>
<event>
 5   0  0.5960102E-04  0.1009503E+04  0.7818609E-02  0.9298183E-01
        1   -1    0    0  501    0  0.00000000000E+00  0.00000000000E+00  0.64374430690E+03  0.64374430692E+03  0.50400001928E-02 0. -1.
       -1   -1    0    0    0  501  0.00000000000E+00  0.00000000000E+00 -0.39576919100E+03  0.39576919103E+03  0.50400001928E-02 0.  1.
    10030    2    1    2    0    0  0.00000000000E+00  0.00000000000E+00  0.24797511590E+03  0.10395134979E+04  0.10095031720E+04 0.  0.
        5    1    3    3  502    0 -0.32339567438E+03 -0.37075313522E+03  0.24007503720E+03  0.54744932457E+03  0.46999998093E+01 0. -1.
       -5    1    3    3    0  502  0.32339567438E+03  0.37075313522E+03  0.79000787010E+01  0.49206417338E+03  0.46999998093E+01 0.  1.
</event>
<event>
 5   0  0.5758786E-04  0.1004794E+04  0.7818609E-02  0.9303302E-01
       -1   -1    0    0    0  501  0.00000000000E+00  0.00000000000E+00  0.30181777277E+03  0.30181777281E+03  0.50400001928E-02 0. -1.
        1   -1    0    0  501    0  0.00000000000E+00  0.00000000000E+00 -0.83627526420E+03  0.83627526422E+03  0.50400001928E-02 0.  1.
    10030    2    1    2    0    0  0.00000000000E+00  0.00000000000E+00 -0.53445749144E+03  0.11380930370E+04  0.10047939842E+04 0.  0.
        3    1    3    3  502    0 -0.33080262391E+03  0.30636945567E+03 -0.51823594925E+03  0.68692148652E+03  0.10100000352E+00 0. -1.
       -3    1    3    3    0  502  0.33080262391E+03 -0.30636945567E+03 -0.16221542187E+02  0.45117155050E+03  0.10100000352E+00 0.  1.
</event>
<event>
 5   0  0.5888774E-04  0.1001720E+04  0.7818609E-02  0.9306661E-01
       -1   -1    0    0    0  501  0.00000000000E+00  0.00000000000E+00  0.45881749265E+03  0.45881749267E+03  0.50400001928E-02 0. -1.
        1   -1    0    0  501    0  0.00000000000E+00  0.00000000000E+00 -0.54675477560E+03  0.54675477562E+03  0.50400001928E-02 0.  1.
    10030    2    1    2    0    0  0.00000000000E+00  0.00000000000E+00 -0.87937282954E+02  0.10055722683E+04  0.10017198316E+04 0.  0.
        2    1    3    3  502    0 -0.23962371903E+03 -0.31148097668E+02  0.39643366243E+03  0.46427295789E+03  0.25500000920E-02 0. -1.
       -2    1    3    3    0  502  0.23962371903E+03  0.31148097668E+02 -0.48437094538E+03  0.54129931041E+03  0.25500000920E-02 0.  1.
</event>
<event>
 5   0  0.1006006E-03  0.1000651E+04  0.7818609E-02  0.9307831E-01
       -2   -1    0    0    0  501  0.00000000000E+00  0.00000000000E+00  0.51256134009E+03  0.51256134010E+03  0.25500000920E-02 0.  1.
        2   -1    0    0  501    0  0.00000000000E+00  0.00000000000E+00 -0.48838210771E+03  0.48838210771E+03  0.25500000920E-02 0. -1.
    10030    2    1    2    0    0  0.00000000000E+00  0.00000000000E+00  0.24179232388E+02  0.10009434478E+04  0.10006513631E+04 0.  0.
        2    1    3    3  502    0 -0.19606821511E+03 -0.11601068997E+03 -0.43348912821E+03  0.48970812679E+03  0.25500000920E-02 0. -1.
       -2    1    3    3    0  502  0.19606821511E+03  0.11601068997E+03  0.45766836060E+03  0.51123532102E+03  0.25500000920E-02 0.  1.
</event>
<event>
 5   0  0.5888774E-04  0.1000526E+04  0.7818609E-02  0.9307968E-01
       -1   -1    0    0    0  501  0.00000000000E+00  0.00000000000E+00  0.25587851224E+03  0.25587851229E+03  0.50400001928E-02 0. -1.
        1   -1    0    0  501    0  0.00000000000E+00  0.00000000000E+00 -0.97805417967E+03  0.97805417969E+03  0.50400001928E-02 0.  1.
    10030    2    1    2    0    0  0.00000000000E+00  0.00000000000E+00 -0.72217566743E+03  0.12339326920E+04  0.10005259585E+04 0.  0.
        2    1    3    3  502    0  0.14138546366E+03 -0.40149315094E+03 -0.68522446270E+03  0.80667165804E+03  0.25500000920E-02 0.  1.
       -2    1    3    3    0  502 -0.14138546366E+03  0.40149315094E+03 -0.36951204729E+02  0.42726103394E+03  0.25500000920E-02 0. -1.
</event>
<event>
 5   0  0.5888774E-04  0.1000673E+04  0.7818609E-02  0.9307807E-01
        1   -1    0    0  501    0  0.00000000000E+00  0.00000000000E+00  0.82099749289E+03  0.82099749290E+03  0.50400001928E-02 0.  1.
       -1   -1    0    0    0  501  0.00000000000E+00  0.00000000000E+00 -0.30491767069E+03  0.30491767073E+03  0.50400001928E-02 0. -1.
    10030    2    1    2    0    0  0.00000000000E+00  0.00000000000E+00  0.51607982219E+03  0.11259151636E+04  0.10006730599E+04 0.  0.
        2    1    3    3  502    0  0.63318270157E+02 -0.48413937122E+03  0.38096828223E+03  0.61930361389E+03  0.25500000920E-02 0.  1.
       -2    1    3    3    0  502 -0.63318270157E+02  0.48413937122E+03  0.13511153996E+03  0.50661154975E+03  0.25500000920E-02 0. -1.
</event>
<event>
 5   0  0.5758786E-04  0.1000571E+04  0.7818609E-02  0.9307919E-01
        1   -1    0    0  501    0  0.00000000000E+00  0.00000000000E+00  0.83602333069E+03  0.83602333071E+03  0.50400001928E-02 0.  1.
       -1   -1    0    0    0  501  0.00000000000E+00  0.00000000000E+00 -0.29937632881E+03  0.29937632885E+03  0.50400001928E-02 0. -1.
    10030    2    1    2    0    0  0.00000000000E+00  0.00000000000E+00  0.53664700188E+03  0.11353996596E+04  0.10005710281E+04 0.  0.
        3    1    3    3  502    0 -0.13196456293E+03  0.30525070845E+03  0.69244283607E+03  0.76815996531E+03  0.10100000352E+00 0.  1.
       -3    1    3    3    0  502  0.13196456293E+03 -0.30525070845E+03 -0.15579583419E+03  0.36723969425E+03  0.10100000352E+00 0. -1.
</event>
<event>
 5   0  0.1006749E-03  0.1000171E+04  0.7818609E-02  0.9308357E-01
        2   -1    0    0  501    0  0.00000000000E+00  0.00000000000E+00  0.50859039535E+03  0.50859039535E+03  0.25500000920E-02 0.  1.
       -2   -1    0    0    0  501  0.00000000000E+00  0.00000000000E+00 -0.49172308467E+03  0.49172308467E+03  0.25500000920E-02 0. -1.
    10030    2    1    2    0    0  0.00000000000E+00  0.00000000000E+00  0.16867310683E+02  0.10003134800E+04  0.10001712614E+04 0.  0.
        1    1    3    3  502    0  0.25949361659E+03 -0.23649068280E+02  0.43533087810E+03  0.50735509156E+03  0.50400001928E-02 0.  1.
       -1    1    3    3    0  502 -0.25949361659E+03  0.23649068280E+02 -0.41846356741E+03  0.49295838847E+03  0.50400001928E-02 0. -1.
</event>
<event>
 5   0  0.9674819E-04  0.9938286E+03  0.7818609E-02  0.9315339E-01
        2   -1    0    0  501    0  0.00000000000E+00  0.00000000000E+00  0.16208982636E+04  0.16208982636E+04  0.25500000920E-02 0. -1.
       -2   -1    0    0    0  501  0.00000000000E+00  0.00000000000E+00 -0.15233764282E+03  0.15233764284E+03  0.25500000920E-02 0.  1.
    10030    2    1    2    0    0  0.00000000000E+00  0.00000000000E+00  0.14685606208E+04  0.17732359065E+04  0.99382859840E+03 0.  0.
        4    1    3    3  502    0  0.38119647168E+03 -0.27915068812E+03  0.10088825713E+04  0.11140383801E+04  0.12699999809E+01 0. -1.
       -4    1    3    3    0  502 -0.38119647168E+03  0.27915068812E+03  0.45967804951E+03  0.65919752639E+03  0.12699999809E+01 0.  1.
</event>
<event>
 5   0  0.5826939E-04  0.1000407E+04  0.7818609E-02  0.9308098E-01
       -1   -1    0    0    0  501  0.00000000000E+00  0.00000000000E+00  0.27365933855E+03  0.27365933860E+03  0.50400001928E-02 0.  1.
        1   -1    0    0  501    0  0.00000000000E+00  0.00000000000E+00 -0.91428909137E+03  0.91428909138E+03  0.50400001928E-02 0. -1.
    10030    2    1    2    0    0  0.00000000000E+00  0.00000000000E+00 -0.64062975281E+03  0.11879484300E+04  0.10004074131E+04 0.  0.
        1    1    3    3  502    0  0.16529917344E+03 -0.41899979235E+02  0.23807681147E+03  0.29284807184E+03  0.50400001928E-02 0.  1.
       -1    1    3    3    0  502 -0.16529917344E+03  0.41899979235E+02 -0.87870656428E+03  0.89510035814E+03  0.50400001928E-02 0. -1.
</event>
<event>
 5   0  0.1006749E-03  0.1000862E+04  0.7818609E-02  0.9307600E-01
       -2   -1    0    0    0  501  0.00000000000E+00  0.00000000000E+00  0.16323180383E+03  0.16323180385E+03  0.25500000920E-02 0.  1.
        2   -1    0    0  501    0  0.00000000000E+00  0.00000000000E+00 -0.15342048865E+04  0.15342048865E+04  0.25500000920E-02 0. -1.
    10030    2    1    2    0    0  0.00000000000E+00  0.00000000000E+00 -0.13709730827E+04  0.16974366904E+04  0.10008616909E+04 0.  0.
        1    1    3    3  502    0  0.10150761793E+03  0.40027472363E+03 -0.20607005463E+03  0.46150679119E+03  0.50400001928E-02 0.  1.
       -1    1    3    3    0  502 -0.10150761793E+03 -0.40027472363E+03 -0.11649030281E+04  0.12359298992E+04  0.50400001928E-02 0. -1.
</event>
<event>
 5   0  0.9674819E-04  0.9983989E+03  0.7818609E-02  0.9310303E-01
       -2   -1    0    0    0  501  0.00000000000E+00  0.00000000000E+00  0.27579775083E+03  0.27579775085E+03  0.25500000920E-02 0.  1.
        2   -1    0    0  501    0  0.00000000000E+00  0.00000000000E+00 -0.90356108448E+03  0.90356108448E+03  0.25500000920E-02 0. -1.
    10030    2    1    2    0    0  0.00000000000E+00  0.00000000000E+00 -0.62776333364E+03  0.11793588353E+04  0.99839894801E+03 0.  0.
        4    1    3    3  502    0  0.32860143440E+03 -0.17104805577E+03  0.81373438372E+02  0.37928826694E+03  0.12699999809E+01 0.  1.
       -4    1    3    3    0  502 -0.32860143440E+03  0.17104805577E+03 -0.70913677202E+03  0.80007056838E+03  0.12699999809E+01 0. -1.
</event>
<event>
 5   0  0.1020150E-03  0.1000234E+04  0.7818609E-02  0.9308288E-01
       -2   -1    0    0    0  501  0.00000000000E+00  0.00000000000E+00  0.74885003353E+03  0.74885003354E+03  0.25500000920E-02 0. -1.
        2   -1    0    0  501    0  0.00000000000E+00  0.00000000000E+00 -0.33400144291E+03  0.33400144292E+03  0.25500000920E-02 0.  1.
    10030    2    1    2    0    0  0.00000000000E+00  0.00000000000E+00  0.41484859062E+03  0.10828514765E+04  0.10002339561E+04 0.  0.
        5    1    3    3  502    0  0.31758277253E+03  0.12176989975E+03 -0.18947483068E+03  0.38937068117E+03  0.46999998093E+01 0.  1.
       -5    1    3    3    0  502 -0.31758277253E+03 -0.12176989975E+03  0.60432342130E+03  0.69348079528E+03  0.46999998093E+01 0. -1.
</event>
<event>
 5   0  0.1006749E-03  0.9991291E+03  0.7818609E-02  0.9309500E-01
        2   -1    0    0  501    0  0.00000000000E+00  0.00000000000E+00  0.94481180276E+03  0.94481180276E+03  0.25500000920E-02 0. -1.
       -2   -1    0    0    0  501  0.00000000000E+00  0.00000000000E+00 -0.26414228729E+03  0.26414228730E+03  0.25500000920E-02 0.  1.
    10030    2    1    2    0    0  0.00000000000E+00  0.00000000000E+00  0.68066951547E+03  0.12089540901E+04  0.99912912208E+03 0.  0.
        1    1    3    3  502    0 -0.28305299407E+03 -0.39615590225E+03  0.47565158872E+03  0.68066359548E+03  0.50400001928E-02 0.  1.
       -1    1    3    3    0  502  0.28305299407E+03  0.39615590225E+03  0.20501792675E+03  0.52829049458E+03  0.50400001928E-02 0. -1.
</event>
<event>
 5   0  0.1020150E-03  0.1000280E+04  0.7818609E-02  0.9308237E-01
        2   -1    0    0  501    0  0.00000000000E+00  0.00000000000E+00  0.46587751496E+03  0.46587751497E+03  0.25500000920E-02 0.  1.
       -2   -1    0    0    0  501  0.00000000000E+00  0.00000000000E+00 -0.53692275948E+03  0.53692275949E+03  0.25500000920E-02 0. -1.
    10030    2    1    2    0    0  0.00000000000E+00  0.00000000000E+00 -0.71045244524E+02  0.10028002745E+04  0.10002804425E+04 0.  0.
        5    1    3    3  502    0  0.97458996580E+01 -0.55746675864E+02  0.46263504911E+03  0.46610723347E+03  0.46999998093E+01 0.  1.
       -5    1    3    3    0  502 -0.97458996580E+01  0.55746675864E+02 -0.53368029364E+03  0.53669304099E+03  0.46999998093E+01 0. -1.
</event>
<event>
 5   0  0.1006749E-03  0.9901867E+03  0.7818609E-02  0.9319374E-01
        2   -1    0    0  501    0  0.00000000000E+00  0.00000000000E+00  0.15547270385E+04  0.15547270385E+04  0.25500000920E-02 0. -1.
       -2   -1    0    0    0  501  0.00000000000E+00  0.00000000000E+00 -0.15765945531E+03  0.15765945533E+03  0.25500000920E-02 0.  1.
    10030    2    1    2    0    0  0.00000000000E+00  0.00000000000E+00  0.13970675832E+04  0.17123864938E+04  0.99018668556E+03 0.  0.
        1    1    3    3  502    0  0.15825569734E+03  0.22384073161E+02  0.15088839126E+04  0.15173254674E+04  0.50400001928E-02 0. -1.
       -1    1    3    3    0  502 -0.15825569734E+03 -0.22384073161E+02 -0.11181632939E+03  0.19506102639E+03  0.50400001928E-02 0.  1.
</event>
<event>
 5   0  0.5768102E-04  0.9989152E+03  0.7818609E-02  0.9309735E-01
        1   -1    0    0  501    0  0.00000000000E+00  0.00000000000E+00  0.16177341992E+03  0.16177341999E+03  0.50400001928E-02 0. -1.
       -1   -1    0    0    0  501  0.00000000000E+00  0.00000000000E+00 -0.15420201694E+04  0.15420201694E+04  0.50400001928E-02 0.  1.
    10030    2    1    2    0    0  0.00000000000E+00  0.00000000000E+00 -0.13802467495E+04  0.17037935894E+04  0.99891516448E+03 0.  0.
        4    1    3    3  502    0 -0.35057654364E+03 -0.29459818620E+03 -0.10302454516E+04  0.11274304003E+04  0.12699999809E+01 0. -1.
       -4    1    3    3    0  502  0.35057654364E+03  0.29459818620E+03 -0.35000129793E+03  0.57636318907E+03  0.12699999809E+01 0.  1.
</event>
<event>
 5   0  0.5758786E-04  0.1000180E+04  0.7818609E-02  0.9308348E-01
       -1   -1    0    0    0  501  0.00000000000E+00  0.00000000000E+00  0.44475362393E+03  0.44475362396E+03  0.50400001928E-02 0. -1.
        1   -1    0    0  501    0  0.00000000000E+00  0.00000000000E+00 -0.56231097028E+03  0.56231097030E+03  0.50400001928E-02 0.  1.
    10030    2    1    2    0    0  0.00000000000E+00  0.00000000000E+00 -0.11755734635E+03  0.10070645943E+04  0.10001796675E+04 0.  0.
        3    1    3    3  502    0 -0.38731654591E+03 -0.96589981933E+02 -0.36209325632E+03  0.53893902050E+03  0.10100000352E+00 0.  1.
       -3    1    3    3    0  502  0.38731654591E+03  0.96589981933E+02  0.24453590997E+03  0.46812557376E+03  0.10100000352E+00 0. -1.
</event>
<event>
 5   0  0.1006749E-03  0.9960808E+03  0.7818609E-02  0.9312854E-01
        2   -1    0    0  501    0  0.00000000000E+00  0.00000000000E+00  0.28589021137E+04  0.28589021137E+04  0.25500000920E-02 0.  1.
       -2   -1    0    0    0  501  0.00000000000E+00  0.00000000000E+00 -0.86762069136E+02  0.86762069173E+02  0.25500000920E-02 0. -1.
    10030    2    1    2    0    0  0.00000000000E+00  0.00000000000E+00  0.27721400446E+04  0.29456641829E+04  0.99608084592E+03 0.  0.
        1    1    3    3  502    0  0.11026203832E+02 -0.48166240239E+03  0.17592470880E+04  0.18240259219E+04  0.50400001928E-02 0.  1.
       -1    1    3    3    0  502 -0.11026203832E+02  0.48166240239E+03  0.10128929566E+04  0.11216382610E+04  0.50400001928E-02 0. -1.
</event>
<event>
 5   0  0.5888774E-04  0.9986960E+03  0.7818609E-02  0.9309976E-01
       -1   -1    0    0    0  501  0.00000000000E+00  0.00000000000E+00  0.33730351228E+03  0.33730351231E+03  0.50400001928E-02 0.  1.
        1   -1    0    0  501    0  0.00000000000E+00  0.00000000000E+00 -0.73924058723E+03  0.73924058725E+03  0.50400001928E-02 0. -1.
    10030    2    1    2    0    0  0.00000000000E+00  0.00000000000E+00 -0.40193707495E+03  0.10765440996E+04  0.99869604288E+03 0.  0.
        2    1    3    3  502    0  0.59439771402E+02 -0.87183293226E+02 -0.72708577591E+03  0.73470248304E+03  0.25500000920E-02 0. -1.
       -2    1    3    3    0  502 -0.59439771402E+02  0.87183293226E+02  0.32514870096E+03  0.34184161652E+03  0.25500000920E-02 0.  1.
</event>
<event>
 5   0  0.1006006E-03  0.1000333E+04  0.7818609E-02  0.9308179E-01
       -2   -1    0    0    0  501  0.00000000000E+00  0.00000000000E+00  0.18936132985E+03  0.18936132987E+03  0.25500000920E-02 0.  1.
        2   -1    0    0  501    0  0.00000000000E+00  0.00000000000E+00 -0.13211080045E+04  0.13211080045E+04  0.25500000920E-02 0. -1.
    10030    2    1    2    0    0  0.00000000000E+00  0.00000000000E+00 -0.11317466746E+04  0.15104693343E+04  0.10003334816E+04 0.  0.
        2    1    3    3  502    0 -0.26178756164E+03 -0.15990248058E+03  0.30640052828E+02  0.30828613912E+03  0.25500000920E-02 0.  1.
       -2    1    3    3    0  502  0.26178756164E+03  0.15990248058E+03 -0.11623867274E+04  0.12021831952E+04  0.25500000920E-02 0. -1.
</event>
<event>
 5   0  0.5768102E-04  0.9984731E+03  0.7818609E-02  0.9310221E-01
        1   -1    0    0  501    0  0.00000000000E+00  0.00000000000E+00  0.10487817748E+04  0.10487817749E+04  0.50400001928E-02 0. -1.
       -1   -1    0    0    0  501  0.00000000000E+00  0.00000000000E+00 -0.23764440784E+03  0.23764440790E+03  0.50400001928E-02 0.  1.
    10030    2    1    2    0    0  0.00000000000E+00  0.00000000000E+00  0.81113736700E+03  0.12864261828E+04  0.99847308203E+03 0.  0.
        4    1    3    3  502    0  0.10089824624E+03  0.79725409602E+00 -0.22436799751E+03  0.24601565583E+03  0.12699999809E+01 0.  1.
       -4    1    3    3    0  502 -0.10089824624E+03 -0.79725409602E+00  0.10355053645E+04  0.10404105269E+04  0.12699999809E+01 0. -1.
</event>
<event>
 5   0  0.1020150E-03  0.1001317E+04  0.7818609E-02  0.9307101E-01
        2   -1    0    0  501    0  0.00000000000E+00  0.00000000000E+00  0.28694710780E+04  0.28694710780E+04  0.25500000920E-02 0.  1.
       -2   -1    0    0    0  501  0.00000000000E+00  0.00000000000E+00 -0.87353746722E+02  0.87353746760E+02  0.25500000920E-02 0. -1.
    10030    2    1    2    0    0  0.00000000000E+00  0.00000000000E+00  0.27821173313E+04  0.29568248248E+04  0.10013172321E+04 0.  0.
        5    1    3    3  502    0 -0.10284582653E+03 -0.65364650975E+02  0.28249425368E+04  0.28275735584E+04  0.46999998093E+01 0.  1.
       -5    1    3    3    0  502  0.10284582653E+03  0.65364650975E+02 -0.42825205560E+02  0.12925126638E+03  0.46999998093E+01 0. -1.
</event>
<event>
 5   0  0.5768102E-04  0.9998142E+03  0.7818609E-02  0.9308749E-01
       -1   -1    0    0    0  501  0.00000000000E+00  0.00000000000E+00  0.49092739859E+03  0.49092739861E+03  0.50400001928E-02 0. -1.
        1   -1    0    0  501    0  0.00000000000E+00  0.00000000000E+00 -0.50905101354E+03  0.50905101356E+03  0.50400001928E-02 0.  1.
    10030    2    1    2    0    0  0.00000000000E+00  0.00000000000E+00 -0.18123614949E+02  0.99997841218E+03  0.99981416243E+03 0.  0.
        4    1    3    3  502    0  0.58860590814E+02  0.49281985308E+03 -0.68816916904E+02  0.50107220806E+03  0.12699999809E+01 0.  1.
       -4    1    3    3    0  502 -0.58860590814E+02 -0.49281985308E+03  0.50693301956E+02  0.49890620411E+03  0.12699999809E+01 0. -1.
</event>
<event>
 5   0  0.1006749E-03  0.9993480E+03  0.7818609E-02  0.9309260E-01
        2   -1    0    0  501    0  0.00000000000E+00  0.00000000000E+00  0.14388682183E+04  0.14388682183E+04  0.25500000920E-02 0.  1.
       -2   -1    0    0    0  501  0.00000000000E+00  0.00000000000E+00 -0.17352119224E+03  0.17352119226E+03  0.25500000920E-02 0. -1.
    10030    2    1    2    0    0  0.00000000000E+00  0.00000000000E+00  0.12653470260E+04  0.16123894105E+04  0.99934804494E+03 0.  0.
        1    1    3    3  502    0  0.25238889321E+03 -0.30421875491E+03  0.13951725596E+03  0.41918285865E+03  0.50400001928E-02 0. -1.
       -1    1    3    3    0  502 -0.25238889321E+03  0.30421875491E+03  0.11258297701E+04  0.11932065519E+04  0.50400001928E-02 0.  1.
</event>
<event>
 5   0  0.5888774E-04  0.9992666E+03  0.7818609E-02  0.9309350E-01
       -1   -1    0    0    0  501  0.00000000000E+00  0.00000000000E+00  0.10168688638E+03  0.10168688651E+03  0.50400001928E-02 0.  1.
        1   -1    0    0  501    0  0.00000000000E+00  0.00000000000E+00 -0.24549223978E+04  0.24549223978E+04  0.50400001928E-02 0. -1.
    10030    2    1    2    0    0  0.00000000000E+00  0.00000000000E+00 -0.23532355114E+04  0.25566092843E+04  0.99926656124E+03 0.  0.
        2    1    3    3  502    0 -0.49703254911E+02 -0.62393910115E+02  0.85289059701E+02  0.11678029491E+03  0.25500000920E-02 0.  1.
       -2    1    3    3    0  502  0.49703254911E+02  0.62393910115E+02 -0.24385245711E+04  0.24398289894E+04  0.25500000920E-02 0. -1.
</event>
<event>
 5   0  0.5888774E-04  0.9997200E+03  0.7818609E-02  0.9308852E-01
        1   -1    0    0  501    0  0.00000000000E+00  0.00000000000E+00  0.46681622456E+03  0.46681622459E+03  0.50400001928E-02 0.  1.
       -1   -1    0    0    0  501  0.00000000000E+00  0.00000000000E+00 -0.53524281157E+03  0.53524281159E+03  0.50400001928E-02 0. -1.
    10030    2    1    2    0    0  0.00000000000E+00  0.00000000000E+00 -0.68426587013E+02  0.10020590362E+04  0.99972001790E+03 0.  0.
        2    1    3    3  502    0 -0.32681520440E+02  0.28669968105E+03  0.37490247066E+03  0.47309264569E+03  0.25500000920E-02 0.  1.
       -2    1    3    3    0  502  0.32681520440E+02 -0.28669968105E+03 -0.44332905767E+03  0.52896639049E+03  0.25500000920E-02 0. -1.
</event>
<event>
 5   0  0.5758786E-04  0.9964505E+03  0.7818609E-02  0.9312446E-01
        1   -1    0    0  501    0  0.00000000000E+00  0.00000000000E+00  0.92347389991E+03  0.92347389992E+03  0.50400001928E-02 0. -1.
       -1   -1    0    0    0  501  0.00000000000E+00  0.00000000000E+00 -0.26879848680E+03  0.26879848685E+03  0.50400001928E-02 0.  1.
    10030    2    1    2    0    0  0.00000000000E+00  0.00000000000E+00  0.65467541311E+03  0.11922723868E+04  0.99645047430E+03 0.  0.
        3    1    3    3  502    0 -0.23789254791E+02 -0.41753096320E+03  0.33253108411E+01  0.41822135499E+03  0.10100000352E+00 0.  1.
       -3    1    3    3    0  502  0.23789254791E+02  0.41753096320E+03  0.65135010227E+03  0.77405103178E+03  0.10100000352E+00 0. -1.
</event>
<event>
 5   0  0.5960102E-04  0.9990478E+03  0.7818609E-02  0.9309590E-01
        1   -1    0    0  501    0  0.00000000000E+00  0.00000000000E+00  0.85468571611E+03  0.85468571613E+03  0.50400001928E-02 0.  1.
       -1   -1    0    0    0  501  0.00000000000E+00  0.00000000000E+00 -0.29194840724E+03  0.29194840728E+03  0.50400001928E-02 0. -1.
    10030    2    1    2    0    0  0.00000000000E+00  0.00000000000E+00  0.56273730887E+03  0.11466341234E+04  0.99904781376E+03 0.  0.
        5    1    3    3  502    0 -0.53166883603E+02  0.47847915346E+03  0.12853112441E+03  0.49830849656E+03  0.46999998093E+01 0. -1.
       -5    1    3    3    0  502  0.53166883603E+02 -0.47847915346E+03  0.43420618446E+03  0.64832562685E+03  0.46999998093E+01 0.  1.
</event>
<event>
 5   0  0.5768102E-04  0.9982048E+03  0.7818609E-02  0.9310516E-01
       -1   -1    0    0    0  501  0.00000000000E+00  0.00000000000E+00  0.60218461839E+03  0.60218461841E+03  0.50400001928E-02 0. -1.
        1   -1    0    0  501    0  0.00000000000E+00  0.00000000000E+00 -0.41366587166E+03  0.41366587169E+03  0.50400001928E-02 0.  1.
    10030    2    1    2    0    0  0.00000000000E+00  0.00000000000E+00  0.18851874673E+03  0.10158504901E+04  0.99820483888E+03 0.  0.
        4    1    3    3  502    0 -0.16163174804E+03  0.87242048283E+01 -0.38621012087E+03  0.41876103459E+03  0.12699999809E+01 0.  1.
       -4    1    3    3    0  502  0.16163174804E+03 -0.87242048283E+01  0.57472886760E+03  0.59708945551E+03  0.12699999809E+01 0. -1.
</event>
<event>
 5   0  0.9674819E-04  0.1005446E+04  0.7818609E-02  0.9302592E-01
       -2   -1    0    0    0  501  0.00000000000E+00  0.00000000000E+00  0.50774411323E+03  0.50774411323E+03  0.25500000920E-02 0.  1.
        2   -1    0    0  501    0  0.00000000000E+00  0.00000000000E+00 -0.49775174229E+03  0.49775174229E+03  0.25500000920E-02 0. -1.
    10030    2    1    2    0    0  0.00000000000E+00  0.00000000000E+00  0.99923709398E+01  0.10054958555E+04  0.10054462034E+04 0.  0.
        4    1    3    3  502    0 -0.87803055986E+02  0.49399259692E+03 -0.26483006264E+02  0.50243509528E+03  0.12699999809E+01 0.  1.
       -4    1    3    3    0  502  0.87803055986E+02 -0.49399259692E+03  0.36475377203E+02  0.50306076024E+03  0.12699999809E+01 0. -1.
</event>
<event>
 5   0  0.1006749E-03  0.9974377E+03  0.7818609E-02  0.9311360E-01
        2   -1    0    0  501    0  0.00000000000E+00  0.00000000000E+00  0.53350591851E+03  0.53350591851E+03  0.25500000920E-02 0.  1.
       -2   -1    0    0    0  501  0.00000000000E+00  0.00000000000E+00 -0.46620009597E+03  0.46620009598E+03  0.25500000920E-02 0. -1.
    10030    2    1    2    0    0  0.00000000000E+00  0.00000000000E+00  0.67305822534E+02  0.99970601449E+03  0.99743773824E+03 0.  0.
        1    1    3    3  502    0 -0.20115900026E+02 -0.10575858061E+03 -0.45441545539E+03  0.46699350416E+03  0.50400001928E-02 0. -1.
       -1    1    3    3    0  502  0.20115900026E+02  0.10575858061E+03  0.52172127792E+03  0.53271251034E+03  0.50400001928E-02 0.  1.
</event>
<event>
 5   0  0.1020150E-03  0.9969563E+03  0.7818609E-02  0.9311889E-01
       -2   -1    0    0    0  501  0.00000000000E+00  0.00000000000E+00  0.30955959986E+03  0.30955959987E+03  0.25500000920E-02 0.  1.
        2   -1    0    0  501    0  0.00000000000E+00  0.00000000000E+00 -0.80269023897E+03  0.80269023897E+03  0.25500000920E-02 0. -1.
    10030    2    1    2    0    0  0.00000000000E+00  0.00000000000E+00 -0.49313063911E+03  0.11122498388E+04  0.99695630635E+03 0.  0.
        5    1    3    3  502    0 -0.38671478711E+03 -0.31290165595E+03 -0.21123956496E+03  0.54046278010E+03  0.46999998093E+01 0. -1.
       -5    1    3    3    0  502  0.38671478711E+03  0.31290165595E+03 -0.28189107415E+03  0.57178705875E+03  0.46999998093E+01 0.  1.
</event>
<event>
 5   0  0.1006006E-03  0.9998229E+03  0.7818609E-02  0.9308739E-01
        2   -1    0    0  501    0  0.00000000000E+00  0.00000000000E+00  0.56873506665E+03  0.56873506666E+03  0.25500000920E-02 0.  1.
       -2   -1    0    0    0  501  0.00000000000E+00  0.00000000000E+00 -0.43941628022E+03  0.43941628023E+03  0.25500000920E-02 0. -1.
    10030    2    1    2    0    0  0.00000000000E+00  0.00000000000E+00  0.12931878643E+03  0.10081513469E+04  0.99982287917E+03 0.  0.
        2    1    3    3  502    0 -0.36489568981E+03  0.28569227044E+03  0.25368430762E+03  0.52832250167E+03  0.25500000920E-02 0.  1.
       -2    1    3    3    0  502  0.36489568981E+03 -0.28569227044E+03 -0.12436552119E+03  0.47982884522E+03  0.25500000920E-02 0. -1.
</event>
<event>
 5   0  0.5888774E-04  0.1000969E+04  0.7818609E-02  0.9307483E-01
       -1   -1    0    0    0  501  0.00000000000E+00  0.00000000000E+00  0.39684868603E+03  0.39684868606E+03  0.50400001928E-02 0.  1.
        1   -1    0    0  501    0  0.00000000000E+00  0.00000000000E+00 -0.63118420565E+03  0.63118420567E+03  0.50400001928E-02 0. -1.
    10030    2    1    2    0    0  0.00000000000E+00  0.00000000000E+00 -0.23433551961E+03  0.10280328917E+04  0.10009687761E+04 0.  0.
        2    1    3    3  502    0 -0.45679795826E+02 -0.47109457977E+03 -0.28425605348E+03  0.55210347833E+03  0.25500000920E-02 0. -1.
       -2    1    3    3    0  502  0.45679795826E+02  0.47109457977E+03  0.49920533867E+02  0.47592941340E+03  0.25500000920E-02 0.  1.
</event>
<event>
 5   0  0.5826939E-04  0.1000110E+04  0.7818609E-02  0.9308424E-01
        1   -1    0    0  501    0  0.00000000000E+00  0.00000000000E+00  0.49187905374E+03  0.49187905377E+03  0.50400001928E-02 0. -1.
       -1   -1    0    0    0  501  0.00000000000E+00  0.00000000000E+00 -0.50836682963E+03  0.50836682965E+03  0.50400001928E-02 0.  1.
    10030    2    1    2    0    0  0.00000000000E+00  0.00000000000E+00 -0.16487775887E+02  0.10002458834E+04  0.10001099842E+04 0.  0.
        1    1    3    3  502    0  0.27039402445E+02  0.49567785308E+02 -0.50516842516E+03  0.50831410804E+03  0.50400001928E-02 0.  1.
       -1    1    3    3    0  502 -0.27039402445E+02 -0.49567785308E+02  0.48868064928E+03  0.49193177538E+03  0.50400001928E-02 0. -1.
</event>
<event>
 5   0  0.1020150E-03  0.9990930E+03  0.7818609E-02  0.9309540E-01
       -2   -1    0    0    0  501  0.00000000000E+00  0.00000000000E+00  0.19545872234E+03  0.19545872235E+03  0.25500000920E-02 0.  1.
        2   -1    0    0  501    0  0.00000000000E+00  0.00000000000E+00 -0.12767233377E+04  0.12767233377E+04  0.25500000920E-02 0. -1.
    10030    2    1    2    0    0  0.00000000000E+00  0.00000000000E+00 -0.10812646154E+04  0.14721820601E+04  0.99909301346E+03 0.  0.
        5    1    3    3  502    0  0.13982210193E+03 -0.88048517766E+02 -0.12352550352E+04  0.12462663655E+04  0.46999998093E+01 0. -1.
       -5    1    3    3    0  502 -0.13982210193E+03  0.88048517766E+02  0.15399041983E+03  0.22591569461E+03  0.46999998093E+01 0.  1.
</event>
<event>
 5   0  0.1006749E-03  0.9990553E+03  0.7818609E-02  0.9309581E-01
        2   -1    0    0  501    0  0.00000000000E+00  0.00000000000E+00  0.39001446943E+03  0.39001446944E+03  0.25500000920E-02 0.  1.
       -2   -1    0    0    0  501  0.00000000000E+00  0.00000000000E+00 -0.63979138516E+03  0.63979138517E+03  0.25500000920E-02 0. -1.
    10030    2    1    2    0    0  0.00000000000E+00  0.00000000000E+00 -0.24977691573E+03  0.10298058546E+04  0.99905534909E+03 0.  0.
        1    1    3    3  502    0 -0.70512501805E+02 -0.11019368827E+03  0.37204270868E+03  0.39437347648E+03  0.50400001928E-02 0.  1.
       -1    1    3    3    0  502  0.70512501805E+02  0.11019368827E+03 -0.62181962441E+03  0.63543237813E+03  0.50400001928E-02 0. -1.
</event>
<event>
 5   0  0.5960102E-04  0.9998251E+03  0.7818609E-02  0.9308737E-01
        1   -1    0    0  501    0  0.00000000000E+00  0.00000000000E+00  0.47120830871E+03  0.47120830873E+03  0.50400001928E-02 0.  1.
       -1   -1    0    0    0  501  0.00000000000E+00  0.00000000000E+00 -0.53036533525E+03  0.53036533527E+03  0.50400001928E-02 0. -1.
    10030    2    1    2    0    0  0.00000000000E+00  0.00000000000E+00 -0.59157026543E+02  0.10015736440E+04  0.99982508999E+03 0.  0.
        5    1    3    3  502    0 -0.19425345880E+03  0.13046175897E+03 -0.47209282148E+03  0.52692352282E+03  0.46999998093E+01 0. -1.
       -5    1    3    3    0  502  0.19425345880E+03 -0.13046175897E+03  0.41293579493E+03  0.47465012119E+03  0.46999998093E+01 0.  1.
</event>
<event>
 5   0  0.5758786E-04  0.1001620E+04  0.7818609E-02  0.9306770E-01
       -1   -1    0    0    0  501  0.00000000000E+00  0.00000000000E+00  0.21127312505E+03  0.21127312511E+03  0.50400001928E-02 0. -1.
        1   -1    0    0  501    0  0.00000000000E+00  0.00000000000E+00 -0.11871390236E+04  0.11871390236E+04  0.50400001928E-02 0.  1.
    10030    2    1    2    0    0  0.00000000000E+00  0.00000000000E+00 -0.97586589858E+03  0.13984121488E+04  0.10016198310E+04 0.  0.
        3    1    3    3  502    0 -0.25861520688E+03 -0.13897502140E+03  0.78523536941E+02  0.30391090447E+03  0.10100000352E+00 0. -1.
       -3    1    3    3    0  502  0.25861520688E+03  0.13897502140E+03 -0.10543894355E+04  0.10945012443E+04  0.10100000352E+00 0.  1.
</event>
<event>
 5   0  0.1020150E-03  0.1002740E+04  0.7818609E-02  0.9305545E-01
        2   -1    0    0  501    0  0.00000000000E+00  0.00000000000E+00  0.18955750280E+03  0.18955750281E+03  0.25500000920E-02 0. -1.
       -2   -1    0    0    0  501  0.00000000000E+00  0.00000000000E+00 -0.13260977481E+04  0.13260977481E+04  0.25500000920E-02 0.  1.
    10030    2    1    2    0    0  0.00000000000E+00  0.00000000000E+00 -0.11365402453E+04  0.15156552509E+04  0.10027398019E+04 0.  0.
        5    1    3    3  502    0 -0.15933135695E+03  0.31731694809E+03 -0.33285631592E+02  0.35666027270E+03  0.46999998093E+01 0. -1.
       -5    1    3    3    0  502  0.15933135695E+03 -0.31731694809E+03 -0.11032546137E+04  0.11589949782E+04  0.46999998093E+01 0.  1.
</event>
<event>
 5   0  0.5758786E-04  0.9998488E+03  0.7818609E-02  0.9308711E-01
        1   -1    0    0  501    0  0.00000000000E+00  0.00000000000E+00  0.44988848590E+03  0.44988848593E+03  0.50400001928E-02 0. -1.
       -1   -1    0    0    0  501  0.00000000000E+00  0.00000000000E+00 -0.55552526894E+03  0.55552526896E+03  0.50400001928E-02 0.  1.
    10030    2    1    2    0    0  0.00000000000E+00  0.00000000000E+00 -0.10563678304E+03  0.10054137549E+04  0.99984883287E+03 0.  0.
        3    1    3    3  502    0  0.21157807829E+03 -0.39263225754E+03  0.17426819126E+03  0.47884735100E+03  0.10100000352E+00 0. -1.
       -3    1    3    3    0  502 -0.21157807829E+03  0.39263225754E+03 -0.27990497429E+03  0.52656640389E+03  0.10100000352E+00 0.  1.
</event>
<event>
 5   0  0.1020150E-03  0.1001287E+04  0.7818609E-02  0.9307135E-01
       -2   -1    0    0    0  501  0.00000000000E+00  0.00000000000E+00  0.62481688451E+03  0.62481688452E+03  0.25500000920E-02 0.  1.
        2   -1    0    0  501    0  0.00000000000E+00  0.00000000000E+00 -0.40114754842E+03  0.40114754843E+03  0.25500000920E-02 0. -1.
    10030    2    1    2    0    0  0.00000000000E+00  0.00000000000E+00  0.22366933609E+03  0.10259644329E+04  0.10012866951E+04 0.  0.
        5    1    3    3  502    0 -0.26956049346E+03  0.23353503083E+03 -0.24813589305E+03  0.43450544493E+03  0.46999998093E+01 0. -1.
       -5    1    3    3    0  502  0.26956049346E+03 -0.23353503083E+03  0.47180522914E+03  0.59145898801E+03  0.46999998093E+01 0.  1.
</event>
<event>
 5   0  0.5888774E-04  0.1003728E+04  0.7818609E-02  0.9304465E-01
       -1   -1    0    0    0  501  0.00000000000E+00  0.00000000000E+00  0.10878292307E+04  0.10878292307E+04  0.50400001928E-02 0.  1.
        1   -1    0    0  501    0  0.00000000000E+00  0.00000000000E+00 -0.23153230718E+03  0.23153230724E+03  0.50400001928E-02 0. -1.
    10030    2    1    2    0    0  0.00000000000E+00  0.00000000000E+00  0.85629692354E+03  0.13193615380E+04  0.10037282733E+04 0.  0.
        2    1    3    3  502    0 -0.24462721625E+03 -0.21535183576E+02  0.10034580761E+04  0.10330703507E+04  0.25500000920E-02 0.  1.
       -2    1    3    3    0  502  0.24462721625E+03  0.21535183576E+02 -0.14716115256E+03  0.28629118724E+03  0.25500000920E-02 0. -1.
</event>
<event>
 5   0  0.1006749E-03  0.1003992E+04  0.7818609E-02  0.9304177E-01
        2   -1    0    0  501    0  0.00000000000E+00  0.00000000000E+00  0.76031988839E+03  0.76031988839E+03  0.25500000920E-02 0. -1.
       -2   -1    0    0    0  501  0.00000000000E+00  0.00000000000E+00 -0.33143937980E+03  0.33143937981E+03  0.25500000920E-02 0.  1.
    10030    2    1    2    0    0  0.00000000000E+00  0.00000000000E+00  0.42888050859E+03  0.10917592682E+04  0.10039919367E+04 0.  0.
        1    1    3    3  502    0  0.44386778220E+03  0.19767735281E+02  0.46851150179E+03  0.64568753958E+03  0.50400001928E-02 0. -1.
       -1    1    3    3    0  502 -0.44386778220E+03 -0.19767735281E+02 -0.39630993196E+02  0.44607172863E+03  0.50400001928E-02 0.  1.
</event>
<event>
 5   0  0.5888774E-04  0.1000341E+04  0.7818609E-02  0.9308171E-01
       -1   -1    0    0    0  501  0.00000000000E+00  0.00000000000E+00  0.21121370346E+03  0.21121370352E+03  0.50400001928E-02 0. -1.
        1   -1    0    0  501    0  0.00000000000E+00  0.00000000000E+00 -0.11844418608E+04  0.11844418608E+04  0.50400001928E-02 0.  1.
    10030    2    1    2    0    0  0.00000000000E+00  0.00000000000E+00 -0.97322815732E+03  0.13956555643E+04  0.10003406460E+04 0.  0.
        2    1    3    3  502    0  0.13666931330E+03 -0.29222984052E+03  0.46654369348E+02  0.32596535256E+03  0.25500000920E-02 0.  1.
       -2    1    3    3    0  502 -0.13666931330E+03  0.29222984052E+03 -0.10198825267E+04  0.10696902117E+04  0.25500000920E-02 0. -1.
</event>
<event>
 5   0  0.9674819E-04  0.9968171E+03  0.7818609E-02  0.9312043E-01
       -2   -1    0    0    0  501  0.00000000000E+00  0.00000000000E+00  0.24835334521E+03  0.24835334522E+03  0.25500000920E-02 0. -1.
        2   -1    0    0  501    0  0.00000000000E+00  0.00000000000E+00 -0.10002325410E+04  0.10002325410E+04  0.25500000920E-02 0.  1.
    10030    2    1    2    0    0  0.00000000000E+00  0.00000000000E+00 -0.75187919575E+03  0.12485858862E+04  0.99681712976E+03 0.  0.
        4    1    3    3  502    0  0.43156592074E+02  0.10875179683E+03  0.23090573203E+03  0.25886002924E+03  0.12699999809E+01 0. -1.
       -4    1    3    3    0  502 -0.43156592074E+02 -0.10875179683E+03 -0.98278492778E+03  0.98972585695E+03  0.12699999809E+01 0.  1.
</event>
<event>
 5   0  0.5768102E-04  0.9994597E+03  0.7818609E-02  0.9309138E-01
        1   -1    0    0  501    0  0.00000000000E+00  0.00000000000E+00  0.10002890177E+04  0.10002890177E+04  0.50400001928E-02 0. -1.
       -1   -1    0    0    0  501  0.00000000000E+00  0.00000000000E+00 -0.24965777940E+03  0.24965777945E+03  0.50400001928E-02 0.  1.
    10030    2    1    2    0    0  0.00000000000E+00  0.00000000000E+00  0.75063123830E+03  0.12499467972E+04  0.99945972395E+03 0.  0.
        4    1    3    3  502    0  0.81186115864E+02 -0.23650012298E+03 -0.16579337587E+03  0.30002091587E+03  0.12699999809E+01 0.  1.
       -4    1    3    3    0  502 -0.81186115864E+02  0.23650012298E+03  0.91642461417E+03  0.94992588128E+03  0.12699999809E+01 0. -1.
</event>
<event>
 5   0  0.3854625E-04  0.1000915E+04  0.7818609E-02  0.9307542E-01
       -4   -1    0    0    0  501  0.00000000000E+00  0.00000000000E+00  0.43522726456E+03  0.43522911749E+03  0.12699999809E+01 0. -1.
        4   -1    0    0  501    0  0.00000000000E+00  0.00000000000E+00 -0.57546038894E+03  0.57546179034E+03  0.12699999809E+01 0.  1.
    10030    2    1    2    0    0  0.00000000000E+00  0.00000000000E+00 -0.14023312438E+03  0.10106909078E+04  0.10009149724E+04 0.  0.
        1    1    3    3  502    0 -0.43623994229E+03 -0.21986009010E+03 -0.17987014821E+03  0.52057373801E+03  0.50400001928E-02 0. -1.
       -1    1    3    3    0  502  0.43623994229E+03  0.21986009010E+03  0.39637023833E+02  0.49011716982E+03  0.50400001928E-02 0.  1.
</event>
<event>
 5   0  0.5758786E-04  0.1000013E+04  0.7818609E-02  0.9308530E-01
        1   -1    0    0  501    0  0.00000000000E+00  0.00000000000E+00  0.10591314985E+04  0.10591314985E+04  0.50400001928E-02 0.  1.
       -1   -1    0    0    0  501  0.00000000000E+00  0.00000000000E+00 -0.23604876829E+03  0.23604876834E+03  0.50400001928E-02 0. -1.
    10030    2    1    2    0    0  0.00000000000E+00  0.00000000000E+00  0.82308273019E+03  0.12951802668E+04  0.10000133713E+04 0.  0.
        3    1    3    3  502    0 -0.37126383315E+03  0.19408641986E+03  0.76505277239E+03  0.87224545108E+03  0.10100000352E+00 0.  1.
       -3    1    3    3    0  502  0.37126383315E+03 -0.19408641986E+03  0.58029957802E+02  0.42293481576E+03  0.10100000352E+00 0. -1.
</event>
<event>
 5   0  0.5888774E-04  0.9984579E+03  0.7818609E-02  0.9310238E-01
       -1   -1    0    0    0  501  0.00000000000E+00  0.00000000000E+00  0.25368909502E+03  0.25368909507E+03  0.50400001928E-02 0. -1.
        1   -1    0    0  501    0  0.00000000000E+00  0.00000000000E+00 -0.98242127833E+03  0.98242127835E+03  0.50400001928E-02 0.  1.
    10030    2    1    2    0    0  0.00000000000E+00  0.00000000000E+00 -0.72873218332E+03  0.12361103734E+04  0.99845794116E+03 0.  0.
        2    1    3    3  502    0  0.29650362695E+03  0.10696192107E+03 -0.84364804479E+03  0.90060939193E+03  0.25500000920E-02 0.  1.
       -2    1    3    3    0  502 -0.29650362695E+03 -0.10696192107E+03  0.11491586147E+03  0.33550098148E+03  0.25500000920E-02 0. -1.
</event>
<event>
 5   0  0.5758786E-04  0.1000111E+04  0.7818609E-02  0.9308423E-01
        1   -1    0    0  501    0  0.00000000000E+00  0.00000000000E+00  0.12673538026E+03  0.12673538036E+03  0.50400001928E-02 0.  1.
       -1   -1    0    0    0  501  0.00000000000E+00  0.00000000000E+00 -0.19730513850E+04  0.19730513850E+04  0.50400001928E-02 0. -1.
    10030    2    1    2    0    0  0.00000000000E+00  0.00000000000E+00 -0.18463160047E+04  0.20997867653E+04  0.10001108292E+04 0.  0.
        3    1    3    3  502    0 -0.28551565956E+02 -0.22098010317E+03 -0.18630643911E+04  0.18763412092E+04  0.10100000352E+00 0. -1.
       -3    1    3    3    0  502  0.28551565956E+02  0.22098010317E+03  0.16748386337E+02  0.22344555614E+03  0.10100000352E+00 0.  1.
</event>
<event>
 5   0  0.5960102E-04  0.9971218E+03  0.7818609E-02  0.9311707E-01
       -1   -1    0    0    0  501  0.00000000000E+00  0.00000000000E+00  0.28778500972E+03  0.28778500976E+03  0.50400001928E-02 0.  1.
        1   -1    0    0  501    0  0.00000000000E+00  0.00000000000E+00 -0.86371065884E+03  0.86371065885E+03  0.50400001928E-02 0. -1.
    10030    2    1    2    0    0  0.00000000000E+00  0.00000000000E+00 -0.57592564912E+03  0.11514956686E+04  0.99712181879E+03 0.  0.
        5    1    3    3  502    0 -0.22674595247E+03  0.13296728564E+03  0.20123219419E+03  0.33107478307E+03  0.46999998093E+01 0.  1.
       -5    1    3    3    0  502  0.22674595247E+03 -0.13296728564E+03 -0.77715784331E+03  0.82042088554E+03  0.46999998093E+01 0. -1.
</event>
<event>
 5   0  0.5960102E-04  0.1000326E+04  0.7818609E-02  0.9308187E-01
        1   -1    0    0  501    0  0.00000000000E+00  0.00000000000E+00  0.17855137369E+04  0.17855137369E+04  0.50400001928E-02 0. -1.
       -1   -1    0    0    0  501  0.00000000000E+00  0.00000000000E+00 -0.14010703305E+03  0.14010703314E+03  0.50400001928E-02 0.  1.
    10030    2    1    2    0    0  0.00000000000E+00  0.00000000000E+00  0.16454067039E+04  0.19256207701E+04  0.10003260113E+04 0.  0.
        5    1    3    3  502    0 -0.19420635698E+03 -0.14663529443E+03 -0.18417186795E+02  0.24408871631E+03  0.46999998093E+01 0.  1.
       -5    1    3    3    0  502  0.19420635698E+03  0.14663529443E+03  0.16638238907E+04  0.16815320537E+04  0.46999998093E+01 0. -1.
</event>
<event>
 5   0  0.5960102E-04  0.9986434E+03  0.7818609E-02  0.9310034E-01
       -1   -1    0    0    0  501  0.00000000000E+00  0.00000000000E+00  0.35204712769E+03  0.35204712772E+03  0.50400001928E-02 0. -1.
        1   -1    0    0  501    0  0.00000000000E+00  0.00000000000E+00 -0.70820683540E+03  0.70820683542E+03  0.50400001928E-02 0.  1.
    10030    2    1    2    0    0  0.00000000000E+00  0.00000000000E+00 -0.35615970772E+03  0.10602539631E+04  0.99864344436E+03 0.  0.
        5    1    3    3  502    0 -0.28710582754E+03  0.39942405489E+01  0.25559901105E+03  0.38444590597E+03  0.46999998093E+01 0. -1.
       -5    1    3    3    0  502  0.28710582754E+03 -0.39942405489E+01 -0.61175871877E+03  0.67580805718E+03  0.46999998093E+01 0.  1.
</event>
<event>
 5   0  0.9674819E-04  0.1000149E+04  0.7818609E-02  0.9308381E-01
       -2   -1    0    0    0  501  0.00000000000E+00  0.00000000000E+00  0.17936660433E+03  0.17936660435E+03  0.25500000920E-02 0.  1.
        2   -1    0    0  501    0  0.00000000000E+00  0.00000000000E+00 -0.13942100840E+04  0.13942100840E+04  0.25500000920E-02 0. -1.
    10030    2    1    2    0    0  0.00000000000E+00  0.00000000000E+00 -0.12148434797E+04  0.15735766884E+04  0.10001494458E+04 0.  0.
        4    1    3    3  502    0  0.23966526706E+03  0.29037031634E+03 -0.11252369985E+04  0.11865556357E+04  0.12699999809E+01 0. -1.
       -4    1    3    3    0  502 -0.23966526706E+03 -0.29037031634E+03 -0.89606481172E+02  0.38702105268E+03  0.12699999809E+01 0.  1.
</event>
<event>
 5   0  0.5768102E-04  0.9986172E+03  0.7818609E-02  0.9310063E-01
        1   -1    0    0  501    0  0.00000000000E+00  0.00000000000E+00  0.21595936285E+04  0.21595936285E+04  0.50400001928E-02 0. -1.
       -1   -1    0    0    0  501  0.00000000000E+00  0.00000000000E+00 -0.11544258860E+03  0.11544258871E+03  0.50400001928E-02 0.  1.
    10030    2    1    2    0    0  0.00000000000E+00  0.00000000000E+00  0.20441510399E+04  0.22750362172E+04  0.99861720182E+03 0.  0.
        4    1    3    3  502    0 -0.41766247175E+03  0.19716397653E+03  0.14542823354E+04  0.15258618214E+04  0.12699999809E+01 0. -1.
       -4    1    3    3    0  502  0.41766247175E+03 -0.19716397653E+03  0.58986870447E+03  0.74917439582E+03  0.12699999809E+01 0.  1.
</event>
<event>
 5   0  0.9741826E-04  0.9991377E+03  0.7818609E-02  0.9309491E-01
       -2   -1    0    0    0  501  0.00000000000E+00  0.00000000000E+00  0.16645803763E+03  0.16645803765E+03  0.25500000920E-02 0.  1.
        2   -1    0    0  501    0  0.00000000000E+00  0.00000000000E+00 -0.14992910983E+04  0.14992910983E+04  0.25500000920E-02 0. -1.
    10030    2    1    2    0    0  0.00000000000E+00  0.00000000000E+00 -0.13328330607E+04  0.16657491360E+04  0.99913773641E+03 0.  0.
        3    1    3    3  502    0  0.26186749399E+03 -0.26054079514E+02 -0.13743638449E+04  0.13993317647E+04  0.10100000352E+00 0. -1.
       -3    1    3    3    0  502 -0.26186749399E+03  0.26054079514E+02  0.41530784180E+02  0.26641737125E+03  0.10100000352E+00 0.  1.
</event>
<event>
 5   0  0.1006749E-03  0.9989770E+03  0.7818609E-02  0.9309668E-01
        2   -1    0    0  501    0  0.00000000000E+00  0.00000000000E+00  0.68770762116E+03  0.68770762116E+03  0.25500000920E-02 0.  1.
       -2   -1    0    0    0  501  0.00000000000E+00  0.00000000000E+00 -0.36278317407E+03  0.36278317408E+03  0.25500000920E-02 0. -1.
    10030    2    1    2    0    0  0.00000000000E+00  0.00000000000E+00  0.32492444708E+03  0.10504907952E+04  0.99897698401E+03 0.  0.
        1    1    3    3  502    0 -0.16250818035E+03 -0.22427701969E+03 -0.27464006537E+03  0.39004647899E+03  0.50400001928E-02 0. -1.
       -1    1    3    3    0  502  0.16250818035E+03  0.22427701969E+03  0.59956451246E+03  0.66044431625E+03  0.50400001928E-02 0.  1.
</event>
<event>
 5   0  0.5768102E-04  0.9861037E+03  0.7818609E-02  0.9323919E-01
        1   -1    0    0  501    0  0.00000000000E+00  0.00000000000E+00  0.76174538087E+03  0.76174538089E+03  0.50400001928E-02 0. -1.
       -1   -1    0    0    0  501  0.00000000000E+00  0.00000000000E+00 -0.31913566059E+03  0.31913566063E+03  0.50400001928E-02 0.  1.
    10030    2    1    2    0    0  0.00000000000E+00  0.00000000000E+00  0.44260972028E+03  0.10808810415E+04  0.98610367681E+03 0.  0.
        4    1    3    3  502    0 -0.27335014751E+03 -0.27997861769E+03  0.55012080158E+03  0.67508728231E+03  0.12699999809E+01 0. -1.
       -4    1    3    3    0  502  0.27335014751E+03  0.27997861769E+03 -0.10751108130E+03  0.40579375920E+03  0.12699999809E+01 0.  1.
</event>
<event>
 5   0  0.1006749E-03  0.9989920E+03  0.7818609E-02  0.9309651E-01
        2   -1    0    0  501    0  0.00000000000E+00  0.00000000000E+00  0.51554041945E+03  0.51554041946E+03  0.25500000920E-02 0.  1.
       -2   -1    0    0    0  501  0.00000000000E+00  0.00000000000E+00 -0.48395088390E+03  0.48395088390E+03  0.25500000920E-02 0. -1.
    10030    2    1    2    0    0  0.00000000000E+00  0.00000000000E+00  0.31589535557E+02  0.99949130336E+03  0.99899197531E+03 0.  0.
        1    1    3    3  502    0 -0.41609394915E+03  0.20175395669E+03 -0.17313130885E+03  0.49377452717E+03  0.50400001928E-02 0. -1.
       -1    1    3    3    0  502  0.41609394915E+03 -0.20175395669E+03  0.20472084440E+03  0.50571677619E+03  0.50400001928E-02 0.  1.
</event>
<event>
 5   0  0.9741826E-04  0.9994454E+03  0.7818609E-02  0.9309153E-01
        2   -1    0    0  501    0  0.00000000000E+00  0.00000000000E+00  0.15136675836E+04  0.15136675836E+04  0.25500000920E-02 0. -1.
       -2   -1    0    0    0  501  0.00000000000E+00  0.00000000000E+00 -0.16497861622E+03  0.16497861624E+03  0.25500000920E-02 0.  1.
    10030    2    1    2    0    0  0.00000000000E+00  0.00000000000E+00  0.13486889674E+04  0.16786461998E+04  0.99944541297E+03 0.  0.
        3    1    3    3  502    0  0.18404149723E+03 -0.46349498292E+02  0.14507804238E+04  0.14631416189E+04  0.10100000352E+00 0. -1.
       -3    1    3    3    0  502 -0.18404149723E+03  0.46349498292E+02 -0.10209145647E+03  0.21550458088E+03  0.10100000352E+00 0.  1.
</event>
<event>
 5   0  0.5888774E-04  0.1014889E+04  0.7818609E-02  0.9292364E-01
        1   -1    0    0  501    0  0.00000000000E+00  0.00000000000E+00  0.11307866084E+04  0.11307866084E+04  0.50400001928E-02 0. -1.
       -1   -1    0    0    0  501  0.00000000000E+00  0.00000000000E+00 -0.22771755873E+03  0.22771755879E+03  0.50400001928E-02 0.  1.
    10030    2    1    2    0    0  0.00000000000E+00  0.00000000000E+00  0.90306904969E+03  0.13585041672E+04  0.10148890894E+04 0.  0.
        2    1    3    3  502    0  0.41251683009E+03 -0.29493258398E+03  0.47638307953E+03  0.69577022261E+03  0.25500000920E-02 0. -1.
       -2    1    3    3    0  502 -0.41251683009E+03  0.29493258398E+03  0.42668597016E+03  0.66273394461E+03  0.25500000920E-02 0.  1.
</event>
<event>
 5   0  0.9741826E-04  0.1000787E+04  0.7818609E-02  0.9307682E-01
       -2   -1    0    0    0  501  0.00000000000E+00  0.00000000000E+00  0.25817415790E+03  0.25817415791E+03  0.25500000920E-02 0.  1.
        2   -1    0    0  501    0  0.00000000000E+00  0.00000000000E+00 -0.96986413943E+03  0.96986413943E+03  0.25500000920E-02 0. -1.
    10030    2    1    2    0    0  0.00000000000E+00  0.00000000000E+00 -0.71168998154E+03  0.12280382973E+04  0.10007874050E+04 0.  0.
        3    1    3    3  502    0 -0.43901426598E+03 -0.19438307651E+03 -0.18285158040E+03  0.51376358067E+03  0.10100000352E+00 0.  1.
       -3    1    3    3    0  502  0.43901426598E+03  0.19438307651E+03 -0.52883840114E+03  0.71427471668E+03  0.10100000352E+00 0. -1.
</event>
<event>
 5   0  0.5768102E-04  0.9984696E+03  0.7818609E-02  0.9310225E-01
        1   -1    0    0  501    0  0.00000000000E+00  0.00000000000E+00  0.11074481006E+04  0.11074481006E+04  0.50400001928E-02 0.  1.
       -1   -1    0    0    0  501  0.00000000000E+00  0.00000000000E+00 -0.22505377611E+03  0.22505377616E+03  0.50400001928E-02 0. -1.
    10030    2    1    2    0    0  0.00000000000E+00  0.00000000000E+00  0.88239432452E+03  0.13325018768E+04  0.99846958278E+03 0.  0.
        4    1    3    3  502    0 -0.13707570627E+03  0.73478949196E+02  0.10742902010E+04  0.10854906513E+04  0.12699999809E+01 0.  1.
       -4    1    3    3    0  502  0.13707570627E+03 -0.73478949196E+02 -0.19189587646E+03  0.24701122551E+03  0.12699999809E+01 0. -1.
</event>
<event>
 5   0  0.3854625E-04  0.1014083E+04  0.7818609E-02  0.9293232E-01
       -4   -1    0    0    0  501  0.00000000000E+00  0.00000000000E+00  0.76492359347E+03  0.76492464776E+03  0.12699999809E+01 0.  1.
        4   -1    0    0  501    0  0.00000000000E+00  0.00000000000E+00 -0.33609797524E+03  0.33610037468E+03  0.12699999809E+01 0. -1.
    10030    2    1    2    0    0  0.00000000000E+00  0.00000000000E+00  0.42882561823E+03  0.11010250224E+04  0.10140831767E+04 0.  0.
        5    1    3    3  502    0  0.27510234837E+03  0.14817082842E+03  0.64793663758E+03  0.71936073898E+03  0.46999998093E+01 0.  1.
       -5    1    3    3    0  502 -0.27510234837E+03 -0.14817082842E+03 -0.21911101935E+03  0.38166428346E+03  0.46999998093E+01 0. -1.
</event>
<event>
 5   0  0.5768102E-04  0.9978632E+03  0.7818609E-02  0.9310891E-01
        1   -1    0    0  501    0  0.00000000000E+00  0.00000000000E+00  0.88592604814E+03  0.88592604816E+03  0.50400001928E-02 0. -1.
       -1   -1    0    0    0  501  0.00000000000E+00  0.00000000000E+00 -0.28098592098E+03  0.28098592102E+03  0.50400001928E-02 0.  1.
    10030    2    1    2    0    0  0.00000000000E+00  0.00000000000E+00  0.60494012717E+03  0.11669119692E+04  0.99786321024E+03 0.  0.
        4    1    3    3  502    0  0.25622343220E+03  0.36661519579E+03  0.43943033208E+02  0.44943270026E+03  0.12699999809E+01 0.  1.
       -4    1    3    3    0  502 -0.25622343220E+03 -0.36661519579E+03  0.56099709396E+03  0.71747926892E+03  0.12699999809E+01 0. -1.
</event>
<event>
 5   0  0.1006749E-03  0.1000344E+04  0.7818609E-02  0.9308167E-01
       -2   -1    0    0    0  501  0.00000000000E+00  0.00000000000E+00  0.37045113878E+03  0.37045113878E+03  0.25500000920E-02 0. -1.
        2   -1    0    0  501    0  0.00000000000E+00  0.00000000000E+00 -0.67531732453E+03  0.67531732454E+03  0.25500000920E-02 0.  1.
    10030    2    1    2    0    0  0.00000000000E+00  0.00000000000E+00 -0.30486618576E+03  0.10457684633E+04  0.10003440846E+04 0.  0.
        1    1    3    3  502    0 -0.33007498263E+03  0.12053533345E+03 -0.52453665954E+03  0.63136120247E+03  0.50400001928E-02 0.  1.
       -1    1    3    3    0  502  0.33007498263E+03 -0.12053533345E+03  0.21967047378E+03  0.41440726085E+03  0.50400001928E-02 0. -1.
</event>
<event>
 5   0  0.5826939E-04  0.9995649E+03  0.7818609E-02  0.9309022E-01
        1   -1    0    0  501    0  0.00000000000E+00  0.00000000000E+00  0.65817603950E+03  0.65817603952E+03  0.50400001928E-02 0.  1.
       -1   -1    0    0    0  501  0.00000000000E+00  0.00000000000E+00 -0.37950715565E+03  0.37950715568E+03  0.50400001928E-02 0. -1.
    10030    2    1    2    0    0  0.00000000000E+00  0.00000000000E+00  0.27866888386E+03  0.10376831952E+04  0.99956493875E+03 0.  0.
        1    1    3    3  502    0  0.22331719298E+03  0.82883015845E+01 -0.32475160750E+03  0.39421170863E+03  0.50400001928E-02 0. -1.
       -1    1    3    3    0  502 -0.22331719298E+03 -0.82883015845E+01  0.60342049135E+03  0.64347148657E+03  0.50400001928E-02 0.  1.
</event>
<event>
 5   0  0.5888774E-04  0.1009542E+04  0.7818609E-02  0.9298140E-01
        1   -1    0    0  501    0  0.00000000000E+00  0.00000000000E+00  0.13312424928E+04  0.13312424928E+04  0.50400001928E-02 0.  1.
       -1   -1    0    0    0  501  0.00000000000E+00  0.00000000000E+00 -0.19139557316E+03  0.19139557323E+03  0.50400001928E-02 0. -1.
    10030    2    1    2    0    0  0.00000000000E+00  0.00000000000E+00  0.11398469196E+04  0.15226380660E+04  0.10095423121E+04 0.  0.
        2    1    3    3  502    0  0.73755480321E+02 -0.39569122190E+03  0.10293384972E+04  0.11052371492E+04  0.25500000920E-02 0.  1.
       -2    1    3    3    0  502 -0.73755480321E+02  0.39569122190E+03  0.11050842237E+03  0.41740091685E+03  0.25500000920E-02 0. -1.
</event>
<event>
 5   0  0.1006006E-03  0.9999720E+03  0.7818609E-02  0.9308576E-01
        2   -1    0    0  501    0  0.00000000000E+00  0.00000000000E+00  0.13785735272E+04  0.13785735272E+04  0.25500000920E-02 0.  1.
       -2   -1    0    0    0  501  0.00000000000E+00  0.00000000000E+00 -0.18133671294E+03  0.18133671296E+03  0.25500000920E-02 0. -1.
    10030    2    1    2    0    0  0.00000000000E+00  0.00000000000E+00  0.11972368143E+04  0.15599102402E+04  0.99997198358E+03 0.  0.
        2    1    3    3  502    0 -0.82431498892E+02  0.35183670757E+03  0.59582712526E+02  0.36624325310E+03  0.25500000920E-02 0. -1.
       -2    1    3    3    0  502  0.82431498892E+02 -0.35183670757E+03  0.11376541018E+04  0.11936669871E+04  0.25500000920E-02 0.  1.
</event>
<event>
 5   0  0.1006006E-03  0.1001335E+04  0.7818609E-02  0.9307082E-01
        2   -1    0    0  501    0  0.00000000000E+00  0.00000000000E+00  0.13356804224E+04  0.13356804224E+04  0.25500000920E-02 0. -1.
       -2   -1    0    0    0  501  0.00000000000E+00  0.00000000000E+00 -0.18767042610E+03  0.18767042611E+03  0.25500000920E-02 0.  1.
    10030    2    1    2    0    0  0.00000000000E+00  0.00000000000E+00  0.11480099963E+04  0.15233508485E+04  0.10013345375E+04 0.  0.
        2    1    3    3  502    0  0.10773992505E+03  0.26492124913E+03  0.11991854968E+04  0.12328166998E+04  0.25500000920E-02 0. -1.
       -2    1    3    3    0  502 -0.10773992505E+03 -0.26492124913E+03 -0.51175500479E+02  0.29053414868E+03  0.25500000920E-02 0.  1.
</event>
<event>
 5   0  0.3854625E-04  0.9992529E+03  0.7818609E-02  0.9309365E-01
        4   -1    0    0  501    0  0.00000000000E+00  0.00000000000E+00  0.52942963620E+03  0.52943115944E+03  0.12699999809E+01 0.  1.
       -4   -1    0    0    0  501  0.00000000000E+00  0.00000000000E+00 -0.47149789339E+03  0.47149960378E+03  0.12699999809E+01 0. -1.
    10030    2    1    2    0    0  0.00000000000E+00  0.00000000000E+00  0.57931742815E+02  0.10009307632E+04  0.99925287387E+03 0.  0.
        2    1    3    3  502    0 -0.13303780607E+02 -0.40129457108E+03 -0.26887538864E+03  0.48322696322E+03  0.25500000920E-02 0. -1.
       -2    1    3    3    0  502  0.13303780607E+02  0.40129457108E+03  0.32680713146E+03  0.51770380000E+03  0.25500000920E-02 0.  1.
</event>
<event>
 5   0  0.1006749E-03  0.9998227E+03  0.7818609E-02  0.9308739E-01
       -2   -1    0    0    0  501  0.00000000000E+00  0.00000000000E+00  0.35473927318E+03  0.35473927319E+03  0.25500000920E-02 0. -1.
        2   -1    0    0  501    0  0.00000000000E+00  0.00000000000E+00 -0.70449304549E+03  0.70449304549E+03  0.25500000920E-02 0.  1.
    10030    2    1    2    0    0  0.00000000000E+00  0.00000000000E+00 -0.34975377231E+03  0.10592323187E+04  0.99982268613E+03 0.  0.
        1    1    3    3  502    0  0.29898595458E+03  0.31606675363E+03 -0.43571929257E+03  0.61574515485E+03  0.50400001928E-02 0.  1.
       -1    1    3    3    0  502 -0.29898595458E+03 -0.31606675363E+03  0.85965520255E+02  0.44348716383E+03  0.50400001928E-02 0. -1.
</event>
<event>
 5   0  0.5758786E-04  0.1004412E+04  0.7818609E-02  0.9303719E-01
       -1   -1    0    0    0  501  0.00000000000E+00  0.00000000000E+00  0.46488751895E+03  0.46488751898E+03  0.50400001928E-02 0.  1.
        1   -1    0    0  501    0  0.00000000000E+00  0.00000000000E+00 -0.54251970447E+03  0.54251970449E+03  0.50400001928E-02 0. -1.
    10030    2    1    2    0    0  0.00000000000E+00  0.00000000000E+00 -0.77632185517E+02  0.10074072235E+04  0.10044115480E+04 0.  0.
        3    1    3    3  502    0  0.24332504482E+03 -0.11601705810E+03 -0.46380571042E+03  0.53645389590E+03  0.10100000352E+00 0. -1.
       -3    1    3    3    0  502 -0.24332504482E+03  0.11601705810E+03  0.38617352490E+03  0.47095332756E+03  0.10100000352E+00 0.  1.
</event>
<event>
 5   0  0.9674819E-04  0.9996767E+03  0.7818609E-02  0.9308900E-01
        2   -1    0    0  501    0  0.00000000000E+00  0.00000000000E+00  0.92723030078E+03  0.92723030078E+03  0.25500000920E-02 0. -1.
       -2   -1    0    0    0  501  0.00000000000E+00  0.00000000000E+00 -0.26944585025E+03  0.26944585026E+03  0.25500000920E-02 0.  1.
    10030    2    1    2    0    0  0.00000000000E+00  0.00000000000E+00  0.65778445053E+03  0.11966761510E+04  0.99967666129E+03 0.  0.
        4    1    3    3  502    0  0.35285410817E+03  0.24250244426E+03  0.63764006822E+03  0.76804942980E+03  0.12699999809E+01 0. -1.
       -4    1    3    3    0  502 -0.35285410817E+03 -0.24250244426E+03  0.20144382309E+02  0.42862672124E+03  0.12699999809E+01 0.  1.
</event>
<event>
 5   0  0.1020150E-03  0.1001164E+04  0.7818609E-02  0.9307269E-01
        2   -1    0    0  501    0  0.00000000000E+00  0.00000000000E+00  0.24181052368E+03  0.24181052369E+03  0.25500000920E-02 0. -1.
       -2   -1    0    0    0  501  0.00000000000E+00  0.00000000000E+00 -0.10362750410E+04  0.10362750410E+04  0.25500000920E-02 0.  1.
    10030    2    1    2    0    0  0.00000000000E+00  0.00000000000E+00 -0.79446451731E+03  0.12780855647E+04  0.10011637435E+04 0.  0.
        5    1    3    3  502    0 -0.27102848761E+03 -0.17632911405E+03  0.90575472207E+02  0.33581900441E+03  0.46999998093E+01 0. -1.
       -5    1    3    3    0  502  0.27102848761E+03  0.17632911405E+03 -0.88503998952E+03  0.94226656027E+03  0.46999998093E+01 0.  1.
</event>
<event>
 5   0  0.9741826E-04  0.9846411E+03  0.7818609E-02  0.9325552E-01
       -2   -1    0    0    0  501  0.00000000000E+00  0.00000000000E+00  0.32069898226E+03  0.32069898227E+03  0.25500000920E-02 0. -1.
        2   -1    0    0  501    0  0.00000000000E+00  0.00000000000E+00 -0.75578514740E+03  0.75578514740E+03  0.25500000920E-02 0.  1.
    10030    2    1    2    0    0  0.00000000000E+00  0.00000000000E+00 -0.43508616514E+03  0.10764841297E+04  0.98464110738E+03 0.  0.
        3    1    3    3  502    0  0.34599154099E+03  0.34312392868E+03 -0.29434785908E+03  0.56928450639E+03  0.10100000352E+00 0.  1.
       -3    1    3    3    0  502 -0.34599154099E+03 -0.34312392868E+03 -0.14073830606E+03  0.50719962329E+03  0.10100000352E+00 0. -1.
</event>
<event>
 5   0  0.5826939E-04  0.1000057E+04  0.7818609E-02  0.9308483E-01
        1   -1    0    0  501    0  0.00000000000E+00  0.00000000000E+00  0.11820005927E+04  0.11820005927E+04  0.50400001928E-02 0. -1.
       -1   -1    0    0    0  501  0.00000000000E+00  0.00000000000E+00 -0.21152982393E+03  0.21152982399E+03  0.50400001928E-02 0.  1.
    10030    2    1    2    0    0  0.00000000000E+00  0.00000000000E+00  0.97047076873E+03  0.13935304167E+04  0.10000567530E+04 0.  0.
        1    1    3    3  502    0 -0.34907820558E+03  0.34301988499E+03  0.62809060000E+03  0.79625123984E+03  0.50400001928E-02 0. -1.
       -1    1    3    3    0  502  0.34907820558E+03 -0.34301988499E+03  0.34238016873E+03  0.59727917683E+03  0.50400001928E-02 0.  1.
</event>
<event>
 5   0  0.3854625E-04  0.9990858E+03  0.7818609E-02  0.9309548E-01
        4   -1    0    0  501    0  0.00000000000E+00  0.00000000000E+00  0.55949736135E+03  0.55949880273E+03  0.12699999809E+01 0. -1.
       -4   -1    0    0    0  501  0.00000000000E+00  0.00000000000E+00 -0.44601012576E+03  0.44601193390E+03  0.12699999809E+01 0.  1.
    10030    2    1    2    0    0  0.00000000000E+00  0.00000000000E+00  0.11348723559E+03  0.10055107366E+04  0.99908582657E+03 0.  0.
        1    1    3    3  502    0 -0.80455792594E+02  0.34893690660E+03  0.40728365350E+03  0.54231916228E+03  0.50400001928E-02 0. -1.
       -1    1    3    3    0  502  0.80455792594E+02 -0.34893690660E+03 -0.29379641791E+03  0.46319157435E+03  0.50400001928E-02 0.  1.
</event>
<event>
 5   0  0.5888774E-04  0.9715648E+03  0.7818609E-02  0.9340294E-01
       -1   -1    0    0    0  501  0.00000000000E+00  0.00000000000E+00  0.36122856605E+03  0.36122856608E+03  0.50400001928E-02 0.  1.
        1   -1    0    0  501    0  0.00000000000E+00  0.00000000000E+00 -0.65328318076E+03  0.65328318078E+03  0.50400001928E-02 0. -1.
    10030    2    1    2    0    0  0.00000000000E+00  0.00000000000E+00 -0.29205461472E+03  0.10145117469E+04  0.97156481335E+03 0.  0.
        2    1    3    3  502    0 -0.20136802475E+03 -0.28047825120E+03 -0.50284479969E+03  0.60997542850E+03  0.25500000920E-02 0. -1.
       -2    1    3    3    0  502  0.20136802475E+03  0.28047825120E+03  0.21079018497E+03  0.40453631837E+03  0.25500000920E-02 0.  1.
</event>
<event>
 5   0  0.1006006E-03  0.1001135E+04  0.7818609E-02  0.9307301E-01
        2   -1    0    0  501    0  0.00000000000E+00  0.00000000000E+00  0.65237073774E+03  0.65237073774E+03  0.25500000920E-02 0.  1.
       -2   -1    0    0    0  501  0.00000000000E+00  0.00000000000E+00 -0.38408780827E+03  0.38408780828E+03  0.25500000920E-02 0. -1.
    10030    2    1    2    0    0  0.00000000000E+00  0.00000000000E+00  0.26828292947E+03  0.10364585460E+04  0.10011346500E+04 0.  0.
        2    1    3    3  502    0 -0.63027766656E+02  0.17731888771E+03  0.61435379598E+03  0.64253021248E+03  0.25500000920E-02 0.  1.
       -2    1    3    3    0  502  0.63027766656E+02 -0.17731888771E+03 -0.34607086651E+03  0.39392833354E+03  0.25500000920E-02 0. -1.
</event>
<event>
 5   0  0.9674819E-04  0.9980297E+03  0.7818609E-02  0.9310708E-01
       -2   -1    0    0    0  501  0.00000000000E+00  0.00000000000E+00  0.22995876019E+03  0.22995876020E+03  0.25500000920E-02 0.  1.
        2   -1    0    0  501    0  0.00000000000E+00  0.00000000000E+00 -0.10828716375E+04  0.10828716375E+04  0.25500000920E-02 0. -1.
    10030    2    1    2    0    0  0.00000000000E+00  0.00000000000E+00 -0.85291287733E+03  0.13128303977E+04  0.99802969740E+03 0.  0.
        4    1    3    3  502    0 -0.16864115363E+03  0.10171778554E+03 -0.10295855540E+04  0.10482530098E+04  0.12699999809E+01 0. -1.
       -4    1    3    3    0  502  0.16864115363E+03 -0.10171778554E+03  0.17667267672E+03  0.26457738791E+03  0.12699999809E+01 0.  1.
</event>
<event>
 5   0  0.1020150E-03  0.1000349E+04  0.7818609E-02  0.9308162E-01
       -2   -1    0    0    0  501  0.00000000000E+00  0.00000000000E+00  0.30814699758E+03  0.30814699759E+03  0.25500000920E-02 0.  1.
        2   -1    0    0  501    0  0.00000000000E+00  0.00000000000E+00 -0.81186805810E+03  0.81186805811E+03  0.25500000920E-02 0. -1.
    10030    2    1    2    0    0  0.00000000000E+00  0.00000000000E+00 -0.50372106053E+03  0.11200150557E+04  0.10003493481E+04 0.  0.
        5    1    3    3  502    0 -0.30003063070E+03  0.38521161758E+03 -0.37320547613E+03  0.61458179853E+03  0.46999998093E+01 0. -1.
       -5    1    3    3    0  502  0.30003063070E+03 -0.38521161758E+03 -0.13051558440E+03  0.50543325716E+03  0.46999998093E+01 0.  1.
</event>
<event>
 5   0  0.5768102E-04  0.9993903E+03  0.7818609E-02  0.9309214E-01
        1   -1    0    0  501    0  0.00000000000E+00  0.00000000000E+00  0.12971150099E+04  0.12971150099E+04  0.50400001928E-02 0. -1.
       -1   -1    0    0    0  501  0.00000000000E+00  0.00000000000E+00 -0.19250048157E+03  0.19250048163E+03  0.50400001928E-02 0.  1.
    10030    2    1    2    0    0  0.00000000000E+00  0.00000000000E+00  0.11046145283E+04  0.14896154915E+04  0.99939034238E+03 0.  0.
        4    1    3    3  502    0 -0.23370287073E+03  0.33705138380E+03  0.97775463445E+03  0.10602954330E+04  0.12699999809E+01 0. -1.
       -4    1    3    3    0  502  0.23370287073E+03 -0.33705138380E+03  0.12685989389E+03  0.42932005857E+03  0.12699999809E+01 0.  1.
</event>
<event>
 5   0  0.5768102E-04  0.1001374E+04  0.7818609E-02  0.9307039E-01
       -1   -1    0    0    0  501  0.00000000000E+00  0.00000000000E+00  0.50517468669E+03  0.50517468671E+03  0.50400001928E-02 0. -1.
        1   -1    0    0  501    0  0.00000000000E+00  0.00000000000E+00 -0.49623947487E+03  0.49623947490E+03  0.50400001928E-02 0.  1.
    10030    2    1    2    0    0  0.00000000000E+00  0.00000000000E+00  0.89352118153E+01  0.10014141616E+04  0.10013742982E+04 0.  0.
        4    1    3    3  502    0  0.32748760841E+03  0.35781983062E+03 -0.11964552746E+03  0.49959966973E+03  0.12699999809E+01 0.  1.
       -4    1    3    3    0  502 -0.32748760841E+03 -0.35781983062E+03  0.12858073928E+03  0.50181449188E+03  0.12699999809E+01 0. -1.
</event>
<event>
 5   0  0.1006006E-03  0.9997057E+03  0.7818609E-02  0.9308868E-01
       -2   -1    0    0    0  501  0.00000000000E+00  0.00000000000E+00  0.16324166690E+03  0.16324166692E+03  0.25500000920E-02 0.  1.
        2   -1    0    0  501    0  0.00000000000E+00  0.00000000000E+00 -0.15305705615E+04  0.15305705615E+04  0.25500000920E-02 0. -1.
    10030    2    1    2    0    0  0.00000000000E+00  0.00000000000E+00 -0.13673288946E+04  0.16938122284E+04  0.99970573628E+03 0.  0.
        2    1    3    3  502    0  0.39595677809E+03  0.16239673780E+03 -0.24609111087E+03  0.49367530364E+03  0.25500000920E-02 0.  1.
       -2    1    3    3    0  502 -0.39595677809E+03 -0.16239673780E+03 -0.11212377837E+04  0.12001369248E+04  0.25500000920E-02 0. -1.
</event>
<event>
 5   0  0.1006749E-03  0.1000825E+04  0.7818609E-02  0.9307641E-01
       -2   -1    0    0    0  501  0.00000000000E+00  0.00000000000E+00  0.58457528644E+03  0.58457528644E+03  0.25500000920E-02 0.  1.
        2   -1    0    0  501    0  0.00000000000E+00  0.00000000000E+00 -0.42836646065E+03  0.42836646066E+03  0.25500000920E-02 0. -1.
    10030    2    1    2    0    0  0.00000000000E+00  0.00000000000E+00  0.15620882579E+03  0.10129417471E+04  0.10008245529E+04 0.  0.
        1    1    3    3  502    0  0.39363441010E+03 -0.23305451972E+03 -0.12720618983E+03  0.47480930143E+03  0.50400001928E-02 0.  1.
       -1    1    3    3    0  502 -0.39363441010E+03  0.23305451972E+03  0.28341501562E+03  0.53813244566E+03  0.50400001928E-02 0. -1.
</event>
<event>
 5   0  0.1006749E-03  0.9981033E+03  0.7818609E-02  0.9310627E-01
        2   -1    0    0  501    0  0.00000000000E+00  0.00000000000E+00  0.10613732860E+04  0.10613732861E+04  0.25500000920E-02 0. -1.
       -2   -1    0    0    0  501  0.00000000000E+00  0.00000000000E+00 -0.23465125128E+03  0.23465125130E+03  0.25500000920E-02 0.  1.
    10030    2    1    2    0    0  0.00000000000E+00  0.00000000000E+00  0.82672203476E+03  0.12960245373E+04  0.99810334067E+03 0.  0.
        1    1    3    3  502    0  0.27717505110E+03 -0.24126283295E+03 -0.25094924013E+02  0.36832528932E+03  0.50400001928E-02 0.  1.
       -1    1    3    3    0  502 -0.27717505110E+03  0.24126283295E+03  0.85181695878E+03  0.92769924803E+03  0.50400001928E-02 0. -1.
</event>
<event>
 5   0  0.5888774E-04  0.1001681E+04  0.7818609E-02  0.9306704E-01
       -1   -1    0    0    0  501  0.00000000000E+00  0.00000000000E+00  0.46317145063E+03  0.46317145065E+03  0.50400001928E-02 0.  1.
        1   -1    0    0  501    0  0.00000000000E+00  0.00000000000E+00 -0.54157260658E+03  0.54157260660E+03  0.50400001928E-02 0. -1.
    10030    2    1    2    0    0  0.00000000000E+00  0.00000000000E+00 -0.78401155953E+02  0.10047440573E+04  0.10016805276E+04 0.  0.
        2    1    3    3  502    0 -0.20764804002E+03  0.41389545457E+03 -0.23060823164E+03  0.51730775400E+03  0.25500000920E-02 0. -1.
       -2    1    3    3    0  502  0.20764804002E+03 -0.41389545457E+03  0.15220707569E+03  0.48743630326E+03  0.25500000920E-02 0.  1.
</event>
<event>
 5   0  0.1020150E-03  0.1010271E+04  0.7818609E-02  0.9297351E-01
        2   -1    0    0  501    0  0.00000000000E+00  0.00000000000E+00  0.85141994729E+03  0.85141994729E+03  0.25500000920E-02 0.  1.
       -2   -1    0    0    0  501  0.00000000000E+00  0.00000000000E+00 -0.29968984124E+03  0.29968984125E+03  0.25500000920E-02 0. -1.
    10030    2    1    2    0    0  0.00000000000E+00  0.00000000000E+00  0.55173010605E+03  0.11511097885E+04  0.10102710702E+04 0.  0.
        5    1    3    3  502    0 -0.81226484496E+00  0.81803396731E+01  0.85131880909E+03  0.85137147147E+03  0.46999998093E+01 0.  1.
       -5    1    3    3    0  502  0.81226484496E+00 -0.81803396731E+01 -0.29958870304E+03  0.29973831707E+03  0.46999998093E+01 0. -1.
</event>
<event>
 5   0  0.5768102E-04  0.9990850E+03  0.7818609E-02  0.9309549E-01
       -1   -1    0    0    0  501  0.00000000000E+00  0.00000000000E+00  0.31586153382E+03  0.31586153386E+03  0.50400001928E-02 0.  1.
        1   -1    0    0  501    0  0.00000000000E+00  0.00000000000E+00 -0.79003831619E+03  0.79003831621E+03  0.50400001928E-02 0. -1.
    10030    2    1    2    0    0  0.00000000000E+00  0.00000000000E+00 -0.47417678237E+03  0.11058998501E+04  0.99908501012E+03 0.  0.
        4    1    3    3  502    0  0.41245235884E+02  0.46462967079E+03 -0.39204103139E+02  0.46810306030E+03  0.12699999809E+01 0.  1.
       -4    1    3    3    0  502 -0.41245235884E+02 -0.46462967079E+03 -0.43497267924E+03  0.63779678977E+03  0.12699999809E+01 0. -1.
</event>
<event>
 5   0  0.5826939E-04  0.1010318E+04  0.7818609E-02  0.9297300E-01
        1   -1    0    0  501    0  0.00000000000E+00  0.00000000000E+00  0.85687575518E+03  0.85687575520E+03  0.50400001928E-02 0. -1.
       -1   -1    0    0    0  501  0.00000000000E+00  0.00000000000E+00 -0.29780925303E+03  0.29780925308E+03  0.50400001928E-02 0.  1.
    10030    2    1    2    0    0  0.00000000000E+00  0.00000000000E+00  0.55906650215E+03  0.11546850083E+04  0.10103178285E+04 0.  0.
        1    1    3    3  502    0  0.30430023473E+03 -0.32242613460E+03  0.55626507147E+03  0.71132838752E+03  0.50400001928E-02 0. -1.
       -1    1    3    3    0  502 -0.30430023473E+03  0.32242613460E+03  0.28014306820E+01  0.44335662076E+03  0.50400001928E-02 0.  1.
</event>
<event>
 5   0  0.5826939E-04  0.1000573E+04  0.7818609E-02  0.9307917E-01
        1   -1    0    0  501    0  0.00000000000E+00  0.00000000000E+00  0.94736795369E+03  0.94736795370E+03  0.50400001928E-02 0. -1.
       -1   -1    0    0    0  501  0.00000000000E+00  0.00000000000E+00 -0.26419140599E+03  0.26419140603E+03  0.50400001928E-02 0.  1.
    10030    2    1    2    0    0  0.00000000000E+00  0.00000000000E+00  0.68317654770E+03  0.12115593597E+04  0.10005727794E+04 0.  0.
        1    1    3    3  502    0 -0.40916575120E+03 -0.25915743536E+03  0.18983203531E+03  0.52020706446E+03  0.50400001928E-02 0. -1.
       -1    1    3    3    0  502  0.40916575120E+03  0.25915743536E+03  0.49334451239E+03  0.69135229528E+03  0.50400001928E-02 0.  1.
</event>
<event>
 5   0  0.5888774E-04  0.9971780E+03  0.7818609E-02  0.9311645E-01
        1   -1    0    0  501    0  0.00000000000E+00  0.00000000000E+00  0.19166851790E+04  0.19166851790E+04  0.50400001928E-02 0.  1.
       -1   -1    0    0    0  501  0.00000000000E+00  0.00000000000E+00 -0.12969839385E+03  0.12969839395E+03  0.50400001928E-02 0. -1.
    10030    2    1    2    0    0  0.00000000000E+00  0.00000000000E+00  0.17869867852E+04  0.20463835730E+04  0.99717799684E+03 0.  0.
        2    1    3    3  502    0 -0.23061633060E+02  0.49746709189E+03  0.84383063877E+03  0.97982421555E+03  0.25500000920E-02 0. -1.
       -2    1    3    3    0  502  0.23061633060E+02 -0.49746709189E+03  0.94315614641E+03  0.10665593574E+04  0.25500000920E-02 0.  1.
</event>
<event>
 5   0  0.3854625E-04  0.9983324E+03  0.7818609E-02  0.9310376E-01
        3   -1    0    0  501    0  0.00000000000E+00  0.00000000000E+00  0.51253365794E+03  0.51253366789E+03  0.10100000352E+00 0.  1.
       -3   -1    0    0    0  501  0.00000000000E+00  0.00000000000E+00 -0.48614732768E+03  0.48614733817E+03  0.10100000352E+00 0. -1.
    10030    2    1    2    0    0  0.00000000000E+00  0.00000000000E+00  0.26386330261E+02  0.99868100606E+03  0.99833236622E+03 0.  0.
        5    1    3    3  502    0  0.92646784219E+02  0.47499325157E+02 -0.47514242423E+03  0.48643810070E+03  0.46999998093E+01 0. -1.
       -5    1    3    3    0  502 -0.92646784219E+02 -0.47499325157E+02  0.50152875449E+03  0.51224290536E+03  0.46999998093E+01 0.  1.
</event>
<event>
 5   0  0.5826939E-04  0.9997594E+03  0.7818609E-02  0.9308809E-01
       -1   -1    0    0    0  501  0.00000000000E+00  0.00000000000E+00  0.71036164680E+03  0.71036164682E+03  0.50400001928E-02 0. -1.
        1   -1    0    0  501    0  0.00000000000E+00  0.00000000000E+00 -0.35176408101E+03  0.35176408105E+03  0.50400001928E-02 0.  1.
    10030    2    1    2    0    0  0.00000000000E+00  0.00000000000E+00  0.35859756579E+03  0.10621257279E+04  0.99975939486E+03 0.  0.
        1    1    3    3  502    0 -0.28536518596E+03 -0.40544114919E+03  0.11157335084E+03  0.50819723283E+03  0.50400001928E-02 0. -1.
       -1    1    3    3    0  502  0.28536518596E+03  0.40544114919E+03  0.24702421495E+03  0.55392849503E+03  0.50400001928E-02 0.  1.
</event>
<event>
 5   0  0.9741826E-04  0.9994173E+03  0.7818609E-02  0.9309184E-01
       -2   -1    0    0    0  501  0.00000000000E+00  0.00000000000E+00  0.21388988885E+03  0.21388988886E+03  0.25500000920E-02 0.  1.
        2   -1    0    0  501    0  0.00000000000E+00  0.00000000000E+00 -0.11674638742E+04  0.11674638742E+04  0.25500000920E-02 0. -1.
    10030    2    1    2    0    0  0.00000000000E+00  0.00000000000E+00 -0.95357398537E+03  0.13813537631E+04  0.99941726682E+03 0.  0.
        3    1    3    3  502    0 -0.36257405136E+03  0.13763395302E+03 -0.41229921752E+02  0.39000380048E+03  0.10100000352E+00 0.  1.
       -3    1    3    3    0  502  0.36257405136E+03 -0.13763395302E+03 -0.91234406362E+03  0.99134996261E+03  0.10100000352E+00 0. -1.
</event>
<event>
 5   0  0.5758786E-04  0.1000575E+04  0.7818609E-02  0.9307915E-01
        1   -1    0    0  501    0  0.00000000000E+00  0.00000000000E+00  0.10715765980E+04  0.10715765981E+04  0.50400001928E-02 0.  1.
       -1   -1    0    0    0  501  0.00000000000E+00  0.00000000000E+00 -0.23356932981E+03  0.23356932986E+03  0.50400001928E-02 0. -1.
    10030    2    1    2    0    0  0.00000000000E+00  0.00000000000E+00  0.83800726824E+03  0.13051459279E+04  0.10005746906E+04 0.  0.
        3    1    3    3  502    0  0.13247456691E+03 -0.21286939370E+03 -0.14570284729E+03  0.28998658514E+03  0.10100000352E+00 0. -1.
       -3    1    3    3    0  502 -0.13247456691E+03  0.21286939370E+03  0.98371011552E+03  0.10151593428E+04  0.10100000352E+00 0.  1.
</event>
<event>
 5   0  0.9674819E-04  0.9996282E+03  0.7818609E-02  0.9308953E-01
        2   -1    0    0  501    0  0.00000000000E+00  0.00000000000E+00  0.78056166383E+03  0.78056166384E+03  0.25500000920E-02 0.  1.
       -2   -1    0    0    0  501  0.00000000000E+00  0.00000000000E+00 -0.32004407333E+03  0.32004407334E+03  0.25500000920E-02 0. -1.
    10030    2    1    2    0    0  0.00000000000E+00  0.00000000000E+00  0.46051759051E+03  0.11006057372E+04  0.99962819965E+03 0.  0.
        4    1    3    3  502    0  0.42473152138E+03 -0.15518680810E+02 -0.59320370980E+02  0.42913659134E+03  0.12699999809E+01 0. -1.
       -4    1    3    3    0  502 -0.42473152138E+03  0.15518680810E+02  0.51983796149E+03  0.67146914584E+03  0.12699999809E+01 0.  1.
</event>
<event>
 5   0  0.9741826E-04  0.1018625E+04  0.7818609E-02  0.9288350E-01
       -2   -1    0    0    0  501  0.00000000000E+00  0.00000000000E+00  0.29711596290E+03  0.29711596291E+03  0.25500000920E-02 0. -1.
        2   -1    0    0  501    0  0.00000000000E+00  0.00000000000E+00 -0.87305744968E+03  0.87305744969E+03  0.25500000920E-02 0.  1.
    10030    2    1    2    0    0  0.00000000000E+00  0.00000000000E+00 -0.57594148678E+03  0.11701734126E+04  0.10186251614E+04 0.  0.
        3    1    3    3  502    0 -0.10968561954E+03 -0.28894435309E+03 -0.75301915863E+03  0.81397643565E+03  0.10100000352E+00 0.  1.
       -3    1    3    3    0  502  0.10968561954E+03  0.28894435309E+03  0.17707767185E+03  0.35619697695E+03  0.10100000352E+00 0. -1.
</event>
<event>
 5   0  0.1006006E-03  0.9992342E+03  0.7818609E-02  0.9309385E-01
        2   -1    0    0  501    0  0.00000000000E+00  0.00000000000E+00  0.15873351726E+04  0.15873351726E+04  0.25500000920E-02 0. -1.
       -2   -1    0    0    0  501  0.00000000000E+00  0.00000000000E+00 -0.15725554508E+03  0.15725554510E+03  0.25500000920E-02 0.  1.
    10030    2    1    2    0    0  0.00000000000E+00  0.00000000000E+00  0.14300796275E+04  0.17445907177E+04  0.99923422243E+03 0.  0.
        2    1    3    3  502    0  0.16954422113E+03  0.42996358680E+03  0.10463216212E+04  0.11438543892E+04  0.25500000920E-02 0. -1.
       -2    1    3    3    0  502 -0.16954422113E+03 -0.42996358680E+03  0.38375800638E+03  0.60073632848E+03  0.25500000920E-02 0.  1.
</event>
<event>
 5   0  0.5960102E-04  0.1000425E+04  0.7818609E-02  0.9308079E-01
       -1   -1    0    0    0  501  0.00000000000E+00  0.00000000000E+00  0.20939605976E+03  0.20939605982E+03  0.50400001928E-02 0.  1.
        1   -1    0    0  501    0  0.00000000000E+00  0.00000000000E+00 -0.11949237475E+04  0.11949237475E+04  0.50400001928E-02 0. -1.
    10030    2    1    2    0    0  0.00000000000E+00  0.00000000000E+00 -0.98552768770E+03  0.14043198073E+04  0.10004245588E+04 0.  0.
        5    1    3    3  502    0  0.24678911629E+03  0.36052908771E+03 -0.83460487978E+03  0.94205811198E+03  0.46999998093E+01 0. -1.
       -5    1    3    3    0  502 -0.24678911629E+03 -0.36052908771E+03 -0.15092280792E+03  0.46226169531E+03  0.46999998093E+01 0.  1.
</event>
<event>
 5   0  0.5826939E-04  0.1001369E+04  0.7818609E-02  0.9307045E-01
       -1   -1    0    0    0  501  0.00000000000E+00  0.00000000000E+00  0.10650203554E+04  0.10650203554E+04  0.50400001928E-02 0. -1.
        1   -1    0    0  501    0  0.00000000000E+00  0.00000000000E+00 -0.23538021585E+03  0.23538021591E+03  0.50400001928E-02 0.  1.
    10030    2    1    2    0    0  0.00000000000E+00  0.00000000000E+00  0.82964013958E+03  0.13004005714E+04  0.10013685060E+04 0.  0.
        1    1    3    3  502    0 -0.44488003919E+03  0.17034866837E+03  0.61494211971E+03  0.77787577974E+03  0.50400001928E-02 0. -1.
       -1    1    3    3    0  502  0.44488003919E+03 -0.17034866837E+03  0.21469801988E+03  0.52252479162E+03  0.50400001928E-02 0.  1.
</event>
<event>
 5   0  0.9674819E-04  0.1000043E+04  0.7818609E-02  0.9308497E-01
        2   -1    0    0  501    0  0.00000000000E+00  0.00000000000E+00  0.25396161528E+03  0.25396161529E+03  0.25500000920E-02 0. -1.
       -2   -1    0    0    0  501  0.00000000000E+00  0.00000000000E+00 -0.98448613793E+03  0.98448613793E+03  0.25500000920E-02 0.  1.
    10030    2    1    2    0    0  0.00000000000E+00  0.00000000000E+00 -0.73052452265E+03  0.12384477532E+04  0.10000433787E+04 0.  0.
        4    1    3    3  502    0 -0.14467483766E+03 -0.47667712824E+02 -0.95505131352E+03  0.96712338606E+03  0.12699999809E+01 0.  1.
       -4    1    3    3    0  502  0.14467483766E+03  0.47667712824E+02  0.22452679087E+03  0.27132436716E+03  0.12699999809E+01 0. -1.
</event>
<event>
 5   0  0.9674819E-04  0.1000302E+04  0.7818609E-02  0.9308214E-01
       -2   -1    0    0    0  501  0.00000000000E+00  0.00000000000E+00  0.55965974732E+03  0.55965974732E+03  0.25500000920E-02 0. -1.
        2   -1    0    0  501    0  0.00000000000E+00  0.00000000000E+00 -0.44696947416E+03  0.44696947417E+03  0.25500000920E-02 0.  1.
    10030    2    1    2    0    0  0.00000000000E+00  0.00000000000E+00  0.11269027315E+03  0.10066292215E+04  0.10003016005E+04 0.  0.
        4    1    3    3  502    0  0.32219704048E+03 -0.28373313002E+03  0.31454915232E+03  0.53222007111E+03  0.12699999809E+01 0.  1.
       -4    1    3    3    0  502 -0.32219704048E+03  0.28373313002E+03 -0.20185887917E+03  0.47440915038E+03  0.12699999809E+01 0. -1.
</event>
<event>
 5   0  0.1020150E-03  0.1000626E+04  0.7818609E-02  0.9307859E-01
        2   -1    0    0  501    0  0.00000000000E+00  0.00000000000E+00  0.10723666942E+04  0.10723666942E+04  0.25500000920E-02 0.  1.
       -2   -1    0    0    0  501  0.00000000000E+00  0.00000000000E+00 -0.23342110336E+03  0.23342110338E+03  0.25500000920E-02 0. -1.
    10030    2    1    2    0    0  0.00000000000E+00  0.00000000000E+00  0.83894559085E+03  0.13057877976E+04  0.10006258381E+04 0.  0.
        5    1    3    3  502    0  0.22961010120E+03  0.43189827580E+03  0.55655072481E+03  0.74096404670E+03  0.46999998093E+01 0. -1.
       -5    1    3    3    0  502 -0.22961010120E+03 -0.43189827580E+03  0.28239486604E+03  0.56482375089E+03  0.46999998093E+01 0.  1.
</event>
<event>
 5   0  0.9741826E-04  0.1000059E+04  0.7818609E-02  0.9308480E-01
        2   -1    0    0  501    0  0.00000000000E+00  0.00000000000E+00  0.16840527888E+04  0.16840527888E+04  0.25500000920E-02 0.  1.
       -2   -1    0    0    0  501  0.00000000000E+00  0.00000000000E+00 -0.14846888278E+03  0.14846888280E+03  0.25500000920E-02 0. -1.
    10030    2    1    2    0    0  0.00000000000E+00  0.00000000000E+00  0.15355839060E+04  0.18325216716E+04  0.10000588705E+04 0.  0.
        3    1    3    3  502    0 -0.37823884821E+03  0.21233418281E+03  0.31197006383E+03  0.53429931912E+03  0.10100000352E+00 0. -1.
       -3    1    3    3    0  502  0.37823884821E+03 -0.21233418281E+03  0.12236138422E+04  0.12982223525E+04  0.10100000352E+00 0.  1.
</event>
<event>
 5   0  0.9674819E-04  0.1001815E+04  0.7818609E-02  0.9306557E-01
        2   -1    0    0  501    0  0.00000000000E+00  0.00000000000E+00  0.42768244790E+03  0.42768244791E+03  0.25500000920E-02 0. -1.
       -2   -1    0    0    0  501  0.00000000000E+00  0.00000000000E+00 -0.58666948654E+03  0.58666948655E+03  0.25500000920E-02 0.  1.
    10030    2    1    2    0    0  0.00000000000E+00  0.00000000000E+00 -0.15898703864E+03  0.10143519345E+04  0.10018148374E+04 0.  0.
        4    1    3    3  502    0  0.22999643094E+03 -0.32381115775E+03 -0.38852545827E+03  0.55561287670E+03  0.12699999809E+01 0.  1.
       -4    1    3    3    0  502 -0.22999643094E+03  0.32381115775E+03  0.22953841963E+03  0.45873905776E+03  0.12699999809E+01 0. -1.
</event>
<event>
 5   0  0.5960102E-04  0.9941186E+03  0.7818609E-02  0.9315019E-01
        1   -1    0    0  501    0  0.00000000000E+00  0.00000000000E+00  0.18134614691E+04  0.18134614691E+04  0.50400001928E-02 0.  1.
       -1   -1    0    0    0  501  0.00000000000E+00  0.00000000000E+00 -0.13624107902E+03  0.13624107911E+03  0.50400001928E-02 0. -1.
    10030    2    1    2    0    0  0.00000000000E+00  0.00000000000E+00  0.16772203901E+04  0.19497025482E+04  0.99411859938E+03 0.  0.
        5    1    3    3  502    0  0.13642186750E+03 -0.61152082940E+02  0.17682767483E+04  0.17745915732E+04  0.46999998093E+01 0.  1.
       -5    1    3    3    0  502 -0.13642186750E+03  0.61152082940E+02 -0.91056358247E+02  0.17511097497E+03  0.46999998093E+01 0. -1.
</event>
<event>
 5   0  0.5888774E-04  0.9883092E+03  0.7818609E-02  0.9321461E-01
       -1   -1    0    0    0  501  0.00000000000E+00  0.00000000000E+00  0.11015794438E+03  0.11015794450E+03  0.50400001928E-02 0. -1.
        1   -1    0    0  501    0  0.00000000000E+00  0.00000000000E+00 -0.22167148607E+04  0.22167148607E+04  0.50400001928E-02 0.  1.
    10030    2    1    2    0    0  0.00000000000E+00  0.00000000000E+00 -0.21065569164E+04  0.23268728052E+04  0.98830916718E+03 0.  0.
        2    1    3    3  502    0 -0.28195623781E+03  0.24816668721E+02 -0.20069506693E+04  0.20268118255E+04  0.25500000920E-02 0.  1.
       -2    1    3    3    0  502  0.28195623781E+03 -0.24816668721E+02 -0.99606247053E+02  0.30006097971E+03  0.25500000920E-02 0. -1.
</event>
<event>
 5   0  0.3854625E-04  0.1000546E+04  0.7818609E-02  0.9307946E-01
       -3   -1    0    0    0  501  0.00000000000E+00  0.00000000000E+00  0.21975198795E+03  0.21975201116E+03  0.10100000352E+00 0. -1.
        3   -1    0    0  501    0  0.00000000000E+00  0.00000000000E+00 -0.11388894196E+04  0.11388894241E+04  0.10100000352E+00 0.  1.
    10030    2    1    2    0    0  0.00000000000E+00  0.00000000000E+00 -0.91913743164E+03  0.13586414352E+04  0.10005463164E+04 0.  0.
        5    1    3    3  502    0 -0.26688251331E+03  0.13405977545E+02 -0.10338256362E+04  0.10678124986E+04  0.46999998093E+01 0.  1.
       -5    1    3    3    0  502  0.26688251331E+03 -0.13405977545E+02  0.11468820452E+03  0.29082893666E+03  0.46999998093E+01 0. -1.
</event>
<event>
 5   0  0.9674819E-04  0.9997929E+03  0.7818609E-02  0.9308772E-01
       -2   -1    0    0    0  501  0.00000000000E+00  0.00000000000E+00  0.21662118251E+03  0.21662118252E+03  0.25500000920E-02 0.  1.
        2   -1    0    0  501    0  0.00000000000E+00  0.00000000000E+00 -0.11536104332E+04  0.11536104332E+04  0.25500000920E-02 0. -1.
    10030    2    1    2    0    0  0.00000000000E+00  0.00000000000E+00 -0.93698925073E+03  0.13702316158E+04  0.99979289098E+03 0.  0.
        4    1    3    3  502    0  0.46285732745E+03  0.36782310052E+02 -0.72233613832E+03  0.85869724207E+03  0.12699999809E+01 0. -1.
       -4    1    3    3    0  502 -0.46285732745E+03 -0.36782310052E+02 -0.21465311241E+03  0.51153437370E+03  0.12699999809E+01 0.  1.
</event>
<event>
 5   0  0.9741826E-04  0.1000144E+04  0.7818609E-02  0.9308387E-01
        2   -1    0    0  501    0  0.00000000000E+00  0.00000000000E+00  0.52589740371E+03  0.52589740372E+03  0.25500000920E-02 0.  1.
       -2   -1    0    0    0  501  0.00000000000E+00  0.00000000000E+00 -0.47551439751E+03  0.47551439752E+03  0.25500000920E-02 0. -1.
    10030    2    1    2    0    0  0.00000000000E+00  0.00000000000E+00  0.50383006200E+02  0.10014118012E+04  0.10001435639E+04 0.  0.
        3    1    3    3  502    0  0.47037378031E+03  0.69971507634E+02  0.18006236824E+03  0.50849775982E+03  0.10100000352E+00 0.  1.
       -3    1    3    3    0  502 -0.47037378031E+03 -0.69971507634E+02 -0.12967936204E+03  0.49291404141E+03  0.10100000352E+00 0. -1.
</event>
<event>
 5   0  0.3854625E-04  0.9986585E+03  0.7818609E-02  0.9310017E-01
        3   -1    0    0  501    0  0.00000000000E+00  0.00000000000E+00  0.72910594936E+03  0.72910595636E+03  0.10100000352E+00 0.  1.
       -3   -1    0    0    0  501  0.00000000000E+00  0.00000000000E+00 -0.34196632682E+03  0.34196634173E+03  0.10100000352E+00 0. -1.
    10030    2    1    2    0    0  0.00000000000E+00  0.00000000000E+00  0.38713962255E+03  0.10710722981E+04  0.99865849037E+03 0.  0.
        2    1    3    3  502    0 -0.98952230343E+02  0.43948214427E+03  0.42457982548E+03  0.61903483524E+03  0.25500000920E-02 0.  1.
       -2    1    3    3    0  502  0.98952230343E+02 -0.43948214427E+03 -0.37440202938E+02  0.45203746286E+03  0.25500000920E-02 0. -1.
</event>
<event>
 5   0  0.1006006E-03  0.1000057E+04  0.7818609E-02  0.9308483E-01
        2   -1    0    0  501    0  0.00000000000E+00  0.00000000000E+00  0.58119445654E+03  0.58119445655E+03  0.25500000920E-02 0. -1.
       -2   -1    0    0    0  501  0.00000000000E+00  0.00000000000E+00 -0.43019724619E+03  0.43019724620E+03  0.25500000920E-02 0.  1.
    10030    2    1    2    0    0  0.00000000000E+00  0.00000000000E+00  0.15099721035E+03  0.10113917027E+04  0.10000565078E+04 0.  0.
        2    1    3    3  502    0 -0.36872596033E+03  0.51055584447E+02 -0.26214592567E+03  0.45528671502E+03  0.25500000920E-02 0.  1.
       -2    1    3    3    0  502  0.36872596033E+03 -0.51055584447E+02  0.41314313602E+03  0.55610498772E+03  0.25500000920E-02 0. -1.
</event>
<event>
 5   0  0.9674819E-04  0.1001431E+04  0.7818609E-02  0.9306976E-01
       -2   -1    0    0    0  501  0.00000000000E+00  0.00000000000E+00  0.91474131861E+02  0.91474131897E+02  0.25500000920E-02 0. -1.
        2   -1    0    0  501    0  0.00000000000E+00  0.00000000000E+00 -0.27408428931E+04  0.27408428931E+04  0.25500000920E-02 0.  1.
    10030    2    1    2    0    0  0.00000000000E+00  0.00000000000E+00 -0.26493687612E+04  0.28323170250E+04  0.10014314240E+04 0.  0.
        4    1    3    3  502    0 -0.13537638506E+03  0.20654014950E+03 -0.25566186059E+04  0.25685182319E+04  0.12699999809E+01 0.  1.
       -4    1    3    3    0  502  0.13537638506E+03 -0.20654014950E+03 -0.92750155335E+02  0.26379879303E+03  0.12699999809E+01 0. -1.
</event>
<event>
 5   0  0.5826939E-04  0.1001948E+04  0.7818609E-02  0.9306411E-01
        1   -1    0    0  501    0  0.00000000000E+00  0.00000000000E+00  0.57792461846E+03  0.57792461848E+03  0.50400001928E-02 0.  1.
       -1   -1    0    0    0  501  0.00000000000E+00  0.00000000000E+00 -0.43426911477E+03  0.43426911480E+03  0.50400001928E-02 0. -1.
    10030    2    1    2    0    0  0.00000000000E+00  0.00000000000E+00  0.14365550369E+03  0.10121937333E+04  0.10019477281E+04 0.  0.
        1    1    3    3  502    0 -0.22414320256E+03 -0.29102466066E+03  0.41595661491E+03  0.55493732428E+03  0.50400001928E-02 0.  1.
       -1    1    3    3    0  502  0.22414320256E+03  0.29102466066E+03 -0.27230111123E+03  0.45725640899E+03  0.50400001928E-02 0. -1.
</event>
<event>
 5   0  0.1006006E-03  0.9983841E+03  0.7818609E-02  0.9310319E-01
        2   -1    0    0  501    0  0.00000000000E+00  0.00000000000E+00  0.13089296040E+04  0.13089296040E+04  0.25500000920E-02 0. -1.
       -2   -1    0    0    0  501  0.00000000000E+00  0.00000000000E+00 -0.19037899925E+03  0.19037899927E+03  0.25500000920E-02 0.  1.
    10030    2    1    2    0    0  0.00000000000E+00  0.00000000000E+00  0.11185506048E+04  0.14993086033E+04  0.99838411068E+03 0.  0.
        2    1    3    3  502    0 -0.27696599779E+03  0.41512085342E+03  0.54044536103E+03  0.73560633164E+03  0.25500000920E-02 0. -1.
       -2    1    3    3    0  502  0.27696599779E+03 -0.41512085342E+03  0.57810524375E+03  0.76370227166E+03  0.25500000920E-02 0.  1.
</event>
<event>
 5   0  0.5960102E-04  0.9986084E+03  0.7818609E-02  0.9310072E-01
        1   -1    0    0  501    0  0.00000000000E+00  0.00000000000E+00  0.50696760130E+03  0.50696760133E+03  0.50400001928E-02 0. -1.
       -1   -1    0    0    0  501  0.00000000000E+00  0.00000000000E+00 -0.49175665994E+03  0.49175665996E+03  0.50400001928E-02 0.  1.
    10030    2    1    2    0    0  0.00000000000E+00  0.00000000000E+00  0.15210941367E+02  0.99872426129E+03  0.99860842043E+03 0.  0.
        5    1    3    3  502    0  0.30417035017E+02 -0.49539878765E+03  0.61810000571E+02  0.50018768576E+03  0.46999998093E+01 0. -1.
       -5    1    3    3    0  502 -0.30417035017E+02  0.49539878765E+03 -0.46599059203E+02  0.49853657553E+03  0.46999998093E+01 0.  1.
</event>
<event>
 5   0  0.3854625E-04  0.9856275E+03  0.7818609E-02  0.9324450E-01
        3   -1    0    0  501    0  0.00000000000E+00  0.00000000000E+00  0.67726110102E+03  0.67726110855E+03  0.10100000352E+00 0. -1.
       -3   -1    0    0    0  501  0.00000000000E+00  0.00000000000E+00 -0.35859930650E+03  0.35859932073E+03  0.10100000352E+00 0.  1.
    10030    2    1    2    0    0  0.00000000000E+00  0.00000000000E+00  0.31866179451E+03  0.10358604293E+04  0.98562745987E+03 0.  0.
        3    1    3    3  502    0 -0.46687928753E+03  0.61361822093E+01  0.32500866363E+03  0.56889767401E+03  0.10100000352E+00 0. -1.
       -3    1    3    3    0  502  0.46687928753E+03 -0.61361822093E+01 -0.63468691142E+01  0.46696275527E+03  0.10100000352E+00 0.  1.
</event>
<event>
 5   0  0.5758786E-04  0.1000153E+04  0.7818609E-02  0.9308377E-01
        1   -1    0    0  501    0  0.00000000000E+00  0.00000000000E+00  0.94617043185E+03  0.94617043187E+03  0.50400001928E-02 0. -1.
       -1   -1    0    0    0  501  0.00000000000E+00  0.00000000000E+00 -0.26430396611E+03  0.26430396616E+03  0.50400001928E-02 0.  1.
    10030    2    1    2    0    0  0.00000000000E+00  0.00000000000E+00  0.68186646574E+03  0.12104743980E+04  0.10001531839E+04 0.  0.
        3    1    3    3  502    0 -0.21755220842E+03  0.44815254801E+03  0.28808200437E+03  0.57546582967E+03  0.10100000352E+00 0. -1.
       -3    1    3    3    0  502  0.21755220842E+03 -0.44815254801E+03  0.39378446137E+03  0.63500856836E+03  0.10100000352E+00 0.  1.
</event>
<event>
 5   0  0.1020150E-03  0.1000567E+04  0.7818609E-02  0.9307923E-01
       -2   -1    0    0    0  501  0.00000000000E+00  0.00000000000E+00  0.70671486940E+03  0.70671486941E+03  0.25500000920E-02 0.  1.
        2   -1    0    0  501    0  0.00000000000E+00  0.00000000000E+00 -0.35415105029E+03  0.35415105030E+03  0.25500000920E-02 0. -1.
    10030    2    1    2    0    0  0.00000000000E+00  0.00000000000E+00  0.35256381912E+03  0.10608659197E+04  0.10005674655E+04 0.  0.
        5    1    3    3  502    0 -0.39403698817E+03  0.97680294058E+02  0.48622588842E+03  0.63343846778E+03  0.46999998093E+01 0.  1.
       -5    1    3    3    0  502  0.39403698817E+03 -0.97680294058E+02 -0.13366206930E+03  0.42742745193E+03  0.46999998093E+01 0. -1.
</event>
<event>
 5   0  0.5960102E-04  0.1001507E+04  0.7818609E-02  0.9306894E-01
       -1   -1    0    0    0  501  0.00000000000E+00  0.00000000000E+00  0.21541080321E+03  0.21541080327E+03  0.50400001928E-02 0.  1.
        1   -1    0    0  501    0  0.00000000000E+00  0.00000000000E+00 -0.11640729874E+04  0.11640729874E+04  0.50400001928E-02 0. -1.
    10030    2    1    2    0    0  0.00000000000E+00  0.00000000000E+00 -0.94866218415E+03  0.13794837907E+04  0.10015066595E+04 0.  0.
        5    1    3    3  502    0 -0.42263598049E+03  0.24054103779E+03 -0.63876069638E+03  0.80281908305E+03  0.46999998093E+01 0.  1.
       -5    1    3    3    0  502  0.42263598049E+03 -0.24054103779E+03 -0.30990148777E+03  0.57666470760E+03  0.46999998093E+01 0. -1.
</event>
<event>
 5   0  0.9741826E-04  0.1002068E+04  0.7818609E-02  0.9306279E-01
       -2   -1    0    0    0  501  0.00000000000E+00  0.00000000000E+00  0.33276058443E+03  0.33276058444E+03  0.25500000920E-02 0. -1.
        2   -1    0    0  501    0  0.00000000000E+00  0.00000000000E+00 -0.75440177683E+03  0.75440177684E+03  0.25500000920E-02 0.  1.
    10030    2    1    2    0    0  0.00000000000E+00  0.00000000000E+00 -0.42164119240E+03  0.10871623613E+04  0.10020682136E+04 0.  0.
        3    1    3    3  502    0 -0.14658338210E+03 -0.38976877625E+03 -0.51309996039E+03  0.66081613661E+03  0.10100000352E+00 0.  1.
       -3    1    3    3    0  502  0.14658338210E+03  0.38976877625E+03  0.91458767995E+02  0.42634622467E+03  0.10100000352E+00 0. -1.
</event>
<event>
 5   0  0.5826939E-04  0.9989555E+03  0.7818609E-02  0.9309691E-01
        1   -1    0    0  501    0  0.00000000000E+00  0.00000000000E+00  0.28949866212E+03  0.28949866217E+03  0.50400001928E-02 0. -1.
       -1   -1    0    0    0  501  0.00000000000E+00  0.00000000000E+00 -0.86175878558E+03  0.86175878559E+03  0.50400001928E-02 0.  1.
    10030    2    1    2    0    0  0.00000000000E+00  0.00000000000E+00 -0.57226012345E+03  0.11512574478E+04  0.99895548556E+03 0.  0.
        1    1    3    3  502    0 -0.10986062488E+03  0.46785224754E+02  0.27280744862E+03  0.29779543012E+03  0.50400001928E-02 0. -1.
       -1    1    3    3    0  502  0.10986062488E+03 -0.46785224754E+02 -0.84506757207E+03  0.85346201764E+03  0.50400001928E-02 0.  1.
</event>
<event>
 5   0  0.5758786E-04  0.1000278E+04  0.7818609E-02  0.9308240E-01
        1   -1    0    0  501    0  0.00000000000E+00  0.00000000000E+00  0.66678737068E+03  0.66678737070E+03  0.50400001928E-02 0.  1.
       -1   -1    0    0    0  501  0.00000000000E+00  0.00000000000E+00 -0.37514086831E+03  0.37514086835E+03  0.50400001928E-02 0. -1.
    10030    2    1    2    0    0  0.00000000000E+00  0.00000000000E+00  0.29164650237E+03  0.10419282391E+04  0.10002783478E+04 0.  0.
        3    1    3    3  502    0 -0.48481479477E+02  0.26240948119E+03 -0.29479097339E+03  0.39763163589E+03  0.10100000352E+00 0. -1.
       -3    1    3    3    0  502  0.48481479477E+02 -0.26240948119E+03  0.58643747576E+03  0.64429660316E+03  0.10100000352E+00 0.  1.
</event>
<event>
 5   0  0.9741826E-04  0.1001143E+04  0.7818609E-02  0.9307292E-01
        2   -1    0    0  501    0  0.00000000000E+00  0.00000000000E+00  0.16203782964E+04  0.16203782964E+04  0.25500000920E-02 0.  1.
       -2   -1    0    0    0  501  0.00000000000E+00  0.00000000000E+00 -0.15463800802E+03  0.15463800804E+03  0.25500000920E-02 0. -1.
    10030    2    1    2    0    0  0.00000000000E+00  0.00000000000E+00  0.14657402884E+04  0.17750163045E+04  0.10011434902E+04 0.  0.
        3    1    3    3  502    0  0.25100760154E+02  0.39842978065E+03  0.12682884993E+04  0.13296360653E+04  0.10100000352E+00 0.  1.
       -3    1    3    3    0  502 -0.25100760154E+02 -0.39842978065E+03  0.19745178905E+03  0.44538023920E+03  0.10100000352E+00 0. -1.
</event>
<event>
 5   0  0.1020150E-03  0.9984709E+03  0.7818609E-02  0.9310223E-01
        2   -1    0    0  501    0  0.00000000000E+00  0.00000000000E+00  0.36848763520E+03  0.36848763521E+03  0.25500000920E-02 0. -1.
       -2   -1    0    0    0  501  0.00000000000E+00  0.00000000000E+00 -0.67637557058E+03  0.67637557058E+03  0.25500000920E-02 0.  1.
    10030    2    1    2    0    0  0.00000000000E+00  0.00000000000E+00 -0.30788793538E+03  0.10448632058E+04  0.99847089996E+03 0.  0.
        5    1    3    3  502    0  0.18324708716E+03  0.31878763996E+03  0.19939650280E+03  0.41831341083E+03  0.46999998093E+01 0. -1.
       -5    1    3    3    0  502 -0.18324708716E+03 -0.31878763996E+03 -0.50728443819E+03  0.62654979497E+03  0.46999998093E+01 0.  1.
</event>
<event>
 5   0  0.1020150E-03  0.9984484E+03  0.7818609E-02  0.9310248E-01
       -2   -1    0    0    0  501  0.00000000000E+00  0.00000000000E+00  0.39602351353E+03  0.39602351353E+03  0.25500000920E-02 0. -1.
        2   -1    0    0  501    0  0.00000000000E+00  0.00000000000E+00 -0.62931824941E+03  0.62931824942E+03  0.25500000920E-02 0.  1.
    10030    2    1    2    0    0  0.00000000000E+00  0.00000000000E+00 -0.23329473588E+03  0.10253417629E+04  0.99844844487E+03 0.  0.
        5    1    3    3  502    0  0.35077476703E+02 -0.49545951077E+03 -0.65381001399E+02  0.50100630887E+03  0.46999998093E+01 0. -1.
       -5    1    3    3    0  502 -0.35077476703E+02  0.49545951077E+03 -0.16791373449E+03  0.52433545408E+03  0.46999998093E+01 0.  1.
</event>
<event>
 5   0  0.5768102E-04  0.1000020E+04  0.7818609E-02  0.9308523E-01
        1   -1    0    0  501    0  0.00000000000E+00  0.00000000000E+00  0.32969701680E+03  0.32969701684E+03  0.50400001928E-02 0.  1.
       -1   -1    0    0    0  501  0.00000000000E+00  0.00000000000E+00 -0.75830192118E+03  0.75830192120E+03  0.50400001928E-02 0. -1.
    10030    2    1    2    0    0  0.00000000000E+00  0.00000000000E+00 -0.42860490438E+03  0.10879989380E+04  0.10000197624E+04 0.  0.
        4    1    3    3  502    0  0.47498281241E+03  0.12833061773E+03 -0.11741228059E+03  0.50583067925E+03  0.12699999809E+01 0. -1.
       -4    1    3    3    0  502 -0.47498281241E+03 -0.12833061773E+03 -0.31119262379E+03  0.58216825879E+03  0.12699999809E+01 0.  1.
</event>
<event>
 5   0  0.5960102E-04  0.9967001E+03  0.7818609E-02  0.9312171E-01
        1   -1    0    0  501    0  0.00000000000E+00  0.00000000000E+00  0.14268323638E+04  0.14268323638E+04  0.50400001928E-02 0. -1.
       -1   -1    0    0    0  501  0.00000000000E+00  0.00000000000E+00 -0.17405883052E+03  0.17405883059E+03  0.50400001928E-02 0.  1.
    10030    2    1    2    0    0  0.00000000000E+00  0.00000000000E+00  0.12527735333E+04  0.16008911944E+04  0.99670010063E+03 0.  0.
        5    1    3    3  502    0  0.24268406595E+03  0.31415678684E+03  0.14255070667E+03  0.42182085837E+03  0.46999998093E+01 0.  1.
       -5    1    3    3    0  502 -0.24268406595E+03 -0.31415678684E+03  0.11102228266E+04  0.11790703360E+04  0.46999998093E+01 0. -1.
</event>
<event>
 5   0  0.5768102E-04  0.1013929E+04  0.7818609E-02  0.9293398E-01
       -1   -1    0    0    0  501  0.00000000000E+00  0.00000000000E+00  0.28172973845E+03  0.28172973849E+03  0.50400001928E-02 0. -1.
        1   -1    0    0  501    0  0.00000000000E+00  0.00000000000E+00 -0.91226769779E+03  0.91226769781E+03  0.50400001928E-02 0.  1.
    10030    2    1    2    0    0  0.00000000000E+00  0.00000000000E+00 -0.63053795935E+03  0.11939974363E+04  0.10139288731E+04 0.  0.
        4    1    3    3  502    0 -0.96104674133E+02  0.46059947335E+03 -0.53752996994E+03  0.71437249718E+03  0.12699999809E+01 0. -1.
       -4    1    3    3    0  502  0.96104674133E+02 -0.46059947335E+03 -0.93007989408E+02  0.47962493912E+03  0.12699999809E+01 0.  1.
</event>
<event>
 5   0  0.5826939E-04  0.1000326E+04  0.7818609E-02  0.9308187E-01
       -1   -1    0    0    0  501  0.00000000000E+00  0.00000000000E+00  0.38494020445E+03  0.38494020448E+03  0.50400001928E-02 0.  1.
        1   -1    0    0  501    0  0.00000000000E+00  0.00000000000E+00 -0.64987566407E+03  0.64987566409E+03  0.50400001928E-02 0. -1.
    10030    2    1    2    0    0  0.00000000000E+00  0.00000000000E+00 -0.26493545962E+03  0.10348158686E+04  0.10003264887E+04 0.  0.
        1    1    3    3  502    0 -0.59370330942E+02 -0.33185099575E+03  0.24974828072E+03  0.41955228914E+03  0.50400001928E-02 0.  1.
       -1    1    3    3    0  502  0.59370330942E+02  0.33185099575E+03 -0.51468374034E+03  0.61526357943E+03  0.50400001928E-02 0. -1.
</event>
<event>
 5   0  0.3854625E-04  0.1002166E+04  0.7818609E-02  0.9306172E-01
       -3   -1    0    0    0  501  0.00000000000E+00  0.00000000000E+00  0.33098386440E+03  0.33098387981E+03  0.10100000352E+00 0. -1.
        3   -1    0    0  501    0  0.00000000000E+00  0.00000000000E+00 -0.75859961088E+03  0.75859961760E+03  0.10100000352E+00 0.  1.
    10030    2    1    2    0    0  0.00000000000E+00  0.00000000000E+00 -0.42761574648E+03  0.10895834974E+04  0.10021661395E+04 0.  0.
        5    1    3    3  502    0 -0.43360844219E+02  0.49875140519E+03 -0.19128817837E+03  0.53595371458E+03  0.46999998093E+01 0. -1.
       -5    1    3    3    0  502  0.43360844219E+02 -0.49875140519E+03 -0.23632756810E+03  0.55362978283E+03  0.46999998093E+01 0.  1.
</event>
<event>
 5   0  0.5768102E-04  0.1001393E+04  0.7818609E-02  0.9307018E-01
       -1   -1    0    0    0  501  0.00000000000E+00  0.00000000000E+00  0.51438832675E+03  0.51438832677E+03  0.50400001928E-02 0.  1.
        1   -1    0    0  501    0  0.00000000000E+00  0.00000000000E+00 -0.48736937959E+03  0.48736937962E+03  0.50400001928E-02 0. -1.
    10030    2    1    2    0    0  0.00000000000E+00  0.00000000000E+00  0.27018947155E+02  0.10017577064E+04  0.10013932688E+04 0.  0.
        4    1    3    3  502    0 -0.21470816943E+03 -0.92832099846E+02 -0.42934578586E+03  0.48893436525E+03  0.12699999809E+01 0. -1.
       -4    1    3    3    0  502  0.21470816943E+03  0.92832099846E+02  0.45636473302E+03  0.51282334115E+03  0.12699999809E+01 0.  1.
</event>
<event>
 5   0  0.9741826E-04  0.1000102E+04  0.7818609E-02  0.9308433E-01
       -2   -1    0    0    0  501  0.00000000000E+00  0.00000000000E+00  0.18473230417E+03  0.18473230419E+03  0.25500000920E-02 0.  1.
        2   -1    0    0  501    0  0.00000000000E+00  0.00000000000E+00 -0.13535865254E+04  0.13535865254E+04  0.25500000920E-02 0. -1.
    10030    2    1    2    0    0  0.00000000000E+00  0.00000000000E+00 -0.11688542212E+04  0.15383188296E+04  0.10001023103E+04 0.  0.
        3    1    3    3  502    0  0.11066999867E+02 -0.11372907370E+03  0.16438168520E+03  0.20019522802E+03  0.10100000352E+00 0.  1.
       -3    1    3    3    0  502 -0.11066999867E+02  0.11372907370E+03 -0.13332359064E+04  0.13381236016E+04  0.10100000352E+00 0. -1.
</event>
<event>
 5   0  0.1020150E-03  0.1000894E+04  0.7818609E-02  0.9307565E-01
        2   -1    0    0  501    0  0.00000000000E+00  0.00000000000E+00  0.29849246267E+03  0.29849246268E+03  0.25500000920E-02 0. -1.
       -2   -1    0    0    0  501  0.00000000000E+00  0.00000000000E+00 -0.83904037480E+03  0.83904037480E+03  0.25500000920E-02 0.  1.
    10030    2    1    2    0    0  0.00000000000E+00  0.00000000000E+00 -0.54054791212E+03  0.11375328375E+04  0.10008940559E+04 0.  0.
        5    1    3    3  502    0 -0.43392170268E+03  0.24000359323E+03 -0.19373506891E+03  0.53239565714E+03  0.46999998093E+01 0. -1.
       -5    1    3    3    0  502  0.43392170268E+03 -0.24000359323E+03 -0.34681284321E+03  0.60513718034E+03  0.46999998093E+01 0.  1.
</event>
<event>
 5   0  0.1020150E-03  0.9991568E+03  0.7818609E-02  0.9309470E-01
        2   -1    0    0  501    0  0.00000000000E+00  0.00000000000E+00  0.59353277668E+03  0.59353277669E+03  0.25500000920E-02 0. -1.
       -2   -1    0    0    0  501  0.00000000000E+00  0.00000000000E+00 -0.42049667364E+03  0.42049667365E+03  0.25500000920E-02 0.  1.
    10030    2    1    2    0    0  0.00000000000E+00  0.00000000000E+00  0.17303610304E+03  0.10140294503E+04  0.99915676107E+03 0.  0.
        5    1    3    3  502    0  0.24207541198E+03  0.15114750515E+03  0.50263386557E+03  0.57802159667E+03  0.46999998093E+01 0. -1.
       -5    1    3    3    0  502 -0.24207541198E+03 -0.15114750515E+03 -0.32959776253E+03  0.43600785367E+03  0.46999998093E+01 0.  1.
</event>
<event>
 5   0  0.5826939E-04  0.1000421E+04  0.7818609E-02  0.9308083E-01
        1   -1    0    0  501    0  0.00000000000E+00  0.00000000000E+00  0.45878449004E+03  0.45878449007E+03  0.50400001928E-02 0.  1.
       -1   -1    0    0    0  501  0.00000000000E+00  0.00000000000E+00 -0.54537758902E+03  0.54537758905E+03  0.50400001928E-02 0. -1.
    10030    2    1    2    0    0  0.00000000000E+00  0.00000000000E+00 -0.86593098983E+02  0.10041620791E+04  0.10004214694E+04 0.  0.
        1    1    3    3  502    0  0.47609846511E+03 -0.22683165240E+02  0.10901569648E+03  0.48894651709E+03  0.50400001928E-02 0.  1.
       -1    1    3    3    0  502 -0.47609846511E+03  0.22683165240E+02 -0.19560879547E+03  0.51521556203E+03  0.50400001928E-02 0. -1.
</event>
<event>
 5   0  0.1006749E-03  0.9993449E+03  0.7818609E-02  0.9309264E-01
       -2   -1    0    0    0  501  0.00000000000E+00  0.00000000000E+00  0.79886040714E+03  0.79886040715E+03  0.25500000920E-02 0. -1.
        2   -1    0    0  501    0  0.00000000000E+00  0.00000000000E+00 -0.31253591985E+03  0.31253591986E+03  0.25500000920E-02 0.  1.
    10030    2    1    2    0    0  0.00000000000E+00  0.00000000000E+00  0.48632448729E+03  0.11113963270E+04  0.99934492981E+03 0.  0.
        1    1    3    3  502    0 -0.10339658262E+03  0.17899986580E+03 -0.26275160865E+03  0.33432052453E+03  0.50400001928E-02 0.  1.
       -1    1    3    3    0  502  0.10339658262E+03 -0.17899986580E+03  0.74907609594E+03  0.77707580247E+03  0.50400001928E-02 0. -1.
</event>
<event>
 5   0  0.1006749E-03  0.9984504E+03  0.7818609E-02  0.9310246E-01
       -2   -1    0    0    0  501  0.00000000000E+00  0.00000000000E+00  0.18887311162E+04  0.18887311162E+04  0.25500000920E-02 0.  1.
        2   -1    0    0  501    0  0.00000000000E+00  0.00000000000E+00 -0.13195409817E+03  0.13195409820E+03  0.25500000920E-02 0. -1.
    10030    2    1    2    0    0  0.00000000000E+00  0.00000000000E+00  0.17567770181E+04  0.20206852144E+04  0.99845042173E+03 0.  0.
        1    1    3    3  502    0  0.33222927585E+03 -0.31484010594E+03  0.47501687608E+03  0.65965264847E+03  0.50400001928E-02 0. -1.
       -1    1    3    3    0  502 -0.33222927585E+03  0.31484010594E+03  0.12817601420E+04  0.13610325660E+04  0.50400001928E-02 0.  1.
</event>
<event>
 5   0  0.5758786E-04  0.9882493E+03  0.7818609E-02  0.9321527E-01
        1   -1    0    0  501    0  0.00000000000E+00  0.00000000000E+00  0.59777091310E+03  0.59777091312E+03  0.50400001928E-02 0. -1.
       -1   -1    0    0    0  501  0.00000000000E+00  0.00000000000E+00 -0.40844942554E+03  0.40844942557E+03  0.50400001928E-02 0.  1.
    10030    2    1    2    0    0  0.00000000000E+00  0.00000000000E+00  0.18932148756E+03  0.10062203387E+04  0.98824933309E+03 0.  0.
        3    1    3    3  502    0 -0.91153168360E+01 -0.49173753780E+03  0.14317466177E+03  0.51223811754E+03  0.10100000352E+00 0.  1.
       -3    1    3    3    0  502  0.91153168360E+01  0.49173753780E+03  0.46146825790E+02  0.49398222115E+03  0.10100000352E+00 0. -1.
</event>
<event>
 5   0  0.9674819E-04  0.9999455E+03  0.7818609E-02  0.9308605E-01
        2   -1    0    0  501    0  0.00000000000E+00  0.00000000000E+00  0.62141893904E+03  0.62141893905E+03  0.25500000920E-02 0. -1.
       -2   -1    0    0    0  501  0.00000000000E+00  0.00000000000E+00 -0.40226126260E+03  0.40226126261E+03  0.25500000920E-02 0.  1.
    10030    2    1    2    0    0  0.00000000000E+00  0.00000000000E+00  0.21915767645E+03  0.10236802017E+04  0.99994553258E+03 0.  0.
        4    1    3    3  502    0 -0.34282120560E+03 -0.26343559538E+03  0.36662925969E+03  0.56687151885E+03  0.12699999809E+01 0. -1.
       -4    1    3    3    0  502  0.34282120560E+03  0.26343559538E+03 -0.14747158324E+03  0.45680868281E+03  0.12699999809E+01 0.  1.
</event>
<event>
 5   0  0.5888774E-04  0.9994982E+03  0.7818609E-02  0.9309095E-01
       -1   -1    0    0    0  501  0.00000000000E+00  0.00000000000E+00  0.37858336903E+03  0.37858336907E+03  0.50400001928E-02 0. -1.
        1   -1    0    0  501    0  0.00000000000E+00  0.00000000000E+00 -0.65969393499E+03  0.65969393500E+03  0.50400001928E-02 0.  1.
    10030    2    1    2    0    0  0.00000000000E+00  0.00000000000E+00 -0.28111056595E+03  0.10382773041E+04  0.99949817902E+03 0.  0.
        2    1    3    3  502    0 -0.32493168388E+03  0.35939152109E+03 -0.13302294651E+02  0.48468527486E+03  0.25500000920E-02 0. -1.
       -2    1    3    3    0  502  0.32493168388E+03 -0.35939152109E+03 -0.26780827130E+03  0.55359202921E+03  0.25500000920E-02 0.  1.
</event>
<event>
 5   0  0.1006006E-03  0.9998371E+03  0.7818609E-02  0.9308723E-01
        2   -1    0    0  501    0  0.00000000000E+00  0.00000000000E+00  0.10911018156E+04  0.10911018156E+04  0.25500000920E-02 0.  1.
       -2   -1    0    0    0  501  0.00000000000E+00  0.00000000000E+00 -0.22905154987E+03  0.22905154989E+03  0.25500000920E-02 0. -1.
    10030    2    1    2    0    0  0.00000000000E+00  0.00000000000E+00  0.86205026577E+03  0.13201533655E+04  0.99983711065E+03 0.  0.
        2    1    3    3  502    0  0.30714849283E+03  0.29425984007E+03  0.84219078287E+02  0.43361492511E+03  0.25500000920E-02 0. -1.
       -2    1    3    3    0  502 -0.30714849283E+03 -0.29425984007E+03  0.77783118748E+03  0.88653844043E+03  0.25500000920E-02 0.  1.
</event>
<event>
 5   0  0.5826939E-04  0.9990597E+03  0.7818609E-02  0.9309577E-01
       -1   -1    0    0    0  501  0.00000000000E+00  0.00000000000E+00  0.51372355876E+03  0.51372355878E+03  0.50400001928E-02 0. -1.
        1   -1    0    0  501    0  0.00000000000E+00  0.00000000000E+00 -0.48572829812E+03  0.48572829815E+03  0.50400001928E-02 0.  1.
    10030    2    1    2    0    0  0.00000000000E+00  0.00000000000E+00  0.27995260633E+02  0.99945185693E+03  0.99905969777E+03 0.  0.
        1    1    3    3  502    0 -0.29834603947E+03  0.20822499592E+03  0.35642143002E+03  0.50931742950E+03  0.50400001928E-02 0. -1.
       -1    1    3    3    0  502  0.29834603947E+03 -0.20822499592E+03 -0.32842616939E+03  0.49013442743E+03  0.50400001928E-02 0.  1.
</event>
<event>
 5   0  0.1006006E-03  0.1001736E+04  0.7818609E-02  0.9306643E-01
       -2   -1    0    0    0  501  0.00000000000E+00  0.00000000000E+00  0.20354706980E+03  0.20354706982E+03  0.25500000920E-02 0.  1.
        2   -1    0    0  501    0  0.00000000000E+00  0.00000000000E+00 -0.12324847314E+04  0.12324847314E+04  0.25500000920E-02 0. -1.
    10030    2    1    2    0    0  0.00000000000E+00  0.00000000000E+00 -0.10289376616E+04  0.14360318012E+04  0.10017358048E+04 0.  0.
        2    1    3    3  502    0 -0.29437469157E+03 -0.33364323536E+03 -0.84416633486E+03  0.95424895518E+03  0.25500000920E-02 0. -1.
       -2    1    3    3    0  502  0.29437469157E+03  0.33364323536E+03 -0.18477132671E+03  0.48178284602E+03  0.25500000920E-02 0.  1.
</event>
<event>
 5   0  0.1020150E-03  0.1000404E+04  0.7818609E-02  0.9308101E-01
        2   -1    0    0  501    0  0.00000000000E+00  0.00000000000E+00  0.84513137894E+03  0.84513137894E+03  0.25500000920E-02 0.  1.
       -2   -1    0    0    0  501  0.00000000000E+00  0.00000000000E+00 -0.29605129187E+03  0.29605129188E+03  0.25500000920E-02 0. -1.
    10030    2    1    2    0    0  0.00000000000E+00  0.00000000000E+00  0.54908008707E+03  0.11411826708E+04  0.10004043913E+04 0.  0.
        5    1    3    3  502    0  0.38515002832E+03 -0.30476005673E+03  0.16655698167E+03  0.51863528094E+03  0.46999998093E+01 0.  1.
       -5    1    3    3    0  502 -0.38515002832E+03  0.30476005673E+03  0.38252310540E+03  0.62254738989E+03  0.46999998093E+01 0. -1.
</event>
<event>
 5   0  0.1020150E-03  0.9999594E+03  0.7818609E-02  0.9308589E-01
       -2   -1    0    0    0  501  0.00000000000E+00  0.00000000000E+00  0.23256335859E+03  0.23256335860E+03  0.25500000920E-02 0. -1.
        2   -1    0    0  501    0  0.00000000000E+00  0.00000000000E+00 -0.10748886272E+04  0.10748886272E+04  0.25500000920E-02 0.  1.
    10030    2    1    2    0    0  0.00000000000E+00  0.00000000000E+00 -0.84232526861E+03  0.13074519858E+04  0.99995941770E+03 0.  0.
        5    1    3    3  502    0 -0.38218113194E+03 -0.19960902273E+03 -0.90254211234E+02  0.44053841173E+03  0.46999998093E+01 0. -1.
       -5    1    3    3    0  502  0.38218113194E+03  0.19960902273E+03 -0.75207105737E+03  0.86691357407E+03  0.46999998093E+01 0.  1.
</event>
<event>
 5   0  0.1020150E-03  0.1000071E+04  0.7818609E-02  0.9308467E-01
        2   -1    0    0  501    0  0.00000000000E+00  0.00000000000E+00  0.10941383083E+04  0.10941383083E+04  0.25500000920E-02 0.  1.
       -2   -1    0    0    0  501  0.00000000000E+00  0.00000000000E+00 -0.22852260446E+03  0.22852260447E+03  0.25500000920E-02 0. -1.
    10030    2    1    2    0    0  0.00000000000E+00  0.00000000000E+00  0.86561570384E+03  0.13226609128E+04  0.10000706692E+04 0.  0.
        5    1    3    3  502    0  0.30578773341E+03 -0.20114939381E+03  0.88334745474E+03  0.95618619124E+03  0.46999998093E+01 0.  1.
       -5    1    3    3    0  502 -0.30578773341E+03  0.20114939381E+03 -0.17731750901E+02  0.36647472153E+03  0.46999998093E+01 0. -1.
</event>
<event>
 5   0  0.5826939E-04  0.1000486E+04  0.7818609E-02  0.9308012E-01
        1   -1    0    0  501    0  0.00000000000E+00  0.00000000000E+00  0.11908923689E+04  0.11908923689E+04  0.50400001928E-02 0.  1.
       -1   -1    0    0    0  501  0.00000000000E+00  0.00000000000E+00 -0.21013057790E+03  0.21013057797E+03  0.50400001928E-02 0. -1.
    10030    2    1    2    0    0  0.00000000000E+00  0.00000000000E+00  0.98076179095E+03  0.14010229468E+04  0.10004856855E+04 0.  0.
        1    1    3    3  502    0  0.36130082654E+03  0.28775248362E+03  0.75938934869E+03  0.88882617087E+03  0.50400001928E-02 0. -1.
       -1    1    3    3    0  502 -0.36130082654E+03 -0.28775248362E+03  0.22137244226E+03  0.51219677596E+03  0.50400001928E-02 0.  1.
</event>
<event>
 5   0  0.5758786E-04  0.1000412E+04  0.7818609E-02  0.9308093E-01
       -1   -1    0    0    0  501  0.00000000000E+00  0.00000000000E+00  0.23791931685E+03  0.23791931690E+03  0.50400001928E-02 0. -1.
        1   -1    0    0  501    0  0.00000000000E+00  0.00000000000E+00 -0.10516424540E+04  0.10516424540E+04  0.50400001928E-02 0.  1.
    10030    2    1    2    0    0  0.00000000000E+00  0.00000000000E+00 -0.81372313715E+03  0.12895617709E+04  0.10004120237E+04 0.  0.
        3    1    3    3  502    0 -0.10603620235E+03  0.48607813210E+03 -0.34000053670E+03  0.60259107351E+03  0.10100000352E+00 0.  1.
       -3    1    3    3    0  502  0.10603620235E+03 -0.48607813210E+03 -0.47372260045E+03  0.68697069741E+03  0.10100000352E+00 0. -1.
</event>
<event>
 5   0  0.5758786E-04  0.9936487E+03  0.7818609E-02  0.9315538E-01
       -1   -1    0    0    0  501  0.00000000000E+00  0.00000000000E+00  0.24129112229E+03  0.24129112234E+03  0.50400001928E-02 0.  1.
        1   -1    0    0  501    0  0.00000000000E+00  0.00000000000E+00 -0.10229735016E+04  0.10229735016E+04  0.50400001928E-02 0. -1.
    10030    2    1    2    0    0  0.00000000000E+00  0.00000000000E+00 -0.78168237935E+03  0.12642646240E+04  0.99364867901E+03 0.  0.
        3    1    3    3  502    0 -0.11454786668E+03 -0.38123522331E+03 -0.12603596125E+02  0.39827172896E+03  0.10100000352E+00 0.  1.
       -3    1    3    3    0  502  0.11454786668E+03  0.38123522331E+03 -0.76907878322E+03  0.86599289504E+03  0.10100000352E+00 0. -1.
</event>
<event>
 5   0  0.1006749E-03  0.1000154E+04  0.7818609E-02  0.9308376E-01
        2   -1    0    0  501    0  0.00000000000E+00  0.00000000000E+00  0.15378661181E+04  0.15378661181E+04  0.25500000920E-02 0.  1.
       -2   -1    0    0    0  501  0.00000000000E+00  0.00000000000E+00 -0.16261295453E+03  0.16261295455E+03  0.25500000920E-02 0. -1.
    10030    2    1    2    0    0  0.00000000000E+00  0.00000000000E+00  0.13752531636E+04  0.17004790727E+04  0.10001538945E+04 0.  0.
        1    1    3    3  502    0 -0.14160980025E+03  0.29117303822E+02  0.15015599240E+04  0.15085036819E+04  0.50400001928E-02 0.  1.
       -1    1    3    3    0  502  0.14160980025E+03 -0.29117303822E+02 -0.12630676042E+03  0.19197539077E+03  0.50400001928E-02 0. -1.
</event>
<event>
 5   0  0.5960102E-04  0.1001193E+04  0.7818609E-02  0.9307237E-01
        1   -1    0    0  501    0  0.00000000000E+00  0.00000000000E+00  0.14738920336E+04  0.14738920336E+04  0.50400001928E-02 0. -1.
       -1   -1    0    0    0  501  0.00000000000E+00  0.00000000000E+00 -0.17002389910E+03  0.17002389917E+03  0.50400001928E-02 0.  1.
    10030    2    1    2    0    0  0.00000000000E+00  0.00000000000E+00  0.13038681345E+04  0.16439159328E+04  0.10011930293E+04 0.  0.
        5    1    3    3  502    0 -0.18657005395E+03 -0.44877549412E+03  0.84874267881E+03  0.97805626319E+03  0.46999998093E+01 0.  1.
       -5    1    3    3    0  502  0.18657005395E+03  0.44877549412E+03  0.45512545568E+03  0.66585966957E+03  0.46999998093E+01 0. -1.
</event>
<event>
 5   0  0.1006749E-03  0.1000200E+04  0.7818609E-02  0.9308325E-01
        2   -1    0    0  501    0  0.00000000000E+00  0.00000000000E+00  0.54766589537E+03  0.54766589537E+03  0.25500000920E-02 0. -1.
       -2   -1    0    0    0  501  0.00000000000E+00  0.00000000000E+00 -0.45666563620E+03  0.45666563621E+03  0.25500000920E-02 0.  1.
    10030    2    1    2    0    0  0.00000000000E+00  0.00000000000E+00  0.91000259164E+02  0.10043315316E+04  0.10002003690E+04 0.  0.
        1    1    3    3  502    0  0.49267366536E+03 -0.81844707527E+02  0.19425630858E+02  0.49980321312E+03  0.50400001928E-02 0. -1.
       -1    1    3    3    0  502 -0.49267366536E+03  0.81844707527E+02  0.71574628306E+02  0.50452831846E+03  0.50400001928E-02 0.  1.
</event>
<event>
 5   0  0.9741826E-04  0.9999598E+03  0.7818609E-02  0.9308589E-01
        2   -1    0    0  501    0  0.00000000000E+00  0.00000000000E+00  0.23422528243E+04  0.23422528243E+04  0.25500000920E-02 0.  1.
       -2   -1    0    0    0  501  0.00000000000E+00  0.00000000000E+00 -0.10672625658E+03  0.10672625662E+03  0.25500000920E-02 0. -1.
    10030    2    1    2    0    0  0.00000000000E+00  0.00000000000E+00  0.22355265677E+04  0.24489790810E+04  0.99995975110E+03 0.  0.
        3    1    3    3  502    0  0.43687174649E+03 -0.10620686450E+03  0.58207523040E+03  0.73549194761E+03  0.10100000352E+00 0. -1.
       -3    1    3    3    0  502 -0.43687174649E+03  0.10620686450E+03  0.16534513373E+04  0.17134871333E+04  0.10100000352E+00 0.  1.
</event>
<event>
 5   0  0.1006006E-03  0.1001412E+04  0.7818609E-02  0.9306997E-01
       -2   -1    0    0    0  501  0.00000000000E+00  0.00000000000E+00  0.59702146689E+03  0.59702146690E+03  0.25500000920E-02 0. -1.
        2   -1    0    0  501    0  0.00000000000E+00  0.00000000000E+00 -0.41992915106E+03  0.41992915107E+03  0.25500000920E-02 0.  1.
    10030    2    1    2    0    0  0.00000000000E+00  0.00000000000E+00  0.17709231583E+03  0.10169506180E+04  0.10014124380E+04 0.  0.
        2    1    3    3  502    0  0.20343875634E+03 -0.43834262982E+03 -0.44541225891E+02  0.48529940192E+03  0.25500000920E-02 0.  1.
       -2    1    3    3    0  502 -0.20343875634E+03  0.43834262982E+03  0.22163354172E+03  0.53165121604E+03  0.25500000920E-02 0. -1.
</event>
<event>
 5   0  0.5888774E-04  0.9861382E+03  0.7818609E-02  0.9323880E-01
        1   -1    0    0  501    0  0.00000000000E+00  0.00000000000E+00  0.95637112546E+03  0.95637112547E+03  0.50400001928E-02 0.  1.
       -1   -1    0    0    0  501  0.00000000000E+00  0.00000000000E+00 -0.25420793424E+03  0.25420793429E+03  0.50400001928E-02 0. -1.
    10030    2    1    2    0    0  0.00000000000E+00  0.00000000000E+00  0.70216319122E+03  0.12105790598E+04  0.98613818140E+03 0.  0.
        2    1    3    3  502    0 -0.38258218629E+03 -0.28416745909E+03  0.19581691459E+03  0.51523250879E+03  0.25500000920E-02 0.  1.
       -2    1    3    3    0  502  0.38258218629E+03  0.28416745909E+03  0.50634627663E+03  0.69534655096E+03  0.25500000920E-02 0. -1.
</event>
<event>
 5   0  0.1020150E-03  0.9982992E+03  0.7818609E-02  0.9310412E-01
        2   -1    0    0  501    0  0.00000000000E+00  0.00000000000E+00  0.10271739729E+04  0.10271739729E+04  0.25500000920E-02 0. -1.
       -2   -1    0    0    0  501  0.00000000000E+00  0.00000000000E+00 -0.24255903576E+03  0.24255903577E+03  0.25500000920E-02 0.  1.
    10030    2    1    2    0    0  0.00000000000E+00  0.00000000000E+00  0.78461493712E+03  0.12697330086E+04  0.99829921051E+03 0.  0.
        5    1    3    3  502    0  0.18235262013E+03  0.39322049389E+03  0.77520464072E+02  0.44034798425E+03  0.46999998093E+01 0.  1.
       -5    1    3    3    0  502 -0.18235262013E+03 -0.39322049389E+03  0.70709447305E+03  0.82938502440E+03  0.46999998093E+01 0. -1.
</event>
<event>
 5   0  0.3854625E-04  0.1003319E+04  0.7818609E-02  0.9304912E-01
       -3   -1    0    0    0  501  0.00000000000E+00  0.00000000000E+00  0.33163337669E+03  0.33163339207E+03  0.10100000352E+00 0.  1.
        3   -1    0    0  501    0  0.00000000000E+00  0.00000000000E+00 -0.75885717127E+03  0.75885717800E+03  0.10100000352E+00 0. -1.
    10030    2    1    2    0    0  0.00000000000E+00  0.00000000000E+00 -0.42722379458E+03  0.10904905701E+04  0.10033192477E+04 0.  0.
        4    1    3    3  502    0 -0.41242241713E+03  0.45649310513E+02  0.92813260882E+02  0.42519645341E+03  0.12699999809E+01 0.  1.
       -4    1    3    3    0  502  0.41242241713E+03 -0.45649310513E+02 -0.52003705547E+03  0.66529411665E+03  0.12699999809E+01 0. -1.
</event>
<event>
 5   0  0.1020150E-03  0.9993622E+03  0.7818609E-02  0.9309245E-01
       -2   -1    0    0    0  501  0.00000000000E+00  0.00000000000E+00  0.17021210586E+03  0.17021210588E+03  0.25500000920E-02 0.  1.
        2   -1    0    0  501    0  0.00000000000E+00  0.00000000000E+00 -0.14668826674E+04  0.14668826674E+04  0.25500000920E-02 0. -1.
    10030    2    1    2    0    0  0.00000000000E+00  0.00000000000E+00 -0.12966705615E+04  0.16370947733E+04  0.99936217235E+03 0.  0.
        5    1    3    3  502    0  0.46699491221E+02 -0.36149669431E+03 -0.88488283063E+02  0.37511727328E+03  0.46999998093E+01 0.  1.
       -5    1    3    3    0  502 -0.46699491221E+02  0.36149669431E+03 -0.12081822785E+04  0.12619775000E+04  0.46999998093E+01 0. -1.
</event>
<event>
 5   0  0.1006749E-03  0.1001897E+04  0.7818609E-02  0.9306466E-01
       -2   -1    0    0    0  501  0.00000000000E+00  0.00000000000E+00  0.34448838179E+03  0.34448838180E+03  0.25500000920E-02 0. -1.
        2   -1    0    0  501    0  0.00000000000E+00  0.00000000000E+00 -0.72847025007E+03  0.72847025007E+03  0.25500000920E-02 0.  1.
    10030    2    1    2    0    0  0.00000000000E+00  0.00000000000E+00 -0.38398186828E+03  0.10729586319E+04  0.10018972754E+04 0.  0.
        1    1    3    3  502    0  0.41479516831E+03  0.27855231602E+03 -0.15333191298E+03  0.52264433411E+03  0.50400001928E-02 0.  1.
       -1    1    3    3    0  502 -0.41479516831E+03 -0.27855231602E+03 -0.23064995530E+03  0.55031429776E+03  0.50400001928E-02 0. -1.
</event>
<event>
 5   0  0.9674819E-04  0.9978528E+03  0.7818609E-02  0.9310903E-01
       -2   -1    0    0    0  501  0.00000000000E+00  0.00000000000E+00  0.30078954538E+03  0.30078954539E+03  0.25500000920E-02 0.  1.
        2   -1    0    0  501    0  0.00000000000E+00  0.00000000000E+00 -0.82758052518E+03  0.82758052519E+03  0.25500000920E-02 0. -1.
    10030    2    1    2    0    0  0.00000000000E+00  0.00000000000E+00 -0.52679097980E+03  0.11283700706E+04  0.99785283473E+03 0.  0.
        4    1    3    3  502    0 -0.17962521735E+03 -0.70814294193E+02  0.25682825520E+03  0.32131331834E+03  0.12699999809E+01 0.  1.
       -4    1    3    3    0  502  0.17962521735E+03  0.70814294193E+02 -0.78361923500E+03  0.80705675224E+03  0.12699999809E+01 0. -1.
</event>
<event>
 5   0  0.5888774E-04  0.9892056E+03  0.7818609E-02  0.9320464E-01
       -1   -1    0    0    0  501  0.00000000000E+00  0.00000000000E+00  0.74637558288E+03  0.74637558290E+03  0.50400001928E-02 0. -1.
        1   -1    0    0  501    0  0.00000000000E+00  0.00000000000E+00 -0.32775982178E+03  0.32775982181E+03  0.50400001928E-02 0.  1.
    10030    2    1    2    0    0  0.00000000000E+00  0.00000000000E+00  0.41861576111E+03  0.10741354047E+04  0.98920559653E+03 0.  0.
        2    1    3    3  502    0  0.46287843075E+03 -0.64844319923E+02  0.38497081815E+03  0.60552766932E+03  0.25500000920E-02 0. -1.
       -2    1    3    3    0  502 -0.46287843075E+03  0.64844319923E+02  0.33644942955E+02  0.46860773539E+03  0.25500000920E-02 0.  1.
</event>
<event>
 5   0  0.5888774E-04  0.1000175E+04  0.7818609E-02  0.9308352E-01
        1   -1    0    0  501    0  0.00000000000E+00  0.00000000000E+00  0.17172895643E+03  0.17172895650E+03  0.50400001928E-02 0. -1.
       -1   -1    0    0    0  501  0.00000000000E+00  0.00000000000E+00 -0.14562933226E+04  0.14562933226E+04  0.50400001928E-02 0.  1.
    10030    2    1    2    0    0  0.00000000000E+00  0.00000000000E+00 -0.12845643662E+04  0.16280222791E+04  0.10001754498E+04 0.  0.
        2    1    3    3  502    0 -0.38915750142E+03 -0.28992600871E+03 -0.44568904577E+03  0.65889253826E+03  0.25500000920E-02 0. -1.
       -2    1    3    3    0  502  0.38915750142E+03  0.28992600871E+03 -0.83887532043E+03  0.96912974089E+03  0.25500000920E-02 0.  1.
</event>
<event>
 5   0  0.1020150E-03  0.1001152E+04  0.7818609E-02  0.9307283E-01
       -2   -1    0    0    0  501  0.00000000000E+00  0.00000000000E+00  0.62385354470E+03  0.62385354471E+03  0.25500000920E-02 0.  1.
        2   -1    0    0  501    0  0.00000000000E+00  0.00000000000E+00 -0.40165866594E+03  0.40165866595E+03  0.25500000920E-02 0. -1.
    10030    2    1    2    0    0  0.00000000000E+00  0.00000000000E+00  0.22219487876E+03  0.10255122107E+04  0.10011517018E+04 0.  0.
        5    1    3    3  502    0 -0.30494542464E+03  0.15925114787E+03 -0.26134491137E+03  0.43206005694E+03  0.46999998093E+01 0. -1.
       -5    1    3    3    0  502  0.30494542464E+03 -0.15925114787E+03  0.48353979013E+03  0.59345215371E+03  0.46999998093E+01 0.  1.
</event>
<event>
 5   0  0.9741826E-04  0.1000172E+04  0.7818609E-02  0.9308356E-01
        2   -1    0    0  501    0  0.00000000000E+00  0.00000000000E+00  0.43779271906E+03  0.43779271907E+03  0.25500000920E-02 0. -1.
       -2   -1    0    0    0  501  0.00000000000E+00  0.00000000000E+00 -0.57124275738E+03  0.57124275738E+03  0.25500000920E-02 0.  1.
    10030    2    1    2    0    0  0.00000000000E+00  0.00000000000E+00 -0.13345003831E+03  0.10090354765E+04  0.10001718252E+04 0.  0.
        3    1    3    3  502    0 -0.83913317724E+01  0.46758045109E+03 -0.24545034000E+03  0.52815506463E+03  0.10100000352E+00 0.  1.
       -3    1    3    3    0  502  0.83913317724E+01 -0.46758045109E+03  0.11200030168E+03  0.48088041182E+03  0.10100000352E+00 0. -1.
</event>
<event>
 5   0  0.5888774E-04  0.9995427E+03  0.7818609E-02  0.9309047E-01
        1   -1    0    0  501    0  0.00000000000E+00  0.00000000000E+00  0.45139610327E+03  0.45139610329E+03  0.50400001928E-02 0. -1.
       -1   -1    0    0    0  501  0.00000000000E+00  0.00000000000E+00 -0.55333082711E+03  0.55333082713E+03  0.50400001928E-02 0.  1.
    10030    2    1    2    0    0  0.00000000000E+00  0.00000000000E+00 -0.10193472384E+03  0.10047269304E+04  0.99954265382E+03 0.  0.
        2    1    3    3  502    0 -0.84534135385E+02  0.33290434147E+03  0.31395839132E+03  0.46533986731E+03  0.25500000920E-02 0. -1.
       -2    1    3    3    0  502  0.84534135385E+02 -0.33290434147E+03 -0.41589311517E+03  0.53938706312E+03  0.25500000920E-02 0.  1.
</event>
<event>
 5   0  0.9674819E-04  0.1001061E+04  0.7818609E-02  0.9307382E-01
        2   -1    0    0  501    0  0.00000000000E+00  0.00000000000E+00  0.15375287359E+04  0.15375287359E+04  0.25500000920E-02 0.  1.
       -2   -1    0    0    0  501  0.00000000000E+00  0.00000000000E+00 -0.16294390543E+03  0.16294390545E+03  0.25500000920E-02 0. -1.
    10030    2    1    2    0    0  0.00000000000E+00  0.00000000000E+00  0.13745848304E+04  0.17004726413E+04  0.10010613107E+04 0.  0.
        4    1    3    3  502    0 -0.48353978329E+03 -0.11967315598E+03  0.77045679460E+03  0.91746262678E+03  0.12699999809E+01 0. -1.
       -4    1    3    3    0  502  0.48353978329E+03  0.11967315598E+03  0.60412803584E+03  0.78301001454E+03  0.12699999809E+01 0.  1.
</event>
<event>
 5   0  0.5888774E-04  0.1000913E+04  0.7818609E-02  0.9307544E-01
        1   -1    0    0  501    0  0.00000000000E+00  0.00000000000E+00  0.84424125314E+03  0.84424125315E+03  0.50400001928E-02 0. -1.
       -1   -1    0    0    0  501  0.00000000000E+00  0.00000000000E+00 -0.29666505819E+03  0.29666505823E+03  0.50400001928E-02 0.  1.
    10030    2    1    2    0    0  0.00000000000E+00  0.00000000000E+00  0.54757619495E+03  0.11409063114E+04  0.10009133439E+04 0.  0.
        2    1    3    3  502    0  0.33405786184E+03  0.31359022618E+03  0.44328399556E+02  0.46032433352E+03  0.25500000920E-02 0.  1.
       -2    1    3    3    0  502 -0.33405786184E+03 -0.31359022618E+03  0.50324779540E+03  0.68058197786E+03  0.25500000920E-02 0. -1.
</event>
<event>
 5   0  0.5758786E-04  0.1001805E+04  0.7818609E-02  0.9306568E-01
       -1   -1    0    0    0  501  0.00000000000E+00  0.00000000000E+00  0.49129136724E+03  0.49129136727E+03  0.50400001928E-02 0. -1.
        1   -1    0    0  501    0  0.00000000000E+00  0.00000000000E+00 -0.51070139093E+03  0.51070139096E+03  0.50400001928E-02 0.  1.
    10030    2    1    2    0    0  0.00000000000E+00  0.00000000000E+00 -0.19410023690E+02  0.10019927582E+04  0.10018047407E+04 0.  0.
        3    1    3    3  502    0  0.13546731256E+03  0.38203594357E+03  0.28462954036E+03  0.49529470055E+03  0.10100000352E+00 0. -1.
       -3    1    3    3    0  502 -0.13546731256E+03 -0.38203594357E+03 -0.30403956405E+03  0.50669805768E+03  0.10100000352E+00 0.  1.
</event>
<event>
 5   0  0.1006749E-03  0.9998863E+03  0.7818609E-02  0.9308670E-01
        2   -1    0    0  501    0  0.00000000000E+00  0.00000000000E+00  0.41375030606E+03  0.41375030607E+03  0.25500000920E-02 0. -1.
       -2   -1    0    0    0  501  0.00000000000E+00  0.00000000000E+00 -0.60409176847E+03  0.60409176847E+03  0.25500000920E-02 0.  1.
    10030    2    1    2    0    0  0.00000000000E+00  0.00000000000E+00 -0.19034146241E+03  0.10178420745E+04  0.99988630173E+03 0.  0.
        1    1    3    3  502    0 -0.37763439024E+03  0.32431425726E+03 -0.47907618327E+02  0.50008260325E+03  0.50400001928E-02 0. -1.
       -1    1    3    3    0  502  0.37763439024E+03 -0.32431425726E+03 -0.14243384408E+03  0.51775947130E+03  0.50400001928E-02 0.  1.
</event>
<event>
 5   0  0.5888774E-04  0.1011177E+04  0.7818609E-02  0.9296370E-01
       -1   -1    0    0    0  501  0.00000000000E+00  0.00000000000E+00  0.19583799892E+03  0.19583799899E+03  0.50400001928E-02 0.  1.
        1   -1    0    0  501    0  0.00000000000E+00  0.00000000000E+00 -0.13052611938E+04  0.13052611938E+04  0.50400001928E-02 0. -1.
    10030    2    1    2    0    0  0.00000000000E+00  0.00000000000E+00 -0.11094231949E+04  0.15010991928E+04  0.10111770178E+04 0.  0.
        2    1    3    3  502    0  0.38315749927E+03  0.29130826940E+03 -0.32497456864E+03  0.58075696065E+03  0.25500000920E-02 0.  1.
       -2    1    3    3    0  502 -0.38315749927E+03 -0.29130826940E+03 -0.78444862628E+03  0.92034223218E+03  0.25500000920E-02 0. -1.
</event>
<event>
 5   0  0.1006749E-03  0.9996201E+03  0.7818609E-02  0.9308962E-01
       -2   -1    0    0    0  501  0.00000000000E+00  0.00000000000E+00  0.29277021554E+03  0.29277021555E+03  0.25500000920E-02 0.  1.
        2   -1    0    0  501    0  0.00000000000E+00  0.00000000000E+00 -0.85326335649E+03  0.85326335649E+03  0.25500000920E-02 0. -1.
    10030    2    1    2    0    0  0.00000000000E+00  0.00000000000E+00 -0.56049314095E+03  0.11460335720E+04  0.99962012144E+03 0.  0.
        1    1    3    3  502    0  0.11508168526E+03 -0.48501499057E+03 -0.32200640480E+03  0.59344035936E+03  0.50400001928E-02 0. -1.
       -1    1    3    3    0  502 -0.11508168526E+03  0.48501499057E+03 -0.23848673615E+03  0.55259321268E+03  0.50400001928E-02 0.  1.
</event>
<event>
 5   0  0.9741826E-04  0.1002564E+04  0.7818609E-02  0.9305738E-01
       -2   -1    0    0    0  501  0.00000000000E+00  0.00000000000E+00  0.20935749217E+03  0.20935749219E+03  0.25500000920E-02 0.  1.
        2   -1    0    0  501    0  0.00000000000E+00  0.00000000000E+00 -0.12002601319E+04  0.12002601319E+04  0.25500000920E-02 0. -1.
    10030    2    1    2    0    0  0.00000000000E+00  0.00000000000E+00 -0.99090263968E+03  0.14096176240E+04  0.10025636163E+04 0.  0.
        3    1    3    3  502    0  0.28091946201E+03 -0.40453035861E+03 -0.36413476677E+03  0.61249872959E+03  0.10100000352E+00 0.  1.
       -3    1    3    3    0  502 -0.28091946201E+03  0.40453035861E+03 -0.62676787291E+03  0.79711889445E+03  0.10100000352E+00 0. -1.
</event>
<event>
 5   0  0.5826939E-04  0.9998881E+03  0.7818609E-02  0.9308667E-01
       -1   -1    0    0    0  501  0.00000000000E+00  0.00000000000E+00  0.23794809130E+03  0.23794809135E+03  0.50400001928E-02 0.  1.
        1   -1    0    0  501    0  0.00000000000E+00  0.00000000000E+00 -0.10504143007E+04  0.10504143007E+04  0.50400001928E-02 0. -1.
    10030    2    1    2    0    0  0.00000000000E+00  0.00000000000E+00 -0.81246620940E+03  0.12883623921E+04  0.99988814967E+03 0.  0.
        1    1    3    3  502    0  0.31375311823E+03  0.36937410494E+03 -0.24807802714E+03  0.54444554933E+03  0.50400001928E-02 0.  1.
       -1    1    3    3    0  502 -0.31375311823E+03 -0.36937410494E+03 -0.56438818226E+03  0.74391684273E+03  0.50400001928E-02 0. -1.
</event>
<event>
 5   0  0.5826939E-04  0.9989443E+03  0.7818609E-02  0.9309703E-01
        1   -1    0    0  501    0  0.00000000000E+00  0.00000000000E+00  0.32357282494E+03  0.32357282498E+03  0.50400001928E-02 0.  1.
       -1   -1    0    0    0  501  0.00000000000E+00  0.00000000000E+00 -0.77099310675E+03  0.77099310677E+03  0.50400001928E-02 0. -1.
    10030    2    1    2    0    0  0.00000000000E+00  0.00000000000E+00 -0.44742028181E+03  0.10945659318E+04  0.99894427791E+03 0.  0.
        1    1    3    3  502    0  0.35129514163E+03  0.17718470811E+03  0.11342669766E+03  0.40947321413E+03  0.50400001928E-02 0.  1.
       -1    1    3    3    0  502 -0.35129514163E+03 -0.17718470811E+03 -0.56084697947E+03  0.68509271762E+03  0.50400001928E-02 0. -1.
</event>
<event>
 5   0  0.1006749E-03  0.9962114E+03  0.7818609E-02  0.9312710E-01
       -2   -1    0    0    0  501  0.00000000000E+00  0.00000000000E+00  0.24344904855E+03  0.24344904856E+03  0.25500000920E-02 0.  1.
        2   -1    0    0  501    0  0.00000000000E+00  0.00000000000E+00 -0.10191426407E+04  0.10191426407E+04  0.25500000920E-02 0. -1.
    10030    2    1    2    0    0  0.00000000000E+00  0.00000000000E+00 -0.77569359219E+03  0.12625916893E+04  0.99621143585E+03 0.  0.
        1    1    3    3  502    0 -0.12929579781E+03  0.40681195304E+03 -0.71318924012E+03  0.83117522865E+03  0.50400001928E-02 0. -1.
       -1    1    3    3    0  502  0.12929579781E+03 -0.40681195304E+03 -0.62504352069E+02  0.43141646065E+03  0.50400001928E-02 0.  1.
</event>
<event>
 5   0  0.5888774E-04  0.9999660E+03  0.7818609E-02  0.9308582E-01
        1   -1    0    0  501    0  0.00000000000E+00  0.00000000000E+00  0.36222423098E+03  0.36222423101E+03  0.50400001928E-02 0. -1.
       -1   -1    0    0    0  501  0.00000000000E+00  0.00000000000E+00 -0.69013335621E+03  0.69013335623E+03  0.50400001928E-02 0.  1.
    10030    2    1    2    0    0  0.00000000000E+00  0.00000000000E+00 -0.32790912524E+03  0.10523575872E+04  0.99996604793E+03 0.  0.
        2    1    3    3  502    0 -0.19659901167E+03  0.73121807358E+02  0.31368021040E+03  0.37735029416E+03  0.25500000920E-02 0. -1.
       -2    1    3    3    0  502  0.19659901167E+03 -0.73121807358E+02 -0.64158933564E+03  0.67500729308E+03  0.25500000920E-02 0.  1.
</event>
<event>
 5   0  0.5826939E-04  0.1003763E+04  0.7818609E-02  0.9304427E-01
       -1   -1    0    0    0  501  0.00000000000E+00  0.00000000000E+00  0.29281389593E+03  0.29281389597E+03  0.50400001928E-02 0.  1.
        1   -1    0    0  501    0  0.00000000000E+00  0.00000000000E+00 -0.86022280884E+03  0.86022280886E+03  0.50400001928E-02 0. -1.
    10030    2    1    2    0    0  0.00000000000E+00  0.00000000000E+00 -0.56740891291E+03  0.11530367048E+04  0.10037633029E+04 0.  0.
        1    1    3    3  502    0  0.48025043312E+01  0.26624383283E+03 -0.77238239176E+03  0.81699657386E+03  0.50400001928E-02 0. -1.
       -1    1    3    3    0  502 -0.48025043312E+01 -0.26624383283E+03  0.20497347885E+03  0.33604013097E+03  0.50400001928E-02 0.  1.
</event>
<event>
 5   0  0.9741826E-04  0.9983890E+03  0.7818609E-02  0.9310313E-01
       -2   -1    0    0    0  501  0.00000000000E+00  0.00000000000E+00  0.45188204476E+03  0.45188204477E+03  0.25500000920E-02 0.  1.
        2   -1    0    0  501    0  0.00000000000E+00  0.00000000000E+00 -0.55146064089E+03  0.55146064090E+03  0.25500000920E-02 0. -1.
    10030    2    1    2    0    0  0.00000000000E+00  0.00000000000E+00 -0.99578596131E+02  0.10033426857E+04  0.99838902642E+03 0.  0.
        3    1    3    3  502    0 -0.27013465694E+03 -0.62639622424E+02  0.36735900980E+03  0.46027068933E+03  0.10100000352E+00 0.  1.
       -3    1    3    3    0  502  0.27013465694E+03  0.62639622424E+02 -0.46693760593E+03  0.54307199634E+03  0.10100000352E+00 0. -1.
</event>
<event>
 5   0  0.5768102E-04  0.1000106E+04  0.7818609E-02  0.9308428E-01
       -1   -1    0    0    0  501  0.00000000000E+00  0.00000000000E+00  0.20563944446E+03  0.20563944452E+03  0.50400001928E-02 0. -1.
        1   -1    0    0  501    0  0.00000000000E+00  0.00000000000E+00 -0.12159785784E+04  0.12159785784E+04  0.50400001928E-02 0.  1.
    10030    2    1    2    0    0  0.00000000000E+00  0.00000000000E+00 -0.10103391340E+04  0.14216180229E+04  0.10001063131E+04 0.  0.
        4    1    3    3  502    0  0.17941491102E+03 -0.40774544155E+03 -0.18225717655E+03  0.48131626474E+03  0.12699999809E+01 0. -1.
       -4    1    3    3    0  502 -0.17941491102E+03  0.40774544155E+03 -0.82808195741E+03  0.94030175820E+03  0.12699999809E+01 0.  1.
</event>
<event>
 5   0  0.5768102E-04  0.1001471E+04  0.7818609E-02  0.9306933E-01
       -1   -1    0    0    0  501  0.00000000000E+00  0.00000000000E+00  0.13757388999E+03  0.13757389008E+03  0.50400001928E-02 0.  1.
        1   -1    0    0  501    0  0.00000000000E+00  0.00000000000E+00 -0.18225559920E+04  0.18225559920E+04  0.50400001928E-02 0. -1.
    10030    2    1    2    0    0  0.00000000000E+00  0.00000000000E+00 -0.16849821020E+04  0.19601298820E+04  0.10014711531E+04 0.  0.
        4    1    3    3  502    0 -0.64665443484E+02 -0.40894141953E+03 -0.29125550862E+03  0.50620755466E+03  0.12699999809E+01 0. -1.
       -4    1    3    3    0  502  0.64665443484E+02  0.40894141953E+03 -0.13937265933E+04  0.14539223274E+04  0.12699999809E+01 0.  1.
</event>
<event>
 5   0  0.5768102E-04  0.9986346E+03  0.7818609E-02  0.9310044E-01
       -1   -1    0    0    0  501  0.00000000000E+00  0.00000000000E+00  0.21702064566E+03  0.21702064572E+03  0.50400001928E-02 0.  1.
        1   -1    0    0  501    0  0.00000000000E+00  0.00000000000E+00 -0.11488205075E+04  0.11488205075E+04  0.50400001928E-02 0. -1.
    10030    2    1    2    0    0  0.00000000000E+00  0.00000000000E+00 -0.93179986185E+03  0.13658411532E+04  0.99863460452E+03 0.  0.
        4    1    3    3  502    0  0.23140800200E+03 -0.83390835323E+02 -0.10602042808E+04  0.10883650236E+04  0.12699999809E+01 0. -1.
       -4    1    3    3    0  502 -0.23140800200E+03  0.83390835323E+02  0.12840441892E+03  0.27747612961E+03  0.12699999809E+01 0.  1.
</event>
<event>
 5   0  0.1006006E-03  0.9999231E+03  0.7818609E-02  0.9308629E-01
       -2   -1    0    0    0  501  0.00000000000E+00  0.00000000000E+00  0.69361961650E+03  0.69361961651E+03  0.25500000920E-02 0.  1.
        2   -1    0    0  501    0  0.00000000000E+00  0.00000000000E+00 -0.36037264724E+03  0.36037264725E+03  0.25500000920E-02 0. -1.
    10030    2    1    2    0    0  0.00000000000E+00  0.00000000000E+00  0.33324696926E+03  0.10539922638E+04  0.99992307182E+03 0.  0.
        2    1    3    3  502    0  0.38265891296E+03  0.30270631624E+03  0.51625193900E+02  0.49063644199E+03  0.25500000920E-02 0.  1.
       -2    1    3    3    0  502 -0.38265891296E+03 -0.30270631624E+03  0.28162177536E+03  0.56335582177E+03  0.25500000920E-02 0. -1.
</event>
<event>
 5   0  0.9674819E-04  0.1000378E+04  0.7818609E-02  0.9308130E-01
        2   -1    0    0  501    0  0.00000000000E+00  0.00000000000E+00  0.48792153179E+03  0.48792153179E+03  0.25500000920E-02 0.  1.
       -2   -1    0    0    0  501  0.00000000000E+00  0.00000000000E+00 -0.51276515384E+03  0.51276515384E+03  0.25500000920E-02 0. -1.
    10030    2    1    2    0    0  0.00000000000E+00  0.00000000000E+00 -0.24843622048E+02  0.10006866856E+04  0.10003782471E+04 0.  0.
        4    1    3    3  502    0 -0.16678248250E+03  0.11352943363E+03  0.44541157950E+03  0.48897690827E+03  0.12699999809E+01 0.  1.
       -4    1    3    3    0  502  0.16678248250E+03 -0.11352943363E+03 -0.47025520155E+03  0.51170977737E+03  0.12699999809E+01 0. -1.
</event>
<event>
 5   0  0.9741826E-04  0.1000228E+04  0.7818609E-02  0.9308295E-01
       -2   -1    0    0    0  501  0.00000000000E+00  0.00000000000E+00  0.12554981297E+03  0.12554981300E+03  0.25500000920E-02 0.  1.
        2   -1    0    0  501    0  0.00000000000E+00  0.00000000000E+00 -0.19921486292E+04  0.19921486292E+04  0.25500000920E-02 0. -1.
    10030    2    1    2    0    0  0.00000000000E+00  0.00000000000E+00 -0.18665988162E+04  0.21176984422E+04  0.10002277497E+04 0.  0.
        3    1    3    3  502    0  0.46160845417E+03 -0.17623524400E+03 -0.76967473068E+03  0.91462584014E+03  0.10100000352E+00 0.  1.
       -3    1    3    3    0  502 -0.46160845417E+03  0.17623524400E+03 -0.10969240856E+04  0.12030726021E+04  0.10100000352E+00 0. -1.
</event>
<event>
 5   0  0.5758786E-04  0.9988633E+03  0.7818609E-02  0.9309792E-01
        1   -1    0    0  501    0  0.00000000000E+00  0.00000000000E+00  0.12977514144E+04  0.12977514144E+04  0.50400001928E-02 0. -1.
       -1   -1    0    0    0  501  0.00000000000E+00  0.00000000000E+00 -0.19220321581E+03  0.19220321588E+03  0.50400001928E-02 0.  1.
    10030    2    1    2    0    0  0.00000000000E+00  0.00000000000E+00  0.11055481986E+04  0.14899546303E+04  0.99886334449E+03 0.  0.
        3    1    3    3  502    0 -0.20692088940E+03 -0.12053043266E+03 -0.10098425222E+03  0.25988780092E+03  0.10100000352E+00 0.  1.
       -3    1    3    3    0  502  0.20692088940E+03  0.12053043266E+03  0.12065324508E+04  0.12300668294E+04  0.10100000352E+00 0. -1.
</event>
<event>
 5   0  0.1020150E-03  0.9996887E+03  0.7818609E-02  0.9308886E-01
       -2   -1    0    0    0  501  0.00000000000E+00  0.00000000000E+00  0.20947556921E+03  0.20947556922E+03  0.25500000920E-02 0. -1.
        2   -1    0    0  501    0  0.00000000000E+00  0.00000000000E+00 -0.11927136193E+04  0.11927136193E+04  0.25500000920E-02 0.  1.
    10030    2    1    2    0    0  0.00000000000E+00  0.00000000000E+00 -0.98323805014E+03  0.14021891886E+04  0.99968868020E+03 0.  0.
        5    1    3    3  502    0 -0.22970625215E+03  0.26063550810E+03 -0.99564095769E+03  0.10545230377E+04  0.46999998093E+01 0.  1.
       -5    1    3    3    0  502  0.22970625215E+03 -0.26063550810E+03  0.12402907556E+02  0.34766615089E+03  0.46999998093E+01 0. -1.
</event>
<event>
 5   0  0.3854625E-04  0.1006003E+04  0.7818609E-02  0.9301985E-01
        3   -1    0    0  501    0  0.00000000000E+00  0.00000000000E+00  0.37830274207E+03  0.37830275555E+03  0.10100000352E+00 0.  1.
       -3   -1    0    0    0  501  0.00000000000E+00  0.00000000000E+00 -0.66880406780E+03  0.66880407543E+03  0.10100000352E+00 0. -1.
    10030    2    1    2    0    0  0.00000000000E+00  0.00000000000E+00 -0.29050132573E+03  0.10471068310E+04  0.10060028306E+04 0.  0.
        5    1    3    3  502    0  0.16388002188E+03 -0.47301011056E+03 -0.19616884591E+03  0.53767976749E+03  0.46999998093E+01 0.  1.
       -5    1    3    3    0  502 -0.16388002188E+03  0.47301011056E+03 -0.94332479821E+02  0.50942706348E+03  0.46999998093E+01 0. -1.
</event>
<event>
 5   0  0.1006006E-03  0.1007381E+04  0.7818609E-02  0.9300487E-01
        2   -1    0    0  501    0  0.00000000000E+00  0.00000000000E+00  0.13584220072E+04  0.13584220072E+04  0.25500000920E-02 0. -1.
       -2   -1    0    0    0  501  0.00000000000E+00  0.00000000000E+00 -0.18676368013E+03  0.18676368014E+03  0.25500000920E-02 0.  1.
    10030    2    1    2    0    0  0.00000000000E+00  0.00000000000E+00  0.11716583271E+04  0.15451856874E+04  0.10073805502E+04 0.  0.
        2    1    3    3  502    0  0.23532633929E+03  0.42993019153E+03  0.76395201494E+03  0.90765694879E+03  0.25500000920E-02 0. -1.
       -2    1    3    3    0  502 -0.23532633929E+03 -0.42993019153E+03  0.40770631218E+03  0.63752873860E+03  0.25500000920E-02 0.  1.
</event>
<event>
 5   0  0.5758786E-04  0.1000382E+04  0.7818609E-02  0.9308126E-01
        1   -1    0    0  501    0  0.00000000000E+00  0.00000000000E+00  0.28867667596E+03  0.28867667601E+03  0.50400001928E-02 0.  1.
       -1   -1    0    0    0  501  0.00000000000E+00  0.00000000000E+00 -0.86668272065E+03  0.86668272066E+03  0.50400001928E-02 0. -1.
    10030    2    1    2    0    0  0.00000000000E+00  0.00000000000E+00 -0.57800604468E+03  0.11553593967E+04  0.10003821009E+04 0.  0.
        3    1    3    3  502    0  0.47115112547E+03  0.49941017654E+02 -0.10380662553E+03  0.48502918879E+03  0.10100000352E+00 0.  1.
       -3    1    3    3    0  502 -0.47115112547E+03 -0.49941017654E+02 -0.47419941915E+03  0.67033020788E+03  0.10100000352E+00 0. -1.
</event>
<event>
 5   0  0.1020150E-03  0.1000290E+04  0.7818609E-02  0.9308226E-01
       -2   -1    0    0    0  501  0.00000000000E+00  0.00000000000E+00  0.19652809903E+03  0.19652809905E+03  0.25500000920E-02 0. -1.
        2   -1    0    0  501    0  0.00000000000E+00  0.00000000000E+00 -0.12728217665E+04  0.12728217665E+04  0.25500000920E-02 0.  1.
    10030    2    1    2    0    0  0.00000000000E+00  0.00000000000E+00 -0.10762936675E+04  0.14693498656E+04  0.10002904422E+04 0.  0.
        5    1    3    3  502    0  0.26026929949E+03 -0.37404377736E+03 -0.84088152851E+03  0.95642704406E+03  0.46999998093E+01 0.  1.
       -5    1    3    3    0  502 -0.26026929949E+03  0.37404377736E+03 -0.23541213897E+03  0.51292282149E+03  0.46999998093E+01 0. -1.
</event>
<event>
 5   0  0.5960102E-04  0.1000281E+04  0.7818609E-02  0.9308237E-01
        1   -1    0    0  501    0  0.00000000000E+00  0.00000000000E+00  0.77022643991E+03  0.77022643992E+03  0.50400001928E-02 0.  1.
       -1   -1    0    0    0  501  0.00000000000E+00  0.00000000000E+00 -0.32476236725E+03  0.32476236729E+03  0.50400001928E-02 0. -1.
    10030    2    1    2    0    0  0.00000000000E+00  0.00000000000E+00  0.44546407265E+03  0.10949888072E+04  0.10002810844E+04 0.  0.
        5    1    3    3  502    0 -0.43637889842E+02 -0.49622745566E+03  0.27135016057E+03  0.56727326115E+03  0.46999998093E+01 0.  1.
       -5    1    3    3    0  502  0.43637889842E+02  0.49622745566E+03  0.17411391209E+03  0.52771554607E+03  0.46999998093E+01 0. -1.
</event>
<event>
 5   0  0.1020150E-03  0.1000213E+04  0.7818609E-02  0.9308311E-01
       -2   -1    0    0    0  501  0.00000000000E+00  0.00000000000E+00  0.36782397508E+03  0.36782397509E+03  0.25500000920E-02 0.  1.
        2   -1    0    0  501    0  0.00000000000E+00  0.00000000000E+00 -0.67996282183E+03  0.67996282183E+03  0.25500000920E-02 0. -1.
    10030    2    1    2    0    0  0.00000000000E+00  0.00000000000E+00 -0.31213884675E+03  0.10477867969E+04  0.10002132333E+04 0.  0.
        5    1    3    3  502    0  0.18273177546E+03 -0.46362483209E+03 -0.19983766295E+03  0.53693208903E+03  0.46999998093E+01 0.  1.
       -5    1    3    3    0  502 -0.18273177546E+03  0.46362483209E+03 -0.11230118380E+03  0.51085470789E+03  0.46999998093E+01 0. -1.
</event>
<event>
 5   0  0.1006749E-03  0.1000196E+04  0.7818609E-02  0.9308330E-01
        2   -1    0    0  501    0  0.00000000000E+00  0.00000000000E+00  0.93625458615E+03  0.93625458615E+03  0.25500000920E-02 0. -1.
       -2   -1    0    0    0  501  0.00000000000E+00  0.00000000000E+00 -0.26712588677E+03  0.26712588678E+03  0.25500000920E-02 0.  1.
    10030    2    1    2    0    0  0.00000000000E+00  0.00000000000E+00  0.66912869938E+03  0.12033804729E+04  0.10001956540E+04 0.  0.
        1    1    3    3  502    0  0.10050956542E+03  0.13142667442E+03  0.90237068186E+03  0.91741375126E+03  0.50400001928E-02 0. -1.
       -1    1    3    3    0  502 -0.10050956542E+03 -0.13142667442E+03 -0.23324198248E+03  0.28596672168E+03  0.50400001928E-02 0.  1.
</event>
<event>
 5   0  0.9674819E-04  0.9908099E+03  0.7818609E-02  0.9318682E-01
       -2   -1    0    0    0  501  0.00000000000E+00  0.00000000000E+00  0.36172511313E+03  0.36172511313E+03  0.25500000920E-02 0. -1.
        2   -1    0    0  501    0  0.00000000000E+00  0.00000000000E+00 -0.67848770334E+03  0.67848770335E+03  0.25500000920E-02 0.  1.
    10030    2    1    2    0    0  0.00000000000E+00  0.00000000000E+00 -0.31676259022E+03  0.10402128165E+04  0.99080985311E+03 0.  0.
        4    1    3    3  502    0 -0.11354504729E+03 -0.12760886235E+03 -0.64659263411E+03  0.66877510936E+03  0.12699999809E+01 0.  1.
       -4    1    3    3    0  502  0.11354504729E+03  0.12760886235E+03  0.32983004389E+03  0.37143770712E+03  0.12699999809E+01 0. -1.
</event>
<event>
 5   0  0.5758786E-04  0.1004026E+04  0.7818609E-02  0.9304140E-01
       -1   -1    0    0    0  501  0.00000000000E+00  0.00000000000E+00  0.53570845403E+03  0.53570845406E+03  0.50400001928E-02 0. -1.
        1   -1    0    0  501    0  0.00000000000E+00  0.00000000000E+00 -0.47043740021E+03  0.47043740024E+03  0.50400001928E-02 0.  1.
    10030    2    1    2    0    0  0.00000000000E+00  0.00000000000E+00  0.65271053820E+02  0.10061458543E+04  0.10040264786E+04 0.  0.
        3    1    3    3  502    0 -0.17333402883E+03 -0.46798996103E+03 -0.21866712819E+02  0.49953723836E+03  0.10100000352E+00 0. -1.
       -3    1    3    3    0  502  0.17333402883E+03  0.46798996103E+03  0.87137766639E+02  0.50660861594E+03  0.10100000352E+00 0.  1.
</event>
<event>
 5   0  0.5768102E-04  0.1001135E+04  0.7818609E-02  0.9307300E-01
       -1   -1    0    0    0  501  0.00000000000E+00  0.00000000000E+00  0.68036038521E+03  0.68036038523E+03  0.50400001928E-02 0. -1.
        1   -1    0    0  501    0  0.00000000000E+00  0.00000000000E+00 -0.36828723033E+03  0.36828723036E+03  0.50400001928E-02 0.  1.
    10030    2    1    2    0    0  0.00000000000E+00  0.00000000000E+00  0.31207315489E+03  0.10486476156E+04  0.10011354392E+04 0.  0.
        4    1    3    3  502    0  0.90428202367E+02 -0.91969537190E+02  0.66265434499E+03  0.67509114154E+03  0.12699999809E+01 0. -1.
       -4    1    3    3    0  502 -0.90428202367E+02  0.91969537190E+02 -0.35058119010E+03  0.37355647405E+03  0.12699999809E+01 0.  1.
</event>
<event>
 5   0  0.1006749E-03  0.9998238E+03  0.7818609E-02  0.9308738E-01
       -2   -1    0    0    0  501  0.00000000000E+00  0.00000000000E+00  0.17415055065E+03  0.17415055066E+03  0.25500000920E-02 0. -1.
        2   -1    0    0  501    0  0.00000000000E+00  0.00000000000E+00 -0.14350337006E+04  0.14350337006E+04  0.25500000920E-02 0.  1.
    10030    2    1    2    0    0  0.00000000000E+00  0.00000000000E+00 -0.12608831500E+04  0.16091842513E+04  0.99982380283E+03 0.  0.
        1    1    3    3  502    0 -0.19852303167E+02  0.15194353639E+03  0.13541986290E+03  0.20449814543E+03  0.50400001928E-02 0. -1.
       -1    1    3    3    0  502  0.19852303167E+02 -0.15194353639E+03 -0.13963030129E+04  0.14046861059E+04  0.50400001928E-02 0.  1.
</event>
<event>
 5   0  0.5826939E-04  0.1001162E+04  0.7818609E-02  0.9307271E-01
       -1   -1    0    0    0  501  0.00000000000E+00  0.00000000000E+00  0.93714787484E+03  0.93714787486E+03  0.50400001928E-02 0.  1.
        1   -1    0    0  501    0  0.00000000000E+00  0.00000000000E+00 -0.26738735860E+03  0.26738735865E+03  0.50400001928E-02 0. -1.
    10030    2    1    2    0    0  0.00000000000E+00  0.00000000000E+00  0.66976051624E+03  0.12045352335E+04  0.10011623143E+04 0.  0.
        1    1    3    3  502    0 -0.26477034833E+03  0.23501418741E+03  0.76067254978E+03  0.83902189105E+03  0.50400001928E-02 0.  1.
       -1    1    3    3    0  502  0.26477034833E+03 -0.23501418741E+03 -0.90912033540E+02  0.36551334245E+03  0.50400001928E-02 0. -1.
</event>
<event>
 5   0  0.9674819E-04  0.1000343E+04  0.7818609E-02  0.9308168E-01
       -2   -1    0    0    0  501  0.00000000000E+00  0.00000000000E+00  0.15510623103E+03  0.15510623105E+03  0.25500000920E-02 0. -1.
        2   -1    0    0  501    0  0.00000000000E+00  0.00000000000E+00 -0.16129055979E+04  0.16129055979E+04  0.25500000920E-02 0.  1.
    10030    2    1    2    0    0  0.00000000000E+00  0.00000000000E+00 -0.14577993669E+04  0.17680118290E+04  0.10003433577E+04 0.  0.
        4    1    3    3  502    0 -0.42386872562E+03  0.21407775814E+02 -0.11966683983E+04  0.12697006962E+04  0.12699999809E+01 0.  1.
       -4    1    3    3    0  502  0.42386872562E+03 -0.21407775814E+02 -0.26113096857E+03  0.49831113280E+03  0.12699999809E+01 0. -1.
</event>
<event>
 5   0  0.1020150E-03  0.9992625E+03  0.7818609E-02  0.9309354E-01
       -2   -1    0    0    0  501  0.00000000000E+00  0.00000000000E+00  0.45511939092E+03  0.45511939093E+03  0.25500000920E-02 0. -1.
        2   -1    0    0  501    0  0.00000000000E+00  0.00000000000E+00 -0.54849649489E+03  0.54849649489E+03  0.25500000920E-02 0.  1.
    10030    2    1    2    0    0  0.00000000000E+00  0.00000000000E+00 -0.93377103963E+02  0.10036158858E+04  0.99926250942E+03 0.  0.
        5    1    3    3  502    0 -0.32998888745E+03 -0.35661476574E+03  0.70190870223E+02  0.49093340205E+03  0.46999998093E+01 0. -1.
       -5    1    3    3    0  502  0.32998888745E+03  0.35661476574E+03 -0.16356797419E+03  0.51268248377E+03  0.46999998093E+01 0.  1.
</event>
<event>
 5   0  0.1020150E-03  0.1001244E+04  0.7818609E-02  0.9307182E-01
       -2   -1    0    0    0  501  0.00000000000E+00  0.00000000000E+00  0.92626041994E+03  0.92626041995E+03  0.25500000920E-02 0. -1.
        2   -1    0    0  501    0  0.00000000000E+00  0.00000000000E+00 -0.27057421594E+03  0.27057421595E+03  0.25500000920E-02 0.  1.
    10030    2    1    2    0    0  0.00000000000E+00  0.00000000000E+00  0.65568620400E+03  0.11968346359E+04  0.10012436005E+04 0.  0.
        5    1    3    3  502    0  0.40423442007E+03 -0.46314241091E+02 -0.20759471242E+02  0.40743529663E+03  0.46999998093E+01 0.  1.
       -5    1    3    3    0  502 -0.40423442007E+03  0.46314241091E+02  0.67644567524E+03  0.78939933927E+03  0.46999998093E+01 0. -1.
</event>
<event>
 5   0  0.5768102E-04  0.9996249E+03  0.7818609E-02  0.9308956E-01
        1   -1    0    0  501    0  0.00000000000E+00  0.00000000000E+00  0.69412046086E+03  0.69412046087E+03  0.50400001928E-02 0.  1.
       -1   -1    0    0    0  501  0.00000000000E+00  0.00000000000E+00 -0.35989789971E+03  0.35989789975E+03  0.50400001928E-02 0. -1.
    10030    2    1    2    0    0  0.00000000000E+00  0.00000000000E+00  0.33422256114E+03  0.10540183606E+04  0.99962492173E+03 0.  0.
        4    1    3    3  502    0  0.26651252152E+03 -0.41080246306E+03  0.27267540867E+03  0.56048289820E+03  0.12699999809E+01 0.  1.
       -4    1    3    3    0  502 -0.26651252152E+03  0.41080246306E+03  0.61547152478E+02  0.49353546242E+03  0.12699999809E+01 0. -1.
</event>
<event>
 5   0  0.5768102E-04  0.1010124E+04  0.7818609E-02  0.9297511E-01
        1   -1    0    0  501    0  0.00000000000E+00  0.00000000000E+00  0.61471311303E+03  0.61471311305E+03  0.50400001928E-02 0.  1.
       -1   -1    0    0    0  501  0.00000000000E+00  0.00000000000E+00 -0.41496984994E+03  0.41496984997E+03  0.50400001928E-02 0. -1.
    10030    2    1    2    0    0  0.00000000000E+00  0.00000000000E+00  0.19974326308E+03  0.10296829630E+04  0.10101235732E+04 0.  0.
        4    1    3    3  502    0 -0.13161620983E+03  0.29213259979E+03  0.49784329890E+03  0.59204209792E+03  0.12699999809E+01 0.  1.
       -4    1    3    3    0  502  0.13161620983E+03 -0.29213259979E+03 -0.29810003582E+03  0.43764086510E+03  0.12699999809E+01 0. -1.
</event>
<event>
 5   0  0.3854625E-04  0.1000644E+04  0.7818609E-02  0.9307839E-01
       -3   -1    0    0    0  501  0.00000000000E+00  0.00000000000E+00  0.26069438987E+03  0.26069440943E+03  0.10100000352E+00 0.  1.
        3   -1    0    0  501    0  0.00000000000E+00  0.00000000000E+00 -0.96021224558E+03  0.96021225089E+03  0.10100000352E+00 0. -1.
    10030    2    1    2    0    0  0.00000000000E+00  0.00000000000E+00 -0.69951785572E+03  0.12209066603E+04  0.10006437142E+04 0.  0.
        3    1    3    3  502    0  0.34509679528E+03 -0.16384758286E+03 -0.74396218882E+03  0.83631188986E+03  0.10100000352E+00 0. -1.
       -3    1    3    3    0  502 -0.34509679528E+03  0.16384758286E+03  0.44444333107E+02  0.38459477047E+03  0.10100000352E+00 0.  1.
</event>
<event>
 5   0  0.5826939E-04  0.1000483E+04  0.7818609E-02  0.9308015E-01
        1   -1    0    0  501    0  0.00000000000E+00  0.00000000000E+00  0.61106042579E+03  0.61106042581E+03  0.50400001928E-02 0. -1.
       -1   -1    0    0    0  501  0.00000000000E+00  0.00000000000E+00 -0.40952022565E+03  0.40952022568E+03  0.50400001928E-02 0.  1.
    10030    2    1    2    0    0  0.00000000000E+00  0.00000000000E+00  0.20154020014E+03  0.10205806515E+04  0.10004830903E+04 0.  0.
        1    1    3    3  502    0  0.43866674879E+03  0.21619958059E+03 -0.65615079056E+01  0.48909490750E+03  0.50400001928E-02 0.  1.
       -1    1    3    3    0  502 -0.43866674879E+03 -0.21619958059E+03  0.20810170805E+03  0.53148574398E+03  0.50400001928E-02 0. -1.
</event>
<event>
 5   0  0.1020150E-03  0.1006480E+04  0.7818609E-02  0.9301466E-01
       -2   -1    0    0    0  501  0.00000000000E+00  0.00000000000E+00  0.42747882370E+03  0.42747882370E+03  0.25500000920E-02 0. -1.
        2   -1    0    0  501    0  0.00000000000E+00  0.00000000000E+00 -0.59242801294E+03  0.59242801295E+03  0.25500000920E-02 0.  1.
    10030    2    1    2    0    0  0.00000000000E+00  0.00000000000E+00 -0.16494918925E+03  0.10199068367E+04  0.10064798659E+04 0.  0.
        5    1    3    3  502    0 -0.14628951561E+03  0.71696267660E+02  0.39999401959E+03  0.43192393182E+03  0.46999998093E+01 0. -1.
       -5    1    3    3    0  502  0.14628951561E+03 -0.71696267660E+02 -0.56494320883E+03  0.58798290483E+03  0.46999998093E+01 0.  1.
</event>
<event>
 5   0  0.9674819E-04  0.1000561E+04  0.7818609E-02  0.9307930E-01
       -2   -1    0    0    0  501  0.00000000000E+00  0.00000000000E+00  0.23177106358E+03  0.23177106360E+03  0.25500000920E-02 0.  1.
        2   -1    0    0  501    0  0.00000000000E+00  0.00000000000E+00 -0.10798604556E+04  0.10798604556E+04  0.25500000920E-02 0. -1.
    10030    2    1    2    0    0  0.00000000000E+00  0.00000000000E+00 -0.84808939206E+03  0.13116315192E+04  0.10005606555E+04 0.  0.
        4    1    3    3  502    0 -0.42719539801E+02 -0.36971659055E+03 -0.86229111429E+03  0.93918203512E+03  0.12699999809E+01 0. -1.
       -4    1    3    3    0  502  0.42719539801E+02  0.36971659055E+03  0.14201722235E+02  0.37244948412E+03  0.12699999809E+01 0.  1.
</event>
<event>
 5   0  0.1006749E-03  0.1000699E+04  0.7818609E-02  0.9307779E-01
       -2   -1    0    0    0  501  0.00000000000E+00  0.00000000000E+00  0.38073246311E+03  0.38073246312E+03  0.25500000920E-02 0.  1.
        2   -1    0    0  501    0  0.00000000000E+00  0.00000000000E+00 -0.65754729971E+03  0.65754729971E+03  0.25500000920E-02 0. -1.
    10030    2    1    2    0    0  0.00000000000E+00  0.00000000000E+00 -0.27681483660E+03  0.10382797628E+04  0.10006989618E+04 0.  0.
        1    1    3    3  502    0 -0.82197799564E+02  0.20508835833E+03  0.32737471857E+03  0.39495812355E+03  0.50400001928E-02 0.  1.
       -1    1    3    3    0  502  0.82197799564E+02 -0.20508835833E+03 -0.60418955516E+03  0.64332163928E+03  0.50400001928E-02 0. -1.
</event>
<event>
 5   0  0.1006749E-03  0.1000475E+04  0.7818609E-02  0.9308024E-01
        2   -1    0    0  501    0  0.00000000000E+00  0.00000000000E+00  0.11327539900E+04  0.11327539900E+04  0.25500000920E-02 0.  1.
       -2   -1    0    0    0  501  0.00000000000E+00  0.00000000000E+00 -0.22091086665E+03  0.22091086667E+03  0.25500000920E-02 0. -1.
    10030    2    1    2    0    0  0.00000000000E+00  0.00000000000E+00  0.91184312331E+03  0.13536648566E+04  0.10004752184E+04 0.  0.
        1    1    3    3  502    0  0.30653995551E+03  0.36871025520E+03  0.64880985701E+03  0.80676404679E+03  0.50400001928E-02 0.  1.
       -1    1    3    3    0  502 -0.30653995551E+03 -0.36871025520E+03  0.26303326630E+03  0.54690080985E+03  0.50400001928E-02 0. -1.
</event>
<event>
 5   0  0.5888774E-04  0.1000810E+04  0.7818609E-02  0.9307657E-01
       -1   -1    0    0    0  501  0.00000000000E+00  0.00000000000E+00  0.14207185826E+03  0.14207185835E+03  0.50400001928E-02 0.  1.
        1   -1    0    0  501    0  0.00000000000E+00  0.00000000000E+00 -0.17625247591E+04  0.17625247591E+04  0.50400001928E-02 0. -1.
    10030    2    1    2    0    0  0.00000000000E+00  0.00000000000E+00 -0.16204529009E+04  0.19045966175E+04  0.10008100076E+04 0.  0.
        2    1    3    3  502    0  0.29942900610E+03 -0.59510725253E+02 -0.55680302921E+02  0.31032169156E+03  0.25500000920E-02 0.  1.
       -2    1    3    3    0  502 -0.29942900610E+03  0.59510725253E+02 -0.15647725980E+04  0.15942749259E+04  0.25500000920E-02 0. -1.
</event>
<event>
 5   0  0.5960102E-04  0.9958608E+03  0.7818609E-02  0.9313096E-01
       -1   -1    0    0    0  501  0.00000000000E+00  0.00000000000E+00  0.48768313989E+03  0.48768313992E+03  0.50400001928E-02 0. -1.
        1   -1    0    0  501    0  0.00000000000E+00  0.00000000000E+00 -0.50839293004E+03  0.50839293007E+03  0.50400001928E-02 0.  1.
    10030    2    1    2    0    0  0.00000000000E+00  0.00000000000E+00 -0.20709790150E+02  0.99607606998E+03  0.99586075422E+03 0.  0.
        5    1    3    3  502    0 -0.45502715226E+03 -0.10168956057E+03 -0.18509840499E+03  0.50167119267E+03  0.46999998093E+01 0.  1.
       -5    1    3    3    0  502  0.45502715226E+03  0.10168956057E+03  0.16438861484E+03  0.49440487732E+03  0.46999998093E+01 0. -1.
</event>
<event>
 5   0  0.1020150E-03  0.9994977E+03  0.7818609E-02  0.9309096E-01
        2   -1    0    0  501    0  0.00000000000E+00  0.00000000000E+00  0.60043611766E+03  0.60043611767E+03  0.25500000920E-02 0.  1.
       -2   -1    0    0    0  501  0.00000000000E+00  0.00000000000E+00 -0.41594586121E+03  0.41594586122E+03  0.25500000920E-02 0. -1.
    10030    2    1    2    0    0  0.00000000000E+00  0.00000000000E+00  0.18449025645E+03  0.10163819789E+04  0.99949770999E+03 0.  0.
        5    1    3    3  502    0  0.18731727153E+03  0.46318837287E+03  0.82302480665E+02  0.50638623332E+03  0.46999998093E+01 0. -1.
       -5    1    3    3    0  502 -0.18731727153E+03 -0.46318837287E+03  0.10218777579E+03  0.50999574557E+03  0.46999998093E+01 0.  1.
</event>
<event>
 5   0  0.5768102E-04  0.1000406E+04  0.7818609E-02  0.9308099E-01
       -1   -1    0    0    0  501  0.00000000000E+00  0.00000000000E+00  0.34957219541E+03  0.34957219545E+03  0.50400001928E-02 0. -1.
        1   -1    0    0  501    0  0.00000000000E+00  0.00000000000E+00 -0.71574118997E+03  0.71574118999E+03  0.50400001928E-02 0.  1.
    10030    2    1    2    0    0  0.00000000000E+00  0.00000000000E+00 -0.36616899456E+03  0.10653133854E+04  0.10004063557E+04 0.  0.
        4    1    3    3  502    0  0.27370843343E+03  0.16803377803E+03  0.22526627476E+03  0.39229856555E+03  0.12699999809E+01 0. -1.
       -4    1    3    3    0  502 -0.27370843343E+03 -0.16803377803E+03 -0.59143526932E+03  0.67301481988E+03  0.12699999809E+01 0.  1.
</event>
<event>
 5   0  0.1006006E-03  0.9998669E+03  0.7818609E-02  0.9308691E-01
        2   -1    0    0  501    0  0.00000000000E+00  0.00000000000E+00  0.18478796265E+04  0.18478796265E+04  0.25500000920E-02 0.  1.
       -2   -1    0    0    0  501  0.00000000000E+00  0.00000000000E+00 -0.13525419805E+03  0.13525419807E+03  0.25500000920E-02 0. -1.
    10030    2    1    2    0    0  0.00000000000E+00  0.00000000000E+00  0.17126254285E+04  0.19831338246E+04  0.99986694514E+03 0.  0.
        2    1    3    3  502    0 -0.12870993754E+03  0.30229316544E+03  0.16036775875E+04  0.16369878468E+04  0.25500000920E-02 0.  1.
       -2    1    3    3    0  502  0.12870993754E+03 -0.30229316544E+03  0.10894784098E+03  0.34614597781E+03  0.25500000920E-02 0. -1.
</event>
<event>
 5   0  0.5826939E-04  0.1000380E+04  0.7818609E-02  0.9308128E-01
       -1   -1    0    0    0  501  0.00000000000E+00  0.00000000000E+00  0.36441773064E+03  0.36441773067E+03  0.50400001928E-02 0. -1.
        1   -1    0    0  501    0  0.00000000000E+00  0.00000000000E+00 -0.68654715579E+03  0.68654715581E+03  0.50400001928E-02 0.  1.
    10030    2    1    2    0    0  0.00000000000E+00  0.00000000000E+00 -0.32212942515E+03  0.10509648865E+04  0.10003798409E+04 0.  0.
        1    1    3    3  502    0  0.72648694797E+02  0.41733073946E+03 -0.44049780298E+03  0.61113099529E+03  0.50400001928E-02 0.  1.
       -1    1    3    3    0  502 -0.72648694797E+02 -0.41733073946E+03  0.11836837782E+03  0.43983389120E+03  0.50400001928E-02 0. -1.
</event>
<event>
 5   0  0.9741826E-04  0.1000752E+04  0.7818609E-02  0.9307720E-01
        2   -1    0    0  501    0  0.00000000000E+00  0.00000000000E+00  0.62717623634E+03  0.62717623634E+03  0.25500000920E-02 0. -1.
       -2   -1    0    0    0  501  0.00000000000E+00  0.00000000000E+00 -0.39921176026E+03  0.39921176027E+03  0.25500000920E-02 0.  1.
    10030    2    1    2    0    0  0.00000000000E+00  0.00000000000E+00  0.22796447608E+03  0.10263879966E+04  0.10007519759E+04 0.  0.
        3    1    3    3  502    0  0.28407443770E+03 -0.54048537107E+02  0.53280146337E+03  0.60621525887E+03  0.10100000352E+00 0. -1.
       -3    1    3    3    0  502 -0.28407443770E+03  0.54048537107E+02 -0.30483698729E+03  0.42017273774E+03  0.10100000352E+00 0.  1.
</event>
<event>
 5   0  0.1020150E-03  0.1002809E+04  0.7818609E-02  0.9305469E-01
       -2   -1    0    0    0  501  0.00000000000E+00  0.00000000000E+00  0.27909248568E+03  0.27909248569E+03  0.25500000920E-02 0. -1.
        2   -1    0    0  501    0  0.00000000000E+00  0.00000000000E+00 -0.90079956002E+03  0.90079956002E+03  0.25500000920E-02 0.  1.
    10030    2    1    2    0    0  0.00000000000E+00  0.00000000000E+00 -0.62170707434E+03  0.11798920457E+04  0.10028088319E+04 0.  0.
        5    1    3    3  502    0 -0.84002539841E+02 -0.47081832391E+03 -0.48796011590E+03  0.68326677479E+03  0.46999998093E+01 0.  1.
       -5    1    3    3    0  502  0.84002539841E+02  0.47081832391E+03 -0.13374695845E+03  0.49662527092E+03  0.46999998093E+01 0. -1.
</event>
<event>
 5   0  0.5826939E-04  0.1000556E+04  0.7818609E-02  0.9307935E-01
        1   -1    0    0  501    0  0.00000000000E+00  0.00000000000E+00  0.59561940744E+03  0.59561940746E+03  0.50400001928E-02 0.  1.
       -1   -1    0    0    0  501  0.00000000000E+00  0.00000000000E+00 -0.42019784626E+03  0.42019784629E+03  0.50400001928E-02 0. -1.
    10030    2    1    2    0    0  0.00000000000E+00  0.00000000000E+00  0.17542156118E+03  0.10158172538E+04  0.10005558300E+04 0.  0.
        1    1    3    3  502    0  0.76644314131E+02  0.26378109459E+03  0.51220693521E+03  0.58121490109E+03  0.50400001928E-02 0.  1.
       -1    1    3    3    0  502 -0.76644314131E+02 -0.26378109459E+03 -0.33678537403E+03  0.43460235266E+03  0.50400001928E-02 0. -1.
</event>
<event>
 5   0  0.5768102E-04  0.1001086E+04  0.7818609E-02  0.9307354E-01
       -1   -1    0    0    0  501  0.00000000000E+00  0.00000000000E+00  0.17390822506E+03  0.17390822513E+03  0.50400001928E-02 0.  1.
        1   -1    0    0  501    0  0.00000000000E+00  0.00000000000E+00 -0.14406643466E+04  0.14406643466E+04  0.50400001928E-02 0. -1.
    10030    2    1    2    0    0  0.00000000000E+00  0.00000000000E+00 -0.12667561215E+04  0.16145725717E+04  0.10010861691E+04 0.  0.
        4    1    3    3  502    0  0.22754005089E+03 -0.27934236948E+03 -0.11937842726E+04  0.12469679774E+04  0.12699999809E+01 0. -1.
       -4    1    3    3    0  502 -0.22754005089E+03  0.27934236948E+03 -0.72971848891E+02  0.36760459433E+03  0.12699999809E+01 0.  1.
</event>
<event>
 5   0  0.5960102E-04  0.1000527E+04  0.7818609E-02  0.9307967E-01
        1   -1    0    0  501    0  0.00000000000E+00  0.00000000000E+00  0.14988113916E+04  0.14988113916E+04  0.50400001928E-02 0.  1.
       -1   -1    0    0    0  501  0.00000000000E+00  0.00000000000E+00 -0.16697470551E+03  0.16697470559E+03  0.50400001928E-02 0. -1.
    10030    2    1    2    0    0  0.00000000000E+00  0.00000000000E+00  0.13318366861E+04  0.16657860972E+04  0.10005270427E+04 0.  0.
        5    1    3    3  502    0 -0.32492263154E+03 -0.25738495925E+03  0.19968516486E+03  0.46012823082E+03  0.46999998093E+01 0. -1.
       -5    1    3    3    0  502  0.32492263154E+03  0.25738495925E+03  0.11321515212E+04  0.12056578664E+04  0.46999998093E+01 0.  1.
</event>
<event>
 5   0  0.5960102E-04  0.9888823E+03  0.7818609E-02  0.9320823E-01
        1   -1    0    0  501    0  0.00000000000E+00  0.00000000000E+00  0.32719649267E+03  0.32719649271E+03  0.50400001928E-02 0. -1.
       -1   -1    0    0    0  501  0.00000000000E+00  0.00000000000E+00 -0.74717196689E+03  0.74717196691E+03  0.50400001928E-02 0.  1.
    10030    2    1    2    0    0  0.00000000000E+00  0.00000000000E+00 -0.41997547422E+03  0.10743684596E+04  0.98888229232E+03 0.  0.
        5    1    3    3  502    0  0.22250410010E+02 -0.13434023100E+03 -0.72637325077E+03  0.73904165502E+03  0.46999998093E+01 0.  1.
       -5    1    3    3    0  502 -0.22250410010E+02  0.13434023100E+03  0.30639777655E+03  0.33532680460E+03  0.46999998093E+01 0. -1.
</event>
<event>
 5   0  0.1020150E-03  0.1001235E+04  0.7818609E-02  0.9307191E-01
       -2   -1    0    0    0  501  0.00000000000E+00  0.00000000000E+00  0.12137339190E+03  0.12137339192E+03  0.25500000920E-02 0. -1.
        2   -1    0    0  501    0  0.00000000000E+00  0.00000000000E+00 -0.20648503651E+04  0.20648503651E+04  0.25500000920E-02 0.  1.
    10030    2    1    2    0    0  0.00000000000E+00  0.00000000000E+00 -0.19434769732E+04  0.21862237570E+04  0.10012350226E+04 0.  0.
        5    1    3    3  502    0 -0.44477832318E+03  0.13869438458E+03 -0.57189709942E+03  0.73766677532E+03  0.46999998093E+01 0.  1.
       -5    1    3    3    0  502  0.44477832318E+03 -0.13869438458E+03 -0.13715798738E+04  0.14485569817E+04  0.46999998093E+01 0. -1.
</event>
<event>
 5   0  0.1020150E-03  0.1000557E+04  0.7818609E-02  0.9307934E-01
        2   -1    0    0  501    0  0.00000000000E+00  0.00000000000E+00  0.15791572234E+04  0.15791572234E+04  0.25500000920E-02 0.  1.
       -2   -1    0    0    0  501  0.00000000000E+00  0.00000000000E+00 -0.15848875648E+03  0.15848875650E+03  0.25500000920E-02 0. -1.
    10030    2    1    2    0    0  0.00000000000E+00  0.00000000000E+00  0.14206684670E+04  0.17376459799E+04  0.10005571741E+04 0.  0.
        5    1    3    3  502    0 -0.86131790597E+02 -0.42300675965E+03  0.27131798636E+03  0.50989110973E+03  0.46999998093E+01 0. -1.
       -5    1    3    3    0  502  0.86131790597E+02  0.42300675965E+03  0.11493504806E+04  0.12277548702E+04  0.46999998093E+01 0.  1.
</event>
<event>
 5   0  0.9741826E-04  0.1000789E+04  0.7818609E-02  0.9307679E-01
        2   -1    0    0  501    0  0.00000000000E+00  0.00000000000E+00  0.12734237250E+04  0.12734237250E+04  0.25500000920E-02 0.  1.
       -2   -1    0    0    0  501  0.00000000000E+00  0.00000000000E+00 -0.19663123826E+03  0.19663123828E+03  0.25500000920E-02 0. -1.
    10030    2    1    2    0    0  0.00000000000E+00  0.00000000000E+00  0.10767924867E+04  0.14700549633E+04  0.10007894562E+04 0.  0.
        3    1    3    3  502    0 -0.27603356484E+03 -0.19215339575E+03  0.10826361725E+04  0.11336747984E+04  0.10100000352E+00 0.  1.
       -3    1    3    3    0  502  0.27603356484E+03  0.19215339575E+03 -0.58436857898E+01  0.33638016481E+03  0.10100000352E+00 0. -1.
</event>
<event>
 5   0  0.1020150E-03  0.1000005E+04  0.7818609E-02  0.9308539E-01
       -2   -1    0    0    0  501  0.00000000000E+00  0.00000000000E+00  0.24039211450E+03  0.24039211451E+03  0.25500000920E-02 0.  1.
        2   -1    0    0  501    0  0.00000000000E+00  0.00000000000E+00 -0.10399778198E+04  0.10399778198E+04  0.25500000920E-02 0. -1.
    10030    2    1    2    0    0  0.00000000000E+00  0.00000000000E+00 -0.79958570529E+03  0.12803699343E+04  0.10000049343E+04 0.  0.
        5    1    3    3  502    0  0.38457410450E+03  0.24046974516E+03 -0.66914872872E+03  0.80839659285E+03  0.46999998093E+01 0. -1.
       -5    1    3    3    0  502 -0.38457410450E+03 -0.24046974516E+03 -0.13043697657E+03  0.47197334145E+03  0.46999998093E+01 0.  1.
</event>
<event>
 5   0  0.5888774E-04  0.9999755E+03  0.7818609E-02  0.9308572E-01
        1   -1    0    0  501    0  0.00000000000E+00  0.00000000000E+00  0.35128518801E+03  0.35128518804E+03  0.50400001928E-02 0. -1.
       -1   -1    0    0    0  501  0.00000000000E+00  0.00000000000E+00 -0.71163765711E+03  0.71163765713E+03  0.50400001928E-02 0.  1.
    10030    2    1    2    0    0  0.00000000000E+00  0.00000000000E+00 -0.36035246910E+03  0.10629228452E+04  0.99997553610E+03 0.  0.
        2    1    3    3  502    0  0.14140226946E+03  0.45424295892E+03 -0.34366488824E+03  0.58688740228E+03  0.25500000920E-02 0.  1.
       -2    1    3    3    0  502 -0.14140226946E+03 -0.45424295892E+03 -0.16687580862E+02  0.47603544290E+03  0.25500000920E-02 0. -1.
</event>
<event>
 5   0  0.9741826E-04  0.1001355E+04  0.7818609E-02  0.9307059E-01
        2   -1    0    0  501    0  0.00000000000E+00  0.00000000000E+00  0.91430947274E+03  0.91430947274E+03  0.25500000920E-02 0. -1.
       -2   -1    0    0    0  501  0.00000000000E+00  0.00000000000E+00 -0.27417211437E+03  0.27417211438E+03  0.25500000920E-02 0.  1.
    10030    2    1    2    0    0  0.00000000000E+00  0.00000000000E+00  0.64013735837E+03  0.11884815871E+04  0.10013554041E+04 0.  0.
        3    1    3    3  502    0 -0.25501320898E+02 -0.12812957401E+03 -0.25358598223E+03  0.28526017193E+03  0.10100000352E+00 0.  1.
       -3    1    3    3    0  502  0.25501320898E+02  0.12812957401E+03  0.89372334061E+03  0.90322141519E+03  0.10100000352E+00 0. -1.
</event>
<event>
 5   0  0.9674819E-04  0.1001703E+04  0.7818609E-02  0.9306679E-01
       -2   -1    0    0    0  501  0.00000000000E+00  0.00000000000E+00  0.28251436291E+03  0.28251436292E+03  0.25500000920E-02 0. -1.
        2   -1    0    0  501    0  0.00000000000E+00  0.00000000000E+00 -0.88792791222E+03  0.88792791222E+03  0.25500000920E-02 0.  1.
    10030    2    1    2    0    0  0.00000000000E+00  0.00000000000E+00 -0.60541354931E+03  0.11704422751E+04  0.10017033262E+04 0.  0.
        4    1    3    3  502    0  0.86691714737E+02 -0.39624397062E+03 -0.64601308636E+03  0.76279699679E+03  0.12699999809E+01 0.  1.
       -4    1    3    3    0  502 -0.86691714737E+02  0.39624397062E+03  0.40599537059E+02  0.40764527835E+03  0.12699999809E+01 0. -1.
</event>
<event>
 5   0  0.9741826E-04  0.9931947E+03  0.7818609E-02  0.9316040E-01
        2   -1    0    0  501    0  0.00000000000E+00  0.00000000000E+00  0.21465679297E+04  0.21465679297E+04  0.25500000920E-02 0.  1.
       -2   -1    0    0    0  501  0.00000000000E+00  0.00000000000E+00 -0.11488522218E+03  0.11488522221E+03  0.25500000920E-02 0. -1.
    10030    2    1    2    0    0  0.00000000000E+00  0.00000000000E+00  0.20316827076E+04  0.22614531519E+04  0.99319471115E+03 0.  0.
        3    1    3    3  502    0  0.27569193227E+03  0.41005422549E+03  0.90294479422E+03  0.10293006465E+04  0.10100000352E+00 0. -1.
       -3    1    3    3    0  502 -0.27569193227E+03 -0.41005422549E+03  0.11287379133E+04  0.12321525054E+04  0.10100000352E+00 0.  1.
</event>
<event>
 5   0  0.5888774E-04  0.1000549E+04  0.7818609E-02  0.9307943E-01
       -1   -1    0    0    0  501  0.00000000000E+00  0.00000000000E+00  0.56435658265E+03  0.56435658267E+03  0.50400001928E-02 0.  1.
        1   -1    0    0  501    0  0.00000000000E+00  0.00000000000E+00 -0.44346858913E+03  0.44346858916E+03  0.50400001928E-02 0. -1.
    10030    2    1    2    0    0  0.00000000000E+00  0.00000000000E+00  0.12088799352E+03  0.10078251718E+04  0.10005486845E+04 0.  0.
        2    1    3    3  502    0 -0.16292724308E+03 -0.38249065692E+03  0.34073017702E+03  0.53753273640E+03  0.25500000920E-02 0.  1.
       -2    1    3    3    0  502  0.16292724308E+03  0.38249065692E+03 -0.21984218350E+03  0.47029243543E+03  0.25500000920E-02 0. -1.
</event>
<event>
 5   0  0.1006006E-03  0.1002585E+04  0.7818609E-02  0.9305714E-01
       -2   -1    0    0    0  501  0.00000000000E+00  0.00000000000E+00  0.45628246201E+03  0.45628246202E+03  0.25500000920E-02 0.  1.
        2   -1    0    0  501    0  0.00000000000E+00  0.00000000000E+00 -0.55074236568E+03  0.55074236569E+03  0.25500000920E-02 0. -1.
    10030    2    1    2    0    0  0.00000000000E+00  0.00000000000E+00 -0.94459903669E+02  0.10070248277E+04  0.10025848245E+04 0.  0.
        2    1    3    3  502    0  0.28592299674E+03  0.28517159197E+03 -0.34556262506E+03  0.53149630740E+03  0.25500000920E-02 0. -1.
       -2    1    3    3    0  502 -0.28592299674E+03 -0.28517159197E+03  0.25110272139E+03  0.47552852031E+03  0.25500000920E-02 0.  1.
</event>
<event>
 5   0  0.5768102E-04  0.9987635E+03  0.7818609E-02  0.9309902E-01
        1   -1    0    0  501    0  0.00000000000E+00  0.00000000000E+00  0.64968944320E+03  0.64968944322E+03  0.50400001928E-02 0. -1.
       -1   -1    0    0    0  501  0.00000000000E+00  0.00000000000E+00 -0.38384824530E+03  0.38384824533E+03  0.50400001928E-02 0.  1.
    10030    2    1    2    0    0  0.00000000000E+00  0.00000000000E+00  0.26584119790E+03  0.10335376885E+04  0.99876354116E+03 0.  0.
        4    1    3    3  502    0 -0.49818119937E+03  0.33007668989E+02  0.14360110892E+03  0.51951602959E+03  0.12699999809E+01 0. -1.
       -4    1    3    3    0  502  0.49818119937E+03 -0.33007668989E+02  0.12224008898E+03  0.51402165896E+03  0.12699999809E+01 0.  1.
</event>
<event>
 5   0  0.5768102E-04  0.9941158E+03  0.7818609E-02  0.9315022E-01
        1   -1    0    0  501    0  0.00000000000E+00  0.00000000000E+00  0.78014745647E+03  0.78014745649E+03  0.50400001928E-02 0. -1.
       -1   -1    0    0    0  501  0.00000000000E+00  0.00000000000E+00 -0.31669214785E+03  0.31669214789E+03  0.50400001928E-02 0.  1.
    10030    2    1    2    0    0  0.00000000000E+00  0.00000000000E+00  0.46345530862E+03  0.10968396044E+04  0.99411583562E+03 0.  0.
        4    1    3    3  502    0 -0.17671118208E+03  0.26450312358E+03  0.65313138583E+03  0.72647846789E+03  0.12699999809E+01 0. -1.
       -4    1    3    3    0  502  0.17671118208E+03 -0.26450312358E+03 -0.18967607721E+03  0.37036113648E+03  0.12699999809E+01 0.  1.
</event>
<event>
 5   0  0.9674819E-04  0.9996153E+03  0.7818609E-02  0.9308967E-01
        2   -1    0    0  501    0  0.00000000000E+00  0.00000000000E+00  0.11177459677E+04  0.11177459677E+04  0.25500000920E-02 0. -1.
       -2   -1    0    0    0  501  0.00000000000E+00  0.00000000000E+00 -0.22349237299E+03  0.22349237300E+03  0.25500000920E-02 0.  1.
    10030    2    1    2    0    0  0.00000000000E+00  0.00000000000E+00  0.89425359468E+03  0.13412383407E+04  0.99961532346E+03 0.  0.
        4    1    3    3  502    0 -0.25488603963E+03 -0.34127587432E+03  0.96289505366E+02  0.43670287076E+03  0.12699999809E+01 0.  1.
       -4    1    3    3    0  502  0.25488603963E+03  0.34127587432E+03  0.79796408931E+03  0.90453546991E+03  0.12699999809E+01 0. -1.
</event>
<event>
 5   0  0.5758786E-04  0.9998421E+03  0.7818609E-02  0.9308718E-01
        1   -1    0    0  501    0  0.00000000000E+00  0.00000000000E+00  0.91817963091E+03  0.91817963093E+03  0.50400001928E-02 0.  1.
       -1   -1    0    0    0  501  0.00000000000E+00  0.00000000000E+00 -0.27219191550E+03  0.27219191554E+03  0.50400001928E-02 0. -1.
    10030    2    1    2    0    0  0.00000000000E+00  0.00000000000E+00  0.64598771542E+03  0.11903715465E+04  0.99984213263E+03 0.  0.
        3    1    3    3  502    0  0.83683311360E+02 -0.46801547868E+03  0.13901609553E+03  0.49534520276E+03  0.10100000352E+00 0. -1.
       -3    1    3    3    0  502 -0.83683311360E+02  0.46801547868E+03  0.50697161989E+03  0.69502634371E+03  0.10100000352E+00 0.  1.
</event>
<event>
 5   0  0.3854625E-04  0.1001307E+04  0.7818609E-02  0.9307113E-01
        4   -1    0    0  501    0  0.00000000000E+00  0.00000000000E+00  0.36624826069E+03  0.36625046261E+03  0.12699999809E+01 0.  1.
       -4   -1    0    0    0  501  0.00000000000E+00  0.00000000000E+00 -0.68437754108E+03  0.68437871945E+03  0.12699999809E+01 0. -1.
    10030    2    1    2    0    0  0.00000000000E+00  0.00000000000E+00 -0.31812928039E+03  0.10506291821E+04  0.10013068656E+04 0.  0.
        3    1    3    3  502    0 -0.22438220629E+03  0.24192787161E+03 -0.55414527126E+03  0.64494454135E+03  0.10100000352E+00 0. -1.
       -3    1    3    3    0  502  0.22438220629E+03 -0.24192787161E+03  0.23601599087E+03  0.40568464071E+03  0.10100000352E+00 0.  1.
</event>
<event>
 5   0  0.9741826E-04  0.9945648E+03  0.7818609E-02  0.9314526E-01
        2   -1    0    0  501    0  0.00000000000E+00  0.00000000000E+00  0.23979045836E+04  0.23979045836E+04  0.25500000920E-02 0.  1.
       -2   -1    0    0    0  501  0.00000000000E+00  0.00000000000E+00 -0.10312745339E+03  0.10312745342E+03  0.25500000920E-02 0. -1.
    10030    2    1    2    0    0  0.00000000000E+00  0.00000000000E+00  0.22947771302E+04  0.25010320370E+04  0.99456481582E+03 0.  0.
        3    1    3    3  502    0 -0.24969432827E+03  0.18623280517E+03  0.21221709321E+04  0.21449101125E+04  0.10100000352E+00 0.  1.
       -3    1    3    3    0  502  0.24969432827E+03 -0.18623280517E+03  0.17260619802E+03  0.35612192447E+03  0.10100000352E+00 0. -1.
</event>
<event>
 5   0  0.9741826E-04  0.9988260E+03  0.7818609E-02  0.9309833E-01
       -2   -1    0    0    0  501  0.00000000000E+00  0.00000000000E+00  0.17302049862E+03  0.17302049864E+03  0.25500000920E-02 0. -1.
        2   -1    0    0  501    0  0.00000000000E+00  0.00000000000E+00 -0.14415249138E+04  0.14415249138E+04  0.25500000920E-02 0.  1.
    10030    2    1    2    0    0  0.00000000000E+00  0.00000000000E+00 -0.12685044151E+04  0.16145454124E+04  0.99882602963E+03 0.  0.
        3    1    3    3  502    0  0.37121243405E+03 -0.35946716720E+02 -0.11711510695E+04  0.12290995384E+04  0.10100000352E+00 0.  1.
       -3    1    3    3    0  502 -0.37121243405E+03  0.35946716720E+02 -0.97353345658E+02  0.38544587396E+03  0.10100000352E+00 0. -1.
</event>
<event>
 5   0  0.9674819E-04  0.9927266E+03  0.7818609E-02  0.9316558E-01
       -2   -1    0    0    0  501  0.00000000000E+00  0.00000000000E+00  0.27973464000E+03  0.27973464001E+03  0.25500000920E-02 0. -1.
        2   -1    0    0  501    0  0.00000000000E+00  0.00000000000E+00 -0.88075081877E+03  0.88075081877E+03  0.25500000920E-02 0.  1.
    10030    2    1    2    0    0  0.00000000000E+00  0.00000000000E+00 -0.60101617876E+03  0.11604854588E+04  0.99272657510E+03 0.  0.
        4    1    3    3  502    0 -0.38559788440E+03 -0.29323827528E+03 -0.42695610017E+03  0.64573023695E+03  0.12699999809E+01 0. -1.
       -4    1    3    3    0  502  0.38559788440E+03  0.29323827528E+03 -0.17406007860E+03  0.51475522183E+03  0.12699999809E+01 0.  1.
</event>
<event>
 5   0  0.5826939E-04  0.9992505E+03  0.7818609E-02  0.9309367E-01
       -1   -1    0    0    0  501  0.00000000000E+00  0.00000000000E+00  0.79162148669E+03  0.79162148671E+03  0.50400001928E-02 0. -1.
        1   -1    0    0  501    0  0.00000000000E+00  0.00000000000E+00 -0.31533431005E+03  0.31533431009E+03  0.50400001928E-02 0.  1.
    10030    2    1    2    0    0  0.00000000000E+00  0.00000000000E+00  0.47628717664E+03  0.11069557968E+04  0.99925054988E+03 0.  0.
        1    1    3    3  502    0 -0.34387923481E+03 -0.16059820762E+03 -0.12181136768E+03  0.39860095552E+03  0.50400001928E-02 0.  1.
       -1    1    3    3    0  502  0.34387923481E+03  0.16059820762E+03  0.59809854432E+03  0.70835484128E+03  0.50400001928E-02 0. -1.
</event>
<event>
 5   0  0.9674819E-04  0.1002516E+04  0.7818609E-02  0.9305789E-01
       -2   -1    0    0    0  501  0.00000000000E+00  0.00000000000E+00  0.59549576093E+03  0.59549576093E+03  0.25500000920E-02 0. -1.
        2   -1    0    0  501    0  0.00000000000E+00  0.00000000000E+00 -0.42193356463E+03  0.42193356464E+03  0.25500000920E-02 0.  1.
    10030    2    1    2    0    0  0.00000000000E+00  0.00000000000E+00  0.17356219630E+03  0.10174293256E+04  0.10025161328E+04 0.  0.
        4    1    3    3  502    0 -0.20586118441E+03 -0.40526773316E+03 -0.12763713380E+03  0.47213728259E+03  0.12699999809E+01 0.  1.
       -4    1    3    3    0  502  0.20586118441E+03  0.40526773316E+03  0.30119933010E+03  0.54529204298E+03  0.12699999809E+01 0. -1.
</event>
<event>
 5   0  0.5758786E-04  0.9938190E+03  0.7818609E-02  0.9315350E-01
        1   -1    0    0  501    0  0.00000000000E+00  0.00000000000E+00  0.15484475085E+04  0.15484475085E+04  0.50400001928E-02 0.  1.
       -1   -1    0    0    0  501  0.00000000000E+00  0.00000000000E+00 -0.15946232341E+03  0.15946232349E+03  0.50400001928E-02 0. -1.
    10030    2    1    2    0    0  0.00000000000E+00  0.00000000000E+00  0.13889851851E+04  0.17079098320E+04  0.99381897237E+03 0.  0.
        3    1    3    3  502    0 -0.23255552015E+03 -0.31970478063E+03  0.17714360051E+03  0.43321251380E+03  0.10100000352E+00 0. -1.
       -3    1    3    3    0  502  0.23255552015E+03  0.31970478063E+03  0.12118415846E+04  0.12746973182E+04  0.10100000352E+00 0.  1.
</event>
<event>
 5   0  0.9741826E-04  0.1000291E+04  0.7818609E-02  0.9308225E-01
       -2   -1    0    0    0  501  0.00000000000E+00  0.00000000000E+00  0.55046361444E+03  0.55046361445E+03  0.25500000920E-02 0.  1.
        2   -1    0    0  501    0  0.00000000000E+00  0.00000000000E+00 -0.45442722198E+03  0.45442722198E+03  0.25500000920E-02 0. -1.
    10030    2    1    2    0    0  0.00000000000E+00  0.00000000000E+00  0.96036392467E+02  0.10048908364E+04  0.10002912598E+04 0.  0.
        3    1    3    3  502    0  0.94862875091E+02  0.18197984248E+03 -0.41018214648E+03  0.45865567873E+03  0.10100000352E+00 0. -1.
       -3    1    3    3    0  502 -0.94862875091E+02 -0.18197984248E+03  0.50621853895E+03  0.54623515770E+03  0.10100000352E+00 0.  1.
</event>
<event>
 5   0  0.9741826E-04  0.1000449E+04  0.7818609E-02  0.9308052E-01
        2   -1    0    0  501    0  0.00000000000E+00  0.00000000000E+00  0.89541868937E+03  0.89541868938E+03  0.25500000920E-02 0.  1.
       -2   -1    0    0    0  501  0.00000000000E+00  0.00000000000E+00 -0.27944994746E+03  0.27944994747E+03  0.25500000920E-02 0. -1.
    10030    2    1    2    0    0  0.00000000000E+00  0.00000000000E+00  0.61596874192E+03  0.11748686368E+04  0.10004493105E+04 0.  0.
        3    1    3    3  502    0 -0.48545529977E+03 -0.53983510548E+02  0.18126634974E+03  0.52099766529E+03  0.10100000352E+00 0.  1.
       -3    1    3    3    0  502  0.48545529977E+03  0.53983510548E+02  0.43470239217E+03  0.65387097156E+03  0.10100000352E+00 0. -1.
</event>
<event>
 5   0  0.5768102E-04  0.1000716E+04  0.7818609E-02  0.9307760E-01
        1   -1    0    0  501    0  0.00000000000E+00  0.00000000000E+00  0.94678967689E+03  0.94678967691E+03  0.50400001928E-02 0.  1.
       -1   -1    0    0    0  501  0.00000000000E+00  0.00000000000E+00 -0.26442825917E+03  0.26442825922E+03  0.50400001928E-02 0. -1.
    10030    2    1    2    0    0  0.00000000000E+00  0.00000000000E+00  0.68236141772E+03  0.12112179361E+04  0.10007156361E+04 0.  0.
        4    1    3    3  502    0 -0.25236192050E+03  0.42682149664E+03  0.26004917437E+03  0.55990205831E+03  0.12699999809E+01 0.  1.
       -4    1    3    3    0  502  0.25236192050E+03 -0.42682149664E+03  0.42231224335E+03  0.65131587782E+03  0.12699999809E+01 0. -1.
</event>
<event>
 5   0  0.5826939E-04  0.1000279E+04  0.7818609E-02  0.9308238E-01
       -1   -1    0    0    0  501  0.00000000000E+00  0.00000000000E+00  0.13253626601E+03  0.13253626610E+03  0.50400001928E-02 0.  1.
        1   -1    0    0  501    0  0.00000000000E+00  0.00000000000E+00 -0.18873301143E+04  0.18873301143E+04  0.50400001928E-02 0. -1.
    10030    2    1    2    0    0  0.00000000000E+00  0.00000000000E+00 -0.17547938483E+04  0.20198663804E+04  0.10002793333E+04 0.  0.
        1    1    3    3  502    0 -0.28707407252E+03  0.11196023799E+03 -0.16728920156E+04  0.17010333077E+04  0.50400001928E-02 0. -1.
       -1    1    3    3    0  502  0.28707407252E+03 -0.11196023799E+03 -0.81901832638E+02  0.31883307266E+03  0.50400001928E-02 0.  1.
</event>
<event>
 5   0  0.1006749E-03  0.1004592E+04  0.7818609E-02  0.9303522E-01
       -2   -1    0    0    0  501  0.00000000000E+00  0.00000000000E+00  0.44542577796E+03  0.44542577797E+03  0.25500000920E-02 0. -1.
        2   -1    0    0  501    0  0.00000000000E+00  0.00000000000E+00 -0.56642764774E+03  0.56642764775E+03  0.25500000920E-02 0.  1.
    10030    2    1    2    0    0  0.00000000000E+00  0.00000000000E+00 -0.12100186978E+03  0.10118534257E+04  0.10045924062E+04 0.  0.
        1    1    3    3  502    0  0.43970968126E+02 -0.12269027620E+03  0.42809813662E+03  0.44749789331E+03  0.50400001928E-02 0. -1.
       -1    1    3    3    0  502 -0.43970968126E+02  0.12269027620E+03 -0.54910000640E+03  0.56435553241E+03  0.50400001928E-02 0.  1.
</event>
<event>
 5   0  0.5768102E-04  0.1000257E+04  0.7818609E-02  0.9308263E-01
       -1   -1    0    0    0  501  0.00000000000E+00  0.00000000000E+00  0.23296830548E+03  0.23296830554E+03  0.50400001928E-02 0.  1.
        1   -1    0    0  501    0  0.00000000000E+00  0.00000000000E+00 -0.10736585311E+04  0.10736585311E+04  0.50400001928E-02 0. -1.
    10030    2    1    2    0    0  0.00000000000E+00  0.00000000000E+00 -0.84069022564E+03  0.13066268367E+04  0.10002567844E+04 0.  0.
        4    1    3    3  502    0  0.23927280050E+03 -0.21634172448E+03  0.78910473536E+02  0.33208988323E+03  0.12699999809E+01 0.  1.
       -4    1    3    3    0  502 -0.23927280050E+03  0.21634172448E+03 -0.91960069918E+03  0.97453695345E+03  0.12699999809E+01 0. -1.
</event>
<event>
 5   0  0.1020150E-03  0.1000433E+04  0.7818609E-02  0.9308070E-01
       -2   -1    0    0    0  501  0.00000000000E+00  0.00000000000E+00  0.76612825551E+03  0.76612825551E+03  0.25500000920E-02 0. -1.
        2   -1    0    0  501    0  0.00000000000E+00  0.00000000000E+00 -0.32659885312E+03  0.32659885313E+03  0.25500000920E-02 0.  1.
    10030    2    1    2    0    0  0.00000000000E+00  0.00000000000E+00  0.43952940239E+03  0.10927271086E+04  0.10004331254E+04 0.  0.
        5    1    3    3  502    0  0.14801896273E+03 -0.10287434592E+03 -0.28986489268E+03  0.34137441378E+03  0.46999998093E+01 0.  1.
       -5    1    3    3    0  502 -0.14801896273E+03  0.10287434592E+03  0.72939429508E+03  0.75135269486E+03  0.46999998093E+01 0. -1.
</event>
<event>
 5   0  0.5888774E-04  0.9997013E+03  0.7818609E-02  0.9308872E-01
        1   -1    0    0  501    0  0.00000000000E+00  0.00000000000E+00  0.76545934998E+03  0.76545935000E+03  0.50400001928E-02 0. -1.
       -1   -1    0    0    0  501  0.00000000000E+00  0.00000000000E+00 -0.32640619874E+03  0.32640619878E+03  0.50400001928E-02 0.  1.
    10030    2    1    2    0    0  0.00000000000E+00  0.00000000000E+00  0.43905315124E+03  0.10918655488E+04  0.99970130889E+03 0.  0.
        2    1    3    3  502    0 -0.41941153442E+03  0.26675983227E+02 -0.76038022481E+02  0.42708245592E+03  0.25500000920E-02 0.  1.
       -2    1    3    3    0  502  0.41941153442E+03 -0.26675983227E+02  0.51509117372E+03  0.66478309285E+03  0.25500000920E-02 0. -1.
</event>
<event>
 5   0  0.5960102E-04  0.1000281E+04  0.7818609E-02  0.9308236E-01
        1   -1    0    0  501    0  0.00000000000E+00  0.00000000000E+00  0.16675150190E+04  0.16675150190E+04  0.50400001928E-02 0.  1.
       -1   -1    0    0    0  501  0.00000000000E+00  0.00000000000E+00 -0.15000808037E+03  0.15000808045E+03  0.50400001928E-02 0. -1.
    10030    2    1    2    0    0  0.00000000000E+00  0.00000000000E+00  0.15175069386E+04  0.18175230994E+04  0.10002814145E+04 0.  0.
        5    1    3    3  502    0  0.46530259229E+03  0.15680070986E+03  0.58613092455E+03  0.76463358265E+03  0.46999998093E+01 0. -1.
       -5    1    3    3    0  502 -0.46530259229E+03 -0.15680070986E+03  0.93137601407E+03  0.10528895168E+04  0.46999998093E+01 0.  1.
</event>
<event>
 5   0  0.5826939E-04  0.9999538E+03  0.7818609E-02  0.9308595E-01
        1   -1    0    0  501    0  0.00000000000E+00  0.00000000000E+00  0.99744465136E+03  0.99744465137E+03  0.50400001928E-02 0.  1.
       -1   -1    0    0    0  501  0.00000000000E+00  0.00000000000E+00 -0.25061732554E+03  0.25061732559E+03  0.50400001928E-02 0. -1.
    10030    2    1    2    0    0  0.00000000000E+00  0.00000000000E+00  0.74682732583E+03  0.12480619770E+04  0.99995382080E+03 0.  0.
        1    1    3    3  502    0 -0.20170976339E+03 -0.30670849330E+03  0.79707624661E+03  0.87754627881E+03  0.50400001928E-02 0.  1.
       -1    1    3    3    0  502  0.20170976339E+03  0.30670849330E+03 -0.50248920788E+02  0.37051569815E+03  0.50400001928E-02 0. -1.
</event>
<event>
 5   0  0.1020150E-03  0.9880236E+03  0.7818609E-02  0.9321779E-01
       -2   -1    0    0    0  501  0.00000000000E+00  0.00000000000E+00  0.26200936731E+03  0.26200936732E+03  0.25500000920E-02 0.  1.
        2   -1    0    0  501    0  0.00000000000E+00  0.00000000000E+00 -0.93144637612E+03  0.93144637613E+03  0.25500000920E-02 0. -1.
    10030    2    1    2    0    0  0.00000000000E+00  0.00000000000E+00 -0.66943700881E+03  0.11934557434E+04  0.98802363474E+03 0.  0.
        5    1    3    3  502    0 -0.93354566812E+01  0.69175272408E+02  0.25599527079E+03  0.26538281356E+03  0.46999998093E+01 0.  1.
       -5    1    3    3    0  502  0.93354566812E+01 -0.69175272408E+02 -0.92543227961E+03  0.92807292989E+03  0.46999998093E+01 0. -1.
</event>
<event>
 5   0  0.5888774E-04  0.1001254E+04  0.7818609E-02  0.9307170E-01
        1   -1    0    0  501    0  0.00000000000E+00  0.00000000000E+00  0.50601528789E+03  0.50601528792E+03  0.50400001928E-02 0.  1.
       -1   -1    0    0    0  501  0.00000000000E+00  0.00000000000E+00 -0.49529624774E+03  0.49529624776E+03  0.50400001928E-02 0. -1.
    10030    2    1    2    0    0  0.00000000000E+00  0.00000000000E+00  0.10719040158E+02  0.10013115357E+04  0.10012541604E+04 0.  0.
        2    1    3    3  502    0  0.22308859018E+02  0.44104286844E+03 -0.23047378970E+03  0.49813117222E+03  0.25500000920E-02 0. -1.
       -2    1    3    3    0  502 -0.22308859018E+02 -0.44104286844E+03  0.24119282986E+03  0.50318036346E+03  0.25500000920E-02 0.  1.
</event>
<event>
 5   0  0.5758786E-04  0.1029769E+04  0.7818609E-02  0.9276484E-01
       -1   -1    0    0    0  501  0.00000000000E+00  0.00000000000E+00  0.68136236894E+03  0.68136236895E+03  0.50400001928E-02 0. -1.
        1   -1    0    0  501    0  0.00000000000E+00  0.00000000000E+00 -0.38908248881E+03  0.38908248884E+03  0.50400001928E-02 0.  1.
    10030    2    1    2    0    0  0.00000000000E+00  0.00000000000E+00  0.29227988013E+03  0.10704448578E+04  0.10297692291E+04 0.  0.
        3    1    3    3  502    0  0.80658578740E+02 -0.27355673461E+03  0.59175332442E+03  0.65689504530E+03  0.10100000352E+00 0. -1.
       -3    1    3    3    0  502 -0.80658578740E+02  0.27355673461E+03 -0.29947344430E+03  0.41354981250E+03  0.10100000352E+00 0.  1.
</event>
<event>
 5   0  0.9741826E-04  0.1020111E+04  0.7818609E-02  0.9286758E-01
        2   -1    0    0  501    0  0.00000000000E+00  0.00000000000E+00  0.66151375421E+03  0.66151375421E+03  0.25500000920E-02 0.  1.
       -2   -1    0    0    0  501  0.00000000000E+00  0.00000000000E+00 -0.39327469349E+03  0.39327469350E+03  0.25500000920E-02 0. -1.
    10030    2    1    2    0    0  0.00000000000E+00  0.00000000000E+00  0.26823906072E+03  0.10547884477E+04  0.10201110115E+04 0.  0.
        3    1    3    3  502    0  0.33137194009E+03  0.37659578492E+03  0.22958835548E+03  0.55167252159E+03  0.10100000352E+00 0.  1.
       -3    1    3    3    0  502 -0.33137194009E+03 -0.37659578492E+03  0.38650705241E+02  0.50311592612E+03  0.10100000352E+00 0. -1.
</event>
<event>
 5   0  0.1020150E-03  0.1003503E+04  0.7818609E-02  0.9304712E-01
       -2   -1    0    0    0  501  0.00000000000E+00  0.00000000000E+00  0.19518834935E+03  0.19518834936E+03  0.25500000920E-02 0.  1.
        2   -1    0    0  501    0  0.00000000000E+00  0.00000000000E+00 -0.12898021896E+04  0.12898021896E+04  0.25500000920E-02 0. -1.
    10030    2    1    2    0    0  0.00000000000E+00  0.00000000000E+00 -0.10946138402E+04  0.14849905389E+04  0.10035025867E+04 0.  0.
        5    1    3    3  502    0 -0.58732504572E+02  0.31155734706E+03  0.28136085126E+02  0.31832564597E+03  0.46999998093E+01 0.  1.
       -5    1    3    3    0  502  0.58732504572E+02 -0.31155734706E+03 -0.11227499253E+04  0.11666648930E+04  0.46999998093E+01 0. -1.
</event>
<event>
 5   0  0.1006749E-03  0.1004018E+04  0.7818609E-02  0.9304149E-01
        2   -1    0    0  501    0  0.00000000000E+00  0.00000000000E+00  0.11404878101E+04  0.11404878101E+04  0.25500000920E-02 0. -1.
       -2   -1    0    0    0  501  0.00000000000E+00  0.00000000000E+00 -0.22096966402E+03  0.22096966404E+03  0.25500000920E-02 0.  1.
    10030    2    1    2    0    0  0.00000000000E+00  0.00000000000E+00  0.91951814611E+03  0.13614574742E+04  0.10040183429E+04 0.  0.
        1    1    3    3  502    0  0.18142891202E+03  0.16838016759E+03  0.10519869888E+04  0.10807150205E+04  0.50400001928E-02 0. -1.
       -1    1    3    3    0  502 -0.18142891202E+03 -0.16838016759E+03 -0.13246884271E+03  0.28074245363E+03  0.50400001928E-02 0.  1.
</event>
<event>
 5   0  0.5768102E-04  0.9988234E+03  0.7818609E-02  0.9309836E-01
       -1   -1    0    0    0  501  0.00000000000E+00  0.00000000000E+00  0.48382438920E+03  0.48382438923E+03  0.50400001928E-02 0. -1.
        1   -1    0    0  501    0  0.00000000000E+00  0.00000000000E+00 -0.51550113857E+03  0.51550113860E+03  0.50400001928E-02 0.  1.
    10030    2    1    2    0    0  0.00000000000E+00  0.00000000000E+00 -0.31676749373E+02  0.99932552783E+03  0.99882335481E+03 0.  0.
        4    1    3    3  502    0  0.17674646498E+03 -0.36722480281E+03  0.27295366247E+03  0.49050859670E+03  0.12699999809E+01 0.  1.
       -4    1    3    3    0  502 -0.17674646498E+03  0.36722480281E+03 -0.30463041185E+03  0.50881693113E+03  0.12699999809E+01 0. -1.
</event>
<event>
 5   0  0.5758786E-04  0.1000760E+04  0.7818609E-02  0.9307711E-01
        1   -1    0    0  501    0  0.00000000000E+00  0.00000000000E+00  0.98450238519E+03  0.98450238521E+03  0.50400001928E-02 0. -1.
       -1   -1    0    0    0  501  0.00000000000E+00  0.00000000000E+00 -0.25432177379E+03  0.25432177384E+03  0.50400001928E-02 0.  1.
    10030    2    1    2    0    0  0.00000000000E+00  0.00000000000E+00  0.73018061141E+03  0.12388241590E+04  0.10007604967E+04 0.  0.
        3    1    3    3  502    0  0.49174692413E+03  0.11460157612E+02  0.25140703195E+03  0.55240553809E+03  0.10100000352E+00 0. -1.
       -3    1    3    3    0  502 -0.49174692413E+03 -0.11460157612E+02  0.47877357946E+03  0.68641862095E+03  0.10100000352E+00 0.  1.
</event>
<event>
 5   0  0.5826939E-04  0.1001375E+04  0.7818609E-02  0.9307038E-01
       -1   -1    0    0    0  501  0.00000000000E+00  0.00000000000E+00  0.13180953227E+03  0.13180953237E+03  0.50400001928E-02 0.  1.
        1   -1    0    0  501    0  0.00000000000E+00  0.00000000000E+00 -0.19018955169E+04  0.19018955170E+04  0.50400001928E-02 0. -1.
    10030    2    1    2    0    0  0.00000000000E+00  0.00000000000E+00 -0.17700859847E+04  0.20337050493E+04  0.10013749720E+04 0.  0.
        1    1    3    3  502    0  0.47278660826E+03  0.11854865405E+03 -0.11175536451E+04  0.12192239786E+04  0.50400001928E-02 0.  1.
       -1    1    3    3    0  502 -0.47278660826E+03 -0.11854865405E+03 -0.65253233963E+03  0.81448107075E+03  0.50400001928E-02 0. -1.
</event>
<event>
 5   0  0.1006006E-03  0.9972059E+03  0.7818609E-02  0.9311615E-01
       -2   -1    0    0    0  501  0.00000000000E+00  0.00000000000E+00  0.13685145460E+03  0.13685145463E+03  0.25500000920E-02 0. -1.
        2   -1    0    0  501    0  0.00000000000E+00  0.00000000000E+00 -0.18166040355E+04  0.18166040355E+04  0.25500000920E-02 0.  1.
    10030    2    1    2    0    0  0.00000000000E+00  0.00000000000E+00 -0.16797525809E+04  0.19534554901E+04  0.99720590597E+03 0.  0.
        2    1    3    3  502    0 -0.16207804178E+03  0.47011787380E+03 -0.76857564165E+03  0.91541718568E+03  0.25500000920E-02 0.  1.
       -2    1    3    3    0  502  0.16207804178E+03 -0.47011787380E+03 -0.91117693925E+03  0.10380383045E+04  0.25500000920E-02 0. -1.
</event>
<event>
 5   0  0.5826939E-04  0.9996151E+03  0.7818609E-02  0.9308967E-01
       -1   -1    0    0    0  501  0.00000000000E+00  0.00000000000E+00  0.17595780633E+04  0.17595780633E+04  0.50400001928E-02 0.  1.
        1   -1    0    0  501    0  0.00000000000E+00  0.00000000000E+00 -0.14197015178E+03  0.14197015187E+03  0.50400001928E-02 0. -1.
    10030    2    1    2    0    0  0.00000000000E+00  0.00000000000E+00  0.16176079115E+04  0.19015482152E+04  0.99961505551E+03 0.  0.
        1    1    3    3  502    0  0.38944826580E+03 -0.12078615891E+03  0.25895499853E+03  0.48302892171E+03  0.50400001928E-02 0.  1.
       -1    1    3    3    0  502 -0.38944826580E+03  0.12078615891E+03  0.13586529130E+04  0.14185192935E+04  0.50400001928E-02 0. -1.
</event>
<event>
 5   0  0.3854625E-04  0.9996618E+03  0.7818609E-02  0.9308916E-01
       -4   -1    0    0    0  501  0.00000000000E+00  0.00000000000E+00  0.83378792244E+03  0.83378888965E+03  0.12699999809E+01 0. -1.
        4   -1    0    0  501    0  0.00000000000E+00  0.00000000000E+00 -0.29963119628E+03  0.29963388774E+03  0.12699999809E+01 0.  1.
    10030    2    1    2    0    0  0.00000000000E+00  0.00000000000E+00  0.53415672616E+03  0.11334227774E+04  0.99966183493E+03 0.  0.
        1    1    3    3  502    0  0.25878628422E+03 -0.20056437936E+03  0.69528280609E+03  0.76851453574E+03  0.50400001928E-02 0. -1.
       -1    1    3    3    0  502 -0.25878628422E+03  0.20056437936E+03 -0.16112607993E+03  0.36490824166E+03  0.50400001928E-02 0.  1.
</event>
<event>
 5   0  0.5768102E-04  0.9997168E+03  0.7818609E-02  0.9308855E-01
        1   -1    0    0  501    0  0.00000000000E+00  0.00000000000E+00  0.11548155457E+04  0.11548155457E+04  0.50400001928E-02 0.  1.
       -1   -1    0    0    0  501  0.00000000000E+00  0.00000000000E+00 -0.21636221004E+03  0.21636221010E+03  0.50400001928E-02 0. -1.
    10030    2    1    2    0    0  0.00000000000E+00  0.00000000000E+00  0.93845333569E+03  0.13711777558E+04  0.99971684733E+03 0.  0.
        4    1    3    3  502    0  0.62331934720E+02 -0.49593777895E+03  0.46352515203E+03  0.68168668033E+03  0.12699999809E+01 0. -1.
       -4    1    3    3    0  502 -0.62331934720E+02  0.49593777895E+03  0.47492818366E+03  0.68949107551E+03  0.12699999809E+01 0.  1.
</event>
<event>
 5   0  0.1006749E-03  0.1001483E+04  0.7818609E-02  0.9306920E-01
       -2   -1    0    0    0  501  0.00000000000E+00  0.00000000000E+00  0.19055525640E+03  0.19055525642E+03  0.25500000920E-02 0. -1.
        2   -1    0    0  501    0  0.00000000000E+00  0.00000000000E+00 -0.13158501289E+04  0.13158501289E+04  0.25500000920E-02 0.  1.
    10030    2    1    2    0    0  0.00000000000E+00  0.00000000000E+00 -0.11252948725E+04  0.15064053853E+04  0.10014832175E+04 0.  0.
        1    1    3    3  502    0 -0.46261400833E+03 -0.27047482755E+02 -0.84803998369E+03  0.96639282954E+03  0.50400001928E-02 0.  1.
       -1    1    3    3    0  502  0.46261400833E+03  0.27047482755E+02 -0.27725488883E+03  0.54001255581E+03  0.50400001928E-02 0. -1.
</event>
<event>
 5   0  0.9741826E-04  0.1000512E+04  0.7818609E-02  0.9307983E-01
       -2   -1    0    0    0  501  0.00000000000E+00  0.00000000000E+00  0.19115256641E+03  0.19115256642E+03  0.25500000920E-02 0. -1.
        2   -1    0    0  501    0  0.00000000000E+00  0.00000000000E+00 -0.13091964512E+04  0.13091964512E+04  0.25500000920E-02 0.  1.
    10030    2    1    2    0    0  0.00000000000E+00  0.00000000000E+00 -0.11180438848E+04  0.15003490177E+04  0.10005123919E+04 0.  0.
        3    1    3    3  502    0 -0.17250147879E+03 -0.69709174200E+01 -0.12631080283E+04  0.12748518562E+04  0.10100000352E+00 0.  1.
       -3    1    3    3    0  502  0.17250147879E+03  0.69709174200E+01  0.14506414352E+03  0.22549716142E+03  0.10100000352E+00 0. -1.
</event>
<event>
 5   0  0.5888774E-04  0.1002808E+04  0.7818609E-02  0.9305470E-01
        1   -1    0    0  501    0  0.00000000000E+00  0.00000000000E+00  0.53467261797E+03  0.53467261800E+03  0.50400001928E-02 0. -1.
       -1   -1    0    0    0  501  0.00000000000E+00  0.00000000000E+00 -0.47020562554E+03  0.47020562557E+03  0.50400001928E-02 0.  1.
    10030    2    1    2    0    0  0.00000000000E+00  0.00000000000E+00  0.64466992434E+02  0.10048782436E+04  0.10028082026E+04 0.  0.
        2    1    3    3  502    0  0.49555920291E+03  0.43258254299E+02 -0.30792064338E+02  0.49839577786E+03  0.25500000920E-02 0.  1.
       -2    1    3    3    0  502 -0.49555920291E+03 -0.43258254299E+02  0.95259056772E+02  0.50648246570E+03  0.25500000920E-02 0. -1.
</event>
<event>
 5   0  0.3854625E-04  0.1000497E+04  0.7818609E-02  0.9308000E-01
       -3   -1    0    0    0  501  0.00000000000E+00  0.00000000000E+00  0.32425227927E+03  0.32425229500E+03  0.10100000352E+00 0.  1.
        3   -1    0    0  501    0  0.00000000000E+00  0.00000000000E+00 -0.77177043381E+03  0.77177044042E+03  0.10100000352E+00 0. -1.
    10030    2    1    2    0    0  0.00000000000E+00  0.00000000000E+00 -0.44751815454E+03  0.10960227354E+04  0.10004965457E+04 0.  0.
        1    1    3    3  502    0 -0.20756680235E+03 -0.17680809109E+03 -0.68321188373E+03  0.73561100903E+03  0.50400001928E-02 0. -1.
       -1    1    3    3    0  502  0.20756680235E+03  0.17680809109E+03  0.23569372919E+03  0.36041172638E+03  0.50400001928E-02 0.  1.
</event>
<event>
 5   0  0.5960102E-04  0.9995330E+03  0.7818609E-02  0.9309057E-01
        1   -1    0    0  501    0  0.00000000000E+00  0.00000000000E+00  0.47651500900E+03  0.47651500902E+03  0.50400001928E-02 0. -1.
       -1   -1    0    0    0  501  0.00000000000E+00  0.00000000000E+00 -0.52415255525E+03  0.52415255527E+03  0.50400001928E-02 0.  1.
    10030    2    1    2    0    0  0.00000000000E+00  0.00000000000E+00 -0.47637546250E+02  0.10006675643E+04  0.99953301017E+03 0.  0.
        5    1    3    3  502    0  0.76273407083E+02  0.28673828239E+03 -0.42640454922E+03  0.51949918653E+03  0.46999998093E+01 0.  1.
       -5    1    3    3    0  502 -0.76273407083E+02 -0.28673828239E+03  0.37876700297E+03  0.48116837776E+03  0.46999998093E+01 0. -1.
</event>
<event>
 5   0  0.1020150E-03  0.9998294E+03  0.7818609E-02  0.9308732E-01
       -2   -1    0    0    0  501  0.00000000000E+00  0.00000000000E+00  0.33382056276E+03  0.33382056277E+03  0.25500000920E-02 0.  1.
        2   -1    0    0  501    0  0.00000000000E+00  0.00000000000E+00 -0.74864989944E+03  0.74864989944E+03  0.25500000920E-02 0. -1.
    10030    2    1    2    0    0  0.00000000000E+00  0.00000000000E+00 -0.41482933668E+03  0.10824704622E+04  0.99982944695E+03 0.  0.
        5    1    3    3  502    0 -0.89021318249E+01  0.41880112296E+03 -0.50276134035E+03  0.65441934866E+03  0.46999998093E+01 0.  1.
       -5    1    3    3    0  502  0.89021318249E+01 -0.41880112296E+03  0.87932003679E+02  0.42805111355E+03  0.46999998093E+01 0. -1.
</event>
<event>
 5   0  0.1006749E-03  0.9963897E+03  0.7818609E-02  0.9312513E-01
        2   -1    0    0  501    0  0.00000000000E+00  0.00000000000E+00  0.10353836350E+04  0.10353836350E+04  0.25500000920E-02 0.  1.
       -2   -1    0    0    0  501  0.00000000000E+00  0.00000000000E+00 -0.23971609178E+03  0.23971609179E+03  0.25500000920E-02 0. -1.
    10030    2    1    2    0    0  0.00000000000E+00  0.00000000000E+00  0.79566754320E+03  0.12750997268E+04  0.99638971989E+03 0.  0.
        1    1    3    3  502    0 -0.11867727266E+03 -0.47198469833E+03  0.53413606160E+03  0.72260306035E+03  0.50400001928E-02 0.  1.
       -1    1    3    3    0  502  0.11867727266E+03  0.47198469833E+03  0.26153148159E+03  0.55249666641E+03  0.50400001928E-02 0. -1.
</event>
<event>
 5   0  0.5960102E-04  0.9998778E+03  0.7818609E-02  0.9308679E-01
        1   -1    0    0  501    0  0.00000000000E+00  0.00000000000E+00  0.60754207693E+03  0.60754207695E+03  0.50400001928E-02 0. -1.
       -1   -1    0    0    0  501  0.00000000000E+00  0.00000000000E+00 -0.41139356034E+03  0.41139356037E+03  0.50400001928E-02 0.  1.
    10030    2    1    2    0    0  0.00000000000E+00  0.00000000000E+00  0.19614851658E+03  0.10189356373E+04  0.99987778875E+03 0.  0.
        5    1    3    3  502    0  0.80158995884E+02  0.25918442740E+03 -0.32982761312E+03  0.42709527790E+03  0.46999998093E+01 0.  1.
       -5    1    3    3    0  502 -0.80158995884E+02 -0.25918442740E+03  0.52597612970E+03  0.59184035942E+03  0.46999998093E+01 0. -1.
</event>
<event>
 5   0  0.5768102E-04  0.1000059E+04  0.7818609E-02  0.9308480E-01
        1   -1    0    0  501    0  0.00000000000E+00  0.00000000000E+00  0.63270297048E+03  0.63270297050E+03  0.50400001928E-02 0.  1.
       -1   -1    0    0    0  501  0.00000000000E+00  0.00000000000E+00 -0.39517712014E+03  0.39517712018E+03  0.50400001928E-02 0. -1.
    10030    2    1    2    0    0  0.00000000000E+00  0.00000000000E+00  0.23752585034E+03  0.10278800907E+04  0.10000594738E+04 0.  0.
        4    1    3    3  502    0 -0.28927552288E+02  0.33715674203E+03 -0.25960382003E+03  0.42650583613E+03  0.12699999809E+01 0. -1.
       -4    1    3    3    0  502  0.28927552288E+02 -0.33715674203E+03  0.49712967037E+03  0.60137425455E+03  0.12699999809E+01 0.  1.
</event>
<event>
 5   0  0.9674819E-04  0.9997721E+03  0.7818609E-02  0.9308795E-01
       -2   -1    0    0    0  501  0.00000000000E+00  0.00000000000E+00  0.36962295285E+03  0.36962295286E+03  0.25500000920E-02 0. -1.
        2   -1    0    0  501    0  0.00000000000E+00  0.00000000000E+00 -0.67605666520E+03  0.67605666521E+03  0.25500000920E-02 0.  1.
    10030    2    1    2    0    0  0.00000000000E+00  0.00000000000E+00 -0.30643371236E+03  0.10456796181E+04  0.99977209581E+03 0.  0.
        4    1    3    3  502    0  0.33308589036E+03 -0.12690999872E+03 -0.51978401407E+03  0.63026136826E+03  0.12699999809E+01 0.  1.
       -4    1    3    3    0  502 -0.33308589036E+03  0.12690999872E+03  0.21335030172E+03  0.41541824981E+03  0.12699999809E+01 0. -1.
</event>
<event>
 5   0  0.9741826E-04  0.9992261E+03  0.7818609E-02  0.9309394E-01
       -2   -1    0    0    0  501  0.00000000000E+00  0.00000000000E+00  0.18083164045E+03  0.18083164047E+03  0.25500000920E-02 0.  1.
        2   -1    0    0  501    0  0.00000000000E+00  0.00000000000E+00 -0.13803624405E+04  0.13803624405E+04  0.25500000920E-02 0. -1.
    10030    2    1    2    0    0  0.00000000000E+00  0.00000000000E+00 -0.11995308000E+04  0.15611940809E+04  0.99922610964E+03 0.  0.
        3    1    3    3  502    0 -0.20285264979E+03 -0.13295208481E+03  0.82680696808E+02  0.25624512134E+03  0.10100000352E+00 0.  1.
       -3    1    3    3    0  502  0.20285264979E+03  0.13295208481E+03 -0.12822114968E+04  0.13049489596E+04  0.10100000352E+00 0. -1.
</event>
<event>
 5   0  0.1020150E-03  0.1000116E+04  0.7818609E-02  0.9308418E-01
        2   -1    0    0  501    0  0.00000000000E+00  0.00000000000E+00  0.44594143683E+03  0.44594143683E+03  0.25500000920E-02 0.  1.
       -2   -1    0    0    0  501  0.00000000000E+00  0.00000000000E+00 -0.56074128910E+03  0.56074128910E+03  0.25500000920E-02 0. -1.
    10030    2    1    2    0    0  0.00000000000E+00  0.00000000000E+00 -0.11479985227E+03  0.10066827259E+04  0.10001155456E+04 0.  0.
        5    1    3    3  502    0 -0.18809828418E+02 -0.30342155431E+03  0.34221738513E+03  0.45776989629E+03  0.46999998093E+01 0.  1.
       -5    1    3    3    0  502  0.18809828418E+02  0.30342155431E+03 -0.45701723740E+03  0.54891282964E+03  0.46999998093E+01 0. -1.
</event>
<event>
 5   0  0.1020150E-03  0.1025471E+04  0.7818609E-02  0.9281041E-01
        2   -1    0    0  501    0  0.00000000000E+00  0.00000000000E+00  0.59342892212E+03  0.59342892212E+03  0.25500000920E-02 0.  1.
       -2   -1    0    0    0  501  0.00000000000E+00  0.00000000000E+00 -0.44301467917E+03  0.44301467918E+03  0.25500000920E-02 0. -1.
    10030    2    1    2    0    0  0.00000000000E+00  0.00000000000E+00  0.15041424294E+03  0.10364436013E+04  0.10254710597E+04 0.  0.
        5    1    3    3  502    0 -0.31384993143E+03  0.36294598629E+03  0.25781704899E+03  0.54472313074E+03  0.46999998093E+01 0.  1.
       -5    1    3    3    0  502  0.31384993143E+03 -0.36294598629E+03 -0.10740280605E+03  0.49172047056E+03  0.46999998093E+01 0. -1.
</event>
<event>
 5   0  0.1020150E-03  0.1000855E+04  0.7818609E-02  0.9307607E-01
        2   -1    0    0  501    0  0.00000000000E+00  0.00000000000E+00  0.70216440197E+03  0.70216440198E+03  0.25500000920E-02 0. -1.
       -2   -1    0    0    0  501  0.00000000000E+00  0.00000000000E+00 -0.35665124325E+03  0.35665124326E+03  0.25500000920E-02 0.  1.
    10030    2    1    2    0    0  0.00000000000E+00  0.00000000000E+00  0.34551315872E+03  0.10588156452E+04  0.10008552482E+04 0.  0.
        5    1    3    3  502    0  0.16604108463E+03 -0.42028454282E+03 -0.54625306217E+02  0.45520847179E+03  0.46999998093E+01 0.  1.
       -5    1    3    3    0  502 -0.16604108463E+03  0.42028454282E+03  0.40013846493E+03  0.60360717344E+03  0.46999998093E+01 0. -1.
</event>
<event>
 5   0  0.5960102E-04  0.9996971E+03  0.7818609E-02  0.9308877E-01
        1   -1    0    0  501    0  0.00000000000E+00  0.00000000000E+00  0.13515017288E+04  0.13515017288E+04  0.50400001928E-02 0.  1.
       -1   -1    0    0    0  501  0.00000000000E+00  0.00000000000E+00 -0.18486738528E+03  0.18486738535E+03  0.50400001928E-02 0. -1.
    10030    2    1    2    0    0  0.00000000000E+00  0.00000000000E+00  0.11666343435E+04  0.15363691142E+04  0.99969713587E+03 0.  0.
        5    1    3    3  502    0  0.10005264850E+03 -0.23209373829E+03  0.12460270115E+04  0.12714100201E+04  0.46999998093E+01 0.  1.
       -5    1    3    3    0  502 -0.10005264850E+03  0.23209373829E+03 -0.79392667938E+02  0.26495909410E+03  0.46999998093E+01 0. -1.
</event>
<event>
 5   0  0.1006749E-03  0.1000918E+04  0.7818609E-02  0.9307539E-01
        2   -1    0    0  501    0  0.00000000000E+00  0.00000000000E+00  0.73330016596E+03  0.73330016596E+03  0.25500000920E-02 0.  1.
       -2   -1    0    0    0  501  0.00000000000E+00  0.00000000000E+00 -0.34155047997E+03  0.34155047998E+03  0.25500000920E-02 0. -1.
    10030    2    1    2    0    0  0.00000000000E+00  0.00000000000E+00  0.39174968599E+03  0.10748506459E+04  0.10009176263E+04 0.  0.
        1    1    3    3  502    0  0.10317781553E+03  0.15435349440E+02  0.72149333318E+03  0.72899694202E+03  0.50400001928E-02 0.  1.
       -1    1    3    3    0  502 -0.10317781553E+03 -0.15435349440E+02 -0.32974364719E+03  0.34585370392E+03  0.50400001928E-02 0. -1.
</event>
<event>
 5   0  0.5888774E-04  0.9996620E+03  0.7818609E-02  0.9308916E-01
        1   -1    0    0  501    0  0.00000000000E+00  0.00000000000E+00  0.14805949462E+04  0.14805949462E+04  0.50400001928E-02 0. -1.
       -1   -1    0    0    0  501  0.00000000000E+00  0.00000000000E+00 -0.16873690658E+03  0.16873690666E+03  0.50400001928E-02 0.  1.
    10030    2    1    2    0    0  0.00000000000E+00  0.00000000000E+00  0.13118580396E+04  0.16493318529E+04  0.99966196525E+03 0.  0.
        2    1    3    3  502    0  0.42388430296E+03  0.20288362068E+03  0.93685316142E+03  0.10481094942E+04  0.25500000920E-02 0. -1.
       -2    1    3    3    0  502 -0.42388430296E+03 -0.20288362068E+03  0.37500487822E+03  0.60122235864E+03  0.25500000920E-02 0.  1.
</event>
<event>
 5   0  0.5888774E-04  0.1003668E+04  0.7818609E-02  0.9304531E-01
        1   -1    0    0  501    0  0.00000000000E+00  0.00000000000E+00  0.54604244549E+03  0.54604244551E+03  0.50400001928E-02 0. -1.
       -1   -1    0    0    0  501  0.00000000000E+00  0.00000000000E+00 -0.46120436090E+03  0.46120436093E+03  0.50400001928E-02 0.  1.
    10030    2    1    2    0    0  0.00000000000E+00  0.00000000000E+00  0.84838084590E+02  0.10072468064E+04  0.10036675886E+04 0.  0.
        2    1    3    3  502    0  0.15491218030E+02 -0.15549872188E+03  0.52100260069E+03  0.54393339691E+03  0.25500000920E-02 0. -1.
       -2    1    3    3    0  502 -0.15491218030E+02  0.15549872188E+03 -0.43616451610E+03  0.46331340953E+03  0.25500000920E-02 0.  1.
</event>
<event>
 5   0  0.5758786E-04  0.9999197E+03  0.7818609E-02  0.9308633E-01
        1   -1    0    0  501    0  0.00000000000E+00  0.00000000000E+00  0.11910740979E+04  0.11910740979E+04  0.50400001928E-02 0. -1.
       -1   -1    0    0    0  501  0.00000000000E+00  0.00000000000E+00 -0.20986089119E+03  0.20986089125E+03  0.50400001928E-02 0.  1.
    10030    2    1    2    0    0  0.00000000000E+00  0.00000000000E+00  0.98121320674E+03  0.14009349892E+04  0.99991974022E+03 0.  0.
        3    1    3    3  502    0 -0.62683496991E+02  0.23058733621E+03  0.11058883873E+04  0.11314101271E+04  0.10100000352E+00 0. -1.
       -3    1    3    3    0  502  0.62683496991E+02 -0.23058733621E+03 -0.12467518057E+03  0.26952486206E+03  0.10100000352E+00 0.  1.
</event>
<event>
 5   0  0.1006749E-03  0.1002113E+04  0.7818609E-02  0.9306230E-01
        2   -1    0    0  501    0  0.00000000000E+00  0.00000000000E+00  0.11146555133E+04  0.11146555133E+04  0.25500000920E-02 0. -1.
       -2   -1    0    0    0  501  0.00000000000E+00  0.00000000000E+00 -0.22523345914E+03  0.22523345916E+03  0.25500000920E-02 0.  1.
    10030    2    1    2    0    0  0.00000000000E+00  0.00000000000E+00  0.88942205420E+03  0.13398889725E+04  0.10021132013E+04 0.  0.
        1    1    3    3  502    0 -0.33364182016E+03 -0.20208565331E+03  0.24221583875E+02  0.39082241566E+03  0.50400001928E-02 0.  1.
       -1    1    3    3    0  502  0.33364182016E+03  0.20208565331E+03  0.86520047033E+03  0.94906655684E+03  0.50400001928E-02 0. -1.
</event>
<event>
 5   0  0.5768102E-04  0.1001822E+04  0.7818609E-02  0.9306549E-01
       -1   -1    0    0    0  501  0.00000000000E+00  0.00000000000E+00  0.61329108848E+03  0.61329108850E+03  0.50400001928E-02 0.  1.
        1   -1    0    0  501    0  0.00000000000E+00  0.00000000000E+00 -0.40912357012E+03  0.40912357015E+03  0.50400001928E-02 0. -1.
    10030    2    1    2    0    0  0.00000000000E+00  0.00000000000E+00  0.20416751836E+03  0.10224146587E+04  0.10018220195E+04 0.  0.
        4    1    3    3  502    0 -0.15802397323E+03 -0.89974452095E+02  0.57841443041E+03  0.60632651628E+03  0.12699999809E+01 0.  1.
       -4    1    3    3    0  502  0.15802397323E+03  0.89974452095E+02 -0.37424691205E+03  0.41608814237E+03  0.12699999809E+01 0. -1.
</event>
<event>
 5   0  0.5768102E-04  0.1000945E+04  0.7818609E-02  0.9307509E-01
       -1   -1    0    0    0  501  0.00000000000E+00  0.00000000000E+00  0.45807177244E+03  0.45807177247E+03  0.50400001928E-02 0. -1.
        1   -1    0    0  501    0  0.00000000000E+00  0.00000000000E+00 -0.54679841166E+03  0.54679841168E+03  0.50400001928E-02 0.  1.
    10030    2    1    2    0    0  0.00000000000E+00  0.00000000000E+00 -0.88726639223E+02  0.10048701841E+04  0.10009453884E+04 0.  0.
        4    1    3    3  502    0 -0.27469100331E+03 -0.21501740955E+03 -0.40463487758E+03  0.53424585236E+03  0.12699999809E+01 0.  1.
       -4    1    3    3    0  502  0.27469100331E+03  0.21501740955E+03  0.31590823835E+03  0.47062433179E+03  0.12699999809E+01 0. -1.
</event>
<event>
 5   0  0.5960102E-04  0.1000332E+04  0.7818609E-02  0.9308181E-01
        1   -1    0    0  501    0  0.00000000000E+00  0.00000000000E+00  0.53388361281E+03  0.53388361283E+03  0.50400001928E-02 0. -1.
       -1   -1    0    0    0  501  0.00000000000E+00  0.00000000000E+00 -0.46857750327E+03  0.46857750329E+03  0.50400001928E-02 0.  1.
    10030    2    1    2    0    0  0.00000000000E+00  0.00000000000E+00  0.65306109539E+02  0.10024611161E+04  0.10003316457E+04 0.  0.
        5    1    3    3  502    0  0.68946307082E+02  0.30907918093E+03 -0.35528887434E+03  0.47595777919E+03  0.46999998093E+01 0.  1.
       -5    1    3    3    0  502 -0.68946307082E+02 -0.30907918093E+03  0.42059498388E+03  0.52650333693E+03  0.46999998093E+01 0. -1.
</event>
<event>
 5   0  0.1006006E-03  0.9977051E+03  0.7818609E-02  0.9311065E-01
        2   -1    0    0  501    0  0.00000000000E+00  0.00000000000E+00  0.99938824836E+03  0.99938824836E+03  0.25500000920E-02 0.  1.
       -2   -1    0    0    0  501  0.00000000000E+00  0.00000000000E+00 -0.24900620653E+03  0.24900620655E+03  0.25500000920E-02 0. -1.
    10030    2    1    2    0    0  0.00000000000E+00  0.00000000000E+00  0.75038204182E+03  0.12483944549E+04  0.99770511994E+03 0.  0.
        2    1    3    3  502    0 -0.33213146631E+02 -0.23165518557E+03 -0.17605751520E+03  0.29285403664E+03  0.25500000920E-02 0. -1.
       -2    1    3    3    0  502  0.33213146631E+02  0.23165518557E+03  0.92643955703E+03  0.95554041827E+03  0.25500000920E-02 0.  1.
</event>
<event>
 5   0  0.9674819E-04  0.1000334E+04  0.7818609E-02  0.9308178E-01
       -2   -1    0    0    0  501  0.00000000000E+00  0.00000000000E+00  0.58884261144E+03  0.58884261144E+03  0.25500000920E-02 0.  1.
        2   -1    0    0  501    0  0.00000000000E+00  0.00000000000E+00 -0.42484559549E+03  0.42484559550E+03  0.25500000920E-02 0. -1.
    10030    2    1    2    0    0  0.00000000000E+00  0.00000000000E+00  0.16399701595E+03  0.10136882069E+04  0.10003343239E+04 0.  0.
        4    1    3    3  502    0  0.40126493383E+02  0.36540059515E+03  0.42569855774E+03  0.56244875800E+03  0.12699999809E+01 0.  1.
       -4    1    3    3    0  502 -0.40126493383E+02 -0.36540059515E+03 -0.26170154180E+03  0.45123944895E+03  0.12699999809E+01 0. -1.
</event>
<event>
 5   0  0.1020150E-03  0.1000227E+04  0.7818609E-02  0.9308296E-01
       -2   -1    0    0    0  501  0.00000000000E+00  0.00000000000E+00  0.31544927864E+03  0.31544927865E+03  0.25500000920E-02 0.  1.
        2   -1    0    0  501    0  0.00000000000E+00  0.00000000000E+00 -0.79287985146E+03  0.79287985147E+03  0.25500000920E-02 0. -1.
    10030    2    1    2    0    0  0.00000000000E+00  0.00000000000E+00 -0.47743057282E+03  0.11083291301E+04  0.10002267287E+04 0.  0.
        5    1    3    3  502    0  0.12650910908E+03 -0.13091825217E+03 -0.75483121236E+03  0.77648978910E+03  0.46999998093E+01 0. -1.
       -5    1    3    3    0  502 -0.12650910908E+03  0.13091825217E+03  0.27740063954E+03  0.33183934101E+03  0.46999998093E+01 0.  1.
</event>
<event>
 5   0  0.9741826E-04  0.9996219E+03  0.7818609E-02  0.9308960E-01
       -2   -1    0    0    0  501  0.00000000000E+00  0.00000000000E+00  0.29660424182E+03  0.29660424183E+03  0.25500000920E-02 0.  1.
        2   -1    0    0  501    0  0.00000000000E+00  0.00000000000E+00 -0.84223675010E+03  0.84223675010E+03  0.25500000920E-02 0. -1.
    10030    2    1    2    0    0  0.00000000000E+00  0.00000000000E+00 -0.54563250828E+03  0.11388409919E+04  0.99962191394E+03 0.  0.
        3    1    3    3  502    0  0.47275354131E+02 -0.40353024141E+03 -0.60445856463E+03  0.72831434244E+03  0.10100000352E+00 0. -1.
       -3    1    3    3    0  502 -0.47275354131E+02  0.40353024141E+03  0.58826056354E+02  0.41052664950E+03  0.10100000352E+00 0.  1.
</event>
<event>
 5   0  0.1020150E-03  0.1000451E+04  0.7818609E-02  0.9308051E-01
        2   -1    0    0  501    0  0.00000000000E+00  0.00000000000E+00  0.30045363897E+03  0.30045363898E+03  0.25500000920E-02 0.  1.
       -2   -1    0    0    0  501  0.00000000000E+00  0.00000000000E+00 -0.83282503244E+03  0.83282503244E+03  0.25500000920E-02 0. -1.
    10030    2    1    2    0    0  0.00000000000E+00  0.00000000000E+00 -0.53237139346E+03  0.11332786714E+04  0.10004505218E+04 0.  0.
        5    1    3    3  502    0 -0.11414905372E+03 -0.14405240196E+03  0.26079162314E+03  0.31908535170E+03  0.46999998093E+01 0.  1.
       -5    1    3    3    0  502  0.11414905372E+03  0.14405240196E+03 -0.79316301660E+03  0.81419331972E+03  0.46999998093E+01 0. -1.
</event>
<event>
 5   0  0.1006006E-03  0.9986057E+03  0.7818609E-02  0.9310075E-01
        2   -1    0    0  501    0  0.00000000000E+00  0.00000000000E+00  0.18764352669E+04  0.18764352669E+04  0.25500000920E-02 0.  1.
       -2   -1    0    0    0  501  0.00000000000E+00  0.00000000000E+00 -0.13286007253E+03  0.13286007255E+03  0.25500000920E-02 0. -1.
    10030    2    1    2    0    0  0.00000000000E+00  0.00000000000E+00  0.17435751943E+04  0.20092953394E+04  0.99860567929E+03 0.  0.
        2    1    3    3  502    0 -0.43415992401E+03 -0.16497098149E+03  0.50300150312E+03  0.68463185472E+03  0.25500000920E-02 0. -1.
       -2    1    3    3    0  502  0.43415992401E+03  0.16497098149E+03  0.12405736912E+04  0.13246634847E+04  0.25500000920E-02 0.  1.
</event>
<event>
 5   0  0.5826939E-04  0.1000439E+04  0.7818609E-02  0.9308063E-01
        1   -1    0    0  501    0  0.00000000000E+00  0.00000000000E+00  0.64615113272E+03  0.64615113274E+03  0.50400001928E-02 0.  1.
       -1   -1    0    0    0  501  0.00000000000E+00  0.00000000000E+00 -0.38724654943E+03  0.38724654947E+03  0.50400001928E-02 0. -1.
    10030    2    1    2    0    0  0.00000000000E+00  0.00000000000E+00  0.25890458328E+03  0.10333976822E+04  0.10004394966E+04 0.  0.
        1    1    3    3  502    0 -0.31902591673E+03  0.21338310436E+03 -0.20191165724E+03  0.43367983827E+03  0.50400001928E-02 0. -1.
       -1    1    3    3    0  502  0.31902591673E+03 -0.21338310436E+03  0.46081624052E+03  0.59971784393E+03  0.50400001928E-02 0.  1.
</event>
<event>
 5   0  0.5768102E-04  0.9976813E+03  0.7818609E-02  0.9311092E-01
       -1   -1    0    0    0  501  0.00000000000E+00  0.00000000000E+00  0.75627489731E+03  0.75627489733E+03  0.50400001928E-02 0.  1.
        1   -1    0    0  501    0  0.00000000000E+00  0.00000000000E+00 -0.32903645386E+03  0.32903645389E+03  0.50400001928E-02 0. -1.
    10030    2    1    2    0    0  0.00000000000E+00  0.00000000000E+00  0.42723844346E+03  0.10853113512E+04  0.99768133265E+03 0.  0.
        4    1    3    3  502    0  0.11894723951E+03 -0.26829291323E+03 -0.22518497763E+03  0.36991812624E+03  0.12699999809E+01 0. -1.
       -4    1    3    3    0  502 -0.11894723951E+03  0.26829291323E+03  0.65242342108E+03  0.71539322498E+03  0.12699999809E+01 0.  1.
</event>
<event>
 5   0  0.9674819E-04  0.9987587E+03  0.7818609E-02  0.9309907E-01
        2   -1    0    0  501    0  0.00000000000E+00  0.00000000000E+00  0.94710150797E+03  0.94710150798E+03  0.25500000920E-02 0.  1.
       -2   -1    0    0    0  501  0.00000000000E+00  0.00000000000E+00 -0.26330834126E+03  0.26330834128E+03  0.25500000920E-02 0. -1.
    10030    2    1    2    0    0  0.00000000000E+00  0.00000000000E+00  0.68379316671E+03  0.12104098493E+04  0.99875868373E+03 0.  0.
        4    1    3    3  502    0  0.38786101128E+03  0.10502319344E+03  0.70122879945E+03  0.80820138413E+03  0.12699999809E+01 0.  1.
       -4    1    3    3    0  502 -0.38786101128E+03 -0.10502319344E+03 -0.17435632743E+02  0.40220846512E+03  0.12699999809E+01 0. -1.
</event>
<event>
 5   0  0.9674819E-04  0.1000718E+04  0.7818609E-02  0.9307758E-01
       -2   -1    0    0    0  501  0.00000000000E+00  0.00000000000E+00  0.18725883122E+03  0.18725883124E+03  0.25500000920E-02 0. -1.
        2   -1    0    0  501    0  0.00000000000E+00  0.00000000000E+00 -0.13369677604E+04  0.13369677604E+04  0.25500000920E-02 0.  1.
    10030    2    1    2    0    0  0.00000000000E+00  0.00000000000E+00 -0.11497089292E+04  0.15242265917E+04  0.10007177828E+04 0.  0.
        4    1    3    3  502    0  0.44359794693E+03  0.20855025143E+03 -0.72781422353E+03  0.87748931775E+03  0.12699999809E+01 0.  1.
       -4    1    3    3    0  502 -0.44359794693E+03 -0.20855025143E+03 -0.42189470567E+03  0.64673727391E+03  0.12699999809E+01 0. -1.
</event>
<event>
 5   0  0.5888774E-04  0.9962976E+03  0.7818609E-02  0.9312615E-01
        1   -1    0    0  501    0  0.00000000000E+00  0.00000000000E+00  0.18252789182E+04  0.18252789182E+04  0.50400001928E-02 0.  1.
       -1   -1    0    0    0  501  0.00000000000E+00  0.00000000000E+00 -0.13595304885E+03  0.13595304895E+03  0.50400001928E-02 0. -1.
    10030    2    1    2    0    0  0.00000000000E+00  0.00000000000E+00  0.16893258693E+04  0.19612319672E+04  0.99629761424E+03 0.  0.
        2    1    3    3  502    0  0.15693294898E+03 -0.15346020579E+03 -0.35629379584E+02  0.22236779878E+03  0.25500000920E-02 0. -1.
       -2    1    3    3    0  502 -0.15693294898E+03  0.15346020579E+03  0.17249552489E+04  0.17388641684E+04  0.25500000920E-02 0.  1.
</event>
<event>
 5   0  0.5888774E-04  0.1000294E+04  0.7818609E-02  0.9308222E-01
       -1   -1    0    0    0  501  0.00000000000E+00  0.00000000000E+00  0.25126673192E+03  0.25126673197E+03  0.50400001928E-02 0. -1.
        1   -1    0    0  501    0  0.00000000000E+00  0.00000000000E+00 -0.99554409693E+03  0.99554409694E+03  0.50400001928E-02 0.  1.
    10030    2    1    2    0    0  0.00000000000E+00  0.00000000000E+00 -0.74427736502E+03  0.12468108289E+04  0.10002941802E+04 0.  0.
        2    1    3    3  502    0  0.43746564576E+03 -0.20318065503E+03 -0.53697375562E+03  0.72180287061E+03  0.25500000920E-02 0.  1.
       -2    1    3    3    0  502 -0.43746564576E+03  0.20318065503E+03 -0.20730360940E+03  0.52500795830E+03  0.25500000920E-02 0. -1.
</event>
<event>
 5   0  0.1006006E-03  0.9999956E+03  0.7818609E-02  0.9308550E-01
        2   -1    0    0  501    0  0.00000000000E+00  0.00000000000E+00  0.16770831663E+04  0.16770831663E+04  0.25500000920E-02 0.  1.
       -2   -1    0    0    0  501  0.00000000000E+00  0.00000000000E+00 -0.14906701266E+03  0.14906701269E+03  0.25500000920E-02 0. -1.
    10030    2    1    2    0    0  0.00000000000E+00  0.00000000000E+00  0.15280161537E+04  0.18261501790E+04  0.99999555522E+03 0.  0.
        2    1    3    3  502    0 -0.49630004380E+02  0.36642227398E+03  0.14940512906E+03  0.39881112422E+03  0.25500000920E-02 0. -1.
       -2    1    3    3    0  502  0.49630004380E+02 -0.36642227398E+03  0.13786110246E+04  0.14273390548E+04  0.25500000920E-02 0.  1.
</event>
<event>
 5   0  0.9741826E-04  0.1000331E+04  0.7818609E-02  0.9308182E-01
        2   -1    0    0  501    0  0.00000000000E+00  0.00000000000E+00  0.39164591624E+03  0.39164591625E+03  0.25500000920E-02 0.  1.
       -2   -1    0    0    0  501  0.00000000000E+00  0.00000000000E+00 -0.63875372479E+03  0.63875372480E+03  0.25500000920E-02 0. -1.
    10030    2    1    2    0    0  0.00000000000E+00  0.00000000000E+00 -0.24710780855E+03  0.10303996410E+04  0.10003305210E+04 0.  0.
        3    1    3    3  502    0 -0.46335262975E+03 -0.17781107096E+03 -0.59616834199E+02  0.49986659578E+03  0.10100000352E+00 0. -1.
       -3    1    3    3    0  502  0.46335262975E+03  0.17781107096E+03 -0.18749097435E+03  0.53053304527E+03  0.10100000352E+00 0.  1.
</event>
<event>
 5   0  0.3854625E-04  0.1016871E+04  0.7818609E-02  0.9290232E-01
       -3   -1    0    0    0  501  0.00000000000E+00  0.00000000000E+00  0.29346589549E+03  0.29346591287E+03  0.10100000352E+00 0.  1.
        3   -1    0    0  501    0  0.00000000000E+00  0.00000000000E+00 -0.88087480860E+03  0.88087481439E+03  0.10100000352E+00 0. -1.
    10030    2    1    2    0    0  0.00000000000E+00  0.00000000000E+00 -0.58740891311E+03  0.11743407273E+04  0.10168711386E+04 0.  0.
        5    1    3    3  502    0 -0.32938525780E+03 -0.35134698453E+03 -0.10554679346E+03  0.49305331071E+03  0.46999998093E+01 0.  1.
       -5    1    3    3    0  502  0.32938525780E+03  0.35134698453E+03 -0.48186211965E+03  0.68128741655E+03  0.46999998093E+01 0. -1.
</event>
<event>
 5   0  0.1006006E-03  0.9998197E+03  0.7818609E-02  0.9308743E-01
        2   -1    0    0  501    0  0.00000000000E+00  0.00000000000E+00  0.25136869995E+04  0.25136869995E+04  0.25500000920E-02 0. -1.
       -2   -1    0    0    0  501  0.00000000000E+00  0.00000000000E+00 -0.99419635190E+02  0.99419635222E+02  0.25500000920E-02 0.  1.
    10030    2    1    2    0    0  0.00000000000E+00  0.00000000000E+00  0.24142673643E+04  0.26131066347E+04  0.99981967277E+03 0.  0.
        2    1    3    3  502    0  0.22988945210E+03  0.42526022136E+03  0.15399359500E+04  0.16140316435E+04  0.25500000920E-02 0.  1.
       -2    1    3    3    0  502 -0.22988945210E+03 -0.42526022136E+03  0.87433141426E+03  0.99907499119E+03  0.25500000920E-02 0. -1.
</event>
<event>
 5   0  0.1006749E-03  0.1000529E+04  0.7818609E-02  0.9307965E-01
       -2   -1    0    0    0  501  0.00000000000E+00  0.00000000000E+00  0.28968142552E+03  0.28968142553E+03  0.25500000920E-02 0. -1.
        2   -1    0    0  501    0  0.00000000000E+00  0.00000000000E+00 -0.86393052240E+03  0.86393052241E+03  0.25500000920E-02 0.  1.
    10030    2    1    2    0    0  0.00000000000E+00  0.00000000000E+00 -0.57424909689E+03  0.11536119479E+04  0.10005291106E+04 0.  0.
        1    1    3    3  502    0  0.38580394161E+02  0.29847195841E+03  0.17363016407E+03  0.34744983907E+03  0.50400001928E-02 0. -1.
       -1    1    3    3    0  502 -0.38580394161E+02 -0.29847195841E+03 -0.74787926096E+03  0.80616210886E+03  0.50400001928E-02 0.  1.
</event>
<event>
 5   0  0.5758786E-04  0.1000441E+04  0.7818609E-02  0.9308061E-01
        1   -1    0    0  501    0  0.00000000000E+00  0.00000000000E+00  0.89085731076E+03  0.89085731077E+03  0.50400001928E-02 0.  1.
       -1   -1    0    0    0  501  0.00000000000E+00  0.00000000000E+00 -0.28087620334E+03  0.28087620338E+03  0.50400001928E-02 0. -1.
    10030    2    1    2    0    0  0.00000000000E+00  0.00000000000E+00  0.60998110742E+03  0.11717335142E+04  0.10004411411E+04 0.  0.
        3    1    3    3  502    0 -0.26196045616E+03 -0.19253063489E+03  0.75025214403E+03  0.81766106412E+03  0.10100000352E+00 0.  1.
       -3    1    3    3    0  502  0.26196045616E+03  0.19253063489E+03 -0.14027103660E+03  0.35407245003E+03  0.10100000352E+00 0. -1.
</event>
<event>
 5   0  0.1020150E-03  0.1001394E+04  0.7818609E-02  0.9307017E-01
        2   -1    0    0  501    0  0.00000000000E+00  0.00000000000E+00  0.22142478483E+04  0.22142478483E+04  0.25500000920E-02 0.  1.
       -2   -1    0    0    0  501  0.00000000000E+00  0.00000000000E+00 -0.11322026529E+03  0.11322026532E+03  0.25500000920E-02 0. -1.
    10030    2    1    2    0    0  0.00000000000E+00  0.00000000000E+00  0.21010275830E+04  0.23274681136E+04  0.10013944854E+04 0.  0.
        5    1    3    3  502    0 -0.14534842629E+03  0.40620792128E+03  0.16409982836E+04  0.16967700190E+04  0.46999998093E+01 0.  1.
       -5    1    3    3    0  502  0.14534842629E+03 -0.40620792128E+03  0.46002929939E+03  0.63069809468E+03  0.46999998093E+01 0. -1.
</event>
<event>
 5   0  0.9674819E-04  0.9958592E+03  0.7818609E-02  0.9313098E-01
        2   -1    0    0  501    0  0.00000000000E+00  0.00000000000E+00  0.90300036446E+03  0.90300036446E+03  0.25500000920E-02 0. -1.
       -2   -1    0    0    0  501  0.00000000000E+00  0.00000000000E+00 -0.27456674900E+03  0.27456674901E+03  0.25500000920E-02 0.  1.
    10030    2    1    2    0    0  0.00000000000E+00  0.00000000000E+00  0.62843361546E+03  0.11775671135E+04  0.99585917563E+03 0.  0.
        4    1    3    3  502    0  0.18690914414E+03 -0.41120873565E+03  0.66450187605E+02  0.45655765548E+03  0.12699999809E+01 0.  1.
       -4    1    3    3    0  502 -0.18690914414E+03  0.41120873565E+03  0.56198342786E+03  0.72100945800E+03  0.12699999809E+01 0. -1.
</event>
<event>
 5   0  0.1006006E-03  0.1000211E+04  0.7818609E-02  0.9308313E-01
       -2   -1    0    0    0  501  0.00000000000E+00  0.00000000000E+00  0.36838807994E+03  0.36838807994E+03  0.25500000920E-02 0.  1.
        2   -1    0    0  501    0  0.00000000000E+00  0.00000000000E+00 -0.67891882292E+03  0.67891882292E+03  0.25500000920E-02 0. -1.
    10030    2    1    2    0    0  0.00000000000E+00  0.00000000000E+00 -0.31053074298E+03  0.10473069029E+04  0.10002111809E+04 0.  0.
        2    1    3    3  502    0 -0.23183123433E+03 -0.88689182069E+02 -0.60986717287E+03  0.65844472872E+03  0.25500000920E-02 0. -1.
       -2    1    3    3    0  502  0.23183123433E+03  0.88689182069E+02  0.29933642988E+03  0.38886217415E+03  0.25500000920E-02 0.  1.
</event>
<event>
 5   0  0.5758786E-04  0.1006810E+04  0.7818609E-02  0.9301107E-01
       -1   -1    0    0    0  501  0.00000000000E+00  0.00000000000E+00  0.88523739951E+03  0.88523739952E+03  0.50400001928E-02 0.  1.
        1   -1    0    0  501    0  0.00000000000E+00  0.00000000000E+00 -0.28626953786E+03  0.28626953791E+03  0.50400001928E-02 0. -1.
    10030    2    1    2    0    0  0.00000000000E+00  0.00000000000E+00  0.59896786165E+03  0.11715069374E+04  0.10068098158E+04 0.  0.
        3    1    3    3  502    0  0.13529902839E+03 -0.44098327695E+02 -0.26237855505E+03  0.29848451541E+03  0.10100000352E+00 0. -1.
       -3    1    3    3    0  502 -0.13529902839E+03  0.44098327695E+02  0.86134641670E+03  0.87302242202E+03  0.10100000352E+00 0.  1.
</event>
<event>
 5   0  0.5960102E-04  0.1000660E+04  0.7818609E-02  0.9307821E-01
        1   -1    0    0  501    0  0.00000000000E+00  0.00000000000E+00  0.74922147638E+03  0.74922147640E+03  0.50400001928E-02 0.  1.
       -1   -1    0    0    0  501  0.00000000000E+00  0.00000000000E+00 -0.33412053770E+03  0.33412053774E+03  0.50400001928E-02 0. -1.
    10030    2    1    2    0    0  0.00000000000E+00  0.00000000000E+00  0.41510093868E+03  0.10833420141E+04  0.10006603471E+04 0.  0.
        5    1    3    3  502    0  0.14063756881E+03  0.18097929917E+03 -0.27391531254E+03  0.35718919487E+03  0.46999998093E+01 0. -1.
       -5    1    3    3    0  502 -0.14063756881E+03 -0.18097929917E+03  0.68901625122E+03  0.72615281927E+03  0.46999998093E+01 0.  1.
</event>
<event>
 5   0  0.1006749E-03  0.9994858E+03  0.7818609E-02  0.9309109E-01
       -2   -1    0    0    0  501  0.00000000000E+00  0.00000000000E+00  0.43742160018E+03  0.43742160019E+03  0.25500000920E-02 0. -1.
        2   -1    0    0  501    0  0.00000000000E+00  0.00000000000E+00 -0.57094334814E+03  0.57094334815E+03  0.25500000920E-02 0.  1.
    10030    2    1    2    0    0  0.00000000000E+00  0.00000000000E+00 -0.13352174796E+03  0.10083649483E+04  0.99948577372E+03 0.  0.
        1    1    3    3  502    0  0.41262864180E+03  0.24718540287E+03  0.70016131695E+02  0.48607126859E+03  0.50400001928E-02 0. -1.
       -1    1    3    3    0  502 -0.41262864180E+03 -0.24718540287E+03 -0.20353787965E+03  0.52229367975E+03  0.50400001928E-02 0.  1.
</event>
<event>
 5   0  0.1020150E-03  0.1001522E+04  0.7818609E-02  0.9306877E-01
       -2   -1    0    0    0  501  0.00000000000E+00  0.00000000000E+00  0.52372975765E+03  0.52372975766E+03  0.25500000920E-02 0.  1.
        2   -1    0    0  501    0  0.00000000000E+00  0.00000000000E+00 -0.47879921702E+03  0.47879921703E+03  0.25500000920E-02 0. -1.
    10030    2    1    2    0    0  0.00000000000E+00  0.00000000000E+00  0.44930540633E+02  0.10025289747E+04  0.10015216381E+04 0.  0.
        5    1    3    3  502    0 -0.43133163724E+03  0.49654778820E+02  0.27216903192E+03  0.51245551054E+03  0.46999998093E+01 0. -1.
       -5    1    3    3    0  502  0.43133163724E+03 -0.49654778820E+02 -0.22723849128E+03  0.49007346415E+03  0.46999998093E+01 0.  1.
</event>
<event>
 5   0  0.1020150E-03  0.1001373E+04  0.7818609E-02  0.9307040E-01
        2   -1    0    0  501    0  0.00000000000E+00  0.00000000000E+00  0.59754777523E+03  0.59754777523E+03  0.25500000920E-02 0.  1.
       -2   -1    0    0    0  501  0.00000000000E+00  0.00000000000E+00 -0.41952615268E+03  0.41952615268E+03  0.25500000920E-02 0. -1.
    10030    2    1    2    0    0  0.00000000000E+00  0.00000000000E+00  0.17802162255E+03  0.10170739279E+04  0.10013728960E+04 0.  0.
        5    1    3    3  502    0 -0.14784063788E+03 -0.46561958069E+03  0.20030250469E+03  0.52801669625E+03  0.46999998093E+01 0.  1.
       -5    1    3    3    0  502  0.14784063788E+03  0.46561958069E+03 -0.22280882143E+02  0.48905723166E+03  0.46999998093E+01 0. -1.
</event>
<event>
 5   0  0.5768102E-04  0.1014579E+04  0.7818609E-02  0.9292698E-01
       -1   -1    0    0    0  501  0.00000000000E+00  0.00000000000E+00  0.31836440268E+03  0.31836440272E+03  0.50400001928E-02 0.  1.
        1   -1    0    0  501    0  0.00000000000E+00  0.00000000000E+00 -0.80832739799E+03  0.80832739800E+03  0.50400001928E-02 0. -1.
    10030    2    1    2    0    0  0.00000000000E+00  0.00000000000E+00 -0.48996299531E+03  0.11266918007E+04  0.10145790640E+04 0.  0.
        4    1    3    3  502    0  0.42906972762E+01 -0.43938435526E+03 -0.52649759387E+03  0.68576843831E+03  0.12699999809E+01 0. -1.
       -4    1    3    3    0  502 -0.42906972762E+01  0.43938435526E+03  0.36534598562E+02  0.44092336241E+03  0.12699999809E+01 0.  1.
</event>
<event>
 5   0  0.5768102E-04  0.1001133E+04  0.7818609E-02  0.9307303E-01
       -1   -1    0    0    0  501  0.00000000000E+00  0.00000000000E+00  0.14954838647E+04  0.14954838647E+04  0.50400001928E-02 0.  1.
        1   -1    0    0  501    0  0.00000000000E+00  0.00000000000E+00 -0.16754893830E+03  0.16754893838E+03  0.50400001928E-02 0. -1.
    10030    2    1    2    0    0  0.00000000000E+00  0.00000000000E+00  0.13279349264E+04  0.16630328031E+04  0.10011328260E+04 0.  0.
        4    1    3    3  502    0 -0.36556704781E+03  0.33447000842E+03  0.54585427675E+03  0.73720279254E+03  0.12699999809E+01 0. -1.
       -4    1    3    3    0  502  0.36556704781E+03 -0.33447000842E+03  0.78208064961E+03  0.92583001052E+03  0.12699999809E+01 0.  1.
</event>
<event>
 5   0  0.5888774E-04  0.9965143E+03  0.7818609E-02  0.9312376E-01
        1   -1    0    0  501    0  0.00000000000E+00  0.00000000000E+00  0.46171027644E+03  0.46171027647E+03  0.50400001928E-02 0.  1.
       -1   -1    0    0    0  501  0.00000000000E+00  0.00000000000E+00 -0.53769685357E+03  0.53769685360E+03  0.50400001928E-02 0. -1.
    10030    2    1    2    0    0  0.00000000000E+00  0.00000000000E+00 -0.75986577134E+02  0.99940713007E+03  0.99651425064E+03 0.  0.
        2    1    3    3  502    0  0.16144576633E+03 -0.46146232555E+03  0.58452141904E+02  0.49237065943E+03  0.25500000920E-02 0. -1.
       -2    1    3    3    0  502 -0.16144576633E+03  0.46146232555E+03 -0.13443871904E+03  0.50703647063E+03  0.25500000920E-02 0.  1.
</event>
<event>
 5   0  0.1006749E-03  0.9990126E+03  0.7818609E-02  0.9309628E-01
        2   -1    0    0  501    0  0.00000000000E+00  0.00000000000E+00  0.26699665579E+04  0.26699665579E+04  0.25500000920E-02 0.  1.
       -2   -1    0    0    0  501  0.00000000000E+00  0.00000000000E+00 -0.93449305510E+02  0.93449305545E+02  0.25500000920E-02 0. -1.
    10030    2    1    2    0    0  0.00000000000E+00  0.00000000000E+00  0.25765172524E+04  0.27634158635E+04  0.99901255372E+03 0.  0.
        1    1    3    3  502    0  0.15233562046E+03  0.47164225749E+03  0.14599818046E+04  0.15418169250E+04  0.50400001928E-02 0. -1.
       -1    1    3    3    0  502 -0.15233562046E+03 -0.47164225749E+03  0.11165354478E+04  0.12215989385E+04  0.50400001928E-02 0.  1.
</event>
<event>
 5   0  0.1020150E-03  0.9993340E+03  0.7818609E-02  0.9309276E-01
        2   -1    0    0  501    0  0.00000000000E+00  0.00000000000E+00  0.58677341529E+03  0.58677341529E+03  0.25500000920E-02 0.  1.
       -2   -1    0    0    0  501  0.00000000000E+00  0.00000000000E+00 -0.42549152934E+03  0.42549152935E+03  0.25500000920E-02 0. -1.
    10030    2    1    2    0    0  0.00000000000E+00  0.00000000000E+00  0.16128188595E+03  0.10122649446E+04  0.99933401394E+03 0.  0.
        5    1    3    3  502    0 -0.33968031825E+03  0.26743628284E+03 -0.17307998012E+03  0.46570769104E+03  0.46999998093E+01 0. -1.
       -5    1    3    3    0  502  0.33968031825E+03 -0.26743628284E+03  0.33436186607E+03  0.54655725360E+03  0.46999998093E+01 0.  1.
</event>
<event>
 5   0  0.9741826E-04  0.1001607E+04  0.7818609E-02  0.9306784E-01
        2   -1    0    0  501    0  0.00000000000E+00  0.00000000000E+00  0.10264288158E+04  0.10264288158E+04  0.25500000920E-02 0.  1.
       -2   -1    0    0    0  501  0.00000000000E+00  0.00000000000E+00 -0.24434650992E+03  0.24434650993E+03  0.25500000920E-02 0. -1.
    10030    2    1    2    0    0  0.00000000000E+00  0.00000000000E+00  0.78208230589E+03  0.12707753257E+04  0.10016073059E+04 0.  0.
        3    1    3    3  502    0  0.34216653283E+03 -0.35533334975E+03  0.50065703526E+03  0.70284934572E+03  0.10100000352E+00 0.  1.
       -3    1    3    3    0  502 -0.34216653283E+03  0.35533334975E+03  0.28142527063E+03  0.56792598002E+03  0.10100000352E+00 0. -1.
</event>
<event>
 5   0  0.5768102E-04  0.9993747E+03  0.7818609E-02  0.9309231E-01
       -1   -1    0    0    0  501  0.00000000000E+00  0.00000000000E+00  0.66577860790E+03  0.66577860792E+03  0.50400001928E-02 0. -1.
        1   -1    0    0  501    0  0.00000000000E+00  0.00000000000E+00 -0.37503072985E+03  0.37503072988E+03  0.50400001928E-02 0.  1.
    10030    2    1    2    0    0  0.00000000000E+00  0.00000000000E+00  0.29074787805E+03  0.10408093378E+04  0.99937467902E+03 0.  0.
        4    1    3    3  502    0 -0.16712297275E+03 -0.27929762527E+03 -0.24948739567E+03  0.41010099366E+03  0.12699999809E+01 0.  1.
       -4    1    3    3    0  502  0.16712297275E+03  0.27929762527E+03  0.54023527372E+03  0.63070834414E+03  0.12699999809E+01 0. -1.
</event>
<event>
 5   0  0.1006749E-03  0.1000362E+04  0.7818609E-02  0.9308148E-01
        2   -1    0    0  501    0  0.00000000000E+00  0.00000000000E+00  0.13012563731E+03  0.13012563734E+03  0.25500000920E-02 0.  1.
       -2   -1    0    0    0  501  0.00000000000E+00  0.00000000000E+00 -0.19226100013E+04  0.19226100013E+04  0.25500000920E-02 0. -1.
    10030    2    1    2    0    0  0.00000000000E+00  0.00000000000E+00 -0.17924843640E+04  0.20527356387E+04  0.10003616381E+04 0.  0.
        1    1    3    3  502    0  0.30636247895E+03  0.12175242444E+03 -0.16681279477E+04  0.17003918582E+04  0.50400001928E-02 0. -1.
       -1    1    3    3    0  502 -0.30636247895E+03 -0.12175242444E+03 -0.12435641633E+03  0.35234378053E+03  0.50400001928E-02 0.  1.
</event>
<event>
 5   0  0.5768102E-04  0.9991058E+03  0.7818609E-02  0.9309526E-01
        1   -1    0    0  501    0  0.00000000000E+00  0.00000000000E+00  0.41499817617E+03  0.41499817620E+03  0.50400001928E-02 0. -1.
       -1   -1    0    0    0  501  0.00000000000E+00  0.00000000000E+00 -0.60133546009E+03  0.60133546011E+03  0.50400001928E-02 0.  1.
    10030    2    1    2    0    0  0.00000000000E+00  0.00000000000E+00 -0.18633728392E+03  0.10163336363E+04  0.99910583870E+03 0.  0.
        4    1    3    3  502    0 -0.32213784073E+03 -0.23699685269E+03 -0.39768173616E+03  0.56399705034E+03  0.12699999809E+01 0.  1.
       -4    1    3    3    0  502  0.32213784073E+03  0.23699685269E+03  0.21134445224E+03  0.45233658597E+03  0.12699999809E+01 0. -1.
</event>
<event>
 5   0  0.9741826E-04  0.1001729E+04  0.7818609E-02  0.9306650E-01
       -2   -1    0    0    0  501  0.00000000000E+00  0.00000000000E+00  0.10049431495E+03  0.10049431498E+03  0.25500000920E-02 0.  1.
        2   -1    0    0  501    0  0.00000000000E+00  0.00000000000E+00 -0.24963132659E+04  0.24963132659E+04  0.25500000920E-02 0. -1.
    10030    2    1    2    0    0  0.00000000000E+00  0.00000000000E+00 -0.23958189509E+04  0.25968075808E+04  0.10017290883E+04 0.  0.
        3    1    3    3  502    0  0.12103488386E+02  0.38136005530E+03 -0.35676766706E+03  0.52236497267E+03  0.10100000352E+00 0.  1.
       -3    1    3    3    0  502 -0.12103488386E+02 -0.38136005530E+03 -0.20390512839E+04  0.20744426082E+04  0.10100000352E+00 0. -1.
</event>
<event>
 5   0  0.9674819E-04  0.9964964E+03  0.7818609E-02  0.9312396E-01
        2   -1    0    0  501    0  0.00000000000E+00  0.00000000000E+00  0.52486968247E+03  0.52486968248E+03  0.25500000920E-02 0. -1.
       -2   -1    0    0    0  501  0.00000000000E+00  0.00000000000E+00 -0.47297693448E+03  0.47297693449E+03  0.25500000920E-02 0.  1.
    10030    2    1    2    0    0  0.00000000000E+00  0.00000000000E+00  0.51892747993E+02  0.99784661697E+03  0.99649636914E+03 0.  0.
        4    1    3    3  502    0  0.17765105475E+03 -0.21743337955E+03 -0.38620879818E+03  0.47748928835E+03  0.12699999809E+01 0.  1.
       -4    1    3    3    0  502 -0.17765105475E+03  0.21743337955E+03  0.43810154617E+03  0.52035732862E+03  0.12699999809E+01 0. -1.
</event>
<event>
 5   0  0.5826939E-04  0.9979567E+03  0.7818609E-02  0.9310789E-01
        1   -1    0    0  501    0  0.00000000000E+00  0.00000000000E+00  0.19163665605E+04  0.19163665605E+04  0.50400001928E-02 0.  1.
       -1   -1    0    0    0  501  0.00000000000E+00  0.00000000000E+00 -0.12992262516E+03  0.12992262526E+03  0.50400001928E-02 0. -1.
    10030    2    1    2    0    0  0.00000000000E+00  0.00000000000E+00  0.17864439354E+04  0.20462891858E+04  0.99795666121E+03 0.  0.
        1    1    3    3  502    0 -0.41550497567E+03 -0.27196934211E+03  0.79344837853E+03  0.93604061732E+03  0.50400001928E-02 0. -1.
       -1    1    3    3    0  502  0.41550497567E+03  0.27196934211E+03  0.99299555683E+03  0.11102485685E+04  0.50400001928E-02 0.  1.
</event>
<event>
 5   0  0.1006749E-03  0.9988734E+03  0.7818609E-02  0.9309781E-01
       -2   -1    0    0    0  501  0.00000000000E+00  0.00000000000E+00  0.42682032497E+03  0.42682032498E+03  0.25500000920E-02 0.  1.
        2   -1    0    0  501    0  0.00000000000E+00  0.00000000000E+00 -0.58440756767E+03  0.58440756768E+03  0.25500000920E-02 0. -1.
    10030    2    1    2    0    0  0.00000000000E+00  0.00000000000E+00 -0.15758724270E+03  0.10112278927E+04  0.99887342132E+03 0.  0.
        1    1    3    3  502    0 -0.24580743089E+03 -0.68817032528E+02 -0.51338151788E+03  0.57333904452E+03  0.50400001928E-02 0. -1.
       -1    1    3    3    0  502  0.24580743089E+03  0.68817032528E+02  0.35579427518E+03  0.43788884814E+03  0.50400001928E-02 0.  1.
</event>
<event>
 5   0  0.5960102E-04  0.1022836E+04  0.7818609E-02  0.9283847E-01
       -1   -1    0    0    0  501  0.00000000000E+00  0.00000000000E+00  0.51503331708E+03  0.51503331711E+03  0.50400001928E-02 0.  1.
        1   -1    0    0  501    0  0.00000000000E+00  0.00000000000E+00 -0.50782802485E+03  0.50782802487E+03  0.50400001928E-02 0. -1.
    10030    2    1    2    0    0  0.00000000000E+00  0.00000000000E+00  0.72052922353E+01  0.10228613420E+04  0.10228359637E+04 0.  0.
        5    1    3    3  502    0 -0.16214159360E+03 -0.19636578609E+03 -0.43989098826E+03  0.50830659043E+03  0.46999998093E+01 0. -1.
       -5    1    3    3    0  502  0.16214159360E+03  0.19636578609E+03  0.44709628049E+03  0.51455475156E+03  0.46999998093E+01 0.  1.
</event>
<event>
 5   0  0.5960102E-04  0.9983343E+03  0.7818609E-02  0.9310374E-01
       -1   -1    0    0    0  501  0.00000000000E+00  0.00000000000E+00  0.44334189163E+03  0.44334189166E+03  0.50400001928E-02 0.  1.
        1   -1    0    0  501    0  0.00000000000E+00  0.00000000000E+00 -0.56202191465E+03  0.56202191467E+03  0.50400001928E-02 0. -1.
    10030    2    1    2    0    0  0.00000000000E+00  0.00000000000E+00 -0.11868002302E+03  0.10053638063E+04  0.99833433038E+03 0.  0.
        5    1    3    3  502    0 -0.48328870483E+03  0.61170935489E+02  0.50219005508E+02  0.48974880712E+03  0.46999998093E+01 0. -1.
       -5    1    3    3    0  502  0.48328870483E+03 -0.61170935489E+02 -0.16889902853E+03  0.51561499920E+03  0.46999998093E+01 0.  1.
</event>
<event>
 5   0  0.5768102E-04  0.1000428E+04  0.7818609E-02  0.9308075E-01
       -1   -1    0    0    0  501  0.00000000000E+00  0.00000000000E+00  0.41150068785E+03  0.41150068788E+03  0.50400001928E-02 0. -1.
        1   -1    0    0  501    0  0.00000000000E+00  0.00000000000E+00 -0.60805276195E+03  0.60805276197E+03  0.50400001928E-02 0.  1.
    10030    2    1    2    0    0  0.00000000000E+00  0.00000000000E+00 -0.19655207410E+03  0.10195534499E+04  0.10004281680E+04 0.  0.
        4    1    3    3  502    0 -0.46282360261E+02  0.15764418600E+02  0.40905796046E+03  0.41197160300E+03  0.12699999809E+01 0. -1.
       -4    1    3    3    0  502  0.46282360261E+02 -0.15764418600E+02 -0.60561003456E+03  0.60758184685E+03  0.12699999809E+01 0.  1.
</event>
<event>
 5   0  0.5758786E-04  0.9995322E+03  0.7818609E-02  0.9309058E-01
        1   -1    0    0  501    0  0.00000000000E+00  0.00000000000E+00  0.23154726967E+03  0.23154726973E+03  0.50400001928E-02 0.  1.
       -1   -1    0    0    0  501  0.00000000000E+00  0.00000000000E+00 -0.10786831712E+04  0.10786831712E+04  0.50400001928E-02 0. -1.
    10030    2    1    2    0    0  0.00000000000E+00  0.00000000000E+00 -0.84713590156E+03  0.13102304410E+04  0.99953217694E+03 0.  0.
        3    1    3    3  502    0 -0.24399573251E+03  0.22395894012E+03 -0.91417141975E+03  0.97231729349E+03  0.10100000352E+00 0. -1.
       -3    1    3    3    0  502  0.24399573251E+03 -0.22395894012E+03  0.67035518186E+02  0.33791314748E+03  0.10100000352E+00 0.  1.
</event>
<event>
 5   0  0.5758786E-04  0.9989862E+03  0.7818609E-02  0.9309657E-01
        1   -1    0    0  501    0  0.00000000000E+00  0.00000000000E+00  0.67567677102E+03  0.67567677104E+03  0.50400001928E-02 0.  1.
       -1   -1    0    0    0  501  0.00000000000E+00  0.00000000000E+00 -0.36924955318E+03  0.36924955321E+03  0.50400001928E-02 0. -1.
    10030    2    1    2    0    0  0.00000000000E+00  0.00000000000E+00  0.30642721785E+03  0.10449263243E+04  0.99898617772E+03 0.  0.
        3    1    3    3  502    0 -0.32930781452E+03  0.33264292072E+03  0.33558279306E+03  0.57594337448E+03  0.10100000352E+00 0.  1.
       -3    1    3    3    0  502  0.32930781452E+03 -0.33264292072E+03 -0.29155575213E+02  0.46898294977E+03  0.10100000352E+00 0. -1.
</event>
<event>
 5   0  0.5768102E-04  0.1000120E+04  0.7818609E-02  0.9308413E-01
        1   -1    0    0  501    0  0.00000000000E+00  0.00000000000E+00  0.55868925840E+03  0.55868925842E+03  0.50400001928E-02 0.  1.
       -1   -1    0    0    0  501  0.00000000000E+00  0.00000000000E+00 -0.44758311499E+03  0.44758311502E+03  0.50400001928E-02 0. -1.
    10030    2    1    2    0    0  0.00000000000E+00  0.00000000000E+00  0.11110614341E+03  0.10062723734E+04  0.10001197501E+04 0.  0.
        4    1    3    3  502    0  0.11476009228E+03  0.37851003803E+03  0.36340683955E+03  0.53712742586E+03  0.12699999809E+01 0.  1.
       -4    1    3    3    0  502 -0.11476009228E+03 -0.37851003803E+03 -0.25230069615E+03  0.46914494759E+03  0.12699999809E+01 0. -1.
</event>
<event>
 5   0  0.5758786E-04  0.9907049E+03  0.7818609E-02  0.9318799E-01
        1   -1    0    0  501    0  0.00000000000E+00  0.00000000000E+00  0.89623460803E+03  0.89623460805E+03  0.50400001928E-02 0.  1.
       -1   -1    0    0    0  501  0.00000000000E+00  0.00000000000E+00 -0.27378327708E+03  0.27378327712E+03  0.50400001928E-02 0. -1.
    10030    2    1    2    0    0  0.00000000000E+00  0.00000000000E+00  0.62245133096E+03  0.11700178852E+04  0.99070489663E+03 0.  0.
        3    1    3    3  502    0  0.14455818010E+02 -0.28324661241E+03  0.79085581811E+03  0.84017292824E+03  0.10100000352E+00 0.  1.
       -3    1    3    3    0  502 -0.14455818010E+02  0.28324661241E+03 -0.16840448715E+03  0.32984495693E+03  0.10100000352E+00 0. -1.
</event>
<event>
 5   0  0.5826939E-04  0.1003367E+04  0.7818609E-02  0.9304860E-01
        1   -1    0    0  501    0  0.00000000000E+00  0.00000000000E+00  0.26590553480E+03  0.26590553485E+03  0.50400001928E-02 0.  1.
       -1   -1    0    0    0  501  0.00000000000E+00  0.00000000000E+00 -0.94652540935E+03  0.94652540936E+03  0.50400001928E-02 0. -1.
    10030    2    1    2    0    0  0.00000000000E+00  0.00000000000E+00 -0.68061987455E+03  0.12124309442E+04  0.10033670220E+04 0.  0.
        1    1    3    3  502    0 -0.10776832284E+03 -0.30594630120E+03 -0.80276584943E+03  0.86582339981E+03  0.50400001928E-02 0. -1.
       -1    1    3    3    0  502  0.10776832284E+03  0.30594630120E+03  0.12214597488E+03  0.34660754440E+03  0.50400001928E-02 0.  1.
</event>
<event>
 5   0  0.5960102E-04  0.1001015E+04  0.7818609E-02  0.9307433E-01
       -1   -1    0    0    0  501  0.00000000000E+00  0.00000000000E+00  0.14679681868E+03  0.14679681876E+03  0.50400001928E-02 0.  1.
        1   -1    0    0  501    0  0.00000000000E+00  0.00000000000E+00 -0.17064920573E+04  0.17064920573E+04  0.50400001928E-02 0. -1.
    10030    2    1    2    0    0  0.00000000000E+00  0.00000000000E+00 -0.15596952386E+04  0.18532888761E+04  0.10010146956E+04 0.  0.
        5    1    3    3  502    0 -0.91985867454E+02  0.46103689418E+03 -0.10976711766E+04  0.11941191396E+04  0.46999998093E+01 0.  1.
       -5    1    3    3    0  502  0.91985867454E+02 -0.46103689418E+03 -0.46202406204E+03  0.65916973649E+03  0.46999998093E+01 0. -1.
</event>
<event>
 5   0  0.9741826E-04  0.1001492E+04  0.7818609E-02  0.9306910E-01
       -2   -1    0    0    0  501  0.00000000000E+00  0.00000000000E+00  0.17072030149E+03  0.17072030151E+03  0.25500000920E-02 0.  1.
        2   -1    0    0  501    0  0.00000000000E+00  0.00000000000E+00 -0.14687553025E+04  0.14687553025E+04  0.25500000920E-02 0. -1.
    10030    2    1    2    0    0  0.00000000000E+00  0.00000000000E+00 -0.12980350010E+04  0.16394756040E+04  0.10014915837E+04 0.  0.
        3    1    3    3  502    0  0.30460701168E+03  0.16860605409E+03 -0.59837892576E+02  0.35326196601E+03  0.10100000352E+00 0.  1.
       -3    1    3    3    0  502 -0.30460701168E+03 -0.16860605409E+03 -0.12381971084E+04  0.12862136380E+04  0.10100000352E+00 0. -1.
</event>
<event>
 5   0  0.1006006E-03  0.1000178E+04  0.7818609E-02  0.9308349E-01
       -2   -1    0    0    0  501  0.00000000000E+00  0.00000000000E+00  0.25737013632E+03  0.25737013633E+03  0.25500000920E-02 0. -1.
        2   -1    0    0  501    0  0.00000000000E+00  0.00000000000E+00 -0.97170992030E+03  0.97170992030E+03  0.25500000920E-02 0.  1.
    10030    2    1    2    0    0  0.00000000000E+00  0.00000000000E+00 -0.71433978397E+03  0.12290800566E+04  0.10001782134E+04 0.  0.
        2    1    3    3  502    0  0.84138515763E+01  0.33130048004E+03 -0.81739158751E+03  0.88202029926E+03  0.25500000920E-02 0.  1.
       -2    1    3    3    0  502 -0.84138515763E+01 -0.33130048004E+03  0.10305180353E+03  0.34705975738E+03  0.25500000920E-02 0. -1.
</event>
<event>
 5   0  0.5960102E-04  0.9982787E+03  0.7818609E-02  0.9310435E-01
        1   -1    0    0  501    0  0.00000000000E+00  0.00000000000E+00  0.81988975500E+03  0.81988975501E+03  0.50400001928E-02 0. -1.
       -1   -1    0    0    0  501  0.00000000000E+00  0.00000000000E+00 -0.30387023207E+03  0.30387023211E+03  0.50400001928E-02 0.  1.
    10030    2    1    2    0    0  0.00000000000E+00  0.00000000000E+00  0.51601952293E+03  0.11237599871E+04  0.99827869887E+03 0.  0.
        5    1    3    3  502    0 -0.31128118434E+03 -0.11598517544E+03 -0.16133257901E+03  0.36932211915E+03  0.46999998093E+01 0.  1.
       -5    1    3    3    0  502  0.31128118434E+03  0.11598517544E+03  0.67735210193E+03  0.75443786798E+03  0.46999998093E+01 0. -1.
</event>
<event>
 5   0  0.9741826E-04  0.9990163E+03  0.7818609E-02  0.9309624E-01
       -2   -1    0    0    0  501  0.00000000000E+00  0.00000000000E+00  0.18284338118E+03  0.18284338120E+03  0.25500000920E-02 0.  1.
        2   -1    0    0  501    0  0.00000000000E+00  0.00000000000E+00 -0.13646016287E+04  0.13646016287E+04  0.25500000920E-02 0. -1.
    10030    2    1    2    0    0  0.00000000000E+00  0.00000000000E+00 -0.11817582475E+04  0.15474450099E+04  0.99901626769E+03 0.  0.
        3    1    3    3  502    0  0.13617952613E+03  0.47990065259E+03 -0.63063864769E+03  0.80408619803E+03  0.10100000352E+00 0. -1.
       -3    1    3    3    0  502 -0.13617952613E+03 -0.47990065259E+03 -0.55111959984E+03  0.74335881189E+03  0.10100000352E+00 0.  1.
</event>
<event>
 5   0  0.1006749E-03  0.9996241E+03  0.7818609E-02  0.9308957E-01
       -2   -1    0    0    0  501  0.00000000000E+00  0.00000000000E+00  0.62719370736E+03  0.62719370736E+03  0.25500000920E-02 0. -1.
        2   -1    0    0  501    0  0.00000000000E+00  0.00000000000E+00 -0.39830134264E+03  0.39830134265E+03  0.25500000920E-02 0.  1.
    10030    2    1    2    0    0  0.00000000000E+00  0.00000000000E+00  0.22889236472E+03  0.10254950500E+04  0.99962412085E+03 0.  0.
        1    1    3    3  502    0 -0.26061462973E+03 -0.33223457446E+03 -0.15989260108E+03  0.45151460840E+03  0.50400001928E-02 0.  1.
       -1    1    3    3    0  502  0.26061462973E+03  0.33223457446E+03  0.38878496580E+03  0.57398044161E+03  0.50400001928E-02 0. -1.
</event>
<event>
 5   0  0.9674819E-04  0.1003044E+04  0.7818609E-02  0.9305212E-01
       -2   -1    0    0    0  501  0.00000000000E+00  0.00000000000E+00  0.68510487526E+03  0.68510487526E+03  0.25500000920E-02 0.  1.
        2   -1    0    0  501    0  0.00000000000E+00  0.00000000000E+00 -0.36713275351E+03  0.36713275352E+03  0.25500000920E-02 0. -1.
    10030    2    1    2    0    0  0.00000000000E+00  0.00000000000E+00  0.31797212175E+03  0.10522376288E+04  0.10030442449E+04 0.  0.
        4    1    3    3  502    0  0.47010595746E+03 -0.11888044321E+03  0.29329097320E+03  0.56670396053E+03  0.12699999809E+01 0. -1.
       -4    1    3    3    0  502 -0.47010595746E+03  0.11888044321E+03  0.24681148548E+02  0.48553366826E+03  0.12699999809E+01 0.  1.
</event>
<event>
 5   0  0.1006006E-03  0.1007232E+04  0.7818609E-02  0.9300648E-01
        2   -1    0    0  501    0  0.00000000000E+00  0.00000000000E+00  0.83149598132E+03  0.83149598132E+03  0.25500000920E-02 0. -1.
       -2   -1    0    0    0  501  0.00000000000E+00  0.00000000000E+00 -0.30502733730E+03  0.30502733731E+03  0.25500000920E-02 0.  1.
    10030    2    1    2    0    0  0.00000000000E+00  0.00000000000E+00  0.52646864401E+03  0.11365233186E+04  0.10072318604E+04 0.  0.
        2    1    3    3  502    0  0.85976249950E+02 -0.64383445277E+02  0.81842094192E+03  0.82543926594E+03  0.25500000920E-02 0. -1.
       -2    1    3    3    0  502 -0.85976249950E+02  0.64383445277E+02 -0.29195229790E+03  0.31108405269E+03  0.25500000920E-02 0.  1.
</event>
<event>
 5   0  0.5960102E-04  0.9997523E+03  0.7818609E-02  0.9308817E-01
        1   -1    0    0  501    0  0.00000000000E+00  0.00000000000E+00  0.11232804034E+04  0.11232804034E+04  0.50400001928E-02 0. -1.
       -1   -1    0    0    0  501  0.00000000000E+00  0.00000000000E+00 -0.22245214962E+03  0.22245214968E+03  0.50400001928E-02 0.  1.
    10030    2    1    2    0    0  0.00000000000E+00  0.00000000000E+00  0.90082825381E+03  0.13457325531E+04  0.99975225015E+03 0.  0.
        5    1    3    3  502    0  0.16846792865E+03  0.19833971885E+03  0.10248768293E+04  0.10574094251E+04  0.46999998093E+01 0. -1.
       -5    1    3    3    0  502 -0.16846792865E+03 -0.19833971885E+03 -0.12404857552E+03  0.28832312800E+03  0.46999998093E+01 0.  1.
</event>
<event>
 5   0  0.1006006E-03  0.1018692E+04  0.7818609E-02  0.9288278E-01
        2   -1    0    0  501    0  0.00000000000E+00  0.00000000000E+00  0.27641236784E+04  0.27641236784E+04  0.25500000920E-02 0. -1.
       -2   -1    0    0    0  501  0.00000000000E+00  0.00000000000E+00 -0.93857405019E+02  0.93857405053E+02  0.25500000920E-02 0.  1.
    10030    2    1    2    0    0  0.00000000000E+00  0.00000000000E+00  0.26702662734E+04  0.28579810834E+04  0.10186922512E+04 0.  0.
        2    1    3    3  502    0 -0.24366927636E+03  0.60827551315E+02  0.25783345553E+04  0.25905373547E+04  0.25500000920E-02 0. -1.
       -2    1    3    3    0  502  0.24366927636E+03 -0.60827551315E+02  0.91931718104E+02  0.26744372874E+03  0.25500000920E-02 0.  1.
</event>
<event>
 5   0  0.5960102E-04  0.9984992E+03  0.7818609E-02  0.9310192E-01
       -1   -1    0    0    0  501  0.00000000000E+00  0.00000000000E+00  0.59687253773E+03  0.59687253775E+03  0.50400001928E-02 0.  1.
        1   -1    0    0  501    0  0.00000000000E+00  0.00000000000E+00 -0.41759364309E+03  0.41759364312E+03  0.50400001928E-02 0. -1.
    10030    2    1    2    0    0  0.00000000000E+00  0.00000000000E+00  0.17927889464E+03  0.10144661809E+04  0.99849922887E+03 0.  0.
        5    1    3    3  502    0  0.37835457264E+02 -0.47644876279E+02  0.59306940324E+03  0.59620043871E+03  0.46999998093E+01 0.  1.
       -5    1    3    3    0  502 -0.37835457264E+02  0.47644876279E+02 -0.41379050859E+03  0.41826574216E+03  0.46999998093E+01 0. -1.
</event>
<event>
 5   0  0.5888774E-04  0.1001158E+04  0.7818609E-02  0.9307275E-01
        1   -1    0    0  501    0  0.00000000000E+00  0.00000000000E+00  0.19090345938E+04  0.19090345938E+04  0.50400001928E-02 0. -1.
       -1   -1    0    0    0  501  0.00000000000E+00  0.00000000000E+00 -0.13125983199E+03  0.13125983209E+03  0.50400001928E-02 0.  1.
    10030    2    1    2    0    0  0.00000000000E+00  0.00000000000E+00  0.17777747618E+04  0.20402944259E+04  0.10011584493E+04 0.  0.
        2    1    3    3  502    0 -0.48920326002E+03 -0.64025726406E+02  0.71643873580E+03  0.86988711074E+03  0.25500000920E-02 0.  1.
       -2    1    3    3    0  502  0.48920326002E+03  0.64025726406E+02  0.10613360260E+04  0.11704073151E+04  0.25500000920E-02 0. -1.
</event>
<event>
 5   0  0.5888774E-04  0.9987255E+03  0.7818609E-02  0.9309944E-01
        1   -1    0    0  501    0  0.00000000000E+00  0.00000000000E+00  0.76682332264E+03  0.76682332265E+03  0.50400001928E-02 0. -1.
       -1   -1    0    0    0  501  0.00000000000E+00  0.00000000000E+00 -0.32518982704E+03  0.32518982708E+03  0.50400001928E-02 0.  1.
    10030    2    1    2    0    0  0.00000000000E+00  0.00000000000E+00  0.44163349560E+03  0.10920131497E+04  0.99872547517E+03 0.  0.
        2    1    3    3  502    0 -0.22225081026E+02 -0.19563895151E+02  0.76586266433E+03  0.76643481187E+03  0.25500000920E-02 0. -1.
       -2    1    3    3    0  502  0.22225081026E+02  0.19563895151E+02 -0.32422916873E+03  0.32557833786E+03  0.25500000920E-02 0.  1.
</event>
<event>
 5   0  0.5768102E-04  0.9997475E+03  0.7818609E-02  0.9308822E-01
       -1   -1    0    0    0  501  0.00000000000E+00  0.00000000000E+00  0.23577481894E+03  0.23577481899E+03  0.50400001928E-02 0. -1.
        1   -1    0    0  501    0  0.00000000000E+00  0.00000000000E+00 -0.10597982728E+04  0.10597982728E+04  0.50400001928E-02 0.  1.
    10030    2    1    2    0    0  0.00000000000E+00  0.00000000000E+00 -0.82402345387E+03  0.12955730918E+04  0.99974745997E+03 0.  0.
        4    1    3    3  502    0  0.39002041450E+03 -0.22544143342E+03 -0.13126942913E+03  0.46922600051E+03  0.12699999809E+01 0. -1.
       -4    1    3    3    0  502 -0.39002041450E+03  0.22544143342E+03 -0.69275402474E+03  0.82634709131E+03  0.12699999809E+01 0.  1.
</event>
<event>
 5   0  0.1006749E-03  0.9982433E+03  0.7818609E-02  0.9310474E-01
        2   -1    0    0  501    0  0.00000000000E+00  0.00000000000E+00  0.72958070966E+03  0.72958070966E+03  0.25500000920E-02 0.  1.
       -2   -1    0    0    0  501  0.00000000000E+00  0.00000000000E+00 -0.34145971135E+03  0.34145971136E+03  0.25500000920E-02 0. -1.
    10030    2    1    2    0    0  0.00000000000E+00  0.00000000000E+00  0.38812099831E+03  0.10710404210E+04  0.99824329406E+03 0.  0.
        1    1    3    3  502    0  0.12592669599E+03 -0.40426730340E+03  0.47759067742E+03  0.63826518043E+03  0.50400001928E-02 0.  1.
       -1    1    3    3    0  502 -0.12592669599E+03  0.40426730340E+03 -0.89469679109E+02  0.43277524059E+03  0.50400001928E-02 0. -1.
</event>
<event>
 5   0  0.9674819E-04  0.9998450E+03  0.7818609E-02  0.9308715E-01
        2   -1    0    0  501    0  0.00000000000E+00  0.00000000000E+00  0.91950018185E+03  0.91950018185E+03  0.25500000920E-02 0. -1.
       -2   -1    0    0    0  501  0.00000000000E+00  0.00000000000E+00 -0.27180258076E+03  0.27180258078E+03  0.25500000920E-02 0.  1.
    10030    2    1    2    0    0  0.00000000000E+00  0.00000000000E+00  0.64769760109E+03  0.11913027626E+04  0.99984503289E+03 0.  0.
        4    1    3    3  502    0 -0.21210875369E+03  0.44609397109E+03  0.23208914511E+03  0.54576271274E+03  0.12699999809E+01 0.  1.
       -4    1    3    3    0  502  0.21210875369E+03 -0.44609397109E+03  0.41560845598E+03  0.64554004989E+03  0.12699999809E+01 0. -1.
</event>
<event>
 5   0  0.5758786E-04  0.9841879E+03  0.7818609E-02  0.9326059E-01
       -1   -1    0    0    0  501  0.00000000000E+00  0.00000000000E+00  0.37634473163E+03  0.37634473166E+03  0.50400001928E-02 0.  1.
        1   -1    0    0  501    0  0.00000000000E+00  0.00000000000E+00 -0.64344321944E+03  0.64344321946E+03  0.50400001928E-02 0. -1.
    10030    2    1    2    0    0  0.00000000000E+00  0.00000000000E+00 -0.26709848781E+03  0.10197879511E+04  0.98418792061E+03 0.  0.
        3    1    3    3  502    0 -0.14824742465E+03 -0.41358816082E+03 -0.36320570202E+03  0.57004461042E+03  0.10100000352E+00 0. -1.
       -3    1    3    3    0  502  0.14824742465E+03  0.41358816082E+03  0.96107214212E+02  0.44974334071E+03  0.10100000352E+00 0.  1.
</event>
<event>
 5   0  0.9741826E-04  0.1002352E+04  0.7818609E-02  0.9305969E-01
       -2   -1    0    0    0  501  0.00000000000E+00  0.00000000000E+00  0.25125951564E+03  0.25125951565E+03  0.25500000920E-02 0. -1.
        2   -1    0    0  501    0  0.00000000000E+00  0.00000000000E+00 -0.99967304017E+03  0.99967304017E+03  0.25500000920E-02 0.  1.
    10030    2    1    2    0    0  0.00000000000E+00  0.00000000000E+00 -0.74841352453E+03  0.12509325558E+04  0.10023519619E+04 0.  0.
        3    1    3    3  502    0  0.92003712998E+02  0.13626685800E+03  0.21664321473E+03  0.27196991099E+03  0.10100000352E+00 0. -1.
       -3    1    3    3    0  502 -0.92003712998E+02 -0.13626685800E+03 -0.96505673926E+03  0.97896264484E+03  0.10100000352E+00 0.  1.
</event>
<event>
 5   0  0.5758786E-04  0.9992970E+03  0.7818609E-02  0.9309316E-01
        1   -1    0    0  501    0  0.00000000000E+00  0.00000000000E+00  0.66427366665E+03  0.66427366667E+03  0.50400001928E-02 0.  1.
       -1   -1    0    0    0  501  0.00000000000E+00  0.00000000000E+00 -0.37582195061E+03  0.37582195064E+03  0.50400001928E-02 0. -1.
    10030    2    1    2    0    0  0.00000000000E+00  0.00000000000E+00  0.28845171604E+03  0.10400956173E+04  0.99929700323E+03 0.  0.
        3    1    3    3  502    0 -0.20233752485E+03  0.29599807790E+03 -0.21796601463E+03  0.41960044068E+03  0.10100000352E+00 0. -1.
       -3    1    3    3    0  502  0.20233752485E+03 -0.29599807790E+03  0.50641773067E+03  0.62049517663E+03  0.10100000352E+00 0.  1.
</event>
<event>
 5   0  0.5888774E-04  0.9921230E+03  0.7818609E-02  0.9317227E-01
       -1   -1    0    0    0  501  0.00000000000E+00  0.00000000000E+00  0.69315869662E+03  0.69315869663E+03  0.50400001928E-02 0.  1.
        1   -1    0    0  501    0  0.00000000000E+00  0.00000000000E+00 -0.35500815169E+03  0.35500815173E+03  0.50400001928E-02 0. -1.
    10030    2    1    2    0    0  0.00000000000E+00  0.00000000000E+00  0.33815054493E+03  0.10481668484E+04  0.99212295154E+03 0.  0.
        2    1    3    3  502    0  0.21547723583E+03 -0.44510084849E+03  0.12772640858E+03  0.51074381048E+03  0.25500000920E-02 0.  1.
       -2    1    3    3    0  502 -0.21547723583E+03  0.44510084849E+03  0.21042413635E+03  0.53742303789E+03  0.25500000920E-02 0. -1.
</event>
<event>
 5   0  0.1006006E-03  0.1000477E+04  0.7818609E-02  0.9308022E-01
        2   -1    0    0  501    0  0.00000000000E+00  0.00000000000E+00  0.15111121193E+04  0.15111121193E+04  0.25500000920E-02 0. -1.
       -2   -1    0    0    0  501  0.00000000000E+00  0.00000000000E+00 -0.16559889925E+03  0.16559889927E+03  0.25500000920E-02 0.  1.
    10030    2    1    2    0    0  0.00000000000E+00  0.00000000000E+00  0.13455132201E+04  0.16767110186E+04  0.10004768935E+04 0.  0.
        2    1    3    3  502    0  0.38393154475E+03  0.18028586885E+02  0.12093364634E+04  0.12689456816E+04  0.25500000920E-02 0. -1.
       -2    1    3    3    0  502 -0.38393154475E+03 -0.18028586885E+02  0.13617675661E+03  0.40776533699E+03  0.25500000920E-02 0.  1.
</event>
<event>
 5   0  0.5960102E-04  0.1001691E+04  0.7818609E-02  0.9306692E-01
        1   -1    0    0  501    0  0.00000000000E+00  0.00000000000E+00  0.45797931959E+03  0.45797931961E+03  0.50400001928E-02 0.  1.
       -1   -1    0    0    0  501  0.00000000000E+00  0.00000000000E+00 -0.54772427608E+03  0.54772427611E+03  0.50400001928E-02 0. -1.
    10030    2    1    2    0    0  0.00000000000E+00  0.00000000000E+00 -0.89744956496E+02  0.10057035957E+04  0.10016913523E+04 0.  0.
        5    1    3    3  502    0  0.75491122595E+02  0.26886071074E+02  0.45147855223E+03  0.45855942203E+03  0.46999998093E+01 0.  1.
       -5    1    3    3    0  502 -0.75491122595E+02 -0.26886071074E+02 -0.54122350873E+03  0.54714417369E+03  0.46999998093E+01 0. -1.
</event>
<event>
 5   0  0.5826939E-04  0.1002919E+04  0.7818609E-02  0.9305349E-01
       -1   -1    0    0    0  501  0.00000000000E+00  0.00000000000E+00  0.73734750837E+03  0.73734750839E+03  0.50400001928E-02 0.  1.
        1   -1    0    0  501    0  0.00000000000E+00  0.00000000000E+00 -0.34103571695E+03  0.34103571699E+03  0.50400001928E-02 0. -1.
    10030    2    1    2    0    0  0.00000000000E+00  0.00000000000E+00  0.39631179142E+03  0.10783832254E+04  0.10029194109E+04 0.  0.
        1    1    3    3  502    0  0.27953543019E+03  0.17010007405E+03  0.60673133140E+03  0.68934534193E+03  0.50400001928E-02 0.  1.
       -1    1    3    3    0  502 -0.27953543019E+03 -0.17010007405E+03 -0.21041953997E+03  0.38903788344E+03  0.50400001928E-02 0. -1.
</event>
<event>
 5   0  0.9674819E-04  0.9998299E+03  0.7818609E-02  0.9308731E-01
        2   -1    0    0  501    0  0.00000000000E+00  0.00000000000E+00  0.24429757458E+04  0.24429757458E+04  0.25500000920E-02 0. -1.
       -2   -1    0    0    0  501  0.00000000000E+00  0.00000000000E+00 -0.10229940235E+03  0.10229940238E+03  0.25500000920E-02 0.  1.
    10030    2    1    2    0    0  0.00000000000E+00  0.00000000000E+00  0.23406763434E+04  0.25452751481E+04  0.99982990309E+03 0.  0.
        4    1    3    3  502    0  0.17743131550E+03 -0.43116294231E+03  0.16294839435E+04  0.16948754791E+04  0.12699999809E+01 0. -1.
       -4    1    3    3    0  502 -0.17743131550E+03  0.43116294231E+03  0.71119239987E+03  0.85039966902E+03  0.12699999809E+01 0.  1.
</event>
<event>
 5   0  0.5826939E-04  0.9996349E+03  0.7818609E-02  0.9308945E-01
        1   -1    0    0  501    0  0.00000000000E+00  0.00000000000E+00  0.11562029737E+04  0.11562029737E+04  0.50400001928E-02 0. -1.
       -1   -1    0    0    0  501  0.00000000000E+00  0.00000000000E+00 -0.21606715034E+03  0.21606715040E+03  0.50400001928E-02 0.  1.
    10030    2    1    2    0    0  0.00000000000E+00  0.00000000000E+00  0.94013582334E+03  0.13722701241E+04  0.99963489693E+03 0.  0.
        1    1    3    3  502    0 -0.45597196404E+03 -0.97787714536E+02  0.71695545422E+03  0.85527655905E+03  0.50400001928E-02 0. -1.
       -1    1    3    3    0  502  0.45597196404E+03  0.97787714536E+02  0.22318036912E+03  0.51699356504E+03  0.50400001928E-02 0.  1.
</event>
<event>
 5   0  0.9674819E-04  0.9990228E+03  0.7818609E-02  0.9309617E-01
       -2   -1    0    0    0  501  0.00000000000E+00  0.00000000000E+00  0.10292166004E+03  0.10292166007E+03  0.25500000920E-02 0. -1.
        2   -1    0    0  501    0  0.00000000000E+00  0.00000000000E+00 -0.24242870068E+04  0.24242870068E+04  0.25500000920E-02 0.  1.
    10030    2    1    2    0    0  0.00000000000E+00  0.00000000000E+00 -0.23213653468E+04  0.25272086669E+04  0.99902280895E+03 0.  0.
        4    1    3    3  502    0 -0.12913785361E+03  0.30374571154E+03 -0.21223125247E+03  0.39240509673E+03  0.12699999809E+01 0. -1.
       -4    1    3    3    0  502  0.12913785361E+03 -0.30374571154E+03 -0.21091340943E+04  0.21348035702E+04  0.12699999809E+01 0.  1.
</event>
<event>
 5   0  0.1020150E-03  0.1000593E+04  0.7818609E-02  0.9307894E-01
       -2   -1    0    0    0  501  0.00000000000E+00  0.00000000000E+00  0.14914361810E+03  0.14914361812E+03  0.25500000920E-02 0.  1.
        2   -1    0    0  501    0  0.00000000000E+00  0.00000000000E+00 -0.16782269177E+04  0.16782269177E+04  0.25500000920E-02 0. -1.
    10030    2    1    2    0    0  0.00000000000E+00  0.00000000000E+00 -0.15290832996E+04  0.18273705358E+04  0.10005934929E+04 0.  0.
        5    1    3    3  502    0  0.88159804121E+02  0.28874770959E+03 -0.36021842405E+02  0.30408395877E+03  0.46999998093E+01 0.  1.
       -5    1    3    3    0  502 -0.88159804121E+02 -0.28874770959E+03 -0.14930614572E+04  0.15232865771E+04  0.46999998093E+01 0. -1.
</event>
<event>
 5   0  0.5768102E-04  0.9944734E+03  0.7818609E-02  0.9314627E-01
        1   -1    0    0  501    0  0.00000000000E+00  0.00000000000E+00  0.15033397572E+04  0.15033397572E+04  0.50400001928E-02 0. -1.
       -1   -1    0    0    0  501  0.00000000000E+00  0.00000000000E+00 -0.16446338052E+03  0.16446338060E+03  0.50400001928E-02 0.  1.
    10030    2    1    2    0    0  0.00000000000E+00  0.00000000000E+00  0.13388763767E+04  0.16678031378E+04  0.99447340562E+03 0.  0.
        4    1    3    3  502    0  0.19261576450E+03 -0.29783701620E+03  0.12538561566E+04  0.13030597052E+04  0.12699999809E+01 0. -1.
       -4    1    3    3    0  502 -0.19261576450E+03  0.29783701620E+03  0.85020220145E+02  0.36474343269E+03  0.12699999809E+01 0.  1.
</event>
<event>
 5   0  0.1020150E-03  0.9995525E+03  0.7818609E-02  0.9309036E-01
       -2   -1    0    0    0  501  0.00000000000E+00  0.00000000000E+00  0.47444384357E+03  0.47444384358E+03  0.25500000920E-02 0. -1.
        2   -1    0    0  501    0  0.00000000000E+00  0.00000000000E+00 -0.52646120011E+03  0.52646120011E+03  0.25500000920E-02 0.  1.
    10030    2    1    2    0    0  0.00000000000E+00  0.00000000000E+00 -0.52017356537E+02  0.10009050437E+04  0.99955245040E+03 0.  0.
        5    1    3    3  502    0  0.37941272888E+02  0.45212317817E+03  0.18379638875E+03  0.48954888514E+03  0.46999998093E+01 0. -1.
       -5    1    3    3    0  502 -0.37941272888E+02 -0.45212317817E+03 -0.23581374529E+03  0.51135615855E+03  0.46999998093E+01 0.  1.
</event>
<event>
 5   0  0.3854625E-04  0.9987286E+03  0.7818609E-02  0.9309940E-01
        4   -1    0    0  501    0  0.00000000000E+00  0.00000000000E+00  0.40327688535E+03  0.40327888509E+03  0.12699999809E+01 0.  1.
       -4   -1    0    0    0  501  0.00000000000E+00  0.00000000000E+00 -0.61834195493E+03  0.61834325914E+03  0.12699999809E+01 0. -1.
    10030    2    1    2    0    0  0.00000000000E+00  0.00000000000E+00 -0.21506506958E+03  0.10216221442E+04  0.99872860249E+03 0.  0.
        5    1    3    3  502    0  0.14865544678E+02 -0.39349159280E+03  0.20656636112E+03  0.44468907066E+03  0.46999998093E+01 0.  1.
       -5    1    3    3    0  502 -0.14865544678E+02  0.39349159280E+03 -0.42163143070E+03  0.57693307357E+03  0.46999998093E+01 0. -1.
</event>
<event>
 5   0  0.1006006E-03  0.9996748E+03  0.7818609E-02  0.9308902E-01
        2   -1    0    0  501    0  0.00000000000E+00  0.00000000000E+00  0.10370776692E+04  0.10370776692E+04  0.25500000920E-02 0.  1.
       -2   -1    0    0    0  501  0.00000000000E+00  0.00000000000E+00 -0.24090522596E+03  0.24090522597E+03  0.25500000920E-02 0. -1.
    10030    2    1    2    0    0  0.00000000000E+00  0.00000000000E+00  0.79617244325E+03  0.12779828952E+04  0.99967480762E+03 0.  0.
        2    1    3    3  502    0 -0.17270506923E+03  0.25051281660E+03 -0.10886567783E+03  0.32316473823E+03  0.25500000920E-02 0. -1.
       -2    1    3    3    0  502  0.17270506923E+03 -0.25051281660E+03  0.90503812108E+03  0.95481815695E+03  0.25500000920E-02 0.  1.
</event>
<event>
 5   0  0.5960102E-04  0.9984506E+03  0.7818609E-02  0.9310246E-01
        1   -1    0    0  501    0  0.00000000000E+00  0.00000000000E+00  0.80758603586E+03  0.80758603588E+03  0.50400001928E-02 0.  1.
       -1   -1    0    0    0  501  0.00000000000E+00  0.00000000000E+00 -0.30860603179E+03  0.30860603183E+03  0.50400001928E-02 0. -1.
    10030    2    1    2    0    0  0.00000000000E+00  0.00000000000E+00  0.49898000408E+03  0.11161920677E+04  0.99845064352E+03 0.  0.
        5    1    3    3  502    0  0.97745318161E+02 -0.30471273182E+03  0.67781667066E+03  0.74957422926E+03  0.46999998093E+01 0.  1.
       -5    1    3    3    0  502 -0.97745318161E+02  0.30471273182E+03 -0.17883666658E+03  0.36661783845E+03  0.46999998093E+01 0. -1.
</event>
</LesHouchesEvents>
